/*--------------------------------*- C++ -*----------------------------------*\
| =========                 |                                                 |
| \\      /  F ield         | OpenFOAM: The Open Source CFD Toolbox           |
|  \\    /   O peration     | Version:  2.3.0                                 |
|   \\  /    A nd           | Web:      www.OpenFOAM.org                      |
|    \\/     M anipulation  |                                                 |
\*---------------------------------------------------------------------------*/
FoamFile
{
    version     2.0;
    format      ascii;
    class       volScalarField;
    location    "10000";
    object      nuTilda;
}
// * * * * * * * * * * * * * * * * * * * * * * * * * * * * * * * * * * * * * //

dimensions      [0 2 -1 0 0 0 0];

internalField   nonuniform List<scalar> 
123323
(
0.0391173
0.037861
0.0366207
0.0353988
0.0341958
0.0330118
0.0318472
0.030702
0.0295761
0.0284697
0.027383
0.0263152
0.0252669
0.0242371
0.0232259
0.0222337
0.0212592
0.0203027
0.0193643
0.0184434
0.0175398
0.0166529
0.0157827
0.0149293
0.0140928
0.013272
0.0124678
0.0116795
0.0109073
0.0101512
0.00941183
0.00868919
0.00798391
0.00729595
0.00662804
0.00598176
0.00535937
0.00476469
0.00420253
0.00368028
0.00319749
0.00273003
0.00207161
0.039775
0.0386378
0.0375133
0.0364037
0.0353086
0.0342286
0.0331641
0.0321145
0.0310797
0.0300602
0.0290558
0.0280666
0.0270915
0.0261306
0.0251842
0.0242521
0.0233331
0.022428
0.0215365
0.0206582
0.0197927
0.0189405
0.0181014
0.0172752
0.0164618
0.0156618
0.0148755
0.0141026
0.0133436
0.0126001
0.0118735
0.0111634
0.0104715
0.00980083
0.00915438
0.00853524
0.00794704
0.00739396
0.00688355
0.00642245
0.00601522
0.00566765
0.00538596
0.0403991
0.039368
0.0383464
0.0373366
0.0363382
0.0353509
0.0343752
0.0334106
0.0324574
0.0315154
0.0305855
0.0296664
0.028758
0.0278603
0.0269732
0.0260968
0.0252301
0.0243734
0.0235264
0.02269
0.021863
0.021046
0.0202393
0.0194421
0.0186556
0.0178805
0.0171163
0.0163646
0.0156258
0.0149007
0.0141919
0.0135002
0.0128278
0.0121769
0.0115515
0.0109549
0.0103903
0.00986314
0.00937861
0.00894046
0.00855335
0.00822246
0.00795005
0.0409854
0.0400511
0.0391218
0.038201
0.0372878
0.0363827
0.0354854
0.0345966
0.0337154
0.0328427
0.0319779
0.0311207
0.0302719
0.0294302
0.0285961
0.027769
0.0269492
0.026136
0.0253299
0.024531
0.0237387
0.0229539
0.0221763
0.0214063
0.0206451
0.0198923
0.0191489
0.0184163
0.017695
0.0169861
0.0162925
0.0156163
0.0149583
0.0143216
0.0137099
0.0131269
0.0125752
0.0120607
0.0115869
0.0111575
0.0107756
0.0104463
0.0101695
0.0415412
0.0406896
0.039842
0.0389992
0.0381614
0.0373287
0.0365011
0.0356784
0.0348611
0.0340489
0.0332411
0.0324392
0.0316419
0.0308497
0.0300621
0.0292792
0.0285009
0.0277262
0.0269559
0.02619
0.0254285
0.024672
0.0239202
0.0231744
0.0224347
0.0217017
0.0209758
0.0202592
0.0195527
0.0188582
0.0181772
0.0175116
0.0168643
0.0162373
0.0156347
0.0150602
0.0145159
0.0140078
0.0135387
0.0131111
0.0127301
0.0123981
0.0121163
0.0420607
0.0412829
0.0405073
0.039734
0.0389632
0.0381945
0.037428
0.0366637
0.0359018
0.035142
0.0343851
0.0336308
0.0328793
0.0321301
0.0313835
0.0306395
0.0298971
0.0291559
0.0284172
0.0276805
0.0269459
0.0262138
0.0254844
0.0247587
0.0240377
0.0233215
0.0226114
0.0219081
0.0212139
0.0205298
0.019858
0.0192008
0.0185611
0.0179416
0.0173458
0.0167761
0.0162364
0.0157309
0.0152626
0.0148352
0.0144525
0.0141169
0.0138295
0.0425439
0.0418323
0.0411205
0.040409
0.039697
0.0389849
0.0382726
0.0375596
0.0368458
0.0361325
0.0354191
0.0347067
0.0339948
0.0332829
0.0325719
0.0318615
0.0311509
0.0304397
0.0297284
0.0290174
0.0283066
0.0275957
0.0268853
0.0261773
0.025472
0.0247704
0.0240734
0.0233815
0.0226967
0.0220207
0.021356
0.0207053
0.020071
0.0194573
0.0188657
0.0182997
0.0177625
0.0172582
0.0167898
0.0163616
0.0159757
0.0156352
0.0153428
0.0429919
0.0423399
0.0416839
0.0410273
0.0403676
0.0397047
0.0390409
0.0383738
0.0377023
0.037029
0.0363532
0.0356777
0.035
0.0343193
0.0336388
0.0329587
0.0322775
0.0315928
0.0309041
0.030216
0.0295262
0.0288344
0.0281409
0.0274475
0.0267551
0.0260664
0.0253808
0.0246985
0.024021
0.0233519
0.022693
0.0220458
0.021415
0.0208051
0.0202178
0.0196541
0.0191189
0.0186154
0.0181462
0.017716
0.0173252
0.0169815
0.016684
0.0434065
0.0428106
0.0422002
0.0415948
0.0409799
0.0403587
0.0397368
0.0391135
0.0384776
0.0378398
0.0371945
0.0365512
0.0359047
0.0352499
0.0345941
0.0339392
0.0332849
0.0326278
0.0319549
0.0312886
0.0306166
0.0299435
0.0292631
0.0285838
0.0279009
0.0272229
0.0265483
0.0258771
0.0252032
0.0245389
0.0238846
0.0232389
0.0226087
0.0220004
0.0214188
0.0208563
0.0203229
0.0198204
0.0193498
0.0189197
0.0185213
0.018178
0.0178708
0.00173472
0.00186801
0.00207999
0.00231314
0.0025574
0.00280973
0.00306986
0.0033382
0.00361737
0.00390688
0.00420879
0.00452106
0.0048436
0.00517649
0.00551795
0.00586842
0.00622805
0.0065961
0.00697346
0.00736086
0.00775765
0.00816516
0.00858391
0.00901444
0.00945714
0.00991496
0.0103885
0.0108796
0.0113886
0.0119163
0.0124622
0.0130255
0.0136056
0.0142013
0.0148135
0.015445
0.016101
0.0167834
0.017491
0.0182228
0.0189794
0.0197607
0.0205656
0.00517522
0.00503443
0.00496052
0.00494364
0.004979
0.0050623
0.00519126
0.00537016
0.00559378
0.0058512
0.00613113
0.00642717
0.00673535
0.00705411
0.00738257
0.00771995
0.00806718
0.00842379
0.00878977
0.0091654
0.00955038
0.00994595
0.0103513
0.0107676
0.0111989
0.0116449
0.0121077
0.0125881
0.0130851
0.0135979
0.0141258
0.0146685
0.0152253
0.0157965
0.016382
0.0169834
0.0176017
0.018238
0.0188922
0.0195649
0.0202566
0.0209677
0.0216983
0.00773238
0.00757009
0.00745933
0.00740212
0.0073944
0.00743286
0.00751488
0.00763633
0.00779397
0.00798287
0.00819997
0.00844041
0.00870362
0.00898583
0.00928514
0.0096007
0.00993119
0.0102744
0.0106309
0.0109995
0.0113793
0.0117701
0.0121721
0.0125863
0.0130105
0.0134473
0.013896
0.0143566
0.0148291
0.0153134
0.0158096
0.0163176
0.0168369
0.017368
0.0179115
0.0184683
0.0190381
0.0196221
0.0202204
0.0208335
0.0214619
0.0221058
0.0227656
0.00994563
0.00977117
0.00964701
0.00957239
0.00954421
0.00956132
0.00962049
0.00971794
0.00984959
0.010014
0.0102059
0.0104233
0.010664
0.0109251
0.0112053
0.0115026
0.0118145
0.0121419
0.012481
0.0128331
0.0131963
0.0135708
0.0139553
0.0143497
0.0147546
0.0151696
0.0155936
0.0160279
0.0164717
0.0169251
0.0173877
0.0178602
0.0183416
0.0188333
0.0193354
0.0198476
0.0203711
0.0209058
0.0214521
0.0220101
0.0225802
0.023163
0.0237587
0.0118849
0.0117018
0.0115679
0.0114813
0.0114415
0.0114457
0.0114911
0.0115736
0.0116918
0.0118416
0.0120191
0.0122227
0.0124497
0.0126974
0.0129642
0.0132476
0.0135466
0.0138588
0.0141842
0.0145208
0.0148682
0.0152252
0.0155921
0.0159677
0.0163524
0.0167454
0.0171465
0.0175558
0.0179729
0.0183977
0.01883
0.0192697
0.0197174
0.0201733
0.0206375
0.0211104
0.021592
0.0220827
0.0225821
0.0230909
0.0236091
0.0241368
0.0246742
0.0135912
0.0134018
0.01326
0.0131653
0.013117
0.0131123
0.013148
0.0132216
0.0133304
0.0134702
0.0136387
0.0138328
0.0140502
0.0142882
0.0145453
0.0148182
0.0151061
0.0154073
0.0157202
0.0160436
0.0163764
0.0167184
0.0170693
0.0174283
0.0177951
0.0181688
0.0185493
0.0189368
0.0193302
0.0197298
0.0201351
0.0205463
0.0209642
0.0213887
0.0218204
0.0222588
0.0227037
0.0231552
0.0236138
0.0240789
0.024551
0.0250298
0.0255151
0.0151001
0.0149043
0.0147559
0.0146543
0.0145996
0.0145882
0.0146173
0.0146847
0.0147869
0.0149204
0.0150826
0.0152701
0.0154799
0.0157107
0.0159593
0.0162242
0.0165041
0.0167956
0.0170975
0.0174079
0.0177285
0.018058
0.0183951
0.0187396
0.0190914
0.0194485
0.0198111
0.0201792
0.0205525
0.0209296
0.021311
0.0216978
0.0220905
0.0224884
0.0228918
0.0233001
0.0237128
0.0241302
0.0245527
0.0249796
0.0254109
0.0258468
0.0262878
0.0164368
0.0162359
0.0160817
0.0159751
0.0159148
0.0158981
0.015923
0.0159859
0.0160843
0.0162134
0.0163704
0.016552
0.0167566
0.0169805
0.0172238
0.0174821
0.0177562
0.0180382
0.0183279
0.0186279
0.0189391
0.0192576
0.019583
0.0199154
0.0202555
0.0205964
0.0209431
0.0212962
0.0216512
0.022008
0.0223687
0.0227351
0.0231069
0.0234819
0.023861
0.0242429
0.0246269
0.0250145
0.025406
0.0257992
0.0261946
0.0265927
0.0269948
0.0176251
0.0174187
0.0172611
0.0171493
0.0170844
0.0170643
0.0170854
0.0171456
0.0172436
0.0173665
0.0175191
0.0176973
0.0178956
0.0181137
0.0183558
0.0186051
0.0188808
0.0191447
0.0194229
0.0197151
0.0200235
0.0203305
0.020645
0.0209687
0.0213028
0.0216199
0.0219582
0.0222986
0.0226343
0.0229718
0.0233159
0.0236679
0.0240245
0.0243775
0.0247376
0.0250957
0.0254538
0.0258163
0.0261819
0.0265446
0.0269092
0.0272747
0.0276465
0.0102073
0.00959972
0.00901983
0.00846687
0.00794002
0.00743838
0.00696104
0.0065071
0.0060758
0.00566645
0.00527833
0.00491069
0.00456279
0.00423393
0.00392358
0.00363125
0.00335665
0.00309979
0.0028611
0.00264166
0.00244366
0.00227028
0.00211874
0.00198378
0.00186135
0.00174861
0.00164352
0.00154446
0.00145008
0.00135928
0.001271
0.00118427
0.00109823
0.00101207
0.00092498
0.000836239
0.000745201
0.00065132
0.000554204
0.000453978
0.00035215
0.000252735
0.000164267
0.0101719
0.0096106
0.00907206
0.00855618
0.00806241
0.0075901
0.00713852
0.00670695
0.00629474
0.00590134
0.00552621
0.00516874
0.00482835
0.0045045
0.00419668
0.0039045
0.0036277
0.00336615
0.00312002
0.00288988
0.00267709
0.00248415
0.00231331
0.00216154
0.00202477
0.00189986
0.00178442
0.00167653
0.0015746
0.00147728
0.00138332
0.00129165
0.00120125
0.00111115
0.00102043
0.000928226
0.000833783
0.000736456
0.000636012
0.000533356
0.000433302
0.000356201
0.000372276
0.0101441
0.00962557
0.00912634
0.00864605
0.00818417
0.00774014
0.00731341
0.00690344
0.00650973
0.00613183
0.00576932
0.0054218
0.00508883
0.00476997
0.00446487
0.00417321
0.00389475
0.00362933
0.00337705
0.00313822
0.00291364
0.00270503
0.0025155
0.00234616
0.00219348
0.00205436
0.00192645
0.00180772
0.00169645
0.00159106
0.00149013
0.00139239
0.00129664
0.00120178
0.0011067
0.00101038
0.000911916
0.000810622
0.000706598
0.000602763
0.000513134
0.000491737
0.000621615
0.0101279
0.0096429
0.00917812
0.00873001
0.00829731
0.00787936
0.00747563
0.00708572
0.00670927
0.00634589
0.00599531
0.00565726
0.00533143
0.00501755
0.00471535
0.00442458
0.00414509
0.00387677
0.00361965
0.00337396
0.00314022
0.00291964
0.00271465
0.00252863
0.00236019
0.00220637
0.00206498
0.0019342
0.00181232
0.00169769
0.00158878
0.00148411
0.00138234
0.00128215
0.00118228
0.00108153
0.000978851
0.000873597
0.000766639
0.000664871
0.000599345
0.000658784
0.000882811
0.0101037
0.00965802
0.00922601
0.00880734
0.00840121
0.00800704
0.00762438
0.00725294
0.00689238
0.00654248
0.00620304
0.00587389
0.00555491
0.00524588
0.00494664
0.00465704
0.004377
0.00410646
0.00384549
0.00359426
0.00335319
0.00312318
0.00290598
0.002705
0.00252187
0.00235385
0.00219893
0.00205559
0.00192238
0.00179774
0.00168009
0.00156789
0.00145956
0.00135364
0.0012487
0.00114337
0.0010365
0.000927564
0.000818746
0.000723436
0.000696012
0.000843197
0.00113811
0.010081
0.00967085
0.00926963
0.00887815
0.00849633
0.0081239
0.00776058
0.00740602
0.00706005
0.00672257
0.00639345
0.00607265
0.00576011
0.00545575
0.00515946
0.00487118
0.00459089
0.00431862
0.00405448
0.00379865
0.00355153
0.00331376
0.00308673
0.00287316
0.0026766
0.00249538
0.00232751
0.00217177
0.00202701
0.00189195
0.00176512
0.00164491
0.00152967
0.00141779
0.00130764
0.00119768
0.00108667
0.000974383
0.000864958
0.000780846
0.000801938
0.00103047
0.0013791
0.0100615
0.00968241
0.0093092
0.0089427
0.00858322
0.00823086
0.00788536
0.0075464
0.00721385
0.00688771
0.00656801
0.00625485
0.00594835
0.00564855
0.00535531
0.00506849
0.00478816
0.00451447
0.0042476
0.00398774
0.0037353
0.00349093
0.00325575
0.0030319
0.00282319
0.00262988
0.00244995
0.00228236
0.0021263
0.0019808
0.0018446
0.00171616
0.00159379
0.00147577
0.00136037
0.00124588
0.00113095
0.00101573
0.00090691
0.000838156
0.000913018
0.00121122
0.00160274
0.0100455
0.0096935
0.00934531
0.00900136
0.00866217
0.00832855
0.00800015
0.00767613
0.00735602
0.00704021
0.00672878
0.00642205
0.00612083
0.00582559
0.00553634
0.00525178
0.00497192
0.00469711
0.00442783
0.00416431
0.0039066
0.00365579
0.0034131
0.00318055
0.00296154
0.00275749
0.00256617
0.00238728
0.00222028
0.00206421
0.00191848
0.0017818
0.00165254
0.00152817
0.00140687
0.00128755
0.00116877
0.00105118
0.000944725
0.00089547
0.00102534
0.0013812
0.00180933
0.0100333
0.00970456
0.00937851
0.00905463
0.00873243
0.00841646
0.00810618
0.00779865
0.00749081
0.00718455
0.00688054
0.00657702
0.00627915
0.00598608
0.0057053
0.00542698
0.0051506
0.00487659
0.00460575
0.00434145
0.00407783
0.00381819
0.00356595
0.00332225
0.00309627
0.0028869
0.00268728
0.00249469
0.00232078
0.00215383
0.00199564
0.00184842
0.0017104
0.00158801
0.00146489
0.00133888
0.00121405
0.00109034
0.000981967
0.000952337
0.00112298
0.00153464
0.00200103
0.000217053
0.000342812
0.000506115
0.000694871
0.000909331
0.0011491
0.00141334
0.00170095
0.00201105
0.00234303
0.00269623
0.00307033
0.00346491
0.00387992
0.00431519
0.00477067
0.00524629
0.00574199
0.00625778
0.00679363
0.00734941
0.00792509
0.00852046
0.00913537
0.00976955
0.0104226
0.011094
0.0117832
0.0124895
0.013212
0.0139495
0.0147008
0.0154643
0.0162382
0.0170203
0.017808
0.0185985
0.0193882
0.0201733
0.0209491
0.0217105
0.0224513
0.0231657
0.000517468
0.000693335
0.00088471
0.00111208
0.00136597
0.00164368
0.00194457
0.002268
0.00261325
0.00297952
0.0033661
0.00377222
0.0041973
0.0046407
0.00510203
0.00558085
0.00607669
0.00658925
0.00711817
0.00766313
0.00822371
0.00879966
0.00939054
0.00999588
0.0106153
0.0112481
0.0118938
0.0125515
0.0132205
0.0138998
0.0145882
0.0152845
0.0159871
0.0166944
0.0174043
0.0181146
0.0188227
0.0195255
0.0202198
0.0209017
0.0215669
0.0222107
0.0228289
0.000835433
0.00105988
0.00129029
0.00155414
0.00184561
0.00216075
0.00249749
0.00285506
0.00323277
0.00362985
0.0040454
0.00447865
0.00492873
0.00539488
0.00587635
0.00637246
0.00688258
0.00740604
0.00794232
0.00849085
0.00905109
0.00962244
0.0102044
0.0107963
0.0113975
0.0120075
0.0126253
0.0132503
0.0138815
0.014518
0.0151586
0.0158021
0.0164471
0.017092
0.0177351
0.0183743
0.0190074
0.0196319
0.0202449
0.0208433
0.0214235
0.0219814
0.0225098
0.00115295
0.00142473
0.00169822
0.00198624
0.00230879
0.00265681
0.00302604
0.00341458
0.0038214
0.00424565
0.00468639
0.00514263
0.0056134
0.00609777
0.00659488
0.00710383
0.00762381
0.00815398
0.00869368
0.00924212
0.00979862
0.0103626
0.0109331
0.0115097
0.0120915
0.0126778
0.0132679
0.0138609
0.0144559
0.015052
0.0156481
0.0162429
0.0168353
0.0174239
0.018007
0.0185829
0.0191498
0.0197055
0.0202476
0.0207735
0.0212801
0.0217639
0.0222181
0.00145483
0.00176623
0.00207426
0.00238895
0.00274031
0.00311767
0.00351591
0.00393216
0.00436491
0.00481309
0.00527566
0.00575156
0.00623969
0.00673895
0.00724834
0.00776692
0.00829363
0.00882765
0.00936806
0.00991407
0.0104649
0.0110196
0.0115777
0.0121381
0.0127002
0.0132633
0.0138265
0.0143892
0.0149503
0.0155091
0.0160644
0.0166151
0.0171601
0.0176981
0.0182279
0.018748
0.0192568
0.0197525
0.0202331
0.0206965
0.0211402
0.0215615
0.0219552
0.00173462
0.00207952
0.00241735
0.0027582
0.00313621
0.00354
0.00396412
0.00440493
0.00486062
0.00532988
0.00581147
0.00630415
0.00680678
0.00731816
0.00783716
0.00836276
0.00889387
0.00942953
0.00996879
0.0105107
0.0110545
0.0115991
0.012144
0.0126883
0.013231
0.0137716
0.0143093
0.0148436
0.0153737
0.0158984
0.0164167
0.0169276
0.01743
0.0179231
0.0184058
0.0188769
0.019335
0.0197786
0.020206
0.0206156
0.0210058
0.0213746
0.0217202
0.00199159
0.0023659
0.00273035
0.0030954
0.00349739
0.00392472
0.00437168
0.00483426
0.00531032
0.00579821
0.00629634
0.00680334
0.00731798
0.00783907
0.00836542
0.00889587
0.00942941
0.00996508
0.0105018
0.0110385
0.0115742
0.0121083
0.0126398
0.013168
0.0136917
0.0142106
0.0147246
0.0152329
0.0157349
0.0162289
0.0167137
0.0171886
0.017653
0.0181063
0.0185475
0.0189759
0.01939
0.0197884
0.02017
0.0205335
0.0208777
0.0212015
0.0215042
0.0022278
0.00262838
0.00301698
0.00340389
0.00382675
0.00427429
0.00474082
0.00522265
0.00571729
0.00622211
0.00673478
0.0072538
0.00777815
0.00830685
0.0088386
0.00937196
0.00990631
0.0104408
0.0109739
0.0115044
0.0120314
0.0125545
0.0130731
0.0135854
0.0140899
0.0145879
0.01508
0.0155657
0.0160428
0.0165092
0.0169634
0.0174058
0.0178361
0.018254
0.0186592
0.0190507
0.0194267
0.019786
0.0201279
0.0204517
0.0207564
0.0210414
0.0213075
0.00244628
0.00287034
0.00328193
0.00368885
0.00412787
0.00459163
0.00507327
0.00557257
0.00608567
0.00660686
0.00713223
0.00766061
0.00819249
0.00872727
0.00926273
0.00979647
0.0103307
0.0108636
0.0113924
0.0119155
0.0124325
0.0129453
0.0134524
0.0139481
0.0144311
0.0149096
0.0153833
0.0158504
0.0163068
0.0167472
0.0171722
0.0175851
0.0179851
0.0183716
0.0187459
0.0191066
0.0194495
0.0197745
0.0200822
0.0203721
0.0206421
0.0208925
0.0211247
0.000110698
0.00054428
0.00105998
0.00162091
0.00221438
0.00283339
0.00347257
0.00413011
0.00480476
0.00549617
0.00620339
0.0069265
0.00766595
0.00842017
0.00919069
0.00997808
0.0107821
0.0116036
0.0124432
0.0132996
0.0141746
0.015068
0.01598
0.0169106
0.0178618
0.0188319
0.019822
0.0208324
0.021863
0.022914
0.0239863
0.0250798
0.0261939
0.0273295
0.028486
0.0296643
0.0308639
0.0320845
0.0333261
0.0345887
0.0358715
0.0371747
0.038494
8.18217e-05
0.000381141
0.000780262
0.00124019
0.001747
0.00229127
0.0028677
0.0034729
0.00410386
0.00475884
0.0054363
0.00613538
0.00685589
0.00759693
0.00835761
0.00913792
0.00993866
0.0107591
0.0115991
0.0124585
0.0133378
0.014237
0.0151554
0.0160947
0.0170547
0.0180346
0.0190354
0.0200572
0.0210994
0.0221628
0.0232479
0.0243536
0.0254813
0.0266303
0.0278005
0.0289928
0.0302062
0.0314407
0.0326963
0.0339731
0.0352703
0.036588
0.0379248
6.63943e-05
0.000308492
0.000638664
0.00102998
0.00147203
0.00195704
0.00248086
0.00303869
0.00362791
0.00424709
0.00489282
0.00556469
0.00626189
0.0069828
0.00772632
0.00849279
0.0092817
0.0100926
0.010925
0.0117794
0.0126552
0.0135517
0.0144698
0.0154095
0.0163707
0.0173536
0.0183583
0.0193847
0.0204324
0.0215025
0.0225937
0.0237065
0.024842
0.0259994
0.0271782
0.0283793
0.0296017
0.0308454
0.0321107
0.0333973
0.0347038
0.0360305
0.0373727
5.46472e-05
0.000258184
0.000548982
0.00089968
0.00130053
0.00174485
0.00222825
0.00274702
0.00329936
0.00388344
0.0044972
0.00513959
0.00580932
0.00650539
0.00722687
0.00797381
0.00874553
0.00954156
0.0103609
0.0112041
0.0120706
0.0129602
0.0138726
0.0148081
0.0157663
0.0167476
0.0177517
0.0187779
0.0198273
0.0208993
0.0219938
0.0231109
0.0242507
0.025413
0.0265978
0.0278047
0.0290338
0.0302844
0.0315571
0.0328509
0.0341656
0.0355009
0.0368533
5.01911e-05
0.000235
0.000499911
0.00082031
0.00118828
0.00159863
0.0020477
0.00253285
0.00305235
0.00360475
0.0041882
0.00480189
0.00544511
0.00611626
0.0068154
0.00754156
0.00829412
0.00907297
0.00987725
0.0107069
0.0115614
0.0124408
0.0133447
0.0142725
0.0152252
0.0162017
0.0172019
0.0182261
0.0192738
0.020345
0.0214403
0.0225589
0.0237003
0.0248654
0.0260533
0.0272647
0.028498
0.0297537
0.0310318
0.0323316
0.0336528
0.0349958
0.0363581
4.66688e-05
0.000216932
0.000460898
0.000758243
0.00110089
0.00148445
0.00190632
0.00236393
0.00285614
0.00338117
0.00393813
0.00452631
0.00514469
0.00579256
0.00646954
0.00717478
0.00790781
0.00866882
0.00945726
0.0102717
0.0111125
0.0119803
0.0128731
0.0137919
0.0147365
0.0157058
0.0167004
0.0177201
0.0187641
0.0198329
0.0209268
0.0220444
0.0231864
0.024352
0.0255416
0.0267548
0.027991
0.0292501
0.0305321
0.0318362
0.033162
0.0345089
0.0358732
4.36534e-05
0.000201987
0.000429345
0.000708444
0.00103081
0.00139275
0.00179191
0.00222639
0.00269496
0.00319671
0.00373056
0.00429554
0.00489156
0.00551748
0.00617335
0.00685861
0.00757303
0.0083162
0.00908743
0.00988654
0.0107132
0.0115675
0.0124489
0.0133568
0.0142916
0.0152526
0.0162402
0.0172536
0.0182925
0.0193577
0.0204479
0.0215636
0.0227039
0.0238689
0.0250584
0.0262723
0.0275101
0.0287712
0.0300557
0.0313629
0.0326921
0.0340422
0.0354112
4.14996e-05
0.000190122
0.000403932
0.00066752
0.0009729
0.00131684
0.00169704
0.00211179
0.00256004
0.00304109
0.00355403
0.00409842
0.00467388
0.00528013
0.00591648
0.00658285
0.00727954
0.00800486
0.00875938
0.00954281
0.010355
0.0111956
0.0120641
0.0129609
0.0138853
0.0148371
0.0158163
0.0168221
0.017855
0.0189145
0.0200003
0.0211122
0.0222496
0.0234128
0.0246012
0.0258147
0.0270526
0.0283149
0.029601
0.0309103
0.0322418
0.0335954
0.0349679
4.02112e-05
0.000180073
0.000382685
0.000633212
0.000924337
0.00125284
0.00161663
0.00201436
0.00244468
0.00290753
0.0034021
0.00392778
0.00448475
0.00507256
0.00569066
0.00633946
0.00701852
0.0077272
0.00846568
0.00923386
0.0100316
0.0108582
0.0117141
0.0125991
0.0135125
0.0144538
0.0154239
0.0164218
0.0174472
0.0185003
0.0195806
0.0206878
0.0218215
0.0229818
0.0241682
0.02538
0.0266171
0.0278793
0.0291663
0.0304767
0.0318106
0.0331675
0.0345434
3.82623e-05
0.000171192
0.000364446
0.000603817
0.000882654
0.00119758
0.00154701
0.00192949
0.0023443
0.00279117
0.00326909
0.00377811
0.0043181
0.0048891
0.0054906
0.0061225
0.00678496
0.00747794
0.00820128
0.00895471
0.00973771
0.0105509
0.0113941
0.0122667
0.0131686
0.0140996
0.0150599
0.0160488
0.0170665
0.0181123
0.0191863
0.020288
0.0214171
0.0225737
0.023757
0.0249664
0.0262021
0.0274638
0.0287504
0.0300617
0.0313976
0.0327577
0.0341402
3.67299e-05
0.000163514
0.000348834
0.000578161
0.000846026
0.00114923
0.00148588
0.00185486
0.00225585
0.0026881
0.00315136
0.00364518
0.00416974
0.00472548
0.00531133
0.00592762
0.00657479
0.00725282
0.00796132
0.00870041
0.00946971
0.0102696
0.0110997
0.0119602
0.0128507
0.0137709
0.0147208
0.0157009
0.0167101
0.0177481
0.0188152
0.0199108
0.0210346
0.0221866
0.0233657
0.0245725
0.0258064
0.0270664
0.0283524
0.0296636
0.0310006
0.0323618
0.0337428
3.5733e-05
0.000156898
0.000335132
0.000555677
0.000813881
0.0011066
0.00143204
0.00178901
0.00217729
0.00259644
0.00304607
0.0035261
0.00403672
0.0045777
0.00514926
0.00575105
0.00638404
0.00704777
0.00774215
0.00846737
0.00922336
0.01001
0.0108277
0.0116763
0.0125554
0.0134645
0.0144043
0.0153748
0.0163751
0.0174051
0.018465
0.0195538
0.020672
0.0218183
0.0229936
0.0241968
0.0254275
0.0266853
0.02797
0.0292811
0.0306191
0.0319843
0.0333785
3.49617e-05
0.000151172
0.000322909
0.000535525
0.000785168
0.00106842
0.00138374
0.00173001
0.0021069
0.002514
0.0029513
0.00341876
0.00391614
0.00444414
0.00500223
0.0055907
0.00621013
0.0068606
0.00754138
0.00825323
0.00899631
0.00977024
0.0105758
0.0114127
0.0122802
0.0131788
0.0141083
0.0150686
0.0160598
0.0170819
0.0181336
0.0192158
0.0203273
0.0214685
0.0226384
0.0238375
0.0250647
0.0263198
0.0276026
0.0289124
0.0302495
0.0316131
0.033
3.42804e-05
0.000145959
0.000311973
0.000517698
0.000759427
0.0010342
0.00134026
0.00167657
0.00204292
0.00243934
0.0028655
0.00332093
0.00380644
0.00432224
0.00486796
0.00544373
0.00605063
0.00668818
0.00735611
0.00805565
0.00878634
0.00954813
0.0103417
0.0111669
0.0120232
0.012911
0.0138301
0.0147809
0.0157633
0.0167762
0.01782
0.0188946
0.0199997
0.0211348
0.0222993
0.0234937
0.0247169
0.0259691
0.0272488
0.0285563
0.0298914
0.0312526
0.0326377
3.37034e-05
0.000141427
0.000302209
0.000501579
0.000736152
0.00100321
0.00130074
0.00162804
0.00198486
0.00237116
0.00278677
0.0032316
0.00370599
0.00421018
0.00474419
0.00530852
0.00590358
0.00652891
0.00718504
0.00787237
0.00859129
0.00934153
0.0101233
0.0109372
0.0117825
0.0126596
0.0135687
0.01451
0.0154829
0.016487
0.0175228
0.0185896
0.0196879
0.0208163
0.0219752
0.0231643
0.0243832
0.0256313
0.0269077
0.0282124
0.0295448
0.0309032
0.0322851
3.32401e-05
0.00013757
0.000293548
0.000486989
0.000714961
0.000974742
0.00126467
0.00158383
0.00193178
0.00230886
0.00271484
0.00314975
0.00361395
0.00410735
0.00463047
0.00518378
0.00576719
0.00638133
0.00702602
0.0077019
0.00840942
0.00914845
0.00991913
0.0107218
0.0115566
0.0124237
0.0133225
0.014254
0.0152175
0.0162131
0.0172403
0.0182996
0.0193905
0.0205122
0.0216652
0.0228489
0.0240626
0.025306
0.026579
0.0278805
0.0292097
0.0305666
0.0319506
3.28356e-05
0.000134007
0.000285571
0.000473742
0.000695666
0.000948816
0.00123151
0.00154308
0.00188311
0.00225148
0.00264837
0.00307401
0.00352865
0.0040123
0.00452536
0.00506797
0.00564075
0.00624389
0.00687783
0.00754296
0.00823923
0.00896759
0.00972773
0.0105197
0.0113443
0.012201
0.0130901
0.0140119
0.0149661
0.0159527
0.0169716
0.018023
0.0191065
0.0202214
0.021368
0.0225457
0.0237542
0.0249932
0.0262617
0.0275592
0.0288853
0.0302395
0.0316194
3.24595e-05
0.000130704
0.000278179
0.00046157
0.000677897
0.000924873
0.00120096
0.00150556
0.00183809
0.00219853
0.00258709
0.00300389
0.00344937
0.00392349
0.00442691
0.00495969
0.00552252
0.00611548
0.00673945
0.00739393
0.00807993
0.00879795
0.00954748
0.0103295
0.0111437
0.0119903
0.0128697
0.0137819
0.0147271
0.0157053
0.0167157
0.0177589
0.0188348
0.0199429
0.0210825
0.0222545
0.0234576
0.0246914
0.025955
0.0272488
0.0285712
0.0299216
0.031298
3.22103e-05
0.000128144
0.000271494
0.000450215
0.000661245
0.000902585
0.0011726
0.00147054
0.0017962
0.00214934
0.00253002
0.00293871
0.00337542
0.00384072
0.00433501
0.00485859
0.00541184
0.00599553
0.00660957
0.00725417
0.00793032
0.00863809
0.00937759
0.0101493
0.0109536
0.0117907
0.0126606
0.0135637
0.0144999
0.0154691
0.0164713
0.0175066
0.0185749
0.0196756
0.020809
0.0219743
0.0231716
0.0244
0.0256595
0.0269488
0.0282673
0.0296142
0.0309879
3.21758e-05
0.000126808
0.000265373
0.000439836
0.000645991
0.000881997
0.00114638
0.00143811
0.00175707
0.00210314
0.00247654
0.00287745
0.00330635
0.00376337
0.0042491
0.00476394
0.00530822
0.00588281
0.0064874
0.0071225
0.0077891
0.00848725
0.00921693
0.00997896
0.0107737
0.0116014
0.0124621
0.0133561
0.0142833
0.0152439
0.016238
0.0172653
0.0183261
0.0194196
0.0205458
0.0217048
0.0228961
0.0241194
0.0253738
0.0266589
0.0279736
0.0293174
0.0306884
3.22959e-05
0.000126771
0.000259785
0.000430223
0.000631733
0.000862645
0.0011217
0.00140779
0.00172062
0.00206017
0.00242655
0.00282026
0.00324175
0.00369109
0.0041686
0.00467475
0.0052106
0.00577619
0.00637171
0.00699801
0.00765527
0.00834408
0.00906481
0.00981767
0.0106033
0.0114218
0.0122736
0.0131586
0.014077
0.0150289
0.0160146
0.0170343
0.0180873
0.0191736
0.0202931
0.0214456
0.0226312
0.0238489
0.0250985
0.026379
0.0276903
0.0290313
0.0303998
3.25365e-05
0.000127739
0.000254779
0.000421367
0.000618552
0.000844765
0.00109868
0.00137919
0.00168624
0.00201972
0.00237959
0.00276643
0.00318083
0.00362272
0.0040925
0.00459096
0.00511846
0.00567554
0.0062627
0.00688033
0.00752878
0.00820869
0.00892054
0.00966475
0.0104413
0.011251
0.012094
0.0129701
0.0138798
0.0148235
0.0158011
0.0168125
0.0178579
0.0189374
0.02005
0.021196
0.0223757
0.0235879
0.0248326
0.026109
0.0274168
0.0287561
0.0301272
3.27869e-05
0.000128793
0.000250042
0.000412917
0.000606149
0.000827948
0.00107704
0.00135246
0.00165404
0.00198176
0.0023356
0.00271602
0.00312343
0.00355805
0.00402078
0.00451176
0.00503157
0.00558081
0.00615962
0.00676886
0.0074089
0.00808026
0.00878349
0.00951897
0.0102869
0.0110878
0.011922
0.0127898
0.0136913
0.0146269
0.0155964
0.0166002
0.017638
0.01871
0.019816
0.0209558
0.0221294
0.0233361
0.0245756
0.0258473
0.0271514
0.0284871
0.0298517
3.31168e-05
0.000129991
0.000245815
0.000405293
0.000594763
0.000812244
0.00105681
0.00132739
0.00162372
0.00194574
0.00229387
0.00266831
0.00306931
0.00349732
0.00395289
0.0044367
0.00494936
0.00549078
0.00606162
0.00666289
0.00729476
0.00795791
0.0086529
0.0093798
0.0101393
0.0109318
0.0117579
0.0126174
0.0135106
0.0144381
0.0154
0.0163963
0.0174265
0.0184914
0.0195907
0.0207241
0.0218916
0.0230927
0.0243271
0.0255946
0.0268948
0.0282276
0.0295929
3.33597e-05
0.000130574
0.000241615
0.000397963
0.000583934
0.000797431
0.00103758
0.00130359
0.00159495
0.00191175
0.00225439
0.00262291
0.00301789
0.00343972
0.00388875
0.00436566
0.00487094
0.00540517
0.00596873
0.00656216
0.00718611
0.00784163
0.0085285
0.00924722
0.00999874
0.0107831
0.0116009
0.0124521
0.0133375
0.0142571
0.0152112
0.0162
0.0172229
0.0182807
0.0193733
0.0205005
0.0216619
0.0228573
0.0240867
0.0253495
0.0266456
0.027974
0.0293331
3.35463e-05
0.000131015
0.000237725
0.000391005
0.000573641
0.0007833
0.00101941
0.00128114
0.00156785
0.00187975
0.0022171
0.00257989
0.00296911
0.0033848
0.00382764
0.004298
0.00479647
0.00532375
0.00588012
0.00646635
0.00708287
0.00773034
0.00840937
0.00912059
0.0098642
0.0106405
0.0114502
0.0122939
0.0131716
0.0140833
0.0150298
0.0160111
0.0170267
0.0180776
0.0191636
0.0202844
0.0214397
0.0226294
0.0238534
0.0251117
0.0264034
0.0277282
0.0290871
3.36614e-05
0.00013121
0.000234036
0.000384376
0.000563856
0.000770061
0.00100225
0.00125988
0.00154205
0.00184926
0.00218151
0.0025392
0.0029229
0.00333262
0.00376949
0.00423354
0.00472531
0.00524572
0.00579533
0.00637457
0.0069839
0.00762419
0.00829575
0.00899934
0.00973512
0.0105038
0.0113061
0.012142
0.0130118
0.0139163
0.0148552
0.0158288
0.0168378
0.0178821
0.0189611
0.0200752
0.0212246
0.0224085
0.0236274
0.0248803
0.0261666
0.0274864
0.0288375
3.38205e-05
0.000131512
0.000230788
0.000378328
0.000554636
0.000757409
0.000985803
0.00123941
0.00151751
0.00182018
0.00214761
0.00250039
0.00287871
0.00328295
0.00371383
0.00417188
0.00465761
0.00517148
0.00571449
0.00628691
0.00688937
0.00752257
0.00818688
0.00888323
0.00961157
0.0103729
0.0111675
0.0119958
0.0128583
0.0137554
0.0146871
0.0156536
0.0166556
0.0176928
0.0187653
0.0198732
0.0210164
0.0221946
0.0234076
0.0246552
0.0259367
0.0272517
0.0285977
3.40014e-05
0.000131667
0.000227558
0.000372569
0.000545873
0.000745352
0.000970263
0.00122007
0.00149418
0.00179266
0.00211555
0.00246329
0.00283654
0.00323566
0.00366087
0.00411315
0.00459298
0.0051006
0.00563714
0.00620303
0.00679884
0.00742511
0.00808255
0.00877162
0.00949312
0.0102472
0.0110345
0.0118556
0.0127107
0.0136005
0.0145249
0.0154847
0.0164797
0.0175099
0.0185759
0.0196775
0.0208145
0.0219867
0.0231945
0.0244368
0.0257138
0.0270239
0.0283659