/*--------------------------------*- C++ -*----------------------------------*\
| =========                 |                                                 |
| \\      /  F ield         | OpenFOAM: The Open Source CFD Toolbox           |
|  \\    /   O peration     | Version:  2.3.0                                 |
|   \\  /    A nd           | Web:      www.OpenFOAM.org                      |
|    \\/     M anipulation  |                                                 |
\*---------------------------------------------------------------------------*/
FoamFile
{
    version     2.0;
    format      ascii;
    class       volVectorField;
    location    "1000";
    object      U;
}
// * * * * * * * * * * * * * * * * * * * * * * * * * * * * * * * * * * * * * //

dimensions      [0 1 -1 0 0 0 0];

internalField   nonuniform List<vector> 
14757
(
(22.6249 11.9331 -8.30645e-21)
(22.3934 12.3877 -1.84108e-20)
(22.1522 12.8408 1.31572e-20)
(21.8967 13.302 1.78807e-20)
(21.6253 13.7712 -9.66713e-20)
(21.3355 14.2455 4.9825e-20)
(21.0229 14.7197 0)
(20.6813 15.1863 3.98515e-20)
(20.302 15.6366 0)
(19.8745 16.0618 1.1497e-19)
(19.3868 16.4547 -1.18059e-19)
(18.827 16.8099 3.56754e-20)
(18.1838 17.1248 1.00417e-19)
(17.4468 17.3998 -1.62838e-19)
(16.6066 17.638 3.18262e-20)
(15.655 17.8442 3.38659e-20)
(14.5857 18.0234 -7.74144e-21)
(13.3943 18.1813 -1.70152e-20)
(12.0783 18.3183 2.46759e-19)
(10.6333 18.418 -2.86904e-19)
(9.06232 18.4621 1.94843e-20)
(7.40428 18.5052 0)
(5.72982 18.6644 0)
(4.0435 18.6957 0)
(22.2064 11.7244 1.79447e-19)
(21.9653 12.1043 2.80388e-20)
(21.7141 12.4814 -1.99308e-19)
(21.4457 12.8558 1.79468e-19)
(21.1575 13.2301 -4.09702e-20)
(20.8478 13.605 0)
(20.5148 13.9808 4.74901e-20)
(20.1568 14.3575 -3.50602e-19)
(19.7718 14.7338 3.58007e-19)
(19.3576 15.1072 -8.55172e-21)
(18.9122 15.4735 4.45114e-20)
(18.4335 15.827 0)
(17.9197 16.1608 0)
(17.3697 16.4664 4.93458e-20)
(16.7824 16.7342 -5.62003e-20)
(16.1581 16.9536 1.01497e-18)
(15.4983 17.1128 -9.95562e-19)
(14.8058 17.1996 1.33387e-18)
(14.0853 17.2016 -5.54854e-19)
(13.3438 17.1051 -1.75522e-18)
(12.5936 16.8959 -1.4137e-19)
(11.8519 16.5646 1.01764e-18)
(11.1292 16.1068 7.58512e-20)
(10.4163 15.5209 -4.17885e-20)
(21.8448 11.5011 1.77788e-19)
(21.6072 11.8199 -2.84444e-19)
(21.3575 12.1345 3.72467e-19)
(21.0929 12.4424 -2.69568e-19)
(20.8113 12.7442 -1.77164e-19)
(20.5111 13.0391 -2.49199e-19)
(20.1907 13.3261 -1.53585e-19)
(19.8482 13.6039 5.58011e-19)
(19.4819 13.8708 -5.58247e-20)
(19.0897 14.1249 0)
(18.6701 14.3637 -3.39719e-20)
(18.2217 14.5842 0)
(17.7436 14.7828 0)
(17.2357 14.9556 -4.82125e-20)
(16.6989 15.0977 -4.70865e-19)
(16.135 15.2043 1.08441e-18)
(15.5474 15.2697 -6.7735e-19)
(14.941 15.2883 -6.79477e-19)
(14.3228 15.2547 7.78971e-19)
(13.7016 15.1641 0)
(13.0889 15.0125 -6.24724e-20)
(12.499 14.7983 -1.00172e-21)
(11.9469 14.5216 1.06287e-18)
(11.4486 14.1835 -1.09313e-18)
(21.5511 11.2783 -9.88656e-20)
(21.3209 11.5435 2.42136e-19)
(21.0802 11.8037 0)
(20.8281 12.0585 -7.60872e-20)
(20.5624 12.3062 0)
(20.2822 12.5463 -4.04929e-19)
(19.9865 12.7776 3.01612e-19)
(19.6744 12.999 9.6731e-20)
(19.3449 13.209 0)
(18.9977 13.4058 -5.54816e-20)
(18.6319 13.5871 0)
(18.2473 13.7503 -4.40034e-19)
(17.8438 13.8923 4.39581e-19)
(17.4217 14.0096 -6.03083e-19)
(16.982 14.0986 6.10125e-19)
(16.5265 14.1552 7.24962e-19)
(16.0576 14.1754 -6.47556e-19)
(15.579 14.1551 0)
(15.0955 14.0909 -5.23764e-20)
(14.6133 13.9801 0)
(14.1395 13.8211 -1.0525e-18)
(13.6825 13.614 1.18922e-18)
(13.2507 13.3613 0)
(12.853 13.0678 0)
(21.3043 11.044 0)
(21.0865 11.2745 1.69292e-20)
(20.8587 11.4921 -4.80808e-19)
(20.6216 11.7042 8.35898e-19)
(20.3734 11.9087 -4.37889e-19)
(20.1131 12.1052 8.57154e-20)
(19.8397 12.2927 9.10043e-20)
(19.5521 12.4701 -2.07875e-19)
(19.2497 12.6362 -4.58766e-19)
(18.9319 12.7895 5.1693e-19)
(18.5982 12.9284 0)
(18.2487 13.0508 -6.46923e-20)
(17.8836 13.1544 1.46914e-19)
(17.5036 13.2367 0)
(17.1098 13.2948 -7.10797e-19)
(16.7042 13.3257 8.16646e-19)
(16.2891 13.3265 0)
(15.868 13.2943 0)
(15.4449 13.2265 0)
(15.0249 13.1216 0)
(14.6139 12.9786 5.62488e-19)
(14.2181 12.798 -7.14534e-19)
(13.8441 12.5819 0)
(13.4978 12.3339 -7.54234e-19)
(21.0953 10.8277 -8.12255e-20)
(20.8942 11.0243 1.79479e-19)
(20.6822 11.2064 -1.79538e-19)
(20.4618 11.3844 -9.04251e-20)
(20.2323 11.5555 5.07786e-19)
(19.9927 11.7194 -8.46323e-19)
(19.7425 11.8751 -2.26927e-20)
(19.4806 12.0215 8.69394e-20)
(19.2063 12.1575 4.84283e-19)
(18.9191 12.2818 0)
(18.6186 12.3929 0)
(18.3048 12.489 7.7199e-20)
(17.9778 12.5683 -7.74582e-20)
(17.6384 12.6285 7.11776e-19)
(17.2876 12.6674 -7.21963e-19)
(16.9269 12.6825 -9.71647e-20)
(16.5584 12.6716 1.08986e-19)
(16.185 12.6323 -5.94045e-19)
(15.81 12.5626 9.96776e-19)
(15.4374 12.4615 -3.85644e-19)
(15.0718 12.3282 -5.86153e-19)
(14.7183 12.1631 7.43377e-19)
(14.3818 11.9682 0)
(14.067 11.7462 8.46032e-20)
(20.9216 10.6222 0)
(20.7361 10.7928 2.00441e-19)
(20.5402 10.9463 -2.00155e-19)
(20.3359 11.0967 -1.10226e-19)
(20.1233 11.2415 0)
(19.9019 11.38 0)
(19.6711 11.5115 -2.48012e-19)
(19.4303 11.6348 2.4865e-19)
(19.1786 11.7489 0)
(18.9153 11.8525 0)
(18.6399 11.9443 0)
(18.3524 12.0228 -4.05677e-19)
(18.0531 12.0864 -1.76475e-20)
(17.7426 12.1331 7.33133e-20)
(17.4218 12.1606 8.77766e-19)
(17.0919 12.167 -4.06305e-19)
(16.755 12.1503 -1.10439e-19)
(16.4136 12.1088 1.18634e-19)
(16.0707 12.0405 0)
(15.7295 11.9444 -2.73691e-19)
(15.3941 11.82 -1.46105e-19)
(15.0686 11.6677 0)
(14.7573 11.4888 1.63357e-19)
(14.464 11.2855 -3.50986e-19)
(20.7768 10.4334 1.28943e-21)
(20.6065 10.5813 -2.99356e-21)
(20.4265 10.7113 1.03124e-19)
(20.2368 10.839 1.10925e-19)
(20.0397 10.9626 -2.42715e-19)
(19.8342 11.081 2.42463e-19)
(19.6203 11.1939 0)
(19.3973 11.2997 0)
(19.1643 11.3978 -7.22573e-20)
(18.9213 11.4865 0)
(18.6671 11.5643 -2.43228e-19)
(18.4017 11.6301 3.2707e-19)
(18.1257 11.6827 0)
(17.8392 11.7204 -1.88689e-19)
(17.543 11.7407 2.11898e-19)
(17.2376 11.7415 -9.69162e-19)
(16.9252 11.7216 5.63865e-19)
(16.6084 11.6794 0)
(16.2906 11.6125 0)
(15.9728 11.5208 -4.31037e-19)
(15.6599 11.4038 1.20859e-19)
(15.355 11.2613 6.1234e-19)
(15.0621 11.0943 -3.2982e-19)
(14.7845 10.9047 3.52827e-19)
(20.6584 10.2671 5.44034e-21)
(20.4992 10.3861 -2.2303e-19)
(20.3345 10.4981 1.14707e-19)
(20.1577 10.6074 0)
(19.9741 10.7142 2.55811e-19)
(19.7824 10.8162 -2.55505e-19)
(19.5821 10.9141 3.44585e-19)
(19.3748 11.0056 -2.76693e-19)
(19.1567 11.091 7.25646e-20)
(18.9305 11.1693 3.16879e-19)
(18.6934 11.2378 -4.0035e-19)
(18.445 11.2954 -2.66458e-19)
(18.1878 11.34 7.31348e-19)
(17.9194 11.3716 -1.85616e-19)
(17.6433 11.3871 -1.50081e-21)
(17.3579 11.3842 1.08686e-19)
(17.0649 11.3627 3.6108e-19)
(16.7652 11.3225 -9.91947e-19)
(16.4686 11.2564 5.15398e-19)
(16.1677 11.1673 2.85982e-19)
(15.8718 11.0564 -1.35792e-19)
(15.5825 10.9223 -3.06398e-19)
(15.3042 10.7653 1.64701e-19)
(15.039 10.5862 -3.50987e-19)
(20.5366 10.1124 0)
(20.397 10.2024 -1.92257e-19)
(20.2557 10.305 1.26053e-19)
(20.0931 10.3987 0)
(19.9217 10.4926 0)
(19.7438 10.5805 2.79868e-19)
(19.5543 10.6674 -3.50879e-19)
(19.3659 10.7465 -3.0476e-19)
(19.1633 10.8189 3.10657e-19)
(18.955 10.8871 -3.36075e-19)
(18.7372 10.9478 4.19808e-19)
(18.5008 11.0015 -1.73903e-19)
(18.2514 11.0422 0)
(17.9894 11.0707 2.08305e-19)
(17.7306 11.0845 -3.06402e-19)
(17.4621 11.0784 -1.1082e-19)
(17.1884 11.0519 0)
(16.8977 11.0194 0)
(16.6135 10.9578 -1.28266e-19)
(16.3198 10.8689 -2.86789e-19)
(16.0381 10.762 2.95281e-19)
(15.7617 10.6349 0)
(15.4943 10.4876 1.65859e-19)
(15.237 10.3191 1.76497e-19)
(2.42164 17.6705 -4.28418e-20)
(2.52722 16.1341 4.53162e-20)
(2.90312 14.7814 0)
(3.35436 13.622 -2.51393e-20)
(3.8328 12.6047 7.39738e-20)
(4.31994 11.6948 0)
(4.8114 10.872 2.52116e-19)
(5.31249 10.1316 1.5775e-19)
(5.8191 9.46185 0)
(6.32497 8.85444 -1.42379e-18)
(6.82401 8.30294 1.07383e-18)
(7.31099 7.80141 -3.48016e-19)
(7.78197 7.3447 -3.40417e-19)
(8.23458 6.92838 3.33042e-19)
(8.66759 6.54818 0)
(9.08101 6.19984 0)
(9.47594 5.87937 0)
(9.85412 5.58293 1.18609e-18)
(10.2176 5.30649 0)
(10.5684 5.04646 1.13871e-18)
(10.9087 4.80016 1.09349e-18)
(11.2405 4.5667 0)
(11.5647 4.33973 1.9453e-18)
(11.8805 4.08717 8.94936e-19)
(9.72316 14.8268 4.6026e-20)
(9.19455 14.0611 0)
(8.83227 13.2954 4.93471e-19)
(8.60432 12.5548 -1.08299e-18)
(8.48163 11.8493 3.28288e-19)
(8.44198 11.1831 2.76202e-19)
(8.46786 10.5577 -1.23475e-19)
(8.54585 9.97343 -2.92132e-19)
(8.66536 9.42967 1.35292e-19)
(8.81806 8.92519 -1.29177e-19)
(8.9971 8.45792 -1.15834e-18)
(9.19663 8.02504 1.15482e-18)
(9.41198 7.62338 0)
(9.63946 7.24952 2.74527e-19)
(9.87605 6.89997 0)
(10.1194 6.57145 0)
(10.3675 6.26105 -1.64382e-18)
(10.6189 5.96622 -1.08073e-18)
(10.8723 5.6849 1.07956e-18)
(11.1268 5.41558 0)
(11.3816 5.1574 2.01842e-18)
(11.6364 4.91077 -9.76534e-19)
(11.891 4.672 -9.57844e-19)
(12.1445 4.41842 -1.75691e-20)
(11.0162 13.7851 -4.46493e-20)
(10.6567 13.3281 -8.89071e-20)
(10.3691 12.8273 -2.88155e-19)
(10.1513 12.302 3.88212e-19)
(9.99815 11.7673 -1.0712e-19)
(9.90315 11.2343 1.06095e-19)
(9.85988 10.7107 2.35474e-19)
(9.86173 10.2021 3.47754e-19)
(9.90236 9.7121 -1.08551e-18)
(9.97584 9.24308 7.41957e-19)
(10.0769 8.79629 7.5018e-19)
(10.2005 8.37198 -1.23931e-18)
(10.3422 7.96995 2.47851e-19)
(10.4983 7.58946 -5.10907e-19)
(10.6657 7.22949 0)
(10.8418 6.88876 4.9981e-19)
(11.0244 6.56601 5.18983e-19)
(11.2122 6.25978 5.15269e-19)
(11.4039 5.96874 9.93749e-19)
(11.5988 5.69151 -4.95753e-19)
(11.7966 5.42694 -9.50431e-19)
(11.9969 5.1748 8.99226e-19)
(12.1994 4.93136 -1.81185e-18)
(12.4037 4.6746 -8.77552e-19)
(12.4932 12.7379 0)
(12.1718 12.3731 -2.88021e-19)
(11.8921 11.979 1.91018e-19)
(11.6569 11.5651 0)
(11.4666 11.1397 0)
(11.3196 10.7102 -1.09621e-19)
(11.2134 10.2825 0)
(11.1444 9.86131 6.86255e-19)
(11.109 9.45011 2.34636e-19)
(11.1034 9.05141 -4.67007e-19)
(11.1241 8.66686 -2.36301e-19)
(11.1676 8.29736 -7.02369e-21)
(11.2308 7.94326 7.11405e-19)
(11.3112 7.60439 4.79085e-19)
(11.4062 7.28027 0)
(11.5137 6.97019 -1.44942e-18)
(11.6319 6.67336 4.79918e-19)
(11.7592 6.38886 4.78853e-19)
(11.8943 6.11592 -4.82504e-19)
(12.0362 5.85368 4.66092e-19)
(12.1842 5.60146 -9.42042e-19)
(12.3375 5.35925 9.03179e-19)
(12.4955 5.12464 3.11914e-18)
(12.658 4.88085 -4.25811e-19)
(13.1816 12.0572 6.76511e-19)
(12.8953 11.7523 5.53843e-19)
(12.6413 11.4226 -6.66109e-19)
(12.422 11.0743 3.90709e-19)
(12.2384 10.7135 2.041e-19)
(12.0899 10.346 0)
(11.975 9.97641 4.32375e-19)
(11.8913 9.60901 -4.37922e-19)
(11.8361 9.24704 -2.28195e-19)
(11.8068 8.89308 -6.75172e-19)
(11.8005 8.54888 2.18344e-19)
(11.8147 8.21567 -4.02804e-21)
(11.8468 7.89407 -2.2569e-19)
(11.8947 7.58425 -6.92473e-19)
(11.9563 7.28611 4.57688e-19)
(12.0297 6.99928 4.53638e-19)
(12.1131 6.72335 4.53622e-19)
(12.2053 6.45785 4.58413e-19)
(12.305 6.20226 -4.56601e-19)
(12.4116 5.95604 -4.59005e-19)
(12.5245 5.7186 0)
(12.643 5.4898 -4.55213e-19)
(12.7666 5.26818 -1.30647e-18)
(12.8948 5.04134 4.16675e-19)
(13.7762 11.4996 0)
(13.51 11.2297 -1.86687e-19)
(13.2703 10.9392 1.92435e-19)
(13.0595 10.6328 1.01757e-19)
(12.8786 10.3151 -2.57107e-19)
(12.7274 9.99032 -3.14111e-19)
(12.6048 9.66258 4.87303e-20)
(12.5089 9.33536 2.19624e-19)
(12.4378 9.01173 -2.21814e-19)
(12.3893 8.69404 2.23347e-19)
(12.3615 8.3841 -2.24343e-19)
(12.3523 8.08301 2.24919e-19)
(12.3598 7.79142 2.25189e-19)
(12.3823 7.50951 -4.46538e-19)
(12.4179 7.23724 6.63997e-19)
(12.4648 6.97434 -8.95364e-19)
(12.5215 6.72057 -5.59328e-21)
(12.5865 6.47573 0)
(12.659 6.23952 4.37764e-19)
(12.7384 6.01146 1.09919e-19)
(12.8242 5.79099 -1.09082e-19)
(12.9156 5.57789 -4.34651e-19)
(13.0119 5.37127 0)
(13.1124 5.16142 4.02403e-19)
(14.1912 11.0602 3.53249e-19)
(13.9401 10.8144 1.86768e-19)
(13.7128 10.5508 -3.93263e-19)
(13.5112 10.2733 2.98829e-19)
(13.3364 9.98562 5.0681e-20)
(13.1883 9.69112 2.6286e-19)
(13.0656 9.39287 -2.14432e-19)
(12.966 9.09437 -3.58156e-21)
(12.8882 8.79859 2.14372e-19)
(12.8303 8.50799 0)
(12.791 8.22418 0)
(12.7689 7.94811 -2.1593e-19)
(12.7625 7.68042 4.37049e-19)
(12.7702 7.42116 -4.33281e-19)
(12.7902 7.17021 -2.1928e-19)
(12.8206 6.92736 2.1942e-19)
(12.8596 6.69269 -6.46184e-19)
(12.9062 6.46618 -6.43951e-19)
(12.9596 6.24768 -6.45867e-19)
(13.0196 6.03671 1.07118e-19)
(13.0858 5.83236 2.89358e-19)
(13.1571 5.63421 4.44668e-19)
(13.233 5.44174 -4.15506e-19)
(13.3148 5.24552 -2.89499e-21)
(14.5245 10.6946 -3.55001e-19)
(14.284 10.4663 -1.88545e-19)
(14.0653 10.2222 -1.96906e-19)
(13.8704 9.96624 2.97519e-19)
(13.701 9.70131 -1.28742e-19)
(13.5569 9.42952 2.56047e-20)
(13.436 9.15308 0)
(13.334 8.87605 -1.06694e-19)
(13.2516 8.60153 -5.32225e-19)
(13.1865 8.33235 2.12361e-19)
(13.1394 8.0694 0)
(13.1084 7.81376 3.3339e-21)
(13.0925 7.56599 -2.16817e-19)
(13.0904 7.32558 4.24702e-19)
(13.0998 7.09245 4.26248e-19)
(13.1186 6.86666 -4.19728e-19)
(13.1447 6.64848 2.1314e-19)
(13.1775 6.43839 4.25003e-19)
(13.2168 6.23617 4.23647e-19)
(13.2625 6.04121 4.15993e-19)
(13.3145 5.85204 4.08243e-19)
(13.3704 5.66834 -4.16187e-19)
(13.4299 5.49122 0)
(13.4952 5.31341 0)
(14.7889 10.3871 5.32528e-19)
(14.5563 10.1716 -1.89074e-19)
(14.3436 9.94187 9.1726e-20)
(14.1532 9.70316 9.70939e-20)
(13.9888 9.45708 -3.76756e-19)
(13.8499 9.2024 -2.52334e-20)
(13.7335 8.94212 2.06031e-19)
(13.6294 8.68048 -2.07486e-19)
(13.5439 8.42176 -1.59931e-22)
(13.4728 8.17103 4.17421e-19)
(13.4219 7.92434 2.08846e-19)
(13.3853 7.68618 2.13651e-19)
(13.3638 7.45494 -6.27581e-19)
(13.3561 7.22974 0)
(13.3583 7.01082 0)
(13.369 6.7993 6.23616e-19)
(13.3853 6.59494 -2.06656e-19)
(13.4077 6.39961 4.12196e-19)
(13.4365 6.21205 1.02175e-19)
(13.4721 6.0318 -5.15795e-19)
(13.5142 5.85582 -8.10145e-19)
(13.5583 5.68445 -1.26998e-20)
(13.6039 5.51968 1.98765e-19)
(13.6595 5.35151 5.97497e-19)
(14.9944 10.128 -3.60372e-19)
(14.7686 9.92316 -3.79392e-19)
(14.5624 9.70098 4.84319e-19)
(14.3744 9.47607 -1.47372e-19)
(14.2142 9.24886 5.10211e-20)
(14.0805 9.00892 0)
(13.9727 8.76352 -4.09432e-19)
(13.8673 8.5085 1.03061e-19)
(13.7829 8.25677 4.16804e-19)
(13.7085 8.02565 -3.06275e-19)
(13.6581 7.78887 -4.11236e-19)
(13.6153 7.56882 2.09392e-19)
(13.5907 7.35016 2.09697e-19)
(13.5791 7.13646 -2.06859e-19)
(13.5753 6.92794 2.03623e-19)
(13.5803 6.7296 -4.13772e-19)
(13.5875 6.53546 -8.23036e-22)
(13.6019 6.35499 -1.05407e-19)
(13.6226 6.18023 -1.05043e-19)
(13.6507 6.01377 5.13437e-20)
(13.6867 5.84783 -5.03283e-20)
(13.7228 5.68806 0)
(13.7571 5.53411 -3.95675e-19)
(13.811 5.37471 -3.86075e-21)
(-1.15833 -2.48144 2.11615e-19)
(-1.43737 -2.40494 -1.08413e-19)
(-1.67625 -2.33709 -1.28125e-19)
(-1.87534 -2.27981 0)
(-2.03481 -2.23333 0)
(-2.15453 -2.19732 0)
(-2.23422 -2.17112 2.89468e-19)
(-2.27354 -2.15363 -2.96259e-19)
(-2.27219 -2.1433 -3.17659e-19)
(-2.23 -2.13822 2.44862e-19)
(-2.14693 -2.13616 -8.37656e-20)
(-2.02293 -2.13469 0)
(-1.85772 -2.13105 -9.32327e-20)
(-1.65047 -2.12224 -5.15011e-19)
(-1.39898 -2.10479 4.41185e-19)
(-1.09857 -2.07485 -1.50647e-19)
(-0.739591 -2.02793 2.17144e-19)
(-0.304415 -1.95827 0)
(0.235855 -1.85965 6.14104e-20)
(0.926015 -1.72701 -3.27568e-19)
(1.85 -1.55601 3.19127e-19)
(3.17336 -1.34281 0)
(5.23241 -1.09997 1.69376e-18)
(8.78048 -1.02914 -2.00327e-18)
(-1.12011 -2.47748 0)
(-1.37545 -2.41073 -3.61117e-19)
(-1.59593 -2.34376 3.80756e-19)
(-1.78415 -2.28108 0)
(-1.94087 -2.22471 2.84065e-19)
(-2.06563 -2.17477 1.43512e-19)
(-2.15716 -2.13083 -1.57857e-19)
(-2.2135 -2.09202 -3.14034e-19)
(-2.23216 -2.05697 -4.84461e-19)
(-2.21001 -2.02387 4.154e-19)
(-2.14333 -1.99035 0)
(-2.02757 -1.95364 0)
(-1.8571 -1.91051 8.52654e-20)
(-1.62473 -1.85749 -2.72671e-19)
(-1.32121 -1.79084 2.29842e-19)
(-0.934329 -1.70698 -4.53292e-20)
(-0.44592 -1.60224 9.77717e-20)
(0.171688 -1.47361 -1.00957e-19)
(0.959465 -1.3201 -5.61656e-20)
(1.98071 -1.14443 0)
(3.33269 -0.959252 1.6975e-19)
(5.16114 -0.798504 -9.33468e-19)
(7.67227 -0.734351 7.93237e-19)
(11.0806 -0.897384 0)
(-1.08986 -2.46607 0)
(-1.31587 -2.39656 2.65388e-19)
(-1.51584 -2.32428 2.77647e-19)
(-1.68897 -2.25448 -1.44492e-19)
(-1.83495 -2.18822 -1.41835e-19)
(-1.95253 -2.12539 0)
(-2.03942 -2.06533 1.50904e-19)
(-2.09249 -2.00689 1.55102e-19)
(-2.10782 -1.94846 -1.56486e-19)
(-2.08054 -1.88804 2.55089e-19)
(-2.00471 -1.82327 0)
(-1.87338 -1.75164 0)
(-1.67836 -1.67059 0)
(-1.41016 -1.57796 0)
(-1.05628 -1.47149 2.73745e-19)
(-0.599884 -1.34925 -1.90713e-19)
(-0.0176822 -1.20989 1.03858e-19)
(0.722171 -1.05381 0)
(1.66406 -0.884531 5.30729e-20)
(2.86835 -0.712081 -6.04677e-20)
(4.41589 -0.558083 1.9851e-19)
(6.40721 -0.46353 -5.60748e-19)
(8.94519 -0.49888 1.23978e-18)
(12.0599 -0.76033 -7.9658e-19)
(-1.04344 -2.45157 5.23068e-19)
(-1.24366 -2.36713 -3.32262e-19)
(-1.423 -2.28973 -2.04805e-19)
(-1.57959 -2.21361 1.42778e-19)
(-1.71274 -2.13827 4.50353e-21)
(-1.82054 -2.0636 1.56403e-19)
(-1.89993 -1.98902 0)
(-1.94689 -1.91337 0)
(-1.95639 -1.83518 9.87972e-21)
(-1.92229 -1.75269 3.46046e-19)
(-1.83733 -1.66403 -3.56127e-19)
(-1.69319 -1.56745 0)
(-1.48048 -1.46148 1.84391e-19)
(-1.18752 -1.3447 -2.87559e-19)
(-0.799309 -1.21592 0)
(-0.296412 -1.07454 -9.87747e-20)
(0.346573 -0.921161 1.09787e-19)
(1.16253 -0.758609 0)
(2.19441 -0.593596 0)
(3.49703 -0.439687 5.11693e-21)
(5.13712 -0.321066 0)
(7.1887 -0.277161 -7.80992e-20)
(9.71271 -0.366038 -5.16536e-21)
(12.7062 -0.656824 -8.50095e-19)
(-0.992361 -2.4037 -5.12906e-19)
(-1.16719 -2.32271 -1.44891e-19)
(-1.32546 -2.24544 -1.59557e-19)
(-1.46475 -2.16631 4.73854e-20)
(-1.58364 -2.08555 -3.52868e-19)
(-1.67963 -2.00333 0)
(-1.74902 -1.9192 0)
(-1.78709 -1.83213 0)
(-1.78815 -1.74071 4.07509e-21)
(-1.7455 -1.64346 -2.73176e-19)
(-1.65127 -1.53892 0)
(-1.49653 -1.42602 -9.72623e-20)
(-1.2708 -1.30385 0)
(-0.960972 -1.17153 2.00107e-19)
(-0.550569 -1.02867 0)
(-0.018842 -0.875829 4.08367e-21)
(0.660475 -0.715078 -1.13746e-19)
(1.52054 -0.551094 3.05619e-20)
(2.6031 -0.392619 -6.51189e-20)
(3.95896 -0.25474 -3.15466e-20)
(5.64658 -0.16155 3.12822e-19)
(7.72689 -0.149487 -1.75124e-19)
(10.2445 -0.268161 9.20155e-20)
(13.1861 -0.571684 8.70096e-19)
(-0.938094 -2.35287 1.371e-19)
(-1.08957 -2.27517 -3.44504e-21)
(-1.2278 -2.19833 1.39761e-19)
(-1.35029 -2.11825 1.70495e-19)
(-1.45513 -2.03502 1.58472e-19)
(-1.53942 -1.94877 0)
(-1.59898 -1.85928 -1.75535e-19)
(-1.62837 -1.76562 1.76268e-19)
(-1.62141 -1.66636 -5.91361e-22)
(-1.57105 -1.56008 -9.59178e-20)
(-1.46928 -1.44572 9.33386e-20)
(-1.30674 -1.32262 9.57884e-20)
(-1.07198 -1.19025 -2.03503e-19)
(-0.750846 -1.04806 -1.02759e-19)
(-0.325903 -0.896082 0)
(0.224141 -0.735554 -2.35477e-19)
(0.925977 -0.569614 2.46477e-19)
(1.81289 -0.404274 -3.26768e-20)
(2.92567 -0.249647 3.4461e-20)
(4.31297 -0.121822 -2.24926e-19)
(6.0297 -0.0446603 -2.40168e-19)
(8.12949 -0.0520471 5.39424e-19)
(10.6482 -0.188331 -1.84389e-19)
(13.5638 -0.500002 -2.23033e-19)
(-0.883581 -2.29211 1.50384e-19)
(-1.0136 -2.2219 1.55796e-19)
(-1.13353 -2.14946 1.60715e-19)
(-1.24036 -2.07147 -1.18542e-19)
(-1.33191 -1.98864 -4.17662e-20)
(-1.40521 -1.90133 0)
(-1.45588 -1.80975 1.73053e-19)
(-1.47748 -1.71334 0)
(-1.46328 -1.61048 9.56636e-20)
(-1.40609 -1.49957 9.85006e-20)
(-1.29811 -1.37967 9.70573e-20)
(-1.12981 -1.2506 -2.04692e-19)
(-0.888742 -1.11219 2.12007e-19)
(-0.559706 -0.964135 0)
(-0.124586 -0.806507 1.16546e-19)
(0.438198 -0.640588 -2.55159e-21)
(1.15495 -0.470153 -1.25044e-19)
(2.05855 -0.302076 -3.44165e-20)
(3.18926 -0.147677 3.63183e-20)
(4.59439 -0.0246713 7.4204e-20)
(6.32872 0.0430504 8.41955e-20)
(8.44149 0.0239071 0)
(10.9628 -0.123236 -4.05947e-19)
(13.861 -0.440202 -4.64724e-19)
(-0.831876 -2.23529 -4.56436e-19)
(-0.943116 -2.16968 -2.76349e-19)
(-1.04614 -2.1023 -1.99977e-19)
(-1.13829 -2.02793 0)
(-1.21727 -1.9474 0)
(-1.28021 -1.86085 0)
(-1.3233 -1.76916 0)
(-1.33856 -1.67259 0)
(-1.31823 -1.56919 -2.86142e-19)
(-1.2549 -1.45681 1.0102e-19)
(-1.14148 -1.33421 -1.03966e-19)
(-0.969 -1.20174 -1.05462e-19)
(-0.723908 -1.06006 2.19109e-19)
(-0.389662 -0.909226 -1.14461e-19)
(0.0532636 -0.749036 0)
(0.626119 -0.580001 1.28277e-19)
(1.35493 -0.405868 0)
(2.27146 -0.234134 1.43938e-19)
(3.41584 -0.0768882 0)
(4.83218 0.0456607 8.33872e-20)
(6.58107 0.108302 -9.21316e-20)
(8.70615 0.0821106 1.87559e-19)
(11.2344 -0.0708459 8.37047e-19)
(14.1252 -0.391818 -2.23263e-19)
(-0.783598 -2.1809 3.11467e-19)
(-0.878811 -2.12026 3.25203e-19)
(-0.96627 -2.05852 -1.64553e-19)
(-1.04522 -1.98838 1.59532e-20)
(-1.11291 -1.91146 2.3615e-20)
(-1.16556 -1.82679 1.36441e-19)
(-1.20224 -1.73582 -9.23634e-20)
(-1.21269 -1.6404 9.52579e-20)
(-1.18758 -1.53844 0)
(-1.11846 -1.42701 1.00797e-19)
(-0.99925 -1.30371 -1.86215e-21)
(-0.823581 -1.16919 -1.07702e-19)
(-0.576941 -1.0256 1.1189e-19)
(-0.240296 -0.873531 0)
(0.20871 -0.71331 1.22817e-19)
(0.790982 -0.543736 -1.89463e-19)
(1.52971 -0.368325 7.00953e-20)
(2.45334 -0.195506 -2.8781e-19)
(3.59812 -0.0350231 -1.94515e-20)
(5.00451 0.0881491 -3.97273e-19)
(6.75385 0.152129 -2.48214e-21)
(8.88474 0.123244 2.89256e-19)
(11.4131 -0.029881 -4.09879e-19)
(14.2738 -0.344023 0)
(-0.743155 -2.13018 0)
(-0.82343 -2.07368 -1.69607e-19)
(-0.895554 -2.01767 1.70659e-19)
(-0.959915 -1.95153 -2.22716e-20)
(-1.01809 -1.87999 -6.49639e-20)
(-1.06155 -1.79881 -8.71796e-20)
(-1.09374 -1.70887 0)
(-1.10048 -1.61444 0)
(-1.07249 -1.51413 0)
(-0.999294 -1.405 0)
(-0.874792 -1.28222 0)
(-0.693197 -1.14632 1.1111e-19)
(-0.442724 -1.00303 -2.32856e-19)
(-0.107937 -0.849459 2.42591e-19)
(0.342387 -0.69039 -1.25113e-19)
(0.930061 -0.519578 1.33195e-19)
(1.68471 -0.34019 -1.35272e-19)
(2.63846 -0.16329 1.42064e-19)
(3.84945 -0.0117883 0)
(5.26878 0.0833127 1.65808e-19)
(7.07398 0.14727 1.80571e-19)
(9.18876 0.112966 -2.02591e-19)
(11.747 -0.0387978 -2.15879e-19)
(14.6405 -0.361395 2.31127e-19)
(15.0709 -1.96707 0)
(18.6817 -2.96146 3.20473e-18)
(20.0552 -3.32954 1.41278e-19)
(20.7167 -3.45089 -7.73094e-18)
(21.1621 -3.51338 4.5712e-18)
(21.4765 -3.5457 -7.12964e-20)
(21.697 -3.55637 0)
(21.8447 -3.55068 0)
(21.9334 -3.53214 3.51108e-18)
(21.9739 -3.50354 9.04432e-20)
(21.976 -3.46716 -3.29418e-18)
(21.9489 -3.42515 -1.94016e-19)
(21.8999 -3.37908 0)
(21.8343 -3.33028 2.74516e-18)
(21.7561 -3.27967 -2.95972e-18)
(21.6684 -3.22787 2.43133e-18)
(21.5733 -3.17534 -2.66539e-18)
(21.4726 -3.12235 -2.68236e-18)
(21.3675 -3.06906 2.59254e-18)
(21.259 -3.01558 1.9628e-18)
(21.1477 -2.96209 -5.12538e-18)
(21.0347 -2.90801 4.44182e-18)
(20.9202 -2.85244 -3.75417e-18)
(20.8018 -2.80873 1.20574e-18)
(15.12 -1.54537 -2.20964e-18)
(18.8514 -2.49921 5.00932e-18)
(20.6109 -2.97234 -2.52914e-18)
(21.2507 -3.10022 -7.44252e-20)
(21.6196 -3.16374 0)
(21.8595 -3.20198 0)
(22.0084 -3.22225 1.22287e-19)
(22.089 -3.22837 0)
(22.1177 -3.22321 -3.31512e-18)
(22.1077 -3.20922 3.28775e-18)
(22.0698 -3.18849 2.01067e-19)
(22.0122 -3.16266 1.94073e-19)
(21.9406 -3.13309 0)
(21.859 -3.10072 1.83183e-19)
(21.7703 -3.06626 0)
(21.6764 -3.03022 0)
(21.5787 -2.99297 0)
(21.4783 -2.95471 -3.42816e-19)
(21.3756 -2.91564 3.38005e-19)
(21.2713 -2.87585 2.70672e-18)
(21.1656 -2.83554 -2.63517e-18)
(21.0589 -2.79429 6.61844e-19)
(20.9517 -2.75203 6.68331e-19)
(20.8439 -2.7152 -1.24966e-18)
(15.5795 -1.33912 2.02681e-18)
(19.0065 -2.16002 -2.24112e-18)
(20.9188 -2.68128 2.49251e-18)
(21.5447 -2.8283 -2.32561e-18)
(21.8464 -2.89004 1.39709e-19)
(22.0269 -2.92852 0)
(22.1246 -2.95199 1.98316e-18)
(22.1627 -2.9639 -1.59551e-18)
(22.158 -2.96694 -3.34029e-19)
(22.1235 -2.96304 -3.45134e-18)
(22.0686 -2.95393 3.24196e-18)
(21.9998 -2.94066 -2.00265e-19)
(21.9214 -2.92416 0)
(21.8364 -2.905 0)
(21.747 -2.88366 1.85116e-19)
(21.6544 -2.86047 2.56126e-18)
(21.5597 -2.8357 -2.82354e-18)
(21.4635 -2.80952 3.51446e-19)
(21.3662 -2.7821 0)
(21.2681 -2.75355 0)
(21.1693 -2.72402 -3.44088e-19)
(21.07 -2.69336 0)
(20.9705 -2.66174 -6.90282e-19)
(20.8715 -2.63106 6.63101e-19)
(16.0381 -1.19742 8.11497e-19)
(19.225 -1.92556 -1.26603e-18)
(21.1355 -2.44791 3.57662e-18)
(21.7395 -2.60958 -2.14919e-18)
(21.9825 -2.67156 -1.35775e-19)
(22.1128 -2.71218 0)
(22.1701 -2.73953 -1.22072e-19)
(22.1772 -2.75682 1.91824e-18)
(22.1505 -2.76647 -1.33524e-18)
(22.1015 -2.77023 -1.7609e-18)
(22.0378 -2.76941 1.66111e-18)
(21.9644 -2.76489 2.02087e-19)
(21.8845 -2.75733 -1.40021e-18)
(21.8003 -2.74716 1.72354e-18)
(21.7133 -2.73479 -1.88435e-19)
(21.6244 -2.72049 3.70648e-19)
(21.5343 -2.70446 1.11128e-18)
(21.4433 -2.68689 -1.43642e-18)
(21.3518 -2.66791 3.5996e-19)
(21.26 -2.64764 0)
(21.1678 -2.62616 -6.33057e-23)
(21.0755 -2.60332 0)
(20.9835 -2.5791 7.11353e-19)
(20.8916 -2.55499 6.78824e-21)
(16.4133 -1.09226 -8.24436e-19)
(19.4383 -1.7645 1.34315e-19)
(21.2849 -2.2677 1.18941e-18)
(21.8575 -2.43517 -1.10716e-19)
(22.0542 -2.49751 -1.09177e-18)
(22.1465 -2.54034 0)
(22.1745 -2.57109 0)
(22.1607 -2.59277 4.96352e-21)
(22.12 -2.60754 1.63823e-18)
(22.0623 -2.61691 -3.55796e-18)
(21.9938 -2.62201 1.91907e-18)
(21.9184 -2.62359 -1.68584e-18)
(21.8388 -2.62219 1.40707e-18)
(21.7564 -2.61825 1.40445e-18)
(21.6725 -2.61212 -1.73665e-18)
(21.5876 -2.60404 -3.84044e-19)
(21.5022 -2.59421 -2.50166e-21)
(21.4167 -2.58283 0)
(21.331 -2.57001 -1.86177e-18)
(21.2455 -2.55588 -2.25683e-20)
(21.1601 -2.54053 3.45032e-19)
(21.075 -2.52388 1.08776e-18)
(20.9904 -2.50616 -3.65635e-19)
(20.905 -2.49026 -7.24271e-19)
(16.7215 -1.01066 -1.24964e-18)
(19.6262 -1.648 2.46391e-18)
(21.3875 -2.1285 -2.34179e-18)
(21.9204 -2.29631 8.56181e-19)
(22.0793 -2.35901 -2.82999e-19)
(22.1431 -2.40352 0)
(22.1508 -2.43681 -2.57858e-19)
(22.1234 -2.46168 1.98522e-18)
(22.0743 -2.48012 -1.98145e-19)
(22.0121 -2.4935 -1.80241e-18)
(21.9417 -2.5028 -2.18828e-19)
(21.8664 -2.50867 1.94452e-18)
(21.7882 -2.51165 -1.65374e-18)
(21.7085 -2.51214 0)
(21.6279 -2.51046 -1.41349e-18)
(21.5472 -2.50684 1.95244e-18)
(21.4665 -2.50153 3.86858e-19)
(21.3862 -2.49468 -1.54791e-18)
(21.3062 -2.48644 1.51416e-18)
(21.2267 -2.47691 0)
(21.1477 -2.46627 3.79302e-19)
(21.0692 -2.45447 1.14038e-18)
(20.9913 -2.44178 -1.13582e-18)
(20.9121 -2.4312 1.12974e-18)
(16.9664 -0.943907 9.84074e-19)
(19.7754 -1.55587 -2.71187e-19)
(21.453 -2.01585 0)
(21.947 -2.18322 -6.01041e-19)
(22.0771 -2.24759 1.67983e-18)
(22.12 -2.2939 1.09197e-18)
(22.1136 -2.32928 -1.81641e-18)
(22.0775 -2.35657 7.40248e-19)
(22.0236 -2.37767 2.38616e-19)
(21.9591 -2.39391 0)
(21.8883 -2.40618 9.103e-19)
(21.814 -2.41508 -1.08778e-18)
(21.7378 -2.42116 0)
(21.6608 -2.42477 0)
(21.5838 -2.42624 0)
(21.5069 -2.42583 2.02814e-19)
(21.4306 -2.42378 -2.00134e-19)
(21.355 -2.42025 0)
(21.2802 -2.41535 0)
(21.2061 -2.4092 1.17834e-18)
(21.1328 -2.40202 -1.16587e-18)
(21.0602 -2.39385 3.91063e-19)
(20.988 -2.38494 0)
(20.9145 -2.3788 7.91822e-19)
(17.1937 -0.895062 6.67856e-21)
(19.919 -1.49428 2.80493e-19)
(21.5073 -1.93785 -1.19793e-18)
(21.9566 -2.09938 8.77373e-19)
(22.0618 -2.16164 5.61892e-21)
(22.0884 -2.2076 0)
(22.0717 -2.24361 2.64766e-19)
(22.0295 -2.2721 0)
(21.9724 -2.29481 -9.87555e-19)
(21.9068 -2.3129 9.39551e-19)
(21.8364 -2.32714 2.31548e-19)
(21.7635 -2.33808 0)
(21.6895 -2.34634 8.81536e-19)
(21.6153 -2.35229 -8.49924e-19)
(21.5416 -2.35607 0)
(21.4682 -2.35798 -2.06278e-19)
(21.3959 -2.35836 -6.19437e-19)
(21.3245 -2.35727 1.92797e-19)
(21.2546 -2.35484 3.96886e-19)
(21.1854 -2.35107 -4.01033e-19)
(21.1171 -2.34647 0)
(21.0496 -2.34108 -8.05435e-19)
(20.9827 -2.33488 4.04479e-19)
(20.9148 -2.33184 -4.07881e-19)
(17.2963 -0.833169 -2.48033e-19)
(19.9509 -1.41041 -2.7437e-19)
(21.5004 -1.84939 -3.02039e-19)
(21.9414 -2.02017 2.99427e-19)
(22.0359 -2.08734 8.70778e-19)
(22.0527 -2.13525 -1.922e-18)
(22.03 -2.17258 -2.82671e-19)
(21.9843 -2.20235 -1.82946e-20)
(21.9256 -2.2265 1.23224e-18)
(21.8598 -2.24625 0)
(21.7905 -2.26219 -2.32536e-19)
(21.7187 -2.27472 -2.28923e-19)
(21.6462 -2.28474 -8.9749e-19)
(21.574 -2.29251 8.66974e-19)
(21.5028 -2.29772 -1.079e-18)
(21.4319 -2.30109 1.47925e-18)
(21.3632 -2.30334 1.03867e-20)
(21.2955 -2.30416 -1.031e-18)
(21.2298 -2.30356 4.11689e-19)
(21.1646 -2.30128 6.21773e-19)
(21.0998 -2.29845 -1.02672e-18)
(21.0364 -2.295 -8.60546e-22)
(20.9741 -2.29085 2.37238e-21)
(20.9126 -2.28977 -8.17443e-19)
(17.6785 -0.873996 0)
(20.2349 -1.46172 -2.99559e-19)
(21.611 -1.87713 2.9291e-19)
(21.9606 -2.00601 5.98277e-19)
(22.0193 -2.04689 5.80249e-19)
(22.0215 -2.08672 -8.24568e-19)
(21.9899 -2.12091 8.09548e-19)
(21.9389 -2.14935 -5.14267e-19)
(21.8773 -2.17328 -2.4964e-19)
(21.8101 -2.19369 0)
(21.7413 -2.21003 0)
(21.6706 -2.22265 -4.69951e-19)
(21.5996 -2.23346 1.12798e-18)
(21.5308 -2.24237 0)
(21.4655 -2.2481 2.19707e-19)
(21.3962 -2.25211 1.08709e-18)
(21.3329 -2.25666 -1.49747e-18)
(21.2662 -2.25808 8.48088e-19)
(21.2074 -2.25938 2.13867e-19)
(21.1447 -2.25741 6.49166e-19)
(21.0853 -2.25655 -6.42031e-19)
(21.0279 -2.25561 6.4325e-19)
(20.9704 -2.25402 -4.30199e-19)
(20.9151 -2.26156 8.25261e-19)
(-0.199972 1.78284 0)
(0.712319 2.14139 0)
(2.14426 2.98922 0)
(3.68669 4.04462 6.65179e-20)
(5.28023 5.12418 -3.60596e-18)
(6.93851 6.25027 3.09809e-18)
(8.59013 7.44047 -3.02875e-20)
(10.2355 8.64781 0)
(11.861 9.82802 5.02542e-20)
(13.4413 10.9426 0)
(14.9449 11.956 -3.59447e-20)
(16.3388 12.8355 0)
(17.5955 13.5559 5.47728e-20)
(18.6956 14.0996 4.78169e-19)
(19.6293 14.4573 -4.64847e-19)
(20.399 14.6315 -1.37463e-19)
(21.0174 14.6341 6.70833e-20)
(21.5061 14.4873 0)
(21.8913 14.2201 0)
(22.2006 13.8643 -8.64602e-20)
(22.4581 13.4499 7.36979e-20)
(22.6822 13.0022 -9.74898e-20)
(22.885 12.5398 0)
(23.0773 12.0665 0)
(-9.86648 1.64737 4.21853e-19)
(-9.36213 1.60925 0)
(-8.38721 1.6175 0)
(-7.20014 1.80934 -3.33584e-20)
(-5.78941 2.14987 0)
(-4.10705 2.6273 -1.3903e-19)
(-2.06539 3.21814 4.22574e-21)
(0.228333 3.94856 0)
(2.6992 4.81959 0)
(5.28459 5.81997 0)
(7.89059 6.92825 0)
(10.4334 8.10197 0)
(12.8393 9.28368 -1.35387e-19)
(15.0449 10.4099 2.56106e-19)
(16.9976 11.4174 3.07186e-20)
(18.662 12.2532 1.55797e-19)
(20.0221 12.8783 5.53885e-20)
(21.0854 13.275 0)
(21.8803 13.4473 0)
(22.4522 13.4194 -8.20469e-20)
(22.8541 13.2291 -4.24953e-19)
(23.1382 12.9204 3.87855e-19)
(23.3485 12.5355 0)
(23.5192 12.0978 0)
(-4.49006 1.02579 -6.47531e-19)
(-5.40186 1.05371 0)
(-5.58711 1.07501 0)