/*--------------------------------*- C++ -*----------------------------------*\
| =========                 |                                                 |
| \\      /  F ield         | OpenFOAM: The Open Source CFD Toolbox           |
|  \\    /   O peration     | Version:  2.3.0                                 |
|   \\  /    A nd           | Web:      www.OpenFOAM.org                      |
|    \\/     M anipulation  |                                                 |
\*---------------------------------------------------------------------------*/
FoamFile
{
    version     2.0;
    format      ascii;
    class       volScalarField;
    location    "10000";
    object      nut;
}
// * * * * * * * * * * * * * * * * * * * * * * * * * * * * * * * * * * * * * //

dimensions      [0 2 -1 0 0 0 0];

internalField   nonuniform List<scalar> 
6710
(
0.0562546
0.0505875
0.0457316
0.041836
0.0388527
0.0360835
0.0333078
0.0306174
0.0280136
0.0254607
0.0229821
0.0210139
0.0639631
0.0597676
0.0561165
0.0529926
0.0504135
0.0483739
0.0468448
0.0457815
0.0451258
0.0448208
0.0448137
0.0450545
0.0704903
0.0674792
0.0649221
0.0627885
0.0610611
0.0597175
0.0587284
0.058058
0.057669
0.0575219
0.0575796
0.0578064
0.0759744
0.0737667
0.0719232
0.070399
0.0691708
0.0682171
0.0675141
0.067038
0.0667649
0.0666715
0.0667362
0.0669378
0.0805168
0.0788834
0.0775141
0.076377
0.0754555
0.0747341
0.0741983
0.0738326
0.0736234
0.0735575
0.0736219
0.073804
0.0842858
0.0830693
0.0820232
0.0811421
0.0804192
0.0798466
0.0794158
0.0791188
0.0789479
0.0788965
0.0789572
0.0791227
0.0874714
0.0865272
0.0857013
0.0849951
0.0844062
0.0839329
0.083573
0.0833222
0.0831771
0.0831345
0.083191
0.0833431
0.0901557
0.0894048
0.0887351
0.0881534
0.0876586
0.0872539
0.0869429
0.0867254
0.0865995
0.0865629
0.0866151
0.086756
0.0924217
0.0918228
0.0912622
0.0907747
0.0903499
0.0899911
0.089714
0.0895212
0.0894109
0.0893805
0.0894268
0.089558
0.0943514
0.0938808
0.0933844
0.0929743
0.0926094
0.0922758
0.0920202
0.0918453
0.0917479
0.0917287
0.0917633
0.0918851
0.0225865
0.0263741
0.0288211
0.0313543
0.0343983
0.0380622
0.0423368
0.0471686
0.0524886
0.05822
0.0642794
0.0706227
0.0454608
0.0460783
0.0470297
0.0483698
0.0501476
0.0523983
0.0551395
0.0583685
0.0620617
0.0661769
0.0706623
0.0755003
0.058163
0.0586763
0.059411
0.0603986
0.0616693
0.0632516
0.0651688
0.067437
0.0700619
0.0730378
0.0763495
0.0800083
0.0672551
0.0677036
0.0683186
0.069118
0.0701195
0.0713406
0.0727976
0.074504
0.0764707
0.0787027
0.0812017
0.0839916
0.0740914
0.0744935
0.0750302
0.075711
0.0765453
0.0775427
0.0787124
0.0800627
0.0816018
0.0833363
0.0852729
0.0874377
0.0793857
0.0797517
0.0802318
0.0808304
0.0815514
0.0823989
0.0833765
0.0844883
0.0857381
0.0871301
0.0886701
0.0903879
0.0835864
0.0839237
0.0843609
0.084899
0.0855383
0.0862789
0.0871206
0.088064
0.0891098
0.0902584
0.0915118
0.0928876
0.0869829
0.0872971
0.0877008
0.0881927
0.0887706
0.0894312
0.0901728
0.0909922
0.091889
0.0928596
0.0939053
0.0950372
0.0897717
0.0900671
0.0904436
0.090899
0.0914298
0.0920271
0.0926933
0.0934168
0.0942028
0.095038
0.095928
0.0968776
0.0920868
0.0923665
0.0927195
0.093142
0.0936338
0.0941748
0.0947849
0.0954284
0.0961338
0.0968637
0.0976355
0.0984428
0.0701656
0.0599696
0.0514375
0.0440471
0.0374106
0.0314749
0.0264955
0.0227601
0.0196365
0.0165468
0.0132674
0.00955093
0.0751979
0.0675979
0.0615447
0.0567128
0.0521751
0.0476414
0.0430425
0.0384048
0.033717
0.0288973
0.0238349
0.0184117
0.0811175
0.076105
0.0718875
0.0676606
0.0632814
0.0587082
0.053917
0.0488722
0.0435337
0.0378556
0.0317875
0.025282
0.0873506
0.0835818
0.0797658
0.0757084
0.0713664
0.0667204
0.0617448
0.0564026
0.0506495
0.044435
0.0377081
0.0304235
0.0928986
0.0894597
0.0858058
0.0818406
0.0775266
0.0728356
0.0677325
0.0621743
0.0561107
0.0494841
0.0422362
0.0343078
0.0973211
0.0940758
0.0905427
0.0866588
0.0823814
0.0776707
0.0724812
0.0667609
0.0604495
0.0534819
0.0457886
0.0373007
0.100848
0.0977547
0.0943352
0.0905335
0.0863012
0.0815883
0.0763385
0.0704894
0.0639726
0.0567125
0.0486299
0.039649
0.103689
0.100734
0.0974257
0.0937075
0.0895245
0.0848201
0.0795266
0.0735715
0.066878
0.0593605
0.0509325
0.0415122
0.106
0.10318
0.0999813
0.0963471
0.0922111
0.0875238
0.0821992
0.0761553
0.0693053
0.0615574
0.0528143
0.0429935
0.107925
0.105215
0.102116
0.0985756
0.0944705
0.0898099
0.0844667
0.078352
0.071364
0.0634064
0.0543621
0.0441325
0.00528142
0.00203308
0.00185537
0.00248278
0.00326638
0.00441202
0.00606095
0.00816076
0.0107798
0.013997
0.0178986
0.022591
0.0123374
0.00588683
0.00271737
0.00314062
0.00414435
0.00548224
0.0072384
0.00937629
0.0119564
0.0150423
0.0187104
0.0230394
0.0180907
0.0100502
0.00423926
0.00392284
0.00512787
0.00663187
0.00847901
0.0106458
0.0131792
0.01613
0.0195574
0.0235145
0.0223637
0.0133668
0.005983
0.00480018
0.00614332
0.0077837
0.00970573
0.0118916
0.0143743
0.0171955
0.0204148
0.0241523
0.0255162
0.0158039
0.00757377
0.00572499
0.00714234
0.00890148
0.0108849
0.0130816
0.0155159
0.018225
0.0212633
0.0246887
0.0278711
0.0175775
0.00888753
0.00664622
0.0081072
0.00996591
0.0120001
0.0142028
0.0165934
0.0192013
0.0220605
0.0251836
0.0296574
0.0188801
0.00994083
0.00752998
0.00902855
0.010968
0.0130443
0.0152507
0.0176005
0.0201118
0.0227982
0.0256607
0.0310264
0.0198495
0.0107894
0.00835855
0.00989818
0.0119031
0.0140152
0.0162233
0.0185335
0.0209516
0.0234796
0.0261193
0.0320677
0.0205771
0.0115074
0.0091236
0.010705
0.0127725
0.0149171
0.0171226
0.0193917
0.0217223
0.0241078
0.0265522
0.032713
0.0207919
0.0117848
0.00982547
0.0115243
0.0135858
0.0157006
0.0179
0.0201587
0.0224123
0.0246595
0.0269451
0.00100479
0.0034646
0.00748067
0.0120035
0.0166551
0.0213257
0.025931
0.0303611
0.0346215
0.0390433
0.0437596
0.0494012
0.000744416
0.0021792
0.00547718
0.00911973
0.0129006
0.0169038
0.0211654
0.0256091
0.0301313
0.0347298
0.0394989
0.0448873
0.000445965
0.00138062
0.00350425
0.00674504
0.0112628
0.015634
0.0198577
0.0240326
0.0282159
0.0324625
0.036893
0.0418293
0.000470749
0.00112704
0.0028748
0.00556994
0.00954576
0.0143208
0.0190657
0.0236279
0.0279133
0.0319308
0.0358636
0.0401198
0.000427433
0.000985047
0.00250608
0.00483521
0.00824853
0.0130068
0.0181178
0.0231572
0.0279355
0.0322422
0.0360381
0.0397003
0.00041849
0.000891794
0.00226001
0.0043633
0.00744774
0.0118293
0.0171133
0.0225087
0.0277758
0.0326306
0.0367719
0.0402506
0.000406003
0.000825032
0.00208082
0.00401691
0.0068509
0.0108783
0.0161553
0.0217954
0.0274353
0.0328124
0.0375348
0.0412954
0.000400665
0.00077798
0.00195239
0.00376712
0.00641879
0.0101843
0.0153093
0.0210998
0.0270302
0.0328375
0.0381529
0.0425355
0.000397606
0.000745178
0.00186093
0.00358809
0.00610657
0.00967825
0.014609
0.0204794
0.026639
0.0327934
0.0386144
0.0436074
0.000397537
0.000722524
0.00179652
0.00346045
0.00588146
0.00930898
0.0140614
0.0199647
0.0263137
0.0327555
0.0389909
0.044559
0.000399144
0.000706996
0.00175146
0.00336999
0.0057193
0.00903842
0.0136431
0.0195497
0.0260623
0.0327512
0.0393208
0.0453265
0.000401847
0.000696301
0.00172008
0.00330609
0.00560284
0.00884039
0.0133272
0.0192179
0.0258808
0.0327994
0.0396592
0.0460307
0.000404925
0.00068848
0.00169719
0.00325925
0.00551693
0.00869285
0.0130867
0.0189456
0.0257501
0.0328988
0.0400445
0.0467832
0.000407914
0.000682065
0.0016787
0.00322161
0.00544823
0.00857521
0.0128944
0.018707
0.0256358
0.0330098
0.0404338
0.0475118
0.000410595
0.000676317
0.00166238
0.00318868
0.00538853
0.00847352
0.0127283
0.0184823
0.0255086
0.0330906
0.0407697
0.0481339
0.000412898
0.000670901
0.00164737
0.00315875
0.00533492
0.00838335
0.0125826
0.0182754
0.0253799
0.0331664
0.0411192
0.0488536
0.000414755
0.000665544
0.00163268
0.00312967
0.00528337
0.00829748
0.0124451
0.0180732
0.0252277
0.0331978
0.0413932
0.0493838
0.000416185
0.000660238
0.00161818
0.00310107
0.00523297
0.00821424
0.0123132
0.0178769
0.025057
0.0332
0.0416502
0.0499705
0.00041721
0.000655021
0.00160383
0.00307241
0.00518263
0.00813135
0.012182
0.0176785
0.0248531
0.0331426
0.0418289
0.0504283
0.000417897
0.00065001
0.00159015
0.003044
0.005133
0.00805019
0.0120544
0.0174853
0.0246299
0.0330356
0.0419423
0.0508366
0.000418301
0.000645112
0.00157678
0.00301586
0.00508396
0.00797028
0.0119294
0.0172963
0.0243942
0.0328837
0.0419803
0.0511219
0.000418546
0.000640466
0.00156401
0.0029891
0.00503735
0.00789446
0.0118113
0.0171184
0.0241631
0.0327155
0.0419899
0.0513929
0.000418688
0.000636139
0.00155195
0.0029638
0.00499312
0.00782232
0.0116987
0.0169482
0.0239329
0.0325209
0.041938
0.0515356
0.000418831
0.000632301
0.00154112
0.00294095
0.00495295
0.00775649
0.0115957
0.0167924
0.0237191
0.0323321
0.0418863
0.0517066
0.000419022
0.000628961
0.00153161
0.00292073
0.00491714
0.00769732
0.0115022
0.0166499
0.0235193
0.0321453
0.0418204
0.0518305
0.000419238
0.00062604
0.00152336
0.00290319
0.00488604
0.00764561
0.0114198
0.0165225
0.0233361
0.0319639
0.0417464
0.051932
0.000419446
0.000623411
0.00151608
0.00288792
0.00485921
0.00760118
0.0113489
0.0164124
0.0231753
0.0318001
0.0416837
0.0520441
0.000419679
0.000620944
0.0015094
0.00287414
0.0048355
0.00756259
0.011288
0.0163184
0.0230379
0.0316592
0.0416435
0.0521918
0.000419891
0.000618489
0.00150287
0.00286091
0.00481321
0.00752729
0.0112335
0.0162359
0.0229177
0.0315345
0.0416114
0.0523418
0.00041997
0.000615934
0.0014962
0.00284744
0.0047907
0.00749214
0.0111811
0.016159
0.0228092
0.0314212
0.0415791
0.0524606
0.000419946
0.000613364
0.00148942
0.00283357
0.00476718
0.0074553
0.0111264
0.0160808
0.022702
0.0313111
0.0415476
0.0525711
0.000419887
0.000610882
0.00148272
0.00281973
0.00474326
0.00741704
0.0110684
0.0159969
0.0225878
0.0311939
0.0415213
0.0527226
0.000419786
0.000608528
0.00147636
0.00280636
0.00471971
0.00737833
0.0110077
0.015905
0.0224545
0.0310354
0.0414342
0.0528097
0.000419569
0.000606277
0.00147032
0.00279373
0.00469741
0.00734168
0.0109498
0.0158152
0.0223175
0.0308471
0.0412591
0.0527032
0.000419303
0.00060418
0.00146458
0.00278174
0.00467637
0.00730727
0.0108961
0.0157338
0.022197
0.0306875
0.0411263
0.0526804
0.000419036
0.000602309
0.00145936
0.00277076
0.00465683
0.00727514
0.0108456
0.0156577
0.0220863
0.0305453
0.0410227
0.052737
0.000418768
0.000600741
0.00145488
0.00276105
0.00463916
0.00724532
0.010798
0.0155842
0.021977
0.0303991
0.0408964
0.0527205
0.000418547
0.000599553
0.00145133
0.00275308
0.00462418
0.00721954
0.0107559
0.0155176
0.0218742
0.0302529
0.0407502
0.0526541
0.000418447
0.000598775
0.0014488
0.00274712
0.00461256
0.00719893
0.0107216
0.0154629
0.0217897
0.0301319
0.0406288
0.052607
0.000418471
0.000598534
0.00144757
0.00274345
0.00460446
0.00718336
0.0106941
0.0154177
0.0217193
0.0300347
0.0405475
0.0526276
0.000418565
0.000598801
0.00144774
0.00274243
0.00460048
0.00717376
0.0106749
0.0153828
0.0216611
0.0299496
0.0404751
0.0526578
0.000418755
0.000599572
0.00144924
0.00274398
0.00460091
0.0071708
0.0106648
0.0153597
0.0216163
0.0298765
0.0404046
0.0526692
0.000419034
0.000600753
0.00145195
0.00274814
0.00460591
0.00717537
0.0106659
0.0153524
0.0215923
0.0298286
0.0403585
0.0527017
0.000419382
0.000602373
0.00145586
0.00275457
0.00461492
0.00718661
0.0106781
0.0153619
0.0215927
0.0298123
0.040345
0.0527594
0.000419782
0.000604426
0.00146085
0.00276294
0.00462707
0.00720308
0.0106991
0.0153866
0.0216181
0.0298351
0.0403842
0.0528557
0.000420262
0.000607005
0.00146698
0.00277326
0.00464208
0.00722352
0.0107258
0.0154206
0.0216601
0.0298897
0.040488
0.0530617
0.000420805
0.000610213
0.0014746
0.00278596
0.00466028
0.00724775
0.0107564
0.0154582
0.0217062
0.0299508
0.0406131
0.0533756
0.00042131
0.000614119
0.00148387
0.00280143
0.00468235
0.00727667
0.0107918
0.0154988
0.0217498
0.0299958
0.0406845
0.0535418
0.00042179
0.000618804
0.00149506
0.00282046
0.00470991
0.00731312
0.0108365
0.0155494
0.0218024
0.0300465
0.0407603
0.0537504
0.000422258
0.00062419
0.00150812
0.00284323
0.00474382
0.00735935
0.0108947
0.0156172
0.0218735
0.0301116
0.0408306
0.0539283
0.000422626
0.00063026
0.001523
0.00286948
0.00478374
0.00741526
0.0109679
0.0157064
0.0219736
0.0302114
0.0409279
0.0541041
0.000422862
0.000636963
0.00153952
0.00289877
0.00482885
0.00747981
0.011055
0.0158175
0.0221068
0.0303596
0.0410908
0.0543512
0.000422995
0.000644372
0.00155773
0.00293103
0.00487855
0.00755119
0.0111526
0.0159455
0.0222678
0.0305529
0.0413243
0.0547097
0.000422985
0.000652769
0.00157787
0.00296624
0.00493231
0.00762798
0.0112569
0.0160825
0.0224425
0.0307695
0.0415903
0.0550534
0.000422665
0.000661843
0.00159982
0.00300485
0.00499123
0.00771101
0.011368
0.0162253
0.0226216
0.030993
0.0418897
0.0555938
0.000422028
0.000672009
0.00162452
0.00304805
0.00505665
0.00780266
0.0114892
0.0163774
0.0228027
0.0311973
0.0421101
0.0559431
0.000421124
0.000683234
0.00165156
0.00309541
0.00512908
0.00790526
0.0116254
0.0165478
0.0230029
0.031414
0.0423201
0.0561991
0.00041982
0.000695381
0.00168083
0.00314736
0.00520959
0.00802039
0.0117803
0.0167454
0.0232408
0.0316801
0.0425859
0.0564804
0.000418049
0.00070873
0.0017129
0.00320393
0.00529685
0.00814572
0.0119513
0.0169684
0.0235192
0.0320108
0.0429549
0.0569016
0.000415747
0.000723477
0.00174785
0.00326476
0.00539035
0.00827971
0.0121335
0.0172067
0.0238205
0.0323797
0.0433935
0.0574295
0.000412793
0.000739771
0.00178623
0.0033314
0.00549214
0.00842364
0.0123262
0.0174539
0.0241275
0.0327533
0.0438493
0.0580488
0.000409163
0.000758161
0.00182902
0.00340515
0.00560384
0.00858008
0.0125326
0.0177123
0.0244353
0.0331008
0.0442154
0.0584024
0.000404687
0.000778588
0.00187642
0.00348729
0.00572908
0.00875579
0.0127639
0.0179998
0.0247718
0.0334666
0.044574
0.0587164
0.000399246
0.000801587
0.00192953
0.00357929
0.00586936
0.00895328
0.0130255
0.0183279
0.0251591
0.0338883
0.0449687
0.0589329
0.000392759
0.000827533
0.00198865
0.00368114
0.00602502
0.00917351
0.0133191
0.0186998
0.0256089
0.034407
0.0455426
0.0595788
0.000385146
0.000856545
0.0020538
0.00379345
0.00619657
0.0094154
0.0136404
0.0191053
0.0260963
0.0349628
0.0461327
0.0601279
0.0003768
0.000889844
0.00212694
0.00391839
0.00638613
0.00968092
0.013991
0.0195456
0.0266227
0.0355621
0.0467837
0.0608183
0.000368822
0.000928694
0.00220952
0.00405808
0.00659688
0.00997449
0.0143746
0.0200204
0.0271797
0.0361766
0.0474096
0.0613745
0.000362471
0.000975034
0.00230457
0.00421763
0.00683621
0.0103049
0.0148022
0.0205425
0.0277815
0.0368269
0.0480585
0.0619665
0.000358182
0.00103209
0.00241692
0.00440428
0.00711343
0.0106842
0.015288
0.0211276
0.0284429
0.0375199
0.0487074
0.0624405
0.000335273
0.00110015
0.00255516
0.00463451
0.00745095
0.0111399
0.015863
0.0218099
0.0292016
0.0383026
0.0494418
0.0630484
0.000257143
0.00117635
0.0027319
0.00493581
0.00789115
0.0117238
0.0165842
0.0226466
0.0301074
0.0392083
0.0502475
0.0636155
0.00023663
0.00127683
0.00297024
0.00535098
0.00850854
0.0125505
0.0175991
0.0237938
0.0313063
0.0403688
0.0512569
0.0643642
0.000269828
0.00146547
0.0033912
0.00606175
0.00953255
0.0138871
0.0192146
0.0256061
0.0331771
0.0421031
0.0526814
0.0653641
0.000375869
0.00216111
0.0047386
0.0080317
0.012041
0.0168261
0.0224655
0.0290165
0.036532
0.0451367
0.0551183
0.066996
0.00106711
0.00434464
0.00849509
0.0132876
0.0186293
0.0244604
0.0307198
0.0373455
0.044272
0.0514272
0.0587517
0.0662168
0.000219787
0.00196418
0.00487913
0.00868231
0.0133289
0.0187624
0.0249113
0.0316715
0.0389305
0.0465662
0.054458
0.0625023
0.000619353
0.00177654
0.00410125
0.00723543
0.0112073
0.0160217
0.0216646
0.0280845
0.0351939
0.0428703
0.0509665
0.059347
0.000632137
0.00157134
0.00358898
0.0063266
0.00984591
0.0141944
0.0194013
0.0254614
0.0323245
0.0398917
0.0480175
0.0565307
0.000647432
0.0013724
0.00316339
0.00561912
0.0088123
0.0128089
0.017663
0.0234004
0.0300039
0.0374027
0.0454675
0.0540209
0.000653399
0.00122427
0.0028449
0.00508534
0.0080247
0.0117377
0.0162936
0.0217398
0.0280861
0.0352897
0.0432437
0.0517842
0.000656458
0.00111601
0.00260292
0.00467207
0.007406
0.0108834
0.0151837
0.0203695
0.0264719
0.0334725
0.0412893
0.0497778
0.000658009
0.0010319
0.00240938
0.00433737
0.00690064
0.0101791
0.0142584
0.0192127
0.0250889
0.0318896
0.0395563
0.0479638
0.000659543
0.000964183
0.00225009
0.00405924
0.00647809
0.00958578
0.0134724
0.0182198
0.0238877
0.0304959
0.0380067
0.0463135
0.000660979
0.000908593
0.00211664
0.00382428
0.0061191
0.0090786
0.0127954
0.0173574
0.0228345
0.029262
0.0366239
0.0448506
0.000662217
0.000862104
0.00200281
0.00362231
0.00580946
0.00863887
0.012205
0.0166003
0.0219027
0.0281603
0.0353724
0.0434714
0.000663271
0.000822608
0.00190454
0.00344715
0.00553876
0.00825289
0.0116844
0.0159288
0.0210705
0.027167
0.0342302
0.0422031
0.000664216
0.000788727
0.00181892
0.00329384
0.00529965
0.00791076
0.011221
0.0153282
0.0203214
0.0262668
0.0331886
0.0410557
0.000665142
0.000760346
0.00174358
0.00315813
0.00508656
0.00760488
0.0108052
0.0147869
0.0196429
0.0254462
0.0322313
0.0399736
0.000667047
0.000744398
0.00167665
0.00303682
0.00489515
0.00732935
0.0104295
0.0142959
0.0190246
0.0246944
0.0313491
0.0389774
0.000670633
0.000742922
0.00161677
0.00292759
0.00472204
0.00707961
0.0100881
0.0138484
0.0184596
0.0240066
0.0305472
0.0381076
0.000675163
0.000748033
0.00156294
0.00282861
0.00456452
0.00685193
0.00977614
0.0134385
0.0179404
0.0233709
0.0297911
0.0371946
0.000679724
0.000754142
0.00151437
0.00273842
0.00442042
0.00664331
0.00948978
0.0130614
0.0174613
0.0227825
0.0290944
0.0364326
0.000683873
0.000759342
0.00147032
0.00265579
0.0042879
0.00645132
0.00922584
0.012713
0.017017
0.0222334
0.0284313
0.0356139
0.000687534
0.000763379
0.00143027
0.00258009
0.00416655
0.00627395
0.00898151
0.0123897
0.0166034
0.0217198
0.0278128
0.0349179
0.000690763
0.000766407
0.00139377
0.00251057
0.00405482
0.00610952
0.00875452
0.0120886
0.0162172
0.0212397
0.0272371
0.0342606
0.000693618
0.000768625
0.00136059
0.0024465
0.00395141
0.00595661
0.00854297
0.0118076
0.0158563
0.0207914
0.026702
0.0336574
0.000696185
0.000770449
0.00133221
0.00238726
0.00385527
0.0058139
0.00834531
0.0115447
0.0155185
0.0203721
0.0262003
0.0330743
0.000698667
0.00077311
0.0013147
0.00233251
0.00376559
0.00568036
0.00816015
0.0112983
0.0152018
0.0199784
0.0257259
0.0325138
0.000701283
0.000777771
0.00131036
0.00228208
0.00368171
0.00555511
0.00798638
0.0110669
0.0149041
0.0196071
0.0252751
0.031975
0.000704117
0.000784348
0.00131414
0.00223572
0.00360316
0.00543745
0.00782298
0.0108491
0.0146233
0.0192551
0.0248436
0.0314512
0.000707091
0.000791908
0.0013207
0.00219301
0.00352945
0.00532662
0.00766901
0.0106437
0.0143577
0.0189215
0.0244362
0.0309835
0.00071006
0.000799454
0.00132709
0.00215347
0.00346018
0.00522208
0.00752367
0.0104494
0.0141064
0.0186054
0.0240507
0.0305264
0.000712923
0.000806436
0.00133218
0.0021166
0.00339505
0.00512377
0.00738619
0.0102657
0.0138683
0.0183055
0.0236822
0.0300773
0.000715595
0.000812582
0.00133581
0.00208218
0.00333381
0.00503137
0.00725615
0.0100914
0.0136419
0.0180189
0.023326
0.029633
0.000718107
0.000818047
0.00133807
0.00205001
0.00327622
0.00494413
0.00713276
0.00992577
0.0134265
0.017746
0.0229908
0.029258
0.00072053
0.000822769
0.0013391
0.00201976
0.00322191
0.00486163
0.00701555
0.00976818
0.0132211
0.0174859
0.0226709
0.0288675
0.000722788
0.000826877
0.00133911
0.00199133
0.00317061
0.00478336
0.00690396
0.00961804
0.0130255
0.0172378
0.0223636
0.0284891
0.000724883
0.000830417
0.00133829
0.00196459
0.00312196
0.00470893
0.00679773
0.00947485
0.0128384
0.0169992
0.0220635
0.0281056
0.000726882
0.000833645
0.00133691
0.00193984
0.00307588
0.00463814
0.00669632
0.00933794
0.0126594
0.0167716
0.0217854
0.0278155
0.000728881
0.000836564
0.00133529
0.00191822
0.00303219
0.00457065
0.00659938
0.00920703
0.0124881
0.0165529
0.0215098
0.0274333
0.000730809
0.000839308
0.00133426
0.00190236
0.00299086
0.0045063
0.00650674
0.00908179
0.012324
0.016344
0.0212555
0.0271907
0.000732695
0.000842227
0.00133487
0.0018943
0.00295209
0.00444489
0.00641817
0.00896193
0.0121672
0.0161448
0.0210106
0.026871
0.00073464
0.00084553
0.00133771
0.00189324
0.00291591
0.00438637
0.00633342
0.00884726
0.0120171
0.0159542
0.0207756
0.0265962
0.000736711
0.000849427
0.00134271
0.00189665
0.00288224
0.00433053
0.00625236
0.00873754
0.0118737
0.0157719
0.0205486
0.0263084
0.00073886
0.000853709
0.00134931
0.00190223
0.0028508
0.00427738
0.00617534
0.00863268
0.0117364
0.0155969
0.02033
0.0260382
0.00074108
0.000858421
0.00135687
0.00190848
0.00282148
0.00422689
0.00610199
0.00853212
0.0116046
0.0154287
0.0201184
0.0257729
0.000743452
0.000863243
0.00136471
0.00191452
0.002794
0.0041789
0.00603196
0.0084359
0.0114784
0.0152668
0.0199144
0.0255226
0.000745851
0.000868051
0.00137245
0.00191992
0.00276808
0.00413316
0.00596507
0.00834376
0.011357
0.015111
0.0197197
0.0252925
0.000748266
0.000872699
0.00137984
0.00192457
0.00274363
0.00408968
0.00590128
0.00825525
0.0112403
0.0149612
0.0195325
0.0250625
0.000750645
0.00087711
0.00138668
0.00192844
0.00272044
0.00404804
0.00583986
0.00817015
0.0111283
0.0148174
0.0193508
0.0248305
0.000753056
0.000881327
0.00139295
0.00193145
0.0026985
0.00400854
0.0057813
0.00808872
0.0110206
0.0146788
0.0191776
0.0246337
0.000755446
0.000885245
0.00139866
0.00193378
0.00267753
0.00397058
0.00572499
0.00801031
0.0109172
0.0145461
0.0190124
0.0244324
0.000757856
0.00088899
0.00140378
0.00193548
0.00265783
0.00393455
0.00567134
0.00793533
0.010818
0.0144192
0.0188546
0.0242401
0.000760371
0.000892541
0.00140843
0.0019366
0.00263923
0.00390037
0.00562017
0.00786349
0.0107231
0.0142974
0.0187008
0.0240395
0.000762887
0.000896003
0.0014128
0.0019374
0.00262187
0.00386752
0.00557094
0.00779474
0.0106324
0.0141806
0.0185531
0.0238593
0.000765404
0.000899169
0.00141666
0.00193797
0.00260652
0.00383647
0.00552424
0.00772921
0.0105455
0.0140687
0.0184121
0.0236883
0.000768014
0.000902256
0.0014203
0.0019386
0.00259376
0.00380723
0.0054798
0.00766644
0.0104624
0.0139617
0.0182776
0.023524
0.000770708
0.000905417
0.00142401
0.0019398
0.00258451
0.00377942
0.00543718
0.00760659
0.0103833
0.0138597
0.0181479
0.0233552
0.000773408
0.000908353
0.00142765
0.00194194
0.00257957
0.00375375
0.0053971
0.00754999
0.0103079
0.0137619
0.0180242
0.0232026
0.000776284
0.000911548
0.00143171
0.00194526
0.00257829
0.00372968
0.00535891
0.00749614
0.0102361
0.0136688
0.0179035
0.023036
0.000779343
0.000914783
0.00143617
0.00194999
0.00258047
0.00370788
0.00532328
0.00744569
0.010168
0.0135802
0.017791
0.0229167
0.000782522
0.000918244
0.00144125
0.00195598
0.00258493
0.00368811
0.00529
0.00739818
0.0101036
0.0134966
0.0176862
0.0227922
0.000785848
0.00092194
0.00144702
0.00196305
0.0025907
0.00366992
0.00525879
0.00735371
0.0100434
0.0134183
0.0175874
0.0226629
0.000789351
0.000925733
0.00145306
0.00197087
0.00259755
0.0036538
0.00523012
0.00731238
0.00998686
0.0133448
0.0174932
0.0225411
0.000793196
0.000929775
0.00145957
0.00197917
0.00260478
0.00363952
0.00520387
0.00727416
0.00993456
0.0132769
0.01741
0.0224666
0.000797248
0.000934066
0.00146654
0.00198786
0.00261212
0.00362674
0.00517987
0.00723925
0.00988677
0.0132146
0.01733
0.0223376
0.00080151
0.000938338
0.00147353
0.0019967
0.00261974
0.00361596
0.00515872
0.00720795
0.00984347
0.0131587
0.0172643
0.0223102
0.000806116
0.000942783
0.00148068
0.00200552
0.00262715
0.00360676
0.00514005
0.00718018
0.00980536
0.0131099
0.0172033
0.0221892
0.000811055
0.000947317
0.00148786
0.00201436
0.0026348
0.00359968
0.00512455
0.00715677
0.00977269
0.0130674
0.0171468
0.0221152
0.00081634
0.000951941
0.00149512
0.00202313
0.00264245
0.00359475
0.00511248
0.0071378
0.00974587
0.013032
0.0171007
0.0220647
0.000822123
0.000956904
0.00150258
0.00203198
0.00265024
0.00359193
0.00510375
0.00712375
0.00972565
0.0130045
0.0170595
0.0219676
0.000828514
0.000961781
0.00150984
0.0020408
0.00265847
0.00359195
0.00509945
0.00711562
0.00971266
0.012985
0.0170278
0.0219366
0.000835616
0.000966905
0.00151724
0.00204965
0.00266708
0.00359516
0.0051001
0.00711405
0.00970799
0.0129755
0.0170107
0.0219249
0.000843582
0.000972463
0.00152508
0.00205886
0.0026764
0.00360203
0.00510658
0.00712053
0.00971359
0.0129786
0.017011
0.0219268
0.000852645
0.000978003
0.00153277
0.00206833
0.00268685
0.00361381
0.00512054
0.00713684
0.0097313
0.0129967
0.0170282
0.0219333
0.000863488
0.000985271
0.0015423
0.00207927
0.00269936
0.00363338
0.00514546
0.00716694
0.0097658
0.0130341
0.0170673
0.0219878
0.000873914
0.000986501
0.00154703
0.00208737
0.00271097
0.00365564
0.00517741
0.0072086
0.00981623
0.0130922
0.0171325
0.022056
0.000933005
0.00103087
0.00157966
0.00211826
0.00274672
0.00372691
0.00526523
0.00730777
0.00992272
0.013201
0.0172399
0.0221548
0.000234714
0.000834448
0.00151317
0.002057
0.0026791
0.00365976
0.00520744
0.00726633
0.00990522
0.013218
0.0172991
0.0222444
0.138367
0.111378
0.125775
0.14008
0.105134
0.139241
0.100634
0.170869
0.04921
0.135626
0.137883
0.129892
0.13477
0.0475457
0.147477
0.0819588
0.137673
0.0511628
0.072064
0.0541187
0.0740976
0.137059
0.0973588
0.118489
0.191327
0.139787
0.0361541
0.363954
0.106542
0.121172
0.120451
0.10585
0.108469
0.135361
0.131459
0.0766091
0.0924372
0.0579829
0.162252
0.126132
0.138076
0.116261
0.122474
0.119479
0.087698
0.138354
0.139226
0.132986
0.140043
0.140537
0.165403
0.0565168
0.130985
0.132127
0.136558
0.0754535
0.138506
0.138386
0.0825763
0.13373
0.136056
0.129839
0.0578016
0.139566
0.109436
0.136387
0.133423
0.137816
0.138242
0.110584
0.124735
0.100631
0.0920523
0.138211
0.143936
0.103393
0.114982
0.128867
0.137509
0.140093
0.129809
0.107623
0.139032
0.130122
0.0539064
0.114555
0.136756
0.141027
0.135264
0.13776
0.0813562
0.106973
0.135895
0.10737
0.111418
0.150364
0.0646395
0.114051
0.140082
0.0672755
0.105832
0.125249
0.110254
0.109957
0.13711
0.0990811
0.138509
0.134822
0.137445
0.173068
0.139999
0.106459
0.0672135
0.0382651
0.116769
0.139952
0.0826203
0.134409
0.0983652
0.108623
0.124746
0.132044
0.045588
0.132118
0.114127
0.134049
0.140104
0.0963522
0.0641998
0.135526
0.141333
0.104642
0.107497
0.121845
0.0618823
0.108147
0.0793074
0.137555
0.113715
0.138533
0.0746035
0.0976786
0.0985524
0.130761
0.137821
0.0980334
0.136468
0.136829
0.140201
0.0725598
0.0996854
0.13906
0.102354
0.134199
0.0344692
0.133496
0.137621
0.0357219
0.121863
0.137749
0.100668
0.0751069
0.138672
0.0897786
0.120704
0.140003
0.137939
0.0492014
0.0739567
0.115878
0.0912867
0.13775
0.112866
0.134843
0.138144
0.0921147
0.100193
0.122961
0.129822
0.262771
0.100683
0.135784
0.0844369
0.125627
0.140011
0.138797
0.155194
0.0188064
0.0912874
0.129201
0.0538454
0.0520239
0.130757
0.131374
0.120874
0.105953
0.134668
0.0975356
0.0536575
0.139644
0.128253
0.150695
0.13352
0.10769
0.133127
0.122099
0.138918
0.0890164
0.133359
0.138895
0.113666
0.0873876
0.0633602
0.108749
0.122127
0.137922
0.129071
0.0827529
0.0779365
0.133229
0.0822622
0.124914
0.178799
0.139429
0.136274
0.0939054
0.126446
0.0475853
0.187422
0.144354
0.136444
0.0439552
0.104125
0.049514
0.0554561
0.0513749
0.137108
0.135959
0.172708
0.0775558
0.111031
0.0927331
0.0913603
0.136652
0.0711186
0.101417
0.0599492
0.054537
0.139942
0.268524
0.137874
0.122877
0.093537
0.139154
0.140093
0.0782799
0.061865
0.116834
0.138734
0.0699042
0.137585
0.0668648
0.0509468
0.141618
0.0405016
0.122086
0.0907192
0.131376
0.0649411
0.0777211
0.0930359
0.134101
0.136269
0.0991334
0.140096
0.0796958
0.139573
0.0279425
0.120118
0.0690568
0.0329797
0.0481263
0.138899
0.0982611
0.140018
0.155747
0.139889
0.0811009
0.0934092
0.0903769
0.206477
0.139971
0.0952475
0.123221
0.129877
0.115191
0.110012
0.138428
0.0561496
0.123416
0.122569
0.0899542
0.138769
0.110243
0.137909
0.139705
0.084544
0.131336
0.110602
0.0927821
0.0408035
0.0865177
0.109879
0.135442
0.120893
0.0935879
0.0905248
0.0996061
0.136099
0.116718
0.147823
0.113298
0.0716459
0.138468
0.0930432
0.13653
0.118589
0.112861
0.129584
0.120634
0.1317
0.0563822
0.340364
0.0576788
0.134908
0.116281
0.136898
0.139995
0.170788
0.121311
0.0318558
0.0892632
0.0775597
0.115973
0.12014
0.137373
0.0665407
0.162423
0.0909246
0.103712
0.0909232
0.134721
0.0646666
0.0571157
0.133835
0.0652434
0.115319
0.125151
0.136163
0.0966327
0.0653592
0.138657
0.187108
0.129837
0.0995001
0.163633
0.137642
0.129396
0.139741
0.0340081
0.134306
0.123786
0.139622
0.120513
0.0711111
0.335423
0.134714
0.134063
0.104881
0.0939803
0.0868966
0.0887485
0.132821
0.056642
0.114777
0.0865173
0.115108
0.0529848
0.139366
0.0603186
0.0890005
0.10389
0.161071
0.13007
0.138978
0.105972
0.150824
0.101147
0.134897
0.106833
0.138024
0.136953
0.137955
0.0917001
0.123387
0.0784276
0.143861
0.0445545
0.161132
0.133838
0.350753
0.0813411
0.128597
0.161619
0.101588
0.0798306
0.0540997
0.0654737
0.037587
0.0955687
0.125462
0.0304699
0.0352796
0.0653065
0.123878
0.134647
0.0391883
0.114031
0.137683
0.0919339
0.081795
0.134725
0.130196
0.138903
0.1131
0.134722
0.0782054
0.137534
0.136597
0.0958911
0.123343
0.0739328
0.137374
0.133134
0.130165
0.140331
0.139224
0.101077
0.0925432
0.0508995
0.0886988
0.106066
0.114048
0.1438
0.126201
0.136009
0.346217
0.042987
0.155804
0.13187
0.057832
0.136205
0.138374
0.143945
0.138289
0.155001
0.132178
0.0860674
0.322382
0.0274091
0.137676
0.165236
0.101557
0.134332
0.136339
0.123386
0.306563
0.136237
0.141389
0.123734
0.138018
0.0870969
0.122552
0.11727
0.0656705
0.115098
0.100712
0.0653817
0.117614
0.14009
0.137238
0.137341
0.128006
0.142889
0.154228
0.150023
0.135978
0.135561
0.0501883
0.117697
0.115444
0.137345
0.119315
0.102879
0.1335
0.112402
0.0557963
0.0871351
0.0316304
0.0860835
0.111529
0.139117
0.13336
0.114953
0.163397
0.0452667
0.0849819
0.0652701
0.139831
0.0294782
0.089154
0.0608196
0.139301
0.136455
0.132091
0.137072
0.0912066
0.137148
0.0315451
0.0418427
0.137882
0.0702682
0.138438
0.139836
0.103529
0.139965
0.12041
0.108974
0.059076
0.0276343
0.111576
0.152534
0.071137
0.143297
0.140061
0.111691
0.202642
0.136145
0.131212
0.0630112
0.0683658
0.110373
0.0436964
0.13419
0.138037
0.122946
0.106717
0.0416042
0.119762
0.132337
0.136971
0.0847569
0.0721973
0.128142
0.137199
0.114161
0.105562
0.124524
0.139608
0.138595
0.13515
0.136197