/*--------------------------------*- C++ -*----------------------------------*\
| =========                 |                                                 |
| \\      /  F ield         | OpenFOAM: The Open Source CFD Toolbox           |
|  \\    /   O peration     | Version:  2.3.0                                 |
|   \\  /    A nd           | Web:      www.OpenFOAM.org                      |
|    \\/     M anipulation  |                                                 |
\*---------------------------------------------------------------------------*/
FoamFile
{
    version     2.0;
    format      ascii;
    class       volScalarField;
    location    "10000";
    object      nuTilda;
}
// * * * * * * * * * * * * * * * * * * * * * * * * * * * * * * * * * * * * * //

dimensions      [0 2 -1 0 0 0 0];

internalField   nonuniform List<scalar> 
6710
(
0.0562546
0.0505875
0.0457316
0.041836
0.0388527
0.0360835
0.0333078
0.0306174
0.0280136
0.0254607
0.0229821
0.0210139
0.0639631
0.0597676
0.0561165
0.0529926
0.0504135
0.0483739
0.0468448
0.0457815
0.0451258
0.0448208
0.0448137
0.0450545
0.0704903
0.0674792
0.0649221
0.0627885
0.0610611
0.0597175
0.0587284
0.058058
0.057669
0.0575219
0.0575796
0.0578064
0.0759744
0.0737667
0.0719232
0.070399
0.0691708
0.0682171
0.0675141
0.067038
0.0667649
0.0666715
0.0667362
0.0669378
0.0805168
0.0788834
0.0775141
0.076377
0.0754555
0.0747341
0.0741983
0.0738326
0.0736234
0.0735575
0.0736219
0.073804
0.0842858
0.0830693
0.0820232
0.0811421
0.0804192
0.0798466
0.0794158
0.0791188
0.0789479
0.0788965
0.0789572
0.0791227
0.0874714
0.0865272
0.0857013
0.0849951
0.0844062
0.0839329
0.083573
0.0833222
0.0831771
0.0831345
0.083191
0.0833431
0.0901557
0.0894048
0.0887351
0.0881534
0.0876586
0.0872539
0.0869429
0.0867254
0.0865995
0.0865629
0.0866151
0.086756
0.0924217
0.0918228
0.0912622
0.0907747
0.0903499
0.0899911
0.089714
0.0895212
0.0894109
0.0893805
0.0894268
0.089558
0.0943514
0.0938808
0.0933844
0.0929743
0.0926094
0.0922758
0.0920202
0.0918453
0.0917479
0.0917287
0.0917633
0.0918851
0.0225865
0.0263741
0.0288211
0.0313543
0.0343983
0.0380622
0.0423368
0.0471686
0.0524886
0.05822
0.0642794
0.0706227
0.0454608
0.0460783
0.0470297
0.0483698
0.0501476
0.0523983
0.0551395
0.0583685
0.0620617
0.0661769
0.0706623
0.0755003
0.058163
0.0586763
0.059411
0.0603986
0.0616693
0.0632516
0.0651688
0.067437
0.0700619
0.0730378
0.0763495
0.0800083
0.0672551
0.0677036
0.0683186
0.069118
0.0701195
0.0713406
0.0727976
0.074504
0.0764707
0.0787027
0.0812017
0.0839916
0.0740914
0.0744935
0.0750302
0.075711
0.0765453
0.0775427
0.0787124
0.0800627
0.0816018
0.0833363
0.0852729
0.0874377
0.0793857
0.0797517
0.0802318
0.0808304
0.0815514
0.0823989
0.0833765
0.0844883
0.0857381
0.0871301
0.0886701
0.0903879
0.0835864
0.0839237
0.0843609
0.084899
0.0855383
0.0862789
0.0871206
0.088064
0.0891098
0.0902584
0.0915118
0.0928876
0.0869829
0.0872971
0.0877008
0.0881927
0.0887706
0.0894312
0.0901728
0.0909922
0.091889
0.0928596
0.0939053
0.0950372
0.0897717
0.0900671
0.0904436
0.090899
0.0914298
0.0920271
0.0926933
0.0934168
0.0942028
0.095038
0.095928
0.0968776
0.0920868
0.0923665
0.0927195
0.093142
0.0936338
0.0941748
0.0947849
0.0954284
0.0961338
0.0968637
0.0976355
0.0984428
0.0701656
0.0599696
0.0514375
0.0440471
0.0374106
0.0314749
0.0264955
0.0227601
0.0196365
0.0165468
0.0132674
0.00955094
0.0751979
0.0675979
0.0615447
0.0567128
0.0521751
0.0476414
0.0430425
0.0384048
0.033717
0.0288973
0.0238349
0.0184117
0.0811175
0.076105
0.0718875
0.0676606
0.0632814
0.0587082
0.053917
0.0488722
0.0435337
0.0378556
0.0317875
0.025282
0.0873506
0.0835818
0.0797658
0.0757084
0.0713664
0.0667204
0.0617448
0.0564026
0.0506495
0.044435
0.0377081
0.0304235
0.0928986
0.0894597
0.0858058
0.0818406
0.0775266
0.0728356
0.0677325
0.0621743
0.0561107
0.0494841
0.0422362
0.0343078
0.0973211
0.0940758
0.0905427
0.0866588
0.0823814
0.0776707
0.0724812
0.0667609
0.0604495
0.0534819
0.0457886
0.0373007
0.100848
0.0977547
0.0943352
0.0905335
0.0863012
0.0815883
0.0763385
0.0704894
0.0639726
0.0567125
0.0486299
0.039649
0.103689
0.100734
0.0974257
0.0937075
0.0895245
0.0848201
0.0795266
0.0735715
0.066878
0.0593605
0.0509325
0.0415122
0.106
0.10318
0.0999813
0.0963471
0.0922111
0.0875238
0.0821992
0.0761553
0.0693053
0.0615574
0.0528143
0.0429935
0.107925
0.105215
0.102116
0.0985756
0.0944705
0.0898099
0.0844667
0.078352
0.071364
0.0634064
0.0543621
0.0441325
0.00528147
0.00203342
0.00185577
0.002483
0.00326651
0.0044121
0.00606099
0.00816078
0.0107798
0.013997
0.0178986
0.022591
0.0123374
0.00588687
0.00271755
0.00314076
0.00414443
0.00548229
0.00723843
0.00937631
0.0119564
0.0150424
0.0187104
0.0230394
0.0180907
0.0100502
0.00423934
0.00392293
0.00512793
0.0066319
0.00847903
0.0106458
0.0131792
0.01613
0.0195574
0.0235145
0.0223637
0.0133668
0.00598304
0.00480024
0.00614336
0.00778372
0.00970574
0.0118916
0.0143743
0.0171955
0.0204148
0.0241523
0.0255162
0.0158039
0.0075738
0.00572503
0.00714237
0.0089015
0.0108849
0.0130817
0.0155159
0.018225
0.0212633
0.0246887
0.0278711
0.0175775
0.00888755
0.00664625
0.00810722
0.00996592
0.0120001
0.0142028
0.0165934
0.0192013
0.0220605
0.0251836
0.0296574
0.0188801
0.00994085
0.00753001
0.00902857
0.010968
0.0130443
0.0152507
0.0176005
0.0201118
0.0227982
0.0256607
0.0310264
0.0198495
0.0107894
0.00835857
0.0098982
0.0119031
0.0140152
0.0162233
0.0185335
0.0209516
0.0234796
0.0261193
0.0320677
0.0205771
0.0115074
0.00912362
0.010705
0.0127725
0.0149171
0.0171226
0.0193917
0.0217223
0.0241078
0.0265522
0.032713
0.0207919
0.0117848
0.00982549
0.0115243
0.0135858
0.0157006
0.0179
0.0201587
0.0224123
0.0246595
0.0269451
0.00100615
0.00346471
0.0074807
0.0120035
0.0166551
0.0213257
0.025931
0.0303611
0.0346215
0.0390433
0.0437596
0.0494012
0.000746881
0.00217949
0.00547723
0.00911974
0.0129006
0.0169038
0.0211654
0.0256091
0.0301313
0.0347298
0.0394989
0.0448873
0.000452602
0.00138134
0.00350436
0.00674507
0.0112628
0.015634
0.0198577
0.0240326
0.0282159
0.0324625
0.036893
0.0418293
0.000476744
0.00112812
0.00287497
0.00556998
0.00954578
0.0143208
0.0190657
0.0236279
0.0279133
0.0319308
0.0358636
0.0401198
0.000434617
0.000986463
0.0025063
0.00483527
0.00824855
0.0130068
0.0181178
0.0231572
0.0279355
0.0322422
0.0360381
0.0397003
0.000425961
0.000893519
0.00226028
0.00436337
0.00744776
0.0118293
0.0171133
0.0225087
0.0277758
0.0326306
0.0367719
0.0402506
0.000413903
0.000827044
0.00208114
0.004017
0.00685093
0.0108783
0.0161553
0.0217954
0.0274353
0.0328124
0.0375348
0.0412954
0.00040876
0.00078024
0.00195276
0.00376722
0.00641882
0.0101843
0.0153093
0.0210998
0.0270302
0.0328375
0.0381529
0.0425355
0.000405815
0.000747638
0.00186132
0.0035882
0.00610661
0.00967826
0.014609
0.0204794
0.026639
0.0327934
0.0386144
0.0436074
0.000405748
0.000725138
0.00179695
0.00346056
0.0058815
0.009309
0.0140614
0.0199647
0.0263137
0.0327556
0.0389909
0.044559
0.000407295
0.000709725
0.00175191
0.00337011
0.00571934
0.00903843
0.0136431
0.0195498
0.0260623
0.0327512
0.0393208
0.0453265
0.000409898
0.000699112
0.00172054
0.00330621
0.00560288
0.00884041
0.0133272
0.0192179
0.0258808
0.0327994
0.0396592
0.0460307
0.000412864
0.000691354
0.00169766
0.00325938
0.00551697
0.00869287
0.0130867
0.0189456
0.0257501
0.0328988
0.0400445
0.0467832
0.000415747
0.000684993
0.00167919
0.00322174
0.00544827
0.00857523
0.0128944
0.018707
0.0256358
0.0330098
0.0404338
0.0475118
0.000418334
0.000679294
0.00166288
0.00318882
0.00538858
0.00847354
0.0127283
0.0184823
0.0255086
0.0330906
0.0407697
0.0481339
0.000420557
0.000673925
0.00164788
0.00315889
0.00533497
0.00838337
0.0125826
0.0182754
0.0253799
0.0331664
0.0411192
0.0488536
0.000422351
0.000668616
0.0016332
0.00312981
0.00528342
0.0082975
0.0124451
0.0180732
0.0252277
0.0331978
0.0413932
0.0493838
0.000423733
0.000663359
0.00161871
0.00310121
0.00523302
0.00821426
0.0123132
0.0178769
0.025057
0.0332
0.0416502
0.0499705
0.000424724
0.000658191
0.00160436
0.00307255
0.00518268
0.00813137
0.012182
0.0176786
0.0248531
0.0331426
0.0418289
0.0504283
0.000425387
0.000653228
0.00159069
0.00304415
0.00513305
0.00805022
0.0120545
0.0174853
0.0246299
0.0330356
0.0419423
0.0508366
0.000425778
0.000648378
0.00157733
0.00301601
0.00508402
0.0079703
0.0119294
0.0172963
0.0243942
0.0328837
0.0419803
0.0511219
0.000426015
0.000643778
0.00156457
0.00298925
0.0050374
0.00789448
0.0118113
0.0171184
0.0241632
0.0327155
0.0419899
0.0513929
0.000426153
0.000639495
0.00155253
0.00296395
0.00499317
0.00782234
0.0116987
0.0169482
0.0239329
0.0325209
0.041938
0.0515356
0.000426291
0.000635698
0.0015417
0.00294111
0.004953
0.00775651
0.0115957
0.0167924
0.0237191
0.0323321
0.0418863
0.0517066
0.000426476
0.000632392
0.0015322
0.00292089
0.0049172
0.00769734
0.0115022
0.0166499
0.0235193
0.0321453
0.0418204
0.0518305
0.000426684
0.000629503
0.00152395
0.00290335
0.0048861
0.00764563
0.0114198
0.0165225
0.0233361
0.0319639
0.0417464
0.051932
0.000426886
0.000626902
0.00151668
0.00288808
0.00485927
0.00760121
0.0113489
0.0164124
0.0231753
0.0318001
0.0416837
0.0520441
0.000427111
0.000624462
0.00151
0.00287431
0.00483556
0.00756261
0.011288
0.0163184
0.0230379
0.0316592
0.0416435
0.0521918
0.000427316
0.000622034
0.00150349
0.00286108
0.00481327
0.00752732
0.0112336
0.0162359
0.0229177
0.0315345
0.0416114
0.0523418
0.000427392
0.000619509
0.00149681
0.00284761
0.00479076
0.00749217
0.0111811
0.016159
0.0228092
0.0314212
0.0415791
0.0524606
0.000427369
0.000616968
0.00149004
0.00283374
0.00476724
0.00745533
0.0111264
0.0160808
0.022702
0.0313111
0.0415476
0.0525711
0.000427313
0.000614515
0.00148335
0.0028199
0.00474332
0.00741707
0.0110684
0.0159969
0.0225878
0.0311939
0.0415213
0.0527226
0.000427215
0.000612187
0.00147699
0.00280653
0.00471977
0.00737836
0.0110077
0.015905
0.0224545
0.0310354
0.0414343
0.0528097
0.000427005
0.000609963
0.00147095
0.00279391
0.00469747
0.00734171
0.0109498
0.0158152
0.0223175
0.0308471
0.0412591
0.0527032
0.000426748
0.000607891
0.00146522
0.00278191
0.00467643
0.0073073
0.0108961
0.0157338
0.022197
0.0306875
0.0411263
0.0526804
0.000426489
0.000606042
0.00146001
0.00277094
0.0046569
0.00727517
0.0108456
0.0156577
0.0220863
0.0305453
0.0410227
0.052737
0.00042623
0.000604494
0.00145553
0.00276123
0.00463922
0.00724534
0.010798
0.0155842
0.021977
0.0303991
0.0408964
0.0527205
0.000426016
0.00060332
0.00145198
0.00275326
0.00462425
0.00721957
0.0107559
0.0155176
0.0218742
0.0302529
0.0407502
0.0526541
0.00042592
0.000602551
0.00144945
0.0027473
0.00461263
0.00719896
0.0107216
0.0154629
0.0217897
0.0301319
0.0406288
0.052607
0.000425942
0.000602314
0.00144823
0.00274363
0.00460453
0.00718338
0.0106941
0.0154177
0.0217193
0.0300347
0.0405475
0.0526276
0.000426033
0.000602577
0.0014484
0.00274262
0.00460055
0.00717379
0.0106749
0.0153829
0.0216611
0.0299496
0.0404751
0.0526578
0.000426217
0.000603339
0.0014499
0.00274416
0.00460097
0.00717083
0.0106648
0.0153597
0.0216163
0.0298765
0.0404046
0.0526692
0.000426487
0.000604505
0.0014526
0.00274832
0.00460597
0.0071754
0.0106659
0.0153524
0.0215923
0.0298286
0.0403585
0.0527017
0.000426824
0.000606105
0.00145651
0.00275475
0.00461499
0.00718664
0.0106781
0.0153619
0.0215927
0.0298123
0.040345
0.0527594
0.00042721
0.000608134
0.0014615
0.00276312
0.00462713
0.0072031
0.0106991
0.0153866
0.0216181
0.0298351
0.0403842
0.0528557
0.000427675
0.000610683
0.00146762
0.00277344
0.00464215
0.00722354
0.0107258
0.0154206
0.0216602
0.0298897
0.040488
0.0530617
0.0004282
0.000613853
0.00147523
0.00278614
0.00466035
0.00724778
0.0107564
0.0154583
0.0217062
0.0299508
0.0406131
0.0533756
0.000428689
0.000617714
0.0014845
0.00280161
0.00468241
0.0072767
0.0107918
0.0154988
0.0217498
0.0299958
0.0406845
0.0535418
0.000429153
0.000622346
0.00149568
0.00282063
0.00470997
0.00731315
0.0108365
0.0155494
0.0218024
0.0300465
0.0407603
0.0537504
0.000429606
0.000627673
0.00150873
0.0028434
0.00474388
0.00735937
0.0108948
0.0156172
0.0218735
0.0301116
0.0408306
0.0539283
0.000429962
0.000633677
0.00152359
0.00286965
0.0047838
0.00741529
0.0109679
0.0157064
0.0219736
0.0302114
0.0409279
0.0541041
0.000430191
0.000640311
0.0015401
0.00289894
0.00482891
0.00747983
0.011055
0.0158175
0.0221068
0.0303596
0.0410908
0.0543512
0.00043032
0.000647645
0.0015583
0.00293119
0.00487861
0.00755121
0.0111526
0.0159455
0.0222678
0.0305529
0.0413243
0.0547098
0.00043031
0.00065596
0.00157842
0.0029664
0.00493237
0.00762801
0.0112569
0.0160825
0.0224425
0.0307695
0.0415903
0.0550534
0.00043
0.000664949
0.00160036
0.003005
0.00499129
0.00771103
0.011368
0.0162254
0.0226216
0.030993
0.0418897
0.0555938
0.000429384
0.000675024
0.00162504
0.0030482
0.0050567
0.00780268
0.0114892
0.0163774
0.0228027
0.0311973
0.0421101
0.0559431
0.000428509
0.000686152
0.00165206
0.00309555
0.00512913
0.00790528
0.0116254
0.0165478
0.0230029
0.031414
0.0423201
0.0561991
0.000427247
0.0006982
0.00168132
0.0031475
0.00520964
0.00802041
0.0117803
0.0167454
0.0232408
0.0316801
0.0425859
0.0564804
0.000425535
0.000711445
0.00171337
0.00320407
0.0052969
0.00814574
0.0119514
0.0169684
0.0235192
0.0320108
0.0429549
0.0569016
0.00042331
0.000726085
0.0017483
0.00326489
0.0053904
0.00827973
0.0121335
0.0172067
0.0238205
0.0323798
0.0433935
0.0574295
0.000420456
0.000742267
0.00178666
0.00333153
0.00549219
0.00842366
0.0123262
0.0174539
0.0241275
0.0327533
0.0438493
0.0580488
0.000416955
0.00076054
0.00182944
0.00340527
0.00560388
0.00858009
0.0125326
0.0177123
0.0244353
0.0331008
0.0442154
0.0584024
0.000412643
0.000780845
0.00187681
0.0034874
0.00572912
0.00875581
0.0127639
0.0179998
0.0247718
0.0334666
0.044574
0.0587164
0.000407418
0.000803719
0.0019299
0.00357939
0.0058694
0.00895329
0.0130255
0.0183279
0.0251591
0.0338883
0.0449687
0.0589329
0.000401224
0.000829536
0.001989
0.00368124
0.00602506
0.00917353
0.0133191
0.0186998
0.0256089
0.034407
0.0455426
0.0595788
0.000394046
0.00085842
0.00205413
0.00379354
0.0061966
0.00941541
0.0136404
0.0191053
0.0260963
0.0349628
0.0461327
0.060128
0.000386419
0.00089159
0.00212725
0.00391848
0.00638616
0.00968094
0.013991
0.0195456
0.0266227
0.0355621
0.0467837
0.0608183
0.000379814
0.000930314
0.0022098
0.00405816
0.00659691
0.00997451
0.0143746
0.0200204
0.0271797
0.0361766
0.0474096
0.0613745
0.000376433
0.000976532
0.00230483
0.00421771
0.00683624
0.0103049
0.0148022
0.0205425
0.0277815
0.0368269
0.0480585
0.0619665
0.000379723
0.00103346
0.00241716
0.00440435
0.00711346
0.0106842
0.015288
0.0211276
0.0284429
0.0375199
0.0487074
0.0624405
0.000366136
0.00110137
0.00255537
0.00463458
0.00745098
0.0111399
0.015863
0.0218099
0.0292016
0.0383027
0.0494418
0.0630484
0.000281276
0.00117737
0.00273208
0.00493587
0.00789118
0.0117238
0.0165842
0.0226466
0.0301074
0.0392083
0.0502475
0.0636155
0.000256162
0.00127767
0.0029704
0.00535103
0.00850856
0.0125505
0.0175991
0.0237938
0.0313063
0.0403688
0.0512569
0.0643642
0.00028578
0.00146611
0.00339132
0.00606179
0.00953257
0.0138871
0.0192146
0.0256061
0.0331771
0.0421031
0.0526814
0.0653641
0.00038496
0.00216141
0.00473866
0.00803172
0.012041
0.0168261
0.0224655
0.0290165
0.036532
0.0451367
0.0551183
0.066996
0.00106832
0.00434472
0.00849511
0.0132876
0.0186293
0.0244604
0.0307198
0.0373455
0.044272
0.0514272
0.0587517
0.0662168
0.000223064
0.00196451
0.00487918
0.00868233
0.0133289
0.0187624
0.0249113
0.0316715
0.0389305
0.0465663
0.054458
0.0625023
0.000624382
0.00177698
0.00410133
0.00723546
0.0112073
0.0160218
0.0216646
0.0280845
0.0351939
0.0428703
0.0509665
0.059347
0.000635467
0.0015719
0.00358908
0.00632664
0.00984592
0.0141944
0.0194013
0.0254614
0.0323245
0.0398917
0.0480175
0.0565307
0.000650712
0.00137313
0.00316353
0.00561916
0.00881232
0.012809
0.017663
0.0234004
0.0300039
0.0374027
0.0454675
0.0540209
0.000656595
0.00122519
0.00284507
0.0050854
0.00802472
0.0117377
0.0162936
0.0217398
0.0280861
0.0352897
0.0432437
0.0517842
0.000659621
0.00111712
0.00260313
0.00467213
0.00740603
0.0108834
0.0151837
0.0203695
0.0264719
0.0334725
0.0412893
0.0497778
0.000661153
0.00103319
0.00240961
0.00433745
0.00690067
0.0101791
0.0142584
0.0192127
0.0250889
0.0318896
0.0395563
0.0479638
0.000662671
0.00096566
0.00225036
0.00405932
0.00647812
0.00958579
0.0134724
0.0182199
0.0238877
0.0304959
0.0380067
0.0463135
0.000664093
0.000910255
0.00211694
0.00382437
0.00611913
0.00907862
0.0127954
0.0173574
0.0228345
0.029262
0.0366239
0.0448506
0.00066532
0.000863948
0.00200316
0.00362241
0.0058095
0.00863888
0.012205
0.0166003
0.0219027
0.0281603
0.0353724
0.0434714
0.000666364
0.000824632
0.00190492
0.00344726
0.0055388
0.00825291
0.0116844
0.0159288
0.0210705
0.027167
0.0342302
0.0422031
0.0006673
0.000790927
0.00181934
0.00329397
0.0052997
0.00791079
0.011221
0.0153282
0.0203214
0.0262668
0.0331886
0.0410557
0.000668218
0.00076271
0.00174404
0.00315827
0.00508661
0.0076049
0.0108052
0.0147869
0.0196429
0.0254462
0.0322313
0.0399736
0.000670105
0.000746864
0.00167715
0.00303697
0.00489521
0.00732938
0.0104295
0.0142959
0.0190246
0.0246945
0.0313491
0.0389774
0.00067366
0.000745397
0.0016173
0.00292775
0.0047221
0.00707963
0.0100881
0.0138484
0.0184596
0.0240066
0.0305472
0.0381076
0.000678151
0.000750475
0.00156351
0.00282878
0.00456459
0.00685196
0.00977615
0.0134385
0.0179404
0.0233709
0.0297911
0.0371946
0.000682672
0.000756545
0.00151497
0.0027386
0.00442049
0.00664334
0.0094898
0.0130614
0.0174613
0.0227825
0.0290944
0.0364326
0.000686786
0.000761713
0.00147096
0.00265599
0.00428797
0.00645136
0.00922586
0.012713
0.017017
0.0222334
0.0284313
0.0356139
0.000690417
0.000765725
0.00143094
0.0025803
0.00416662
0.00627399
0.00898153
0.0123897
0.0166034
0.0217198
0.0278128
0.0349179
0.000693619
0.000768735
0.00139448
0.00251079
0.00405491
0.00610956
0.00875453
0.0120887
0.0162172
0.0212397
0.0272371
0.0342606
0.000696451
0.000770939
0.00136134
0.00244673
0.0039515
0.00595664
0.00854299
0.0118076
0.0158563
0.0207914
0.026702
0.0336574
0.000698998
0.000772753
0.00133299
0.00238751
0.00385537
0.00581394
0.00834533
0.0115447
0.0155185
0.0203721
0.0262003
0.0330743
0.00070146
0.000775398
0.0013155
0.00233276
0.00376568
0.00568041
0.00816017
0.0112983
0.0152018
0.0199784
0.0257259
0.0325138
0.000704055
0.000780032
0.00131116
0.00228234
0.00368181
0.00555516
0.0079864
0.0110669
0.0149041
0.0196071
0.0252751
0.031975
0.000706868
0.000786571
0.00131494
0.00223599
0.00360326
0.0054375
0.007823
0.0108491
0.0146233
0.0192551
0.0248436
0.0314512
0.000709819
0.00079409
0.00132149
0.0021933
0.00352956
0.00532667
0.00766904
0.0106437
0.0143577
0.0189215
0.0244363
0.0309835
0.000712766
0.000801595
0.00132787
0.00215376
0.0034603
0.00522213
0.0075237
0.0104494
0.0141064
0.0186054
0.0240507
0.0305264
0.000715608
0.000808541
0.00133296
0.00211691
0.00339517
0.00512382
0.00738622
0.0102657
0.0138683
0.0183055
0.0236822
0.0300773
0.00071826
0.000814656
0.00133658
0.0020825
0.00333394
0.00503142
0.00725617
0.0100914
0.0136419
0.0180189
0.023326
0.029633
0.000720753
0.000820093
0.00133884
0.00205034
0.00327634
0.00494418
0.00713279
0.00992578
0.0134265
0.017746
0.0229908
0.029258
0.000723159
0.000824793
0.00133986
0.0020201
0.00322205
0.00486169
0.00701558
0.00976819
0.0132211
0.0174859
0.022671
0.0288675
0.000725401
0.000828881
0.00133988
0.00199168
0.00317075
0.00478342
0.00690399
0.00961806
0.0130255
0.0172378
0.0223636
0.0284891
0.000727481
0.000832404
0.00133906
0.00196494
0.0031221
0.00470899
0.00679776
0.00947487
0.0128384
0.0169992
0.0220635
0.0281056
0.000729466
0.000835616
0.00133768
0.0019402
0.00307602
0.00463821
0.00669636
0.00933796
0.0126594
0.0167716
0.0217854
0.0278155
0.000731451
0.000838522
0.00133607
0.0019186
0.00303234
0.00457072
0.00659941
0.00920705
0.0124881
0.0165529
0.0215098
0.0274333
0.000733366
0.000841253
0.00133503
0.00190274
0.00299101
0.00450637
0.00650678
0.00908181
0.012324
0.016344
0.0212555
0.0271907
0.000735238
0.000844159
0.00133565
0.00189468
0.00295225
0.00444496
0.00641821
0.00896195
0.0121672
0.0161448
0.0210106
0.026871
0.000737171
0.000847447
0.00133848
0.00189362
0.00291608
0.00438644
0.00633345
0.00884728
0.0120171
0.0159542
0.0207756
0.0265962
0.000739227
0.000851327
0.00134347
0.00189703
0.0028824
0.00433061
0.0062524
0.00873756
0.0118737
0.0157719
0.0205486
0.0263084
0.000741362
0.00085559
0.00135007
0.00190261
0.00285097
0.00427745
0.00617537
0.00863269
0.0117364
0.0155969
0.02033
0.0260382
0.000743567
0.000860281
0.00135762
0.00190886
0.00282165
0.00422697
0.00610202
0.00853214
0.0116046
0.0154287
0.0201184
0.0257729
0.000745924
0.000865083
0.00136545
0.00191489
0.00279418
0.00417898
0.006032
0.00843592
0.0114784
0.0152668
0.0199144
0.0255226
0.000748307
0.00086987
0.00137318
0.00192029
0.00276826
0.00413324
0.0059651
0.00834378
0.011357
0.015111
0.0197197
0.0252925
0.000750706
0.000874499
0.00138056
0.00192494
0.00274382
0.00408977
0.00590132
0.00825527
0.0112403
0.0149612
0.0195325
0.0250625
0.00075307
0.000878892
0.0013874
0.00192881
0.00272063
0.00404812
0.0058399
0.00817017
0.0111283
0.0148174
0.0193508
0.0248305
0.000755466
0.000883093
0.00139366
0.00193182
0.00269869
0.00400863
0.00578134
0.00808874
0.0110206
0.0146788
0.0191776
0.0246337
0.00075784
0.000886996
0.00139937
0.00193415
0.00267772
0.00397067
0.00572503
0.00801033
0.0109172
0.0145461
0.0190125
0.0244324
0.000760235
0.000890726
0.00140448
0.00193585
0.00265802
0.00393464
0.00567138
0.00793535
0.010818
0.0144192
0.0188546
0.0242401
0.000762736
0.000894263
0.00140913
0.00193697
0.00263943
0.00390046
0.00562021
0.00786351
0.0107231
0.0142974
0.0187008
0.0240395
0.000765236
0.000897712
0.00141349
0.00193777
0.00262207
0.00386762
0.00557098
0.00779477
0.0106324
0.0141806
0.0185531
0.0238593
0.000767738
0.000900866
0.00141735
0.00193834
0.00260672
0.00383657
0.00552428
0.00772923
0.0105455
0.0140687
0.0184121
0.0236883
0.000770332
0.000903941
0.00142099
0.00193897
0.00259397
0.00380732
0.00547985
0.00766646
0.0104624
0.0139617
0.0182776
0.023524
0.00077301
0.000907091
0.00142469
0.00194016
0.00258472
0.00377952
0.00543723
0.00760661
0.0103833
0.0138597
0.0181479
0.0233552
0.000775694
0.000910016
0.00142833
0.0019423
0.00257978
0.00375385
0.00539715
0.00755001
0.0103079
0.0137619
0.0180242
0.0232026
0.000778554
0.0009132
0.00143238
0.00194562
0.0025785
0.00372978
0.00535896
0.00749617
0.0102361
0.0136688
0.0179035
0.023036
0.000781595
0.000916423
0.00143683
0.00195035
0.00258068
0.00370798
0.00532332
0.00744571
0.010168
0.0135803
0.017791
0.0229167
0.000784757
0.000919872
0.00144191
0.00195634
0.00258513
0.00368821
0.00529005
0.00739821
0.0101037
0.0134966
0.0176862
0.0227922
0.000788064
0.000923555
0.00144768
0.00196341
0.00259091
0.00367003
0.00525884
0.00735374
0.0100434
0.0134183
0.0175874
0.0226629
0.000791548
0.000927334
0.00145371
0.00197123
0.00259775
0.0036539
0.00523017
0.00731241
0.00998688
0.0133448
0.0174932
0.0225411
0.000795371
0.000931363
0.00146022
0.00197953
0.00260498
0.00363962
0.00520392
0.00727418
0.00993458
0.0132769
0.01741
0.0224666
0.000799401
0.00093564
0.00146718
0.00198821
0.00261232
0.00362684
0.00517992
0.00723927
0.00988679
0.0132146
0.0173301
0.0223376
0.000803641
0.000939898
0.00147417
0.00199705
0.00261994
0.00361606
0.00515877
0.00720798
0.00984348
0.0131587
0.0172643
0.0223102
0.000808223
0.000944328
0.00148131
0.00200586
0.00262735
0.00360686
0.0051401
0.0071802
0.00980538
0.0131099
0.0172033
0.0221892
0.000813136
0.000948847
0.00148848
0.0020147
0.002635
0.00359979
0.00512461
0.0071568
0.0097727
0.0130675
0.0171468
0.0221152
0.000818395
0.000953456
0.00149574
0.00202347
0.00264265
0.00359486
0.00511253
0.00713782
0.00974589
0.013032
0.0171007
0.0220647
0.00082415
0.000958403
0.00150319
0.00203231
0.00265044
0.00359203
0.0051038
0.00712377
0.00972566
0.0130045
0.0170595
0.0219676
0.00083051
0.000963266
0.00151044
0.00204113
0.00265867
0.00359205
0.0050995
0.00711565
0.00971267
0.012985
0.0170278
0.0219366
0.000837578
0.000968375
0.00151784
0.00204997
0.00266728
0.00359526
0.00510016
0.00711408
0.00970801
0.0129755
0.0170107
0.0219249
0.000845508
0.000973916
0.00152567
0.00205919
0.00267659
0.00360213
0.00510663
0.00712056
0.0097136
0.0129786
0.017011
0.0219268
0.00085453
0.000979439
0.00153336
0.00206865
0.00268704
0.00361391
0.00512059
0.00713686
0.00973132
0.0129967
0.0170282
0.0219333
0.000865327
0.000986686
0.00154288
0.00207959
0.00269955
0.00363348
0.00514551
0.00716697
0.00976581
0.0130342
0.0170673
0.0219878
0.000875709
0.000987913
0.00154761
0.00208768
0.00271116
0.00365574
0.00517746
0.00720862
0.00981624
0.0130922
0.0171325
0.022056
0.000934583
0.00103216
0.00158021
0.00211856
0.0027469
0.00372701
0.00526527
0.00730779
0.00992273
0.013201
0.0172399
0.0221548
0.000253744
0.000836417
0.00151377
0.00205732
0.00267929
0.00365986
0.00520749
0.00726636
0.00990524
0.013218
0.0172991
0.0222444
0.138367
0.111378
0.125775
0.14008
0.105134
0.139241
0.100634
0.170869
0.04921
0.135626
0.137883
0.129892
0.13477
0.0475457
0.147477
0.0819588
0.137673
0.0511628
0.072064
0.0541187
0.0740976
0.137059
0.0973588
0.118489
0.191327
0.139787
0.0361541
0.363954
0.106542
0.121172
0.120451
0.10585
0.108469
0.135361
0.131459
0.0766091
0.0924372
0.0579829
0.162252
0.126132
0.138076
0.116261
0.122474
0.119479
0.087698
0.138354
0.139226
0.132986
0.140043
0.140537
0.165403
0.0565168
0.130985
0.132127
0.136558
0.0754535
0.138506
0.138386
0.0825763
0.13373
0.136056
0.129839
0.0578016
0.139566
0.109436
0.136387
0.133423
0.137816
0.138242
0.110584
0.124735
0.100631
0.0920523
0.138211
0.143936
0.103393
0.114982
0.128867
0.137509
0.140093
0.129809
0.107623
0.139032
0.130122
0.0539064
0.114555
0.136756
0.141027
0.135264
0.13776
0.0813562
0.106973
0.135895
0.10737
0.111418
0.150364
0.0646395
0.114051
0.140082
0.0672755
0.105832
0.125249
0.110254
0.109957
0.13711
0.0990811
0.138509
0.134822
0.137445
0.173068
0.139999
0.106459
0.0672135
0.0382651
0.116769
0.139952
0.0826203
0.134409
0.0983652
0.108623
0.124746
0.132044
0.045588
0.132118
0.114127
0.134049
0.140104
0.0963522
0.0641998
0.135526
0.141333
0.104642
0.107497
0.121845
0.0618823
0.108147
0.0793074
0.137555
0.113715
0.138533
0.0746035
0.0976786
0.0985524
0.130761
0.137821
0.0980334
0.136468
0.136829
0.140201
0.0725598
0.0996854
0.13906
0.102354
0.134199
0.0344692
0.133496
0.137621
0.0357219
0.121863
0.137749
0.100668
0.0751069
0.138672
0.0897786
0.120704
0.140003
0.137939
0.0492014
0.0739567
0.115878
0.0912867
0.13775
0.112866
0.134843
0.138144
0.0921147
0.100193
0.122961
0.129822
0.262771
0.100683
0.135784
0.0844369
0.125627
0.140011
0.138797
0.155194
0.0188065
0.0912874
0.129201
0.0538454
0.0520239
0.130757
0.131374
0.120874
0.105953
0.134668
0.0975356
0.0536575
0.139644
0.128253
0.150695
0.13352
0.10769
0.133127
0.122099
0.138918
0.0890164
0.133359
0.138895
0.113666
0.0873876
0.0633602
0.108749
0.122127
0.137922
0.129071
0.0827529
0.0779365
0.133229
0.0822622
0.124914
0.178799
0.139429
0.136274
0.0939054
0.126446
0.0475853
0.187422
0.144354
0.136444
0.0439552
0.104125
0.049514
0.0554561
0.0513749
0.137108
0.135959
0.172708
0.0775558
0.111031
0.0927331
0.0913603
0.136652
0.0711186
0.101417
0.0599492
0.054537
0.139942
0.268524
0.137874
0.122877
0.093537
0.139154
0.140093
0.0782799
0.061865
0.116834
0.138734
0.0699042
0.137585
0.0668648
0.0509468
0.141618
0.0405016
0.122086
0.0907192
0.131376
0.0649411
0.0777211
0.0930359
0.134101
0.136269
0.0991334
0.140096
0.0796958
0.139573
0.0279425
0.120118
0.0690568
0.0329797
0.0481263
0.138899
0.0982611
0.140018
0.155747
0.139889
0.0811009
0.0934092
0.0903769
0.206477
0.139971
0.0952475
0.123221
0.129877
0.115191
0.110012
0.138428
0.0561496
0.123416
0.122569
0.0899542
0.138769
0.110243
0.137909
0.139705
0.084544
0.131336
0.110602
0.0927821
0.0408035
0.0865177
0.109879
0.135442
0.120893
0.0935879
0.0905248
0.0996061
0.136099
0.116718
0.147823
0.113298
0.0716459
0.138468
0.0930432
0.13653
0.118589
0.112861
0.129584
0.120634
0.1317
0.0563822
0.340364
0.0576788
0.134908
0.116281
0.136898
0.139995
0.170788
0.121311
0.0318559
0.0892632
0.0775597
0.115973
0.12014
0.137373
0.0665407
0.162423
0.0909246
0.103712
0.0909232
0.134721
0.0646666
0.0571157
0.133835
0.0652434
0.115319
0.125151
0.136163
0.0966327
0.0653592
0.138657
0.187108
0.129837
0.0995001
0.163633
0.137642
0.129396
0.139741
0.0340081
0.134306
0.123786
0.139622
0.120513
0.0711111
0.335423
0.134714
0.134063
0.104881
0.0939803
0.0868966
0.0887485
0.132821
0.056642
0.114777
0.0865173
0.115108
0.0529848
0.139366
0.0603186
0.0890005
0.10389
0.161071
0.13007
0.138978
0.105972
0.150824
0.101147
0.134897
0.106833
0.138024
0.136953
0.137955
0.0917001
0.123387
0.0784276
0.143861
0.0445545
0.161132
0.133838
0.350753
0.0813411
0.128597
0.161619
0.101588
0.0798306
0.0540997
0.0654737
0.037587
0.0955687
0.125462
0.0304699
0.0352796
0.0653065
0.123878
0.134647
0.0391883
0.114031
0.137683
0.0919339
0.081795
0.134725
0.130196
0.138903
0.1131
0.134722
0.0782054
0.137534
0.136597
0.0958911
0.123343
0.0739328
0.137374
0.133134
0.130165
0.140331
0.139224
0.101077
0.0925432
0.0508995
0.0886988
0.106066
0.114048
0.1438
0.126201
0.136009
0.346217
0.042987
0.155804
0.13187
0.057832
0.136205
0.138374
0.143945
0.138289
0.155001
0.132178
0.0860674
0.322382
0.0274091
0.137676
0.165236
0.101557
0.134332
0.136339
0.123386
0.306563
0.136237
0.141389
0.123734
0.138018
0.0870969
0.122552
0.11727
0.0656705
0.115098
0.100712
0.0653817
0.117614
0.14009
0.137238
0.137341
0.128006
0.142889
0.154228
0.150023
0.135978
0.135561
0.0501883
0.117697
0.115444
0.137345
0.119315
0.102879
0.1335
0.112402
0.0557963
0.0871351
0.0316304
0.0860835
0.111529
0.139117
0.13336
0.114953
0.163397
0.0452667
0.0849819
0.0652701
0.139831
0.0294782
0.089154
0.0608196
0.139301
0.136455
0.132091
0.137072
0.0912066
0.137148
0.0315451
0.0418427
0.137882
0.0702682
0.138438
0.139836
0.103529
0.139965
0.12041
0.108974
0.059076
0.0276343
0.111576
0.152534
0.071137
0.143297
0.140061
0.111691
0.202642
0.136145
0.131212
0.0630112
0.0683658
0.110373
0.0436964
0.13419
0.138037
0.122946
0.106717
0.0416042
0.119762
0.132337
0.136971
0.0847569
0.0721973
0.128142
0.137199
0.114161
0.105562
0.124524
0.139608
0.138595
0.13515
0.136197
0.136314
0.127794
0.139755