/*--------------------------------*- C++ -*----------------------------------*\
| =========                 |                                                 |
| \\      /  F ield         | OpenFOAM: The Open Source CFD Toolbox           |
|  \\    /   O peration     | Version:  2.3.0                                 |
|   \\  /    A nd           | Web:      www.OpenFOAM.org                      |
|    \\/     M anipulation  |                                                 |
\*---------------------------------------------------------------------------*/
FoamFile
{
    version     2.0;
    format      ascii;
    class       volScalarField;
    location    "10000";
    object      p;
}
// * * * * * * * * * * * * * * * * * * * * * * * * * * * * * * * * * * * * * //

dimensions      [0 2 -2 0 0 0 0];

internalField   nonuniform List<scalar> 
6710
(
0.0021594
0.310135
1.32508
3.05535
5.75051
9.69533
15.23
23.2107
34.2936
46.0734
54.8283
71.6976
19.0619
22.4913
27.1601
33.405
41.4106
51.2912
63.0538
76.6278
91.743
107.909
124.786
141.971
33.878
39.4071
45.3963
52.1815
59.6695
67.8122
76.5209
85.6764
95.0996
104.604
114.037
123.243
44.9434
50.9343
57.1978
64.0877
71.4974
79.3393
87.4976
95.8386
104.207
112.442
120.384
127.89
53.2445
58.895
64.7701
70.9217
77.3334
83.9526
90.7194
97.5613
104.393
111.124
117.658
123.915
60.1292
64.8862
70.2262
75.7643
81.509
87.4091
93.4152
99.4718
105.518
111.48
117.284
122.867
64.9671
69.1357
73.9539
78.907
84.0311
89.2878
94.6437
100.062
105.492
110.875
116.151
121.26
68.3252
72.1991
76.5937
81.0784
85.7363
90.524
95.4094
100.363
105.336
110.296
115.195
119.967
71.4842
74.8651
78.7409
82.7893
87.0523
91.4294
95.942
100.565
105.211
109.884
114.493
119.006
74.8307
77.2433
80.9181
84.505
88.3803
92.2921
96.4384
100.855
105.375
109.977
114.33
118.584
123.317
151.478
170.242
185.193
197.513
206.942
213.316
216.648
217.114
215.107
211.588
207.726
157.419
169.878
180.128
188.389
194.695
199.102
201.763
202.9
202.73
201.463
199.624
197.646
132.232
141.172
149.889
158.109
165.61
172.202
177.724
182.053
185.099
186.861
187.668
187.8
134.972
141.768
148.272
154.358
159.912
164.846
169.093
172.609
175.354
177.315
178.69
179.578
129.929
135.792
141.477
146.886
151.928
156.53
160.627
164.172
167.12
169.451
171.284
172.666
128.23
133.419
138.417
143.154
147.572
151.618
155.258
158.463
161.212
163.487
165.397
166.99
126.189
130.952
135.521
139.844
143.877
147.575
150.925
153.897
156.496
158.694
160.583
162.199
124.585
129.034
133.279
137.284
141.025
144.449
147.578
150.343
152.807
154.892
156.724
158.347
123.414
127.659
131.692
135.507
139.076
142.238
145.186
147.691
150.015
151.882
153.609
155.096
122.769
126.78
130.587
134.26
137.705
140.546
143.159
145.283
147.445
149.089
150.742
152.069
-29.1203
-30.6298
-31.9482
-32.946
-33.499
-33.5225
-33.0116
-31.9997
-30.4929
-28.4809
-25.4999
-19.0463
-26.8496
-28.3118
-29.515
-30.3131
-30.5968
-30.2672
-29.1856
-27.1892
-24.1082
-19.7628
-14.1456
-7.64187
-24.0011
-25.2159
-26.1578
-26.6293
-26.5139
-25.7376
-24.204
-21.8128
-18.4869
-14.2249
-9.17481
-3.77765
-20.7796
-21.6405
-22.2506
-22.4103
-22.0191
-21.0259
-19.3714
-17.0082
-13.9282
-10.184
-5.93785
-1.4769
-17.4643
-18.0604
-18.4243
-18.3692
-17.8228
-16.7466
-15.098
-12.854
-10.0187
-6.64641
-2.85951
1.12254
-14.0771
-14.6484
-14.8496
-14.6493
-14.0196
-12.9345
-11.3503
-9.24391
-6.61136
-3.5009
-0.00836835
3.68815
-10.8199
-11.4705
-11.5903
-11.3128
-10.6381
-9.58685
-8.08178
-6.10645
-3.64194
-0.748714
2.50638
5.9778
-7.8531
-8.57731
-8.66917
-8.36496
-7.63318
-6.61828
-5.17084
-3.28875
-0.874887
1.89129
5.02418
8.3944
-4.93124
-5.87047
-6.11685
-5.8971
-5.03963
-4.1406
-2.83673
-1.16683
1.20575
3.75382
6.63305
9.76234
-0.878756
-2.49273
-3.31554
-2.82445
-1.11019
-0.141396
1.15323
2.85648
5.31836
7.66912
10.83
14.5572
-5.62197
0.942006
5.3139
9.6174
13.9464
18.1865
22.3605
26.5282
30.7504
35.0589
39.3992
43.9246
-0.689279
3.75899
6.592
9.61409
13.0007
16.6942
20.61
24.6663
28.8196
33.0525
37.284
41.5148
1.48758
6.43993
9.86992
12.7493
15.7032
18.8069
22.0645
25.4648
29.0037
32.6894
36.4609
40.1632
2.97417
7.47771
11.0818
14.0024
16.9407
19.9306
22.982
26.1018
29.2962
32.5817
36.0188
39.5135
5.10668
9.0685
12.5068
15.3079
18.1141
20.9519
23.8281
26.7454
29.7033
32.6928
35.7855
39.1398
7.4002
11.0443
14.3242
17.0252
19.6812
22.3414
25.0122
27.7011
30.4131
33.134
35.9099
38.9326
9.48747
12.9367
16.0993
18.728
21.2608
23.7757
26.2733
28.7624
31.2512
33.7303
36.2297
38.8998
11.7923
15.0768
18.0031
20.3988
22.7423
25.1074
27.4574
29.7805
32.0827
34.3586
36.6418
39.0461
13.0416
16.4278
19.4276
21.7566
24.0018
26.2851
28.5344
30.7211
32.8672
34.9662
37.0765
39.2885
18.0081
21.1079
22.6778
23.3943
25.1812
27.3857
29.5995
31.6394
33.6315
35.5758
37.5906
39.7133
-181.753
-167.279
-150.733
-136.964
-122.389
-106.183
-89.7382
-73.8466
-58.9067
-45.5476
-34.4043
-25.7094
-103.152
-103.114
-102.041
-100.59
-99.3234
-97.408
-93.715
-87.8112
-79.6563
-69.5001
-58.0784
-47.0443
-109.277
-109.133
-109.104
-108.686
-107.313
-104.848
-101.424
-96.7683
-90.3998
-82.2349
-72.3719
-62.1961
-101.385
-101.348
-101.226
-101.008
-100.631
-99.9325
-98.6233
-96.5301
-93.3127
-88.3109
-81.0078
-73.0134
-100.512
-100.492
-100.46
-100.365
-100.147
-99.708
-98.8745
-97.4358
-95.168
-91.6916
-86.2434
-80.0506
-98.3469
-98.328
-98.2838
-98.1968
-98.0408
-97.775
-97.3169
-96.5131
-95.1524
-92.8939
-88.9988
-83.5973
-97.3081
-97.2912
-97.2568
-97.1878
-97.0655
-96.8587
-96.515
-95.9438
-94.9982
-93.4727
-90.9161
-87.8588
-96.4045
-96.3874
-96.3524
-96.2873
-96.1801
-96.008
-95.7383
-95.3154
-94.6387
-93.5803
-91.8284
-89.4154
-95.8696
-95.8538
-95.8225
-95.7656
-95.674
-95.5295
-95.3096
-94.9789
-94.4665
-93.6692
-92.4304
-92.0534
-95.5074
-95.494
-95.466
-95.4164
-95.3384
-95.2182
-95.0379
-94.7722
-94.3704
-93.7635
-92.8422
-92.3823
-95.2841
-95.2733
-95.2497
-95.2082
-95.1439
-95.0457
-94.8989
-94.6841
-94.3637
-93.8794
-93.1478
-92.862
-95.1179
-95.1098
-95.0911
-95.0584
-95.0085
-94.9329
-94.8197
-94.6539
-94.407
-94.0272
-93.4552
-93.3333
-94.9418
-94.9361
-94.9216
-94.8966
-94.8591
-94.8026
-94.7176
-94.5926
-94.4084
-94.1291
-93.683
-93.215
-94.7156
-94.7112
-94.6993
-94.6786
-94.6475
-94.6005
-94.5283
-94.4197
-94.2559
-94.0025
-93.5707
-92.6771
-94.4342
-94.4309
-94.4214
-94.405
-94.3806
-94.3436
-94.2866
-94.2
-94.0685
-93.8616
-93.515
-93.0377
-94.0833
-94.0807
-94.0729
-94.0595
-94.0395
-94.009
-93.9609
-93.8857
-93.7689
-93.5915
-93.2946
-92.3647
-93.6652
-93.6633
-93.6572
-93.6469
-93.6316
-93.6084
-93.5716
-93.5134
-93.4209
-93.2681
-93.0034
-92.6758
-93.1759
-93.1745
-93.1696
-93.1613
-93.1489
-93.1298
-93.0989
-93.0479
-92.964
-92.8275
-92.5834
-91.8508
-92.6206
-92.6197
-92.6161
-92.6098
-92.6007
-92.5868
-92.5645
-92.5279
-92.4672
-92.3581
-92.1684
-92.1289
-92.0045
-92.0035
-91.9998
-91.9933
-91.9835
-91.9681
-91.9431
-91.9012
-91.8298
-91.705
-91.4777
-90.9718
-91.3492
-91.3482
-91.345
-91.3393
-91.3306
-91.3172
-91.2955
-91.2599
-91.2014
-91.1036
-90.9493
-90.769
-90.6591
-90.6579
-90.6546
-90.6485
-90.6388
-90.6237
-90.5995
-90.5598
-90.495
-90.3883
-90.2155
-89.8859
-89.9548
-89.9534
-89.95
-89.9437
-89.9337
-89.9181
-89.8934
-89.8536
-89.79
-89.6859
-89.5081
-89.1914
-89.2412
-89.2398
-89.2363
-89.2299
-89.2199
-89.2042
-89.1794
-89.14
-89.0774
-88.9785
-88.8247
-88.5314
-88.5234
-88.5222
-88.519
-88.513
-88.5034
-88.4882
-88.4643
-88.4265
-88.3667
-88.2727
-88.1265
-87.8806
-87.8063
-87.805
-87.802
-87.7962
-87.7871
-87.7725
-87.7496
-87.7134
-87.6564
-87.5665
-87.4201
-87.1492
-87.0907
-87.0892
-87.0863
-87.081
-87.0727
-87.0595
-87.0387
-87.0058
-86.954
-86.8719
-86.7347
-86.4913
-86.37
-86.369
-86.3667
-86.3624
-86.3557
-86.3451
-86.3281
-86.3006
-86.2568
-86.1866
-86.0694
-85.8681
-85.6394
-85.6388
-85.6371
-85.634
-85.629
-85.6209
-85.6075
-85.5857
-85.5505
-85.4952
-85.4065
-85.2655
-84.8988
-84.8983
-84.897
-84.8945
-84.8903
-84.8834
-84.8714
-84.8508
-84.8157
-84.7584
-84.6584
-84.3733
-84.1492
-84.1485
-84.1474
-84.1456
-84.1429
-84.1384
-84.1305
-84.1162
-84.0906
-84.045
-83.9741
-83.982
-83.3809
-83.3806
-83.3799
-83.3789
-83.3774
-83.3748
-83.3695
-83.3588
-83.3384
-83.3041
-83.2467
-83.0317
-82.5942
-82.5943
-82.5942
-82.594
-82.5936
-82.5926
-82.5899
-82.584
-82.572
-82.5488
-82.504
-82.5016
-81.7929
-81.7929
-81.7929
-81.7926
-81.7919
-81.7901
-81.7857
-81.7766
-81.759
-81.7252
-81.6458
-81.4078
-80.9847
-80.9844
-80.9842
-80.984
-80.9836
-80.9824
-80.9794
-80.9726
-80.9585
-80.9301
-80.8779
-80.8379
-80.1632
-80.163
-80.1629
-80.1628
-80.1624
-80.1612
-80.1581
-80.1515
-80.1382
-80.1144
-80.0804
-80.0766
-79.3362
-79.3362
-79.3362
-79.3361
-79.3353
-79.3332
-79.3284
-79.3186
-79.3001
-79.2688
-79.207
-78.9487
-78.511
-78.5106
-78.5104
-78.5101
-78.5093
-78.5073
-78.5029
-78.4944
-78.4789
-78.4497
-78.4002
-78.4605
-77.6841
-77.684
-77.6837
-77.6832
-77.682
-77.6793
-77.6736
-77.6623
-77.6416
-77.6057
-77.5388
-77.331
-76.8599
-76.8598
-76.8598
-76.8598
-76.8596
-76.8582
-76.8546
-76.847
-76.8326
-76.8064
-76.7686
-76.8072
-76.0331
-76.0332
-76.0336
-76.0341
-76.0341
-76.033
-76.0294
-76.0216
-76.0064
-75.9797
-75.9374
-75.8742
-75.2091
-75.2091
-75.2093
-75.2097
-75.21
-75.2094
-75.2064
-75.1993
-75.1854
-75.1612
-75.1233
-75.0717
-74.3796
-74.3798
-74.3804
-74.3815
-74.3825
-74.3828
-74.3809
-74.3749
-74.3618
-74.3383
-74.2999
-74.2305
-73.5465
-73.5469
-73.5479
-73.5497
-73.5518
-73.5534
-73.5533
-73.5494
-73.539
-73.5189
-73.4848
-73.4431
-72.7078
-72.7083
-72.7096
-72.7122
-72.7157
-72.7194
-72.7219
-72.7211
-72.7139
-72.6955
-72.6511
-72.5069
-71.8538
-71.855
-71.8573
-71.8617
-71.8681
-71.8761
-71.8851
-71.894
-71.9008
-71.9017
-71.8962
-71.9494
-70.974
-70.9756
-70.9788
-70.9847
-70.9932
-71.0045
-71.0181
-71.0337
-71.05
-71.0665
-71.09
-71.1756
-70.0644
-70.0663
-70.0704
-70.0776
-70.0878
-70.1011
-70.1171
-70.135
-70.1534
-70.1716
-70.1855
-70.1013
-69.1254
-69.1273
-69.1319
-69.1404
-69.1527
-69.169
-69.1892
-69.2127
-69.2384
-69.2635
-69.2901
-69.3767
-68.1457
-68.1486
-68.155
-68.1657
-68.1809
-68.2008
-68.2254
-68.2543
-68.2869
-68.3223
-68.3601
-68.403
-67.1348
-67.1371
-67.1435
-67.1554
-67.1728
-67.196
-67.2253
-67.2602
-67.2997
-67.3426
-67.3809
-67.3455
-66.0675
-66.0709
-66.0792
-66.0942
-66.1162
-66.1459
-66.1838
-66.2303
-66.2848
-66.3457
-66.4165
-66.5292
-64.9418
-64.9468
-64.9578
-64.9767
-65.0036
-65.0401
-65.0871
-65.1454
-65.2152
-65.2954
-65.3916
-65.5701
-63.7606
-63.7652
-63.777
-63.7984
-63.8297
-63.8728
-63.9294
-64.0007
-64.0871
-64.1884
-64.2961
-64.2927
-62.4896
-62.496
-62.5109
-62.5373
-62.5758
-62.629
-62.6998
-62.7913
-62.9067
-63.0471
-63.219
-63.5544
-61.129
-61.1367
-61.1545
-61.1852
-61.2291
-61.2896
-61.3695
-61.4721
-61.6003
-61.7567
-61.9514
-62.1792
-59.6827
-59.6908
-59.7102
-59.7443
-59.7938
-59.862
-59.9521
-60.0673
-60.2095
-60.3804
-60.5818
-60.7543
-58.1303
-58.1409
-58.1646
-58.2052
-58.2637
-58.3437
-58.4494
-58.5849
-58.7533
-58.9566
-59.1922
-59.4364
-56.4808
-56.4922
-56.519
-56.5656
-56.633
-56.726
-56.8497
-57.0091
-57.2079
-57.4476
-57.7233
-57.9673
-54.7031
-54.7171
-54.7489
-54.8038
-54.8832
-54.9932
-55.1405
-55.332
-55.5735
-55.8701
-56.2347
-56.6814
-52.7878
-52.8051
-52.8434
-52.908
-53.0009
-53.1294
-53.3013
-53.5251
-53.8079
-54.157
-54.5827
-55.0104
-50.7357
-50.7553
-50.7988
-50.873
-50.9799
-51.128
-51.3267
-51.586
-51.9151
-52.3228
-52.8126
-53.3291
-48.5256
-48.5491
-48.6001
-48.6862
-48.8102
-48.9813
-49.2102
-49.5074
-49.8821
-50.3407
-50.8734
-51.2883
-46.1582
-46.1869
-46.2481
-46.3497
-46.4952
-46.6962
-46.9651
-47.3144
-47.7553
-48.2932
-48.9257
-49.6716
-43.631
-43.6647
-43.7359
-43.8545
-44.0248
-44.26
-44.5745
-44.9825
-45.4957
-46.1207
-46.8435
-47.4579
-40.9275
-40.9688
-41.0548
-41.1959
-41.3982
-41.677
-42.0496
-42.5328
-43.1398
-43.8728
-44.7155
-45.6885
-38.0595
-38.1088
-38.2113
-38.3786
-38.618
-38.9481
-39.3886
-39.9581
-40.6701
-41.5283
-42.5043
-43.3826
-35.0287
-35.0897
-35.2144
-35.415
-35.7015
-36.0959
-36.6206
-37.296
-38.1352
-39.1363
-40.2604
-41.3646
-31.8788
-31.9541
-32.1064
-32.3477
-32.6919
-33.164
-33.7892
-34.5882
-35.5695
-36.722
-37.9743
-39.0439
-28.6393
-28.7359
-28.9263
-29.2231
-29.6444
-30.2196
-30.9756
-31.9316
-33.089
-34.4208
-35.8181
-36.9803
-25.3774
-25.5043
-25.7522
-26.129
-26.6598
-27.3768
-28.3064
-29.4586
-30.8168
-32.3277
-33.8514
-35.0275
-22.4957
-22.6471
-22.9584
-23.4301
-24.0925
-24.9787
-26.1062
-27.4659
-29.0122
-30.6542
-32.2118
-33.3657
-20.1918
-20.374
-20.7825
-21.4042
-22.2538
-23.3532
-24.7019
-26.261
-27.9415
-29.6038
-31.0364
-31.9388
-17.6331
-17.9793
-18.6402
-19.6309
-20.9359
-22.5374
-24.3482
-26.2181
-27.9736
-29.448
-30.4782
-30.8863
-18.4418
-21.4285
-23.7608
-25.4055
-26.6306
-27.658
-28.5629
-29.3711
-30.0405
-30.471
-30.5337
-30.0967
366.724
361.648
352.889
340.368
324.654
306.777
288.062
269.913
253.423
239.086
227.11
217.762
276.168
276.935
275.863
274.013
271.521
268.121
263.419
257.161
249.345
240.274
230.719
221.61
261.712
262.205
261.677
260.716
259.097
256.695
253.407
249.147
243.819
237.358
230.014
222.44
261.621
261.098
259.892
258.31
256.221
253.527
250.129
245.955
240.954
235.093
228.48
221.532
248.862
248.526
247.984
247.188
246.039
244.442
242.278
239.417
235.734
231.13
225.624
219.54
237.667
237.527
237.319
236.924
236.297
235.357
233.999
232.095
229.506
226.088
221.762
216.714
230.252
230.148
229.97
229.633
229.125
228.38
227.316
225.833
223.811
221.114
217.623
213.4
223.781
223.699
223.546
223.268
222.855
222.254
221.399
220.206
218.573
216.376
213.49
209.914
217.664
217.605
217.492
217.282
216.968
216.504
215.837
214.894
213.586
211.8
209.408
206.393
212.173
212.131
212.043
211.878
211.629
211.259
210.724
209.963
208.9
207.437
205.456
202.936
207.259
207.225
207.151
207.014
206.806
206.496
206.05
205.414
204.523
203.29
201.595
199.357
202.746
202.719
202.657
202.541
202.365
202.103
201.724
201.185
200.426
199.372
197.914
195.957
198.56
198.539
198.486
198.388
198.238
198.014
197.691
197.231
196.582
195.679
194.43
192.746
194.662
194.645
194.6
194.516
194.386
194.194
193.915
193.516
192.954
192.17
191.076
189.566
191.009
190.998
190.96
190.886
190.774
190.605
190.361
190.013
189.521
188.835
187.881
186.554
187.572
187.565
187.532
187.467
187.368
187.22
187.005
186.698
186.264
185.66
184.832
183.678
184.32
184.316
184.287
184.23
184.141
184.009
183.817
183.542
183.153
182.606
181.851
180.795
181.232
181.23
181.204
181.153
181.073
180.955
180.782
180.536
180.188
179.698
179.027
178.128
178.289
178.287
178.264
178.219
178.147
178.04
177.885
177.664
177.351
176.91
176.299
175.497
175.474
175.473
175.452
175.411
175.347
175.25
175.109
174.909
174.627
174.229
173.68
172.986
172.772
172.771
172.752
172.715
172.656
172.568
172.44
172.258
172.001
171.639
171.136
170.506
170.171
170.169
170.152
170.119
170.065
169.984
169.867
169.7
169.464
169.132
168.668
168.096
167.657
167.657
167.642
167.611
167.562
167.488
167.38
167.226
167.009
166.704
166.275
165.747
165.227
165.227
165.214
165.186
165.141
165.072
164.972
164.83
164.629
164.347
163.95
163.472
162.871
162.871
162.86
162.835
162.793
162.729
162.637
162.505
162.319
162.058
161.689
161.26
160.58
160.581
160.572
160.55
160.511
160.452
160.367
160.245
160.073
159.83
159.486
159.097
158.353
158.354
158.346
158.326
158.29
158.236
158.157
158.045
157.887
157.666
157.354
157.029
156.184
156.185
156.177
156.158
156.124
156.074
156
155.896
155.75
155.548
155.26
154.957
154.058
154.059
154.052
154.034
154.003
153.956
153.887
153.789
153.652
153.462
153.189
152.892
151.973
151.973
151.967
151.951
151.923
151.878
151.814
151.721
151.592
151.411
151.15
150.867
149.929
149.93
149.924
149.909
149.882
149.841
149.78
149.693
149.572
149.403
149.163
148.93
147.927
147.927
147.92
147.906
147.88
147.84
147.782
147.701
147.586
147.428
147.199
146.979
145.952
145.952
145.946
145.932
145.908
145.87
145.815
145.738
145.63
145.481
145.264
145.066
144.001
144.001
143.996
143.984
143.962
143.926
143.875
143.802
143.699
143.556
143.347
143.162
142.08
142.08
142.075
142.064
142.043
142.01
141.961
141.892
141.795
141.66
141.463
141.322
140.188
140.187
140.181
140.17
140.15
140.118
140.072
140.007
139.916
139.79
139.599
139.487
138.309
138.309
138.304
138.294
138.276
138.246
138.203
138.143
138.06
137.947
137.774
137.681
136.442
136.442
136.439
136.431
136.415
136.387
136.348
136.292
136.214
136.11
135.941
135.79
134.598
134.597
134.593
134.585
134.569
134.542
134.505
134.452
134.379
134.284
134.132
133.943
132.755
132.755
132.751
132.745
132.73
132.705
132.67
132.62
132.553
132.465
132.338
132.127
130.918
130.918
130.915
130.909
130.896
130.873
130.84
130.793
130.73
130.647
130.543
130.349
129.083
129.084
129.082
129.076
129.064
129.042
129.011
128.966
128.904
128.819
128.715
128.554
127.259
127.259
127.255
127.249
127.237
127.215
127.184
127.14
127.079
126.994
126.885
126.773
125.43
125.43
125.427
125.422
125.41
125.39
125.36
125.318
125.262
125.183
125.077
125.008
123.599
123.599
123.597
123.592
123.581
123.563
123.535
123.496
123.444
123.373
123.271
123.217
121.77
121.77
121.766
121.761
121.751
121.733
121.707
121.671
121.622
121.558
121.461
121.426
119.929
119.929
119.926
119.921
119.912
119.896
119.871
119.838
119.795
119.738
119.652
119.654
118.078
118.078
118.075
118.07
118.062
118.047
118.025
117.995
117.956
117.907
117.826
117.828
116.208
116.209
116.207
116.203
116.197
116.184
116.164
116.137
116.102
116.06
115.99
115.997
114.332
114.332
114.328
114.324
114.317
114.305
114.286
114.262
114.231
114.195
114.132
114.141
112.42
112.421
112.42
112.418
112.413
112.402
112.386
112.366
112.34
112.311
112.262
112.291
110.506
110.504
110.499
110.494
110.488
110.478
110.463
110.445
110.423
110.402
110.365
110.4
108.54
108.539
108.536
108.533
108.529
108.52
108.507
108.492
108.475
108.459
108.432
108.476
106.528
106.53
106.53
106.529
106.528
106.523
106.513
106.503
106.49
106.481
106.464
106.527
104.515
104.512
104.507
104.503
104.5
104.493
104.485
104.477
104.47
104.47
104.466
104.57
102.423
102.423
102.422
102.421
102.42
102.417
102.412
102.408
102.408
102.416
102.424
102.563
100.281
100.282
100.282
100.283
100.286
100.286
100.285
100.287
100.295
100.315
100.335
100.515
98.1148
98.1124
98.1079
98.1054
98.1055
98.1053
98.1059
98.1116
98.1256
98.1564
98.1867
98.3771
95.8422
95.8436
95.8437
95.8455
95.85
95.8539
95.8592
95.8707
95.8928
95.9363
95.9835
96.1861
93.5271
93.5252
93.5211
93.5204
93.5246
93.5302
93.5394
93.5576
93.5902
93.6503
93.7256
93.9697
91.1046
91.1041
91.1026
91.1044
91.111
91.1206
91.1354
91.1621
91.2077
91.287
91.3955
91.7085
88.5727
88.5749
88.5761
88.5812
88.5927
88.6082
88.6309
88.6682
88.7285
88.8261
88.9549
89.347
85.9637
85.9618
85.9584
85.9607
85.9718
85.99
86.0189
86.0672
86.1459
86.2724
86.4403
86.9555
83.1949
83.1946
83.194
83.1995
83.2144
83.2389
83.277
83.3391
83.4388
83.5962
83.7872
84.3479
80.2543
80.2569
80.2598
80.2702
80.2929
80.3276
80.3794
80.4603
80.5867
80.7854
81.0256
81.5762
77.173
77.1713
77.1703
77.179
77.2032
77.2449
77.3102
77.4135
77.573
77.823
78.1495
78.7438
73.8271
73.8306
73.8362
73.8525
73.8877
73.9443
74.0312
74.1659
74.3707
74.6828
75.1144
75.9061
70.2554
70.2539
70.2551
70.2721
70.3149
70.3875
70.5012
70.6776
70.9449
71.3413
71.8868
72.9368
66.3068
66.3092
66.318
66.3463
66.4061
66.5057
66.6593
66.8945
67.2465
67.7584
68.4364
69.6782
61.9225
61.9292
61.9461
61.9886
62.0746
62.2145
62.4284
62.7497
63.2218
63.8961
64.773
66.2368
57.0295
57.0339
57.0512
57.1078
57.2257
57.4219
57.7233
58.1716
58.8183
59.721
60.8823
62.6681
51.3038
51.3058
51.3472
51.4412
51.6269
51.9296
52.3854
53.0447
53.9636
55.1972
56.7421
58.9753
44.4044
44.4891
44.545
44.7192
45.0418
45.5451
46.2747
47.2846
48.6262
50.3392
52.3942
55.1371
35.8721
35.503
35.719
36.1505
36.8253
37.7941
39.0872
40.7354
42.7615
45.1759
47.9209
51.3036
23.0989
23.7379
24.6184
25.6397
27.0962
28.964
31.2128
33.8254
36.7823
40.0569
43.5577
47.5181
88.0237
-4.11829
73.3253
88.1865
-71.4754
93.0964
141.816
49.6282
190.955
78.9837
74.7105
56.8483
82.3254
165.701
-8.2346
77.3762
-49.0697
57.045
139.742
57.0237
-4.27928
90.4134
84.6739
15.5795
78.0294
83.1351
51.7844
85.7469
-11.4771
139.135
120.504
128.278
83.6418
58.1695
-14.6707
70.3419
137.103
-37.2777
73.6993
28.192
88.7159
148.66
43.0084
140.197
-73.1002
90.899
93.6225
-43.3851
89.9306
88.5709
87.8848
182.186
43.5066
56.6157
103.031
-47.16
75.1899
-10.2264
-83.1381
93.1593
-55.0287
-41.0141
132.563
86.0054
63.0829
65.4732
53.7639
75.0625
89.7511
103.034
-38.1489
-73.6951
-68.1621
83.4744
0.351246
-72.6815
-43.8748
-54.7342
87.457
87.425
119.276
165.525
85.1921
74.0876
-92.559
104.189
101.585
86.9332
86.8246
98.6093
71.5226
-54.6695
86.1315
-63.1957
99.5337
-24.753
213.359
-62.9726
87.5929
213.367
36.9307
106.397
14.7623
159.626
87.5082
-57.6512
92.6391
89.3464
72.2395
86.8359
84.7242
159.1
109.774
158.171
-67.2694
83.5967
196.826
106.921
156.998
145.726
94.9518
52.3624
55.1824
62.9278
150.896
79.2634
89.1646
-73.4272
-80.7308
85.595
72.8384
117.23
139.431
1.20163
-89.9383
120.338
-44.8928
68.658
-55.0849
96.0362
155.173
9.38824
-37.3662
43.0509
72.6083
-62.2777
98.3582
67.3481
-49.4183
-75.2114
-15.5451
94.4533
-18.2575
55.032
142.449
91.8376
70.8617
46.1062
82.6756
86.9045
78.2238
-48.528
78.4094
-71.198
135.481
84.6032
72.3913
-86.8403
-62.6449
4.09781
-47.0251
73.4517
116.606
97.3303
78.7089
-57.7388
124.821
65.0665
82.3337
63.7919
76.9187
-48.245
-36.6936
66.7405
90.3943
90.4594
-23.098
34.9289
-15.6427
122.51
106.567
126.368
-57.4491
81.1455
62.1768
5.51266
107.955
130.519
156.908
81.338
59.1815
89.3834
86.3945
84.7762
90.2473
51.0212
92.2936
-29.8471
87.4168
93.3059
141.122
27.5705
157.736
83.3185
17.6938
95.5398
82.3494
109.191
-62.4969
-15.6219
-75.734
129.169
73.975
89.5828
101.249
48.3798
96.8245
-48.7627
74.4783
79.0535
74.7348
179.216
56.2623
155.087
120.701
55.6345
-2.44476
80.0738
39.2313
104.712
83.2402
-71.1878
80.8207
88.3066
-81.3446
-21.199
-57.2608
113.943
91.2567
79.0482
69.2959
70.7922
178.036
90.0391
89.9628
-77.5797
-82.0662
122.386
77.7481
101.949
75.4879
-68.4012
-71.6188
85.0077
48.6576
84.3388
-25.6868
92.9032
-46.3973
191.355
-36.521
102.073
85.9774
133.591
88.6349
-46.9685
92.9059
44.6462
116.866
-34.0155
45.999
-66.5249
79.6669
85.2367
84.0411
73.6386
83.3685
80.559
-8.35526
-2.41372
77.0949
84.3121
15.4458
134.628
76.8221
100.486
82.7543
87.6394
59.2166
83.2481
17.4163
186.796
92.8961
-73.5788
90.0171
92.6161
-30.9034
51.1702
13.278
145.306
92.47
-63.27
75.6719
75.8631
131.681
-22.1531
130.512
17.1125
65.3986
30.529
27.5319
2.8319
-54.971
90.2961
-25.4875
79.9071
-64.6172
-53.2134
92.2639
143.468
94.4085
-89.3309
90.5597
188.746
58.5631
9.95181
100.44
83.5078
46.6295
-10.1962
43.5904
-79.1753
-42.5959
-8.52838
12.0229
95.9287
74.3744
6.04552
11.7175
161.732
73.5447
86.1711
-67.3932
-74.3404
53.5182
-73.8905
152.367
109.078
78.6967
-46.6525
65.431
88.6556
86.2574
99.533
-59.1756
14.6079
68.9646
117.469
92.3353
44.6871
75.8693
31.178
91.1848
84.6999
-59.7821
87.4806
87.9245
54.0526
34.904
-76.8986
-35.4342
-31.6719
76.0491
75.487
147.738
-23.1493
2.75669
200.195
80.0474
168.095
118.002
169.221
-6.56026
84.0946
94.3995
-11.2809
78.5806
0.929628
60.9004
13.8171
87.6516
96.9082
73.4001
-76.689
99.7858
83.511
74.9169
51.8448
32.5698
80.7277
76.1036
-40.1181
126.169
-7.33791
40.0135
156.55
12.6014
150.911
115.022
-22.9815
25.8567
47.8219
97.6667
-40.5765
97.0044
99.6522
54.7864
-54.9511
71.9254
125.443
23.4056
-48.4738
40.8352
93.1528
144.857
59.1571
185.578
71.2995
62.7348
166.408
137.798
-85.6346
70.9503
64.208
113.209
77.2386
89.1039
142.765
-23.0397
-35.8478
55.6821
-9.74709
-23.0796
39.8128
-47.7187
79.3446
70.7441
145.133
28.1001
86.6059
72.4115
91.1384
85.461
75.8312
74.7747
8.85142
107.601
-81.8754
88.7101
70.2833
84.474
6.5909
156.51
84.7703
63.7395
128.976
75.5747
73.2161
80.549
76.7864
85.9003
-72.7352
-55.7426
12.4986
64.4978
20.2768
51.2487
-76.9486
125.668
87.8926
88.2446
89.1324
120.351
-37.3429
49.7599
80.7847
102.778
64.8795
58.5965
137.976
97.7209
100.139
127.248
-6.4646
81.8939
120.264
122.918
128.014
49.8217
-37.2753
-3.60367
90.3792
15.9015
78.3047
2.02324
140.435
-71.4427
-29.3593
84.4387
108.288
-21.3715
-88.5649
79.0486
85.8024
85.202
96.4948
75.8946
72.3784
124.604
110.225
73.5923
121.18
87.7142
91.698
106.223
84.3632
123.637
60.8892
-83.1014
89.0162
158.972
38.6704
-87.4782
91.8051
89.4162
90.1883
70.9492
102.917
67.6172
-79.063
71.3626
42.1226
-72.5891
78.8249
70.414
36.8106
-71.8716
65.6057
35.2653
-34.1878
86.834
152.985
-62.8203
83.9679
85.8064
9.21733
-8.81213
24.2211
80.2957
73.4324
67.0032
88.3395
89.1018
40.5253
81.6182
98.8221
96.0795
-70.7202
210.84
101.556
86.6259
74.0892
164.598
113.885
-48.9045
69.9181
-10.1956
83.2448
161.151
85.6079
86.8275
85.7724
138.547
129.954
-64.1848
85.7187
85.9792
34.4269
76.9594
-48.1618
89.6234
85.904
86.0028
88.0946
183.831
78.4542
81.7611
42.3321
94.8819
78.2444
-52.8067
-82.9101
91.7922
71.038
81.2648
84.9984
89.4996
97.5788
154.516
-80.4036
41.7786
90.0756
-51.3986
52.4567
108.538
-77.2557
-72.4201
108.417
-38.5102
-74.5147
74.9726
159.002
114.222
76.3799
66.9528
-59.7201
-51.8922
22.6397
99.6901
88.4435
50.0746
84.6416
175.392
87.7806
-45.8764
54.492
84.0669
-83.4178
165.426
75.6574
100.306
71.6972
86.3917
-80.2084
83.4731
117.54
72.4393
76.6398
-55.796
87.2058
69.2537
84.3278
181.018
68.8878
74.21
86.2438
34.5342
72.2999
50.614
-58.8903
93.0763
85.2227
-46.9705
-44.1715
-2.53016
85.5903
43.8026
174.828
61.1921
132.011
75.9854
141.233
-33.7858
73.9451
171.452
77.4103
-71.4444
94.2006
169.417
-84.2067
19.0481
70.6975
183.293
96.9764
107.423
79.2876
85.7239
95.1035
88.8312
-32.9002
95.2314
81.3241
123.646
-27.7143
83.7918
160.274
90.2495
-4.57473
-45.4113
161.969
88.868
-25.0081
50.9778
-46.6724
56.8529
95.0639
-63.1082
44.6536
-51.4695
185.01
-65.1776
-69.7054
-16.0565
50.4751
-75.0932
199.092
82.6315
-73.9995
80.6801
57.9431
29.2143
-36.9865
90.8469
73.9846
-79.4397
139.763
150.948
105.623
181.32
141.517
119.001
87.5362
80.7899
81.2235
79.4481
90.5842
77.9022
-41.2848
-54.6818
51.9506
90.8604
-77.7802
118.314
82.7454
110.731
-18.996
-92.8801
95.1168
-18.8458
143.803
171.796
-44.759
116.929
-1.45972
19.2402
-78.5119
-28.1093
18.461
122.415
-92.399
-76.8926
87.0031
85.8933
88.5413
-29.7582
75.1796
-61.1355
84.447
85.0588
-69.5939
-36.6559
-36.3511
-31.0256
126.573
-6.05144
62.6827
91.1165
120.589
91.4667
95.8903
74.3599
80.9094
-11.7287
85.2819
98.7331
93.1116
-11.3607
66.3891
-51.2582
-16.296
73.9571
-37.741
84.199
-78.4964
75.8731
54.8902
91.2173
80.8126
96.4282
85.9851
41.5257
78.7211
-33.3714
137.32
107.963
107.704
122.373
-56.916
95.1765
83.9698
27.9296
79.5683
53.3833
-67.4114
47.2583
98.2603
98.6591
16.0171
166.818
-58.0878
25.1861
98.1731
69.2234
120.718
78.7058
21.3007
-18.8203
27.9219
45.995
160.957
102.876
77.4961
41.1502
92.5739
79.7384
3.07779
77.2647
79.4713
93.0468
74.3704
152.467
19.6488
85.1873
81.1889
-17.134
-71.2362
10.0131
-25.7476
68.5905
80.4522
4.00266
-65.5695
168.405
91.3103
-36.3638
81.9174
110.899
88.6881
94.6973
91.4697
123.675
86.2878
85.4591
74.5123
-77.9578
86.2026
73.4183
104.778
161.365
59.9772
122.716
31.2223
69.1395
-62.8743
-31.8114
77.1422
73.2093
78.514
6.10662
92.0286
-67.5589
44.2962
84.5416
189.198
155.208
86.2729
94.6184
87.6863
85.4848
92.3406
89.4539
83.0424
97.5622
67.0846
81.4337
77.7377
82.1962
72.3843
79.6156
70.7811
-13.7363
66.7639
135.931
120.078
144.333
78.5646
117.722
-39.06
130.89
147.823
71.6578
56.4115
38.0956
69.519
78.0735
87.8701
105.048
-68.6089
102.757
-46.7844
113.353
-53.6915
74.777
46.8568
-33.3195
95.1102
-85.3343
90.4026
83.2655
83.6443
-52.6175
109.082
-6.67575
74.7473
-0.807019
-82.0437
194.348
89.8122
20.9294
118.774
125.142
82.5966
90.2445
90.0327
110.819
86.7754
89.822
-78.9275
46.0697
81.9941
-25.6678
19.5599
72.8145
80.6797
116.189
105.664
-91.7622
88.2864
32.0356
-75.5215
27.9333
86.1061
112.181
103.26
84.3724
-67.0726
-8.70957
86.5311
126.539
88.9863
44.9198
86.137
119.549
139.213
95.4736
-69.8008
109.913
152.458
-68.7462
96.5826
-28.6608
122.603
-85.1197
-13.799
-15.174
27.4478
76.6842
86.2226
103.125
-23.1958
95.9075
-5.32065
-69.4595
-83.1298
38.1726
66.5978
104.553
109.417
81.1883
-64.6672
87.1327
84.2614
162.119
99.6442
1.89064
64.982
94.292
39.1498
140.51
79.7007
113.143
-82.5237
-73.8495
-35.2803
2.46957
80.6005
70.8654
72.7031
88.7651
16.6156
136.981
-57.0282
52.0239
119.05
-69.7501
91.3163
57.2739
-73.4023
184.067
75.568
91.1146
57.742
22.8632
-65.7439
107.312
-54.1415
55.6789
179.664
-75.5235
-55.804
61.2347
32.8467
96.6736
129.504
96.239
76.0942
-27.4286
88.3019
80.4362
-14.3479
152.055
2.25771
58.9032
101.491
52.148
92.6222
87.2463
-76.3484
79.6453
93.9005
168.43
15.9528
-10.5136
78.0906
59.2003
160.949
76.5897
106.845
86.0179
-80.223
154.281
-73.4095
80.188
-57.1681
20.9724
57.4973
-28.842
83.1156
193.743
66.8384
-66.986
99.8152
77.3013
89.3729
48.9472
81.9941
135.357
90.4859
94.5617
87.492
112.127
42.6145
89.8975
84.3286
47.633
-7.24813
83.6611
37.2234
-87.3692
-86.1045
153.051
150.894
20.7973
-55.173
60.5785
102.35
9.33165
84.2187
-78.082
-46.1835
54.6915
-69.3115
90.5121
-8.09962
136.735
71.2207
65.1226
64.8851
19.6573
2.29995
162.473
80.0565
89.1111
62.4239
140.33
101.845
11.7942
74.018
-9.31312
87.1129
126.452
4.81106
78.3071
19.0548
90.9412
-77.5434
133.811
33.6405
82.3675
78.0988
150.151
55.0307
-20.8536
82.3626
86.4061
81.9391
88.3516
88.2009
67.6323
67.6921
49.5676
203.856
124.404
-16.1825
184.113
-61.7157
-45.3655
94.3952
15.2867
35.0437
-60.846
-16.1938
90.8646
75.2532
60.3983
95.8773
-69.9226
81.4545
126.213
75.2071
107.494
80.0113
16.7303
44.3095
90.2116
142.156
22.7278
46.0225
114.817
163.67
62.9081
99.9602
83.7078
36.0462
49.6253
92.5118
138.785
86.948
-20.2281
151.026
-78.9322
-51.219
-66.5873
81.2679
-27.2304
3.81674
37.1718
25.7829
87.5517
72.947
77.2327
132.228
-65.657
-77.4188
-34.5516
133.951
78.3335
-57.1436
104.747
173.418
-29.2853
-33.4306
86.054
-84.5569
90.0693
64.4904
105.958
51.763
96.4293
43.1237
10.5529
99.1225
71.7371
43.6907
50.7609
98.844
84.1111
69.4819
80.4693
-86.7844
57.5043
5.73685
119.442
93.3219
-79.5964
116.651
48.4394
60.16
48.5845
177.486