/*--------------------------------*- C++ -*----------------------------------*\
| =========                 |                                                 |
| \\      /  F ield         | OpenFOAM: The Open Source CFD Toolbox           |
|  \\    /   O peration     | Version:  2.3.0                                 |
|   \\  /    A nd           | Web:      www.OpenFOAM.org                      |
|    \\/     M anipulation  |                                                 |
\*---------------------------------------------------------------------------*/
FoamFile
{
    version     2.0;
    format      ascii;
    class       volScalarField;
    location    "3000";
    object      nut;
}
// * * * * * * * * * * * * * * * * * * * * * * * * * * * * * * * * * * * * * //

dimensions      [0 2 -1 0 0 0 0];

internalField   nonuniform List<scalar> 
38227
(
0.0731635
0.0715615
0.069956
0.0683454
0.0667297
0.0651096
0.0634857
0.0618592
0.0602303
0.0585997
0.0569683
0.0553368
0.0537059
0.0520762
0.0504481
0.0488223
0.0471992
0.0455795
0.0439637
0.0423522
0.0407451
0.0391429
0.037546
0.0359544
0.0343689
0.0327903
0.0312182
0.0296537
0.0280976
0.0265504
0.0250139
0.0234895
0.021979
0.0204858
0.0190147
0.0175718
0.0161667
0.0148116
0.0135224
0.0123132
0.0111741
0.00997261
0.00794679
0.0741493
0.0727209
0.0712939
0.0698632
0.068428
0.0669884
0.065545
0.0640983
0.0626485
0.0611959
0.0597409
0.0582839
0.0568255
0.0553655
0.0539045
0.0524426
0.0509806
0.0495185
0.048057
0.0465964
0.0451365
0.0436788
0.0422232
0.04077
0.0393206
0.0378759
0.0364364
0.0350041
0.0335808
0.0321687
0.0307711
0.0293919
0.0280365
0.0267108
0.0254235
0.0241861
0.023012
0.0219169
0.0209205
0.0200449
0.0193128
0.0187426
0.0183456
0.0750594
0.0737871
0.0725165
0.0712412
0.0699609
0.0686757
0.0673862
0.0660925
0.0647948
0.063493
0.0621873
0.0608783
0.0595657
0.0582497
0.0569304
0.0556082
0.0542833
0.0529558
0.0516264
0.0502953
0.0489628
0.0476301
0.0462975
0.0449658
0.0436365
0.0423107
0.0409891
0.0396749
0.0383699
0.0370771
0.0358009
0.0345459
0.0333179
0.0321236
0.030972
0.029874
0.0288414
0.0278876
0.0270264
0.0262738
0.0256434
0.025145
0.0247873
0.0758928
0.074767
0.0736332
0.0724924
0.0713452
0.0701924
0.0690342
0.0678705
0.0667016
0.0655275
0.0643481
0.0631635
0.0619739
0.0607789
0.0595787
0.0583736
0.0571636
0.0559488
0.0547298
0.0535071
0.0522807
0.0510518
0.0498213
0.0485902
0.0473601
0.046132
0.0449076
0.043689
0.0424792
0.0412816
0.0401004
0.0389401
0.0378068
0.0367074
0.0356505
0.0346453
0.0337028
0.0328347
0.0320515
0.0313659
0.0307885
0.0303266
0.0299868
0.0766859
0.0756722
0.0746531
0.0736273
0.0725946
0.071555
0.0705087
0.0694556
0.0683962
0.0673302
0.0662575
0.0651779
0.0640917
0.0629985
0.0618982
0.0607912
0.0596772
0.0585565
0.0574295
0.0562968
0.0551583
0.0540152
0.0528689
0.0517204
0.0505713
0.0494232
0.0482778
0.0471368
0.0460033
0.0448812
0.0437741
0.0426869
0.0416256
0.0405964
0.039608
0.0386681
0.0377868
0.0369749
0.0362416
0.035598
0.0350523
0.0346123
0.0342826
0.0774148
0.0765009
0.0755814
0.0746552
0.073721
0.0727783
0.0718273
0.0708689
0.0699027
0.0689285
0.0679459
0.0669551
0.065956
0.0649482
0.0639322
0.0629075
0.0618738
0.0608318
0.0597818
0.0587241
0.0576585
0.0565862
0.055509
0.0544284
0.0533454
0.0522624
0.0511815
0.0501042
0.0490327
0.0479708
0.0469221
0.0458926
0.0448874
0.0439121
0.0429751
0.0420833
0.0412467
0.0404744
0.0397758
0.0391607
0.0386366
0.038211
0.0378879
0.0780828
0.0772563
0.0764241
0.0755844
0.0747359
0.0738765
0.0730072
0.0721292
0.0712426
0.0703468
0.0694406
0.0685247
0.0675992
0.0666637
0.0657184
0.0647635
0.0637979
0.0628213
0.0618358
0.0608415
0.0598374
0.0588239
0.0578034
0.0567782
0.0557497
0.05472
0.0536919
0.0526674
0.0516478
0.0506347
0.0496328
0.0486497
0.0476894
0.0467569
0.0458598
0.0450054
0.0442029
0.0434599
0.0427872
0.0421922
0.0416833
0.0412676
0.04095
0.0786896
0.0779431
0.0771872
0.076423
0.0756506
0.0748634
0.0740634
0.0732533
0.0724347
0.0716061
0.0707654
0.0699127
0.0690501
0.0681761
0.0672896
0.0663936
0.0654883
0.0645656
0.0636334
0.062693
0.0617425
0.0607793
0.0598047
0.0588247
0.0578409
0.0568545
0.0558692
0.0548885
0.0539144
0.0529433
0.0519777
0.051031
0.0501094
0.0492119
0.0483461
0.0475217
0.0467468
0.0460262
0.0453733
0.0447927
0.0442943
0.043887
0.043575
0.0792547
0.0785743
0.0778806
0.0771765
0.076474
0.0757512
0.0750099
0.0742548
0.0734919
0.0727208
0.0719382
0.0711367
0.0703265
0.0695058
0.0686703
0.0678162
0.0669707
0.0660943
0.0652056
0.0643082
0.0634053
0.0624893
0.061551
0.0606068
0.0596594
0.0587062
0.0577525
0.0568022
0.0558669
0.0549404
0.0540033
0.0530805
0.0521916
0.0513283
0.0504883
0.0496891
0.0489395
0.0482355
0.0476022
0.047034
0.0465452
0.0461437
0.0458395
0.00722714
0.0084226
0.00940728
0.0101943
0.0109859
0.0118327
0.0127381
0.0136948
0.0146963
0.0157353
0.016809
0.0179151
0.019051
0.0202124
0.0213971
0.0226034
0.0238295
0.0250746
0.0263385
0.0276184
0.0289156
0.0302288
0.0315575
0.0329013
0.0342592
0.0356313
0.0370165
0.0384148
0.0398255
0.041248
0.0426818
0.0441265
0.0455813
0.0470458
0.0485193
0.0500014
0.0514913
0.0529884
0.054492
0.056002
0.0575182
0.059041
0.0605703
0.0181272
0.0180774
0.0181899
0.0184535
0.0188544
0.0193778
0.0200071
0.0207249
0.0215172
0.0223727
0.0232806
0.0242336
0.0252241
0.0262466
0.0272972
0.0283717
0.0294684
0.0305841
0.0317165
0.0328656
0.0340294
0.0352067
0.0363969
0.0375986
0.038812
0.0400359
0.0412698
0.0425137
0.0437665
0.045028
0.0462981
0.0475761
0.0488615
0.0501543
0.0514537
0.0527596
0.0540718
0.0553895
0.0567126
0.0580411
0.0593754
0.0607169
0.062072
0.0245669
0.0244783
0.0245247
0.0247007
0.0249989
0.0254092
0.0259186
0.0265156
0.0271881
0.0279257
0.0287192
0.02956
0.0304405
0.0313561
0.0323
0.0332695
0.0342605
0.0352706
0.0362973
0.0373388
0.0383934
0.0394598
0.0405364
0.0416225
0.0427177
0.0438207
0.0449314
0.0460488
0.0471725
0.0483025
0.0494381
0.0505789
0.051725
0.0528759
0.0540315
0.0551915
0.0563555
0.0575236
0.0586954
0.059871
0.0610505
0.062234
0.0634219
0.0297661
0.0296632
0.0296793
0.0298113
0.030053
0.0303972
0.0308338
0.0313531
0.0319456
0.0326018
0.0333126
0.0340709
0.0348694
0.0357017
0.0365631
0.0374493
0.0383569
0.0392821
0.0402228
0.0411774
0.0421431
0.0431187
0.0441028
0.0450947
0.0460927
0.0470967
0.0481055
0.0491186
0.0501361
0.051157
0.0521812
0.0532084
0.0542386
0.0552716
0.0563069
0.0573445
0.0583843
0.059426
0.0604699
0.0615157
0.0625634
0.0636125
0.0646606
0.0340624
0.033951
0.033949
0.0340536
0.03426
0.0345616
0.03495
0.0354174
0.0359544
0.0365524
0.0372043
0.0379016
0.0386378
0.0394073
0.0402047
0.0410259
0.0418664
0.0427243
0.0435966
0.0444808
0.0453746
0.0462766
0.0471853
0.0480995
0.049018
0.0499401
0.0508652
0.0517926
0.0527216
0.0536521
0.0545839
0.0555167
0.0564503
0.0573843
0.0583189
0.0592537
0.0601884
0.0611233
0.0620583
0.0629938
0.0639296
0.0648658
0.0658023
0.0376689
0.0375521
0.0375383
0.0376245
0.0378061
0.0380778
0.0384324
0.038862
0.0393587
0.0399151
0.0405227
0.0411741
0.0418629
0.0425828
0.0433295
0.0440982
0.0448861
0.0456898
0.0465066
0.0473339
0.0481692
0.0490108
0.0498572
0.0507077
0.0515608
0.0524156
0.053271
0.0541269
0.0549826
0.0558381
0.0566928
0.0575468
0.0583994
0.0592506
0.0601004
0.0609483
0.0617942
0.0626379
0.0634803
0.0643218
0.0651621
0.066001
0.0668394
0.0407319
0.040612
0.0405899
0.0406621
0.0408257
0.0410753
0.0414039
0.0418055
0.0422726
0.0427974
0.0433715
0.0439874
0.0446378
0.0453181
0.0460235
0.04675
0.0474955
0.0482557
0.0490277
0.0498082
0.0505949
0.0513862
0.0521818
0.0529802
0.0537789
0.0545765
0.055374
0.0561705
0.0569653
0.0577577
0.0585482
0.059336
0.0601204
0.0609018
0.0616798
0.0624542
0.063224
0.0639897
0.0647533
0.065515
0.0662736
0.0670275
0.0677779
0.043359
0.0432366
0.0432086
0.0432685
0.0434179
0.0436493
0.0439579
0.0443386
0.044784
0.0452851
0.0458339
0.046419
0.0470379
0.0476858
0.0483569
0.0490486
0.0497614
0.0504867
0.0512215
0.0519621
0.052707
0.0534567
0.0542116
0.0549668
0.0557182
0.0564674
0.0572175
0.0579646
0.0587074
0.0594469
0.0601842
0.060916
0.061642
0.0623653
0.0630817
0.0637943
0.0644975
0.0651959
0.0658935
0.0665879
0.0672767
0.0679562
0.068629
0.0456295
0.045504
0.0454755
0.0455181
0.0456598
0.0458732
0.0461663
0.0465331
0.0469636
0.0474466
0.0479754
0.0485271
0.0491214
0.0497397
0.0503808
0.0510447
0.0517399
0.0524297
0.0531336
0.0538365
0.0545455
0.0552611
0.055984
0.0566983
0.0574073
0.0581174
0.0588339
0.0595354
0.0602355
0.0609314
0.0616264
0.0623069
0.062984
0.063664
0.0643224
0.0649865
0.065626
0.0662703
0.0669167
0.0675556
0.0681863
0.0687995
0.0694013
0.0167838
0.0158189
0.0148933
0.0140073
0.01316
0.0123508
0.0115787
0.0108435
0.0101444
0.00948104
0.00885296
0.00826012
0.00770321
0.00718389
0.00670534
0.00627325
0.00589604
0.00556766
0.005276
0.00501214
0.00477031
0.00454644
0.00433743
0.0041406
0.00395355
0.00377401
0.00359982
0.003429
0.00325962
0.00308988
0.00291805
0.00274255
0.00256187
0.0023746
0.00217942
0.0019751
0.0017606
0.00153508
0.00129801
0.00104963
0.000792419
0.000535261
0.000270032
0.0167053
0.0158099
0.0149507
0.0141255
0.0133332
0.012573
0.0118447
0.0111475
0.0104809
0.00984471
0.00923841
0.00866198
0.00811567
0.0076005
0.00711841
0.00667316
0.00627105
0.00591644
0.00560197
0.00531889
0.00506073
0.00482281
0.00460155
0.00439397
0.00419764
0.00401026
0.00382968
0.00365384
0.00348073
0.00330837
0.00313482
0.00295824
0.00277674
0.00258858
0.00239204
0.00218554
0.00196769
0.00173729
0.00149373
0.00123727
0.000970097
0.00069563
0.000403614
0.0166314
0.0158077
0.0150126
0.0142457
0.0135059
0.012793
0.0121064
0.0114457
0.0108106
0.0102006
0.00961562
0.00905555
0.00852045
0.00801099
0.00752836
0.00707497
0.00665508
0.00627506
0.00593661
0.00563208
0.00535479
0.00509993
0.00486368
0.00464291
0.00443495
0.00423742
0.00404811
0.00386496
0.00368585
0.00350873
0.00333149
0.00315203
0.00296822
0.00277796
0.0025791
0.00236965
0.00214772
0.00191174
0.00166073
0.00139489
0.00111561
0.000822128
0.000520188
0.0165692
0.0158077
0.0150708
0.0143572
0.0136659
0.0129962
0.0123481
0.0117212
0.0111152
0.0105299
0.0099651
0.00942083
0.00889714
0.0083945
0.00791373
0.00745644
0.00702556
0.00662615
0.00626453
0.00593837
0.00564111
0.00536793
0.00511506
0.0048794
0.00465817
0.00444888
0.0042493
0.00405723
0.00387051
0.00368705
0.00350464
0.00332095
0.00313367
0.00294033
0.00273847
0.00252565
0.00229952
0.00205808
0.00180001
0.00152516
0.00123397
0.000923029
0.000630293
0.0165115
0.0158082
0.0151244
0.0144592
0.0138117
0.0131815
0.0125685
0.0119725
0.0113932
0.0108307
0.0102849
0.00975569
0.00924327
0.00874796
0.0082705
0.00781197
0.00737457
0.00696196
0.00658028
0.0062336
0.00591682
0.00562506
0.00535488
0.00510332
0.00486771
0.00464559
0.0044346
0.00423252
0.00403713
0.00384625
0.00365759
0.00346871
0.00327709
0.00308004
0.00287476
0.00265838
0.00242817
0.00218167
0.00191722
0.00163429
0.00133236
0.00100736
0.000739984
0.0164581
0.0158086
0.0151732
0.0145518
0.0139443
0.0133501
0.012769
0.0122013
0.0116466
0.0111051
0.0105767
0.0100616
0.00955999
0.00907217
0.00859873
0.00814064
0.00769944
0.00727799
0.00688112
0.00651558
0.00618035
0.00587068
0.00558325
0.00531545
0.00506487
0.00482921
0.0046061
0.00439325
0.00418847
0.00398946
0.00379385
0.00359912
0.0034026
0.00320139
0.0029924
0.00277243
0.00253831
0.00228722
0.00201712
0.0017271
0.00141578
0.00108103
0.000850894
0.0164103
0.0158089
0.0152174
0.0146361
0.0140647
0.0135032
0.0129514
0.0124094
0.0118771
0.0113549
0.0108429
0.010341
0.00984954
0.00936886
0.00889978
0.00844295
0.00799981
0.00757236
0.00716449
0.00678252
0.00643036
0.00610394
0.00579993
0.00551613
0.00525053
0.00500103
0.00476541
0.00454142
0.00432681
0.00411921
0.00391623
0.00371524
0.00351345
0.00330779
0.00309493
0.00287134
0.00263351
0.0023783
0.0021034
0.0018072
0.0014877
0.00114711
0.000963374
0.0163657
0.015809
0.0152573
0.0147122
0.0141737
0.0136421
0.0131175
0.0125993
0.0120877
0.0115833
0.0110866
0.0105977
0.010116
0.00964173
0.00917629
0.00872107
0.00827695
0.00784544
0.00742946
0.00703411
0.00666612
0.00632432
0.00600491
0.00570557
0.0054249
0.00516154
0.00491328
0.0046778
0.00445298
0.0042367
0.0040263
0.00381893
0.00361164
0.00340144
0.00318473
0.00295772
0.00271658
0.00245753
0.00217778
0.00187686
0.00155238
0.00121036
0.00107281
0.0163328
0.0158111
0.0152918
0.0147798
0.0142707
0.0137665
0.0132683
0.0127744
0.0122825
0.0117942
0.011313
0.0108407
0.010374
0.009906
0.00944038
0.00898454
0.00854063
0.00810705
0.00768636
0.00728238
0.00689804
0.00654083
0.0062096
0.00589824
0.00560136
0.00532265
0.0050621
0.00481568
0.00457812
0.00434929
0.00412973
0.00391601
0.00370306
0.00348672
0.00326516
0.00303359
0.0027883
0.00252829
0.00224804
0.00193623
0.00159522
0.00125436
0.0011985
0.0001799
0.000369132
0.000585318
0.000844136
0.0011425
0.00147904
0.00186652
0.00229537
0.00276101
0.00326305
0.00380175
0.00437713
0.00498984
0.00564022
0.00632893
0.0070567
0.00782448
0.0086329
0.00948318
0.0103762
0.0113128
0.0122942
0.0133216
0.014396
0.0155185
0.0166902
0.0179122
0.0191853
0.0205107
0.0218887
0.0233197
0.0248036
0.0263392
0.0279245
0.0295556
0.0312268
0.0329295
0.0346524
0.0363818
0.0381031
0.0398028
0.0414698
0.0430979
0.000348635
0.000588588
0.00088169
0.0012191
0.00159412
0.00200574
0.00245523
0.00294313
0.00347563
0.0040492
0.00465961
0.00530574
0.00598733
0.00670416
0.00745634
0.00824418
0.00906802
0.00992823
0.0108252
0.0117596
0.0127321
0.0137433
0.0147937
0.0158842
0.0170154
0.018188
0.0194027
0.0206599
0.0219602
0.0233035
0.0246899
0.0261185
0.0275879
0.0290953
0.0306366
0.0322056
0.0337941
0.0353924
0.0369893
0.038574
0.0401367
0.041669
0.043163
0.000528104
0.000837962
0.00120929
0.00162528
0.00207886
0.00256719
0.00308894
0.00364507
0.00423812
0.00486992
0.0055418
0.00625128
0.00699545
0.00777304
0.00858335
0.00942588
0.0103007
0.0112077
0.012147
0.0131186
0.0141229
0.0151601
0.0162305
0.0173344
0.0184722
0.0196442
0.0208507
0.0220918
0.0233674
0.0246773
0.0260207
0.0273961
0.0288013
0.030233
0.0316863
0.0331551
0.0346322
0.0361097
0.0375794
0.0390335
0.0404653
0.0418688
0.043239
0.000718262
0.00110193
0.00154796
0.00203844
0.00256615
0.00312739
0.00372029
0.00434473
0.0050014
0.0056918
0.00641731
0.00717841
0.00797435
0.00880338
0.00966359
0.0105538
0.011473
0.0124207
0.0133966
0.0144005
0.0154322
0.0164917
0.0175789
0.018694
0.0198368
0.0210074
0.0222054
0.0234307
0.0246826
0.0259602
0.027262
0.0285859
0.0299289
0.0312873
0.0326562
0.0340303
0.0354036
0.0367702
0.0381241
0.03946
0.0407731
0.0420592
0.0433141
0.000914234
0.00136952
0.0018856
0.00244549
0.00304205
0.00367127
0.00433079
0.00501991
0.00573846
0.00648696
0.00726615
0.00807668
0.00891862
0.00979139
0.0106936
0.0116241
0.0125813
0.0135643
0.014572
0.015604
0.0166597
0.0177388
0.0188406
0.0199649
0.0211114
0.0222794
0.0234682
0.0246772
0.0259048
0.0271498
0.0284099
0.0296826
0.0309648
0.0322526
0.0335418
0.0348279
0.0361064
0.0373726
0.0386227
0.0398527
0.0410594
0.0422398
0.0433916
0.00111071
0.00163344
0.00221474
0.00283895
0.00349921
0.0041912
0.00491244
0.00566165
0.00643827
0.00724214
0.00807355
0.00893265
0.00981946
0.0107337
0.0116745
0.0126408
0.0136314
0.014645
0.0156805
0.0167371
0.0178135
0.0189091
0.0200229
0.0211541
0.0223018
0.0234652
0.0246427
0.0258331
0.0270346
0.0282454
0.029463
0.030685
0.0319083
0.0331296
0.034345
0.0355509
0.0367437
0.0379204
0.0390777
0.0402133
0.0413249
0.0424109
0.0434694
0.00130479
0.00188955
0.00253085
0.00321449
0.00393349
0.00468355
0.00546181
0.00626675
0.0070975
0.00795348
0.00883442
0.00974012
0.0106704
0.0116249
0.0126026
0.0136026
0.0146238
0.0156653
0.0167255
0.0178035
0.0188974
0.0200063
0.0211287
0.0222635
0.0234092
0.0245647
0.0257279
0.026897
0.0280704
0.0292456
0.0304202
0.0315927
0.0327607
0.033921
0.0350697
0.0362037
0.0373204
0.0384171
0.0394921
0.0405439
0.0415711
0.0425728
0.0435483
0.00148808
0.00213259
0.00283197
0.00357212
0.00434662
0.00515057
0.00598131
0.00683789
0.00771954
0.00862509
0.00955239
0.0105012
0.0114734
0.0124663
0.0134787
0.0145095
0.0155586
0.0166253
0.0177073
0.0188035
0.0199106
0.0210287
0.022156
0.0232905
0.024431
0.0255758
0.026722
0.0278682
0.0290125
0.0301503
0.0312803
0.032406
0.0335245
0.034631
0.0357211
0.0367917
0.0378409
0.038867
0.0398688
0.0408459
0.0417982
0.0427253
0.0436266
0.00170803
0.00241462
0.00316219
0.00394765
0.00477165
0.00561501
0.00648764
0.00738968
0.00832091
0.00927642
0.0102413
0.0112252
0.0122428
0.0132681
0.0143099
0.0153646
0.0164382
0.0175281
0.0186273
0.0197366
0.0208474
0.0219719
0.0231017
0.0242315
0.0253648
0.0264977
0.0276254
0.0287506
0.0298675
0.0309584
0.0320371
0.033125
0.0342033
0.0352649
0.0363053
0.037321
0.0383115
0.0392742
0.04021
0.0411201
0.0420056
0.0428659
0.0437008
0.000606062
0.00223025
0.0039033
0.0055887
0.00727791
0.00896774
0.0106546
0.0123375
0.0140161
0.0156918
0.0173657
0.019038
0.0207098
0.022383
0.0240584
0.0257366
0.0274182
0.0291043
0.0307945
0.0324895
0.0341898
0.0358954
0.0376059
0.0393211
0.0410415
0.0427665
0.0444956
0.0462285
0.0479648
0.0497035
0.0514443
0.0531868
0.0549298
0.0566726
0.0584145
0.0601545
0.0618918
0.0636253
0.0653547
0.0670784
0.0687961
0.0705072
0.0722153
0.000101289
0.000995003
0.00223999
0.00362722
0.00511071
0.00665687
0.0082464
0.00986731
0.0115109
0.0131723
0.0148482
0.0165355
0.0182327
0.0199392
0.0216537
0.0233759
0.0251055
0.0268425
0.0285862
0.0303362
0.032093
0.0338561
0.0356244
0.0373982
0.0391773
0.0409608
0.0427482
0.0445395
0.0463335
0.0481297
0.0499276
0.0517261
0.0535245
0.0553222
0.057118
0.0589113
0.0607007
0.0624858
0.0642653
0.0660383
0.0678042
0.0695614
0.0713109
0.000261114
0.000866082
0.00185357
0.00300063
0.00426357
0.00561486
0.00703725
0.00851703
0.0100443
0.0116121
0.0132145
0.0148458
0.0165027
0.0181816
0.0198804
0.0215965
0.0233284
0.0250744
0.0268329
0.028603
0.030384
0.0321744
0.0339735
0.0357804
0.0375942
0.0394143
0.0412401
0.0430703
0.0449041
0.046741
0.0485796
0.0504193
0.0522591
0.054098
0.0559353
0.0577695
0.0595999
0.0614253
0.0632448
0.0650573
0.0668618
0.0686573
0.0704452
0.00027689
0.000783119
0.00163994
0.00264065
0.00375561
0.00496487
0.00625456
0.00761333
0.00903237
0.0105047
0.0120243
0.0135854
0.0151831
0.0168143
0.0184751
0.0201625
0.0218735
0.023606
0.0253579
0.0271275
0.0289127
0.0307122
0.0325245
0.0343481
0.036182
0.0380246
0.0398752
0.0417323
0.0435946
0.0454612
0.0473312
0.0492032
0.0510761
0.0529489
0.0548203
0.0566893
0.0585543
0.0604147
0.062269
0.0641164
0.0659555
0.0677856
0.0696097
0.000280182
0.000694729
0.0014604
0.00236195
0.00337482
0.00448212
0.00567237
0.00693627
0.00826586
0.00965532
0.0110988
0.0125913
0.0141284
0.0157062
0.0173212
0.01897
0.0206494
0.0223571
0.0240903
0.0258466
0.027624
0.0294206
0.0312342
0.0330633
0.0349062
0.0367611
0.0386269
0.0405016
0.042384
0.0442727
0.0461664
0.0480636
0.0499633
0.0518638
0.0537638
0.055662
0.0575573
0.0594481
0.0613331
0.0632115
0.0650814
0.0669418
0.0687946
0.000279506
0.000624594
0.00132224
0.00214953
0.00308418
0.00411174
0.00522221
0.00640754
0.00766141
0.00897829
0.0103532
0.0117819
0.0132605
0.0147848
0.0163521
0.0179584
0.0196016
0.0212783
0.0229858
0.0247215
0.0264836
0.028269
0.0300757
0.0319022
0.0337462
0.0356059
0.0374792
0.0393645
0.0412602
0.0431647
0.0450759
0.0469928
0.0489135
0.0508366
0.0527602
0.0546835
0.0566046
0.0585218
0.060434
0.0623396
0.0642368
0.0661244
0.0680032
0.000277607
0.000571928
0.00121638
0.00198436
0.00285593
0.00381819
0.00486214
0.005981
0.00716953
0.00842279
0.00973631
0.0111067
0.0125301
0.0140036
0.0155237
0.0170875
0.0186922
0.020335
0.022013
0.0237241
0.0254655
0.0272346
0.0290291
0.0308472
0.0326866
0.034545
0.0364202
0.0383102
0.0402139
0.0421284
0.0440524
0.0459838
0.047921
0.0498621
0.0518054
0.0537498
0.0556927
0.057633
0.0595689
0.0614985
0.0634203
0.0653322
0.0672344
0.000275401
0.000530398
0.00113136
0.00185007
0.00266923
0.00357687
0.00456467
0.00562683
0.00675877
0.00795587
0.00921475
0.0105323
0.0119052
0.0133306
0.0148057
0.0163277
0.0178939
0.0195018
0.0211489
0.0228326
0.0245503
0.0262998
0.0280784
0.0298839
0.031714
0.0335668
0.0354394
0.0373301
0.0392367
0.041157
0.043089
0.0450309
0.0469806
0.0489362
0.0508958
0.0528573
0.054819
0.0567792
0.0587355
0.0606866
0.0626301
0.0645641
0.0664882
0.000273412
0.000496415
0.00106082
0.00173786
0.00251282
0.00337378
0.00431345
0.00532645
0.00640857
0.00755608
0.00876623
0.0100358
0.0113623
0.0127429
0.0141755
0.0156575
0.0171863
0.0187596
0.020375
0.0220301
0.0237227
0.0254502
0.0272103
0.0290001
0.0308181
0.0326616
0.0345282
0.0364157
0.0383218
0.0402442
0.0421809
0.0441296
0.0460885
0.0480551
0.0500273
0.0520031
0.0539807
0.0559577
0.0579323
0.0599022
0.0618654
0.0638194
0.065764
0.00027158
0.000467995
0.00100127
0.00164269
0.00237966
0.00320024
0.00409784
0.0050676
0.00610562
0.00720916
0.00837518
0.00960135
0.0108852
0.0122245
0.0136172
0.0150611
0.0165537
0.0180931
0.0196771
0.0213036
0.0229702
0.0246745
0.026414
0.0281865
0.0299898
0.0318215
0.0336793
0.0355609
0.0374636
0.039385
0.0413233
0.043276
0.0452408
0.0472154
0.0491974
0.0511849
0.0531755
0.0551671
0.0571575
0.0591441
0.0611249
0.0630976
0.0650616
0.00026991
0.000444018
0.000950361
0.00156082
0.0022645
0.00304961
0.00391024
0.00484175
0.00584073
0.00690462
0.00803083
0.0092174
0.0104621
0.0117629
0.0131181
0.0145259
0.0159841
0.0174909
0.0190441
0.0206422
0.0222823
0.0239625
0.0256807
0.0274343
0.0292215
0.0310397
0.0328866
0.0347597
0.0366565
0.0385748
0.0405121
0.0424661
0.0444342
0.0464144
0.0484038
0.0504005
0.0524019
0.0544057
0.0564095
0.058411
0.060408
0.0623982
0.0643825
0.000268416
0.000423231
0.000906002
0.00148914
0.00216358
0.00291745
0.00374514
0.00464238
0.00560625
0.00663423
0.00772434
0.00887454
0.0100831
0.0113484
0.0126687
0.0140424
0.015468
0.0169433
0.0184668
0.0200366
0.0216505
0.0233066
0.0250027
0.0267369
0.0285069
0.03031
0.0321443
0.0340071
0.0358964
0.0378092
0.0397436
0.0416966
0.0436661
0.0456494
0.0476441
0.0496477
0.0516576
0.0536718
0.0556872
0.0577016
0.0597128
0.0617185
0.0637192
0.00026701
0.00040522
0.000867119
0.00142602
0.00207426
0.00280023
0.00359833
0.00446469
0.00539679
0.00639224
0.00744916
0.00856595
0.00974132
0.0109736
0.0122612
0.013603
0.0149973
0.0164428
0.0179375
0.0194798
0.0210679
0.0227
0.024374
0.0260881
0.0278398
0.0296272
0.0314477
0.0332991
0.0351789
0.0370848
0.0390142
0.0409646
0.0429332
0.044918
0.046916
0.0489246
0.0509414
0.0529638
0.054989
0.0570146
0.0590382
0.061057
0.0630697
0.00026582
0.000389426
0.000832817
0.00137016
0.00199446
0.00269528
0.00346668
0.00430507
0.00520812
0.00617375
0.00720039
0.00828659
0.00943104
0.0106325
0.0118897
0.0132013
0.0145661
0.0159829
0.0174498
0.0189656
0.0205287
0.0221371
0.0237891
0.0254828
0.027216
0.0289866
0.0307925
0.0326313
0.0345006
0.0363981
0.0383211
0.0402671
0.0422337
0.0442181
0.0462176
0.0482296
0.0502514
0.0522805
0.0543139
0.0563491
0.0583834
0.0604141
0.0624397
0.000264644
0.000375313
0.000802146
0.00132009
0.00192268
0.00260062
0.00334773
0.00416068
0.00503725
0.00597559
0.00697425
0.00803204
0.00914784
0.0103206
0.0115491
0.0128322
0.0141691
0.0155585
0.0169989
0.0184891
0.0200276
0.0216129
0.0232431
0.0249162
0.0266307
0.0283843
0.0301749
0.0320004
0.0338582
0.0357462
0.0376617
0.0396021
0.041565
0.0435475
0.0455471
0.0475609
0.0495864
0.0516205
0.0536608
0.0557041
0.0577478
0.059789
0.0618259
0.000263498
0.000362794
0.00077454
0.00127485
0.00185762
0.0025146
0.00323944
0.00402905
0.00488126
0.00579448
0.00676727
0.00779866
0.00888776
0.0100336
0.0112352
0.0124916
0.0138021
0.0151654
0.0165804
0.0180458
0.0195606
0.0211231
0.0227317
0.0243848
0.0260804
0.0278167
0.0295919
0.0314032
0.0332489
0.0351264
0.0370334
0.0389672
0.0409251
0.0429045
0.0449028
0.0469172
0.0489448
0.050983
0.0530286
0.055079
0.0571314
0.0591832
0.0612341
0.000262615
0.00035265
0.000749566
0.00123365
0.00179825
0.00243606
0.00314047
0.00390848
0.00473821
0.00562814
0.00657701
0.00758385
0.00864798
0.00976861
0.0109449
0.0121761
0.0134613
0.0147998
0.0161904
0.0176323
0.019124
0.0206644
0.0222519
0.0238851
0.0255619
0.0272809
0.02904
0.0308372
0.0326701
0.0345366
0.0364341
0.0383603
0.0403123
0.0422876
0.0442835
0.0462973
0.048326
0.0503667
0.0524168
0.0544732
0.0565335
0.0585952
0.0606584
0.000262386
0.000347185
0.000726935
0.00119606
0.00174382
0.00236394
0.00304953
0.00379763
0.00460642
0.00547471
0.00640119
0.00738508
0.00842585
0.00952268
0.0106751
0.0118824
0.0131439
0.0144588
0.0158261
0.0172451
0.0187147
0.0202336
0.0218005
0.0234139
0.0250722
0.0267739
0.028517
0.0302996
0.0321193
0.0339742
0.0358617
0.0377795
0.0397248
0.0416951
0.0436878
0.0456999
0.0477285
0.049771
0.0518243
0.0538855
0.0559522
0.0580217
0.0600922
0.000262986
0.000346343
0.000706394
0.00116157
0.0016938
0.00229738
0.00296558
0.00369521
0.00448461
0.00533257
0.00623807
0.00720057
0.00821939
0.00929398
0.0104238
0.0116085
0.0128474
0.0141397
0.0154847
0.0168818
0.0183299
0.0198279
0.0213748
0.0229688
0.024609
0.0262935
0.0280204
0.0297881
0.0315947
0.0334374
0.0353144
0.0372231
0.039161
0.0411256
0.0431141
0.0451235
0.0471512
0.0491943
0.0512497
0.0533146
0.0553865
0.0574624
0.0595412
0.000264116
0.000347752
0.000687734
0.00112992
0.00164788
0.00223586
0.00288772
0.0036002
0.00437146
0.00520042
0.0060864
0.00702868
0.00802695
0.00908045
0.0101889
0.011352
0.0125694
0.0138402
0.0151639
0.0165399
0.0179673
0.0194453
0.0209725
0.0225478
0.0241699
0.0258373
0.0275483
0.0293013
0.031094
0.0329245
0.0347905
0.0366896
0.0386197
0.0405778
0.0425612
0.0445672
0.046593
0.0486358
0.0506922
0.0527596
0.0548347
0.0569146
0.0589952
0.000265402
0.000349614
0.000670698
0.00110084
0.00160545
0.00217871
0.00281529
0.00351165
0.00426598
0.00507723
0.00594474
0.00686808
0.00784675
0.00888048
0.00996879
0.0111115
0.0123083
0.0135586
0.0148618
0.0162175
0.0176249
0.0190833
0.0205914
0.0221482
0.0237527
0.0254034
0.0270986
0.0288365
0.0306156
0.0324335
0.0342883
0.0361777
0.0380992
0.0400502
0.042028
0.0440299
0.046053
0.0480944
0.0501509
0.0522193
0.0542966
0.0563783
0.0584606
0.000266634
0.000351278
0.000655017
0.00107373
0.00156584
0.00212539
0.00274767
0.00342888
0.00416724
0.00496175
0.00581198
0.00671739
0.00767777
0.00869257
0.00976174
0.0108851
0.0120622
0.0132928
0.0145766
0.0159127
0.017301
0.0187403
0.0202299
0.021769
0.0233561
0.0249902
0.0266696
0.0283928
0.0301581
0.0319634
0.0338068
0.0356859
0.0375985
0.0395419
0.0415135
0.0435104
0.0455302
0.0475695
0.0496253
0.0516942
0.0537725
0.0558556
0.0579371
0.000267661
0.000352434
0.000640572
0.00104851
0.00152889
0.00207549
0.00268431
0.0033513
0.00407464
0.00485357
0.00568731
0.00657579
0.00751867
0.00851559
0.00956658
0.0106714
0.0118298
0.0130417
0.0143065
0.015624
0.0169936
0.0184147
0.0198865
0.021408
0.0229782
0.0245959
0.0262598
0.0279685
0.0297199
0.0315125
0.0333441
0.0352128
0.0371161
0.0390516
0.0410164
0.0430081
0.0450239
0.0470606
0.0491152
0.0511845
0.0532654
0.0553554
0.0574571
0.000268537
0.000353363
0.000627185
0.00102504
0.00149428
0.00202867
0.00262485
0.00327836
0.00398759
0.00475168
0.00557
0.00644241
0.0073687
0.00834858
0.00938214
0.0104693
0.0116099
0.0128037
0.0140505
0.0153499
0.0167016
0.0181051
0.0195594
0.0210639
0.0226176
0.0242194
0.0258679
0.0275619
0.0292997
0.0310795
0.0328995
0.0347575
0.0366513
0.0385784
0.0405362
0.0425222
0.0445335
0.0465672
0.0486203
0.0506898
0.052773
0.0548677
0.0569747
0.000269383
0.000353917
0.000614711
0.00100305
0.00146192
0.00198486
0.00256893
0.00320972
0.00390551
0.00465557
0.00545918
0.00631632
0.00722691
0.00819059
0.00920765
0.0102779
0.0114014
0.012578
0.0138074
0.0150895
0.016424
0.0178101
0.0192475
0.0207355
0.022273
0.023859
0.0254926
0.0271722
0.0288964
0.0306636
0.0324718
0.0343189
0.0362029
0.0381214
0.040072
0.0420517
0.0440582
0.0460885
0.0481397
0.050209
0.0522936
0.054391
0.0565014
0.000270052
0.000354168
0.000603142
0.000982398
0.00143139
0.0019436
0.00251609
0.00314482
0.00382803
0.00456467
0.0053543
0.00619703
0.00709253
0.00804082
0.00904215
0.0100962
0.0112033
0.0123634
0.0135761
0.0148415
0.0161591
0.0175287
0.0189496
0.0204215
0.0219432
0.023514
0.0251328
0.0267982
0.028509
0.0302635
0.0320598
0.033896
0.0357701
0.0376799
0.0396228
0.0415961
0.0435974
0.0456238
0.0476727
0.0497409
0.0518256
0.0539243
0.0560355
0.000270603
0.000354231
0.000592785
0.000963084
0.00140273
0.00190482
0.00246627
0.0030836
0.00375467
0.00447852
0.00525497
0.00608387
0.00696494
0.00789863
0.00888482
0.00992345
0.0110149
0.0121589
0.0133556
0.0146048
0.0159063
0.0172597
0.0186648
0.0201211
0.0216274
0.0231831
0.0247875
0.026439
0.0281364
0.0298781
0.0316627
0.033488
0.0353522
0.0372529
0.0391879
0.0411545
0.0431503
0.0451725
0.0472183
0.0492846
0.0513684
0.0534667
0.0555764
0.000271112
0.000354432
0.000584761
0.000945003
0.00137581
0.00186819
0.00241901
0.00302539
0.00368499
0.00439682
0.0051606
0.00597623
0.00684378
0.00776342
0.008735
0.00975892
0.0108351
0.0119639
0.0131451
0.0143787
0.0156645
0.0170025
0.0183922
0.019833
0.0213243
0.0228655
0.0244555
0.0260933
0.0277775
0.0295069
0.0312795
0.033094
0.0349481
0.0368398
0.0387666
0.0407263
0.0427163
0.0447338
0.0467759
0.0488396
0.0509219
0.0530189
0.0551276
0.000271656
0.00035521
0.000580332
0.000928286
0.00135034
0.00183337
0.00237412
0.00297009
0.00361874
0.00431912
0.00507082
0.00587389
0.00672843
0.0076344
0.00859223
0.00960186
0.0106636
0.0117776
0.0129439
0.0141625
0.0154333
0.0167562
0.0181308
0.0195568
0.0210335
0.0225602
0.0241362
0.0257605
0.0274317
0.0291486
0.0309097
0.0327132
0.0345572
0.0364395
0.0383583
0.0403108
0.0422946
0.044307
0.0463449
0.0484058
0.050486
0.0525821
0.0546905
0.000272314
0.000356749
0.000579134
0.000912941
0.00132625
0.00180032
0.0023314
0.00291747
0.00355568
0.00424505
0.00498525
0.00577625
0.0066182
0.0075113
0.00845579
0.00945179
0.0104996
0.0115994
0.0127513
0.0139553
0.0152116
0.0165198
0.0178799
0.0192913
0.0207539
0.0222665
0.023829
0.0254398
0.0270983
0.028803
0.0305524
0.0323448
0.0341787
0.0360518
0.0379622
0.0399073
0.0418847
0.0438917
0.0459253
0.047983
0.0500611
0.0521568
0.0542681
0.000273089
0.000358879
0.000579656
0.000898677
0.0013034
0.00176888
0.00229078
0.00286734
0.00349553
0.00417442
0.00490356
0.00568303
0.00651304