/*--------------------------------*- C++ -*----------------------------------*\
| =========                 |                                                 |
| \\      /  F ield         | OpenFOAM: The Open Source CFD Toolbox           |
|  \\    /   O peration     | Version:  2.3.0                                 |
|   \\  /    A nd           | Web:      www.OpenFOAM.org                      |
|    \\/     M anipulation  |                                                 |
\*---------------------------------------------------------------------------*/
FoamFile
{
    version     2.0;
    format      ascii;
    class       volScalarField;
    location    "3000";
    object      p;
}
// * * * * * * * * * * * * * * * * * * * * * * * * * * * * * * * * * * * * * //

dimensions      [0 2 -2 0 0 0 0];

internalField   nonuniform List<scalar> 
38227
(
-8.97779e-05
1.39045
3.09127
4.8389
6.59582
8.36812
10.1581
11.9644
13.789
15.6327
17.4952
19.3779
21.2805
23.2035
25.1469
27.109
29.0888
31.0867
33.0962
35.1155
37.1369
39.1561
41.164
43.1508
45.1057
47.0066
48.844
50.5827
52.1958
53.6535
54.9117
55.9062
56.5775
56.8309
56.5407
55.5282
53.6106
50.4911
45.8082
39.1293
30.0416
16.5781
-7.92712
-0.654776
0.313663
1.82701
3.41908
5.02817
6.65662
8.30934
9.9836
11.6786
13.3956
15.1336
16.8928
18.6738
20.4769
22.3034
24.154
26.0291
27.9293
29.8564
31.8102
33.7926
35.801
37.8342
39.8894
41.9595
44.0339
46.1017
48.1483
50.1487
52.0648
53.8465
55.4316
56.7387
57.6662
58.0839
57.8252
56.686
54.4184
50.7125
45.1932
37.3901
26.5358
11.3553
-2.10255
-1.08789
0.25632
1.64295
3.01916
4.39289
5.76998
7.15171
8.53591
9.9232
11.3126
12.7017
14.0896
15.4751
16.8556
18.2288
19.5914
20.9404
22.2705
23.577
24.8547
26.0944
27.2882
28.4256
29.4918
30.4714
31.3463
32.0846
32.6595
33.0329
33.1596
32.9856
32.4423
31.4515
29.9152
27.7227
24.7461
20.856
15.9117
9.77354
2.33768
-6.43504
-16.4027
-2.95929
-2.25002
-1.09081
0.107841
1.30033
2.493
3.68824
4.88828
6.09155
7.2966
8.50321
9.70982
10.9146
12.1173
13.3156
14.5073
15.6897
16.8602
18.0139
19.1468
20.253
21.3241
22.3524
23.3264
24.2312
25.0515
25.7687
26.3573
26.7908
27.0322
27.0417
26.7684
26.1564
25.1381
23.6394
21.5781
18.8598
15.4047
11.1279
5.96093
-0.119597
-7.0894
-14.835
-4.24113
-3.4078
-2.37245
-1.32537
-0.287805
0.746785
1.77877
2.81394
3.8482
4.88105
5.91009
6.93454
7.95205
8.96041
9.95761
10.9406
11.9066
12.8523
13.7713
14.6599
15.5111
16.3162
17.068
17.7551
18.3644
18.8782
19.2812
19.547
19.6521
19.5616
19.2473
18.6608
17.761
16.4881
14.7882
12.6068
9.86818
6.52911
2.54533
-2.11276
-7.42384
-13.3447
-19.7438
-4.9658
-4.39045
-3.50391
-2.60233
-1.70505
-0.802755
0.0945381
0.999799
1.90307
2.80518
3.70286
4.59551
5.48153
6.358
7.21959
8.06602
8.89433
9.70305
10.4854
11.2391
11.9497
12.6111
13.2183
13.7609
14.2282
14.5998
14.8608
14.9854
14.9508
14.7277
14.2943
13.6114
12.6421
11.3219
9.62499
7.50723
4.90052
1.78296
-1.87165
-6.07067
-10.8055
-16.017
-21.6108
-6.04664
-5.39393
-4.58869
-3.78023
-2.98375
-2.18854
-1.41133
-0.609266
0.193498
0.993605
1.78517
2.56845
3.34688
4.1205
4.87235
5.60941
6.32455
7.00685
7.66292
8.31442
8.91432
9.45116
9.93278
10.3538
10.7057
10.9722
11.1336
11.1625
11.0295
10.7025
10.1604
9.39291
8.38625
7.02646
5.33527
3.27336
0.768406
-2.20463
-5.61392
-9.47166
-13.7936
-18.5162
-23.5896
-6.45003
-6.17002
-5.52776
-4.83504
-4.12285
-3.40481
-2.76221
-2.06396
-1.3519
-0.622344
0.100201
0.792441
1.47703
2.18013
2.85126
3.50472
4.17413
4.76966
5.2827
5.86056
6.40861
6.86426
7.23895
7.54977
7.79949
7.97935
8.07759
8.05857
7.9091
7.57051
6.98134
6.14373
5.19081
3.83989
2.19975
0.226523
-2.13046
-5.01967
-8.19535
-11.8281
-15.8405
-20.1495
-24.84
-6.9971
-6.72955
-6.26953
-5.79599
-5.33687
-4.45309
-3.96818
-3.4423
-2.92189
-2.3299
-1.68732
-1.0695
-0.510607
0.0968437
0.710733
1.22425
1.66523
2.52153
2.87603
3.33321
3.86825
4.34581
4.69126
4.89533
5.01741
5.07011
5.06425
4.93453
4.7205
4.31659
3.80013
3.06433
2.4614
1.0273
-0.619201
-2.30371
-4.41248
-7.14367
-10.1026
-13.4272
-17.3671
-21.3122
-25.1556
-69.068
-89.5376
-97.1869
-105.772
-113.396
-118.576
-122.05
-124.58
-126.425
-127.774
-128.699
-129.3
-129.649
-129.809
-129.794
-129.633
-129.344
-128.935
-128.422
-127.834
-127.156
-126.412
-125.61
-124.758
-123.871
-122.947
-122.001
-121.039
-120.06
-119.074
-118.083
-117.087
-116.09
-115.094
-114.098
-113.104
-112.111
-111.118
-110.129
-109.14
-108.151
-107.165
-106.262
-9.78834
-32.3261
-50.6548
-65.1647
-76.9068
-86.3183
-93.7638
-99.6207
-104.165
-107.657
-110.293
-112.247
-113.657
-114.658
-115.32
-115.739
-115.958
-116.031
-115.985
-115.856
-115.653
-115.403
-115.106
-114.775
-114.418
-114.024
-113.609
-113.169
-112.702
-112.21
-111.694
-111.152
-110.588
-110
-109.39
-108.759
-108.108
-107.436
-106.75
-106.046
-105.324
-104.574
-103.822
-27.0749
-37.6855
-47.4751
-56.2404
-64.0392
-70.8935
-76.8229
-81.9275
-86.2925
-90.0121
-93.1742
-95.8633
-98.1384
-100.07
-101.699
-103.074
-104.221
-105.17
-105.95
-106.584
-107.073
-107.45
-107.716
-107.887
-107.973
-107.981
-107.92
-107.798
-107.624
-107.397
-107.13
-106.824
-106.483
-106.11
-105.709
-105.282
-104.833
-104.36
-103.868
-103.357
-102.828
-102.276
-101.666
-23.1384
-31.6633
-40.0386
-47.9798
-55.331
-62.0002
-67.9625
-73.2346
-77.8488
-81.8642
-85.3405
-88.327
-90.8939
-93.0894
-94.9603
-96.5506
-97.8961
-99.0365
-99.9879
-100.784
-101.44
-101.978
-102.409
-102.747
-103.003
-103.191
-103.311
-103.371
-103.381
-103.342
-103.257
-103.134
-102.972
-102.775
-102.548
-102.289
-102.005
-101.693
-101.358
-101
-100.622
-100.233
-99.7863
-26.4726
-33.3344
-40.1447
-46.6984
-52.885
-58.6047
-63.8209
-68.529
-72.7399
-76.4791
-79.7864
-82.7003
-85.2572
-87.4945
-89.4536
-91.1597
-92.6463
-93.9369
-95.0579
-96.0231
-96.852
-97.5596
-98.158
-98.6616
-99.0745
-99.4131
-99.6767
-99.8789
-100.023
-100.116
-100.156
-100.155
-100.111
-100.033
-99.9203
-99.7777
-99.6099
-99.4114
-99.1867
-98.937
-98.6662
-98.3825
-98.023
-27.4724
-33.4606
-39.4511
-45.2768
-50.8434
-56.0624
-60.8859
-65.2955
-69.2896
-72.8867
-76.1041
-78.9747
-81.5188
-83.7698
-85.7587
-87.5029
-89.0481
-90.4008
-91.5902
-92.6232
-93.521
-94.2974
-94.9669
-95.5436
-96.032
-96.4458
-96.7929
-97.0719
-97.2984
-97.4719
-97.5928
-97.6755
-97.7115
-97.7172
-97.6884
-97.6342
-97.5555
-97.4413
-97.3005
-97.1327
-96.9466
-96.7457
-96.4697
-28.8772
-34.2586
-39.6534
-44.9173
-49.9701
-54.7346
-59.179
-63.2892
-67.0519
-70.456
-73.5409
-76.2928
-78.7538
-80.9512
-82.9171
-84.6613
-86.2288
-87.6045
-88.8212
-89.8861
-90.8176
-91.6277
-92.3382
-92.963
-93.5165
-93.9897
-94.3991
-94.7366
-95.032
-95.2632
-95.4434
-95.5859
-95.6793
-95.7523
-95.784
-95.8015
-95.7922
-95.738
-95.6606
-95.5552
-95.4402
-95.3042
-95.1282
-29.7714
-34.731
-39.7016
-44.5825
-49.2923
-53.7773
-57.9608
-61.8454
-65.4186
-68.6168
-71.5914
-74.2358
-76.6297
-78.8073
-80.7844
-82.4967
-84.058
-85.4299
-86.6583
-87.7302
-88.6638
-89.4779
-90.2264
-90.9108
-91.5248
-92.0162
-92.4639
-92.8452
-93.1998
-93.4455
-93.6638
-93.8562
-93.9759
-94.1057
-94.1911
-94.2707
-94.3082
-94.2787
-94.2365
-94.163
-94.0969
-93.9996
-93.908
-29.7033
-34.3453
-39.0229
-43.8079
-48.5143
-53.0772
-57.138
-60.7944
-64.1752
-67.2114
-70.2693
-73.0031
-75.5224
-77.7981
-79.7553
-81.2737
-82.7819
-84.1474
-85.4063
-86.4824
-87.4304
-88.2901
-89.1514
-89.9395
-90.5408
-90.9182
-91.3576
-91.7241
-92.0476
-92.2022
-92.4219
-92.6216
-92.6597
-92.805
-92.8517
-93.1198
-93.1789
-93.0647
-93.0013
-92.9181
-92.8703
-92.7473
-92.6671
-72.2173
-71.8829
-71.5783
-71.2575
-70.9274
-70.5871
-70.2359
-69.8731
-69.4976
-69.1078
-68.7024
-68.2794
-67.837
-67.3736
-66.888
-66.38
-65.8499
-65.2988
-64.7287
-64.1427
-63.5449
-62.9404
-62.3341
-61.7315
-61.1382
-60.561
-60.005
-59.4744
-58.9741
-58.5076
-58.078
-57.6867
-57.3338
-57.0189
-56.741
-56.4968
-56.2819
-56.0902
-55.9148
-55.7505
-55.6037
-55.4962
-55.2452
-71.6064
-71.2788
-70.9891
-70.6887
-70.3829
-70.0718
-69.7557
-69.4347
-69.1096
-68.7809
-68.4491
-68.115
-67.7785
-67.4407
-67.1012
-66.7601
-66.4169
-66.0713
-65.7222
-65.3687
-65.0096
-64.6439
-64.2704
-63.8876
-63.4947
-63.0906
-62.6747
-62.2468
-61.8067
-61.3543
-60.8898
-60.414
-59.9274
-59.431
-58.9259
-58.4138
-57.8975
-57.3816
-56.874
-56.3876
-55.9424
-55.5952
-55.3578
-71.0498
-70.7476
-70.4768
-70.1953
-69.9085
-69.6171
-69.3214
-69.0214
-68.7173
-68.4099
-68.0995
-67.7866
-67.4711
-67.1538
-66.8342
-66.5126
-66.1886
-65.8616
-65.5311
-65.1963
-64.8563
-64.5105
-64.1575
-63.7963
-63.4258
-63.045
-62.6532
-62.2493
-61.8329
-61.4041
-60.9628
-60.5093
-60.0443
-59.5688
-59.085
-58.5956
-58.1047
-57.6179
-57.1444
-56.6981
-56.2904
-55.9307
-55.6792
-70.5695
-70.2753
-70.0153
-69.7452
-69.4693
-69.1877
-68.9004
-68.607
-68.3076
-68.0021
-67.6905
-67.3726
-67.0484
-66.7177
-66.3805
-66.0367
-65.6869
-65.3306
-64.9683
-64.6
-64.2259
-63.846
-63.4604
-63.0691
-62.6718
-62.2688
-61.8597
-61.4443
-61.0228
-60.5954
-60.1622
-59.7243
-59.2831
-58.8397
-58.3966
-57.9566
-57.5236
-57.1033
-56.7036
-56.3371
-56.0156
-55.7249
-55.5707
-70.1348
-69.8596
-69.6139
-69.3573
-69.0948
-68.8262
-68.5519
-68.2717
-67.9852
-67.6921
-67.3928
-67.0871
-66.7747
-66.4552
-66.1285
-65.7939
-65.4521
-65.1027
-64.7457
-64.3815
-64.0099
-63.6311
-63.2453
-62.8523
-62.4523
-62.0455
-61.6321
-61.2122
-60.786
-60.3538
-59.916
-59.4741
-59.0303
-58.5868
-58.1463
-57.7127
-57.2915
-56.8896
-56.5162
-56.1834
-55.9036
-55.643
-55.5368
-69.7588
-69.4976
-69.2677
-69.0259
-68.7783
-68.5243
-68.2646
-67.9992
-67.7274
-67.4488
-67.1637
-66.8727
-66.5755
-66.271
-65.9585
-65.6375
-65.3087
-64.9714
-64.6254
-64.271
-63.9082
-63.5372
-63.1581
-62.7719
-62.3778
-61.9755
-61.5665
-61.152
-60.7311
-60.3021
-59.8657
-59.4248
-58.9824
-58.5405
-58.1022
-57.6723
-57.2573
-56.8672
-56.516
-56.2147
-55.9735
-55.7326
-55.6445
-69.4331
-69.1817
-68.967
-68.7379
-68.5048
-68.263
-68.0163
-67.7641
-67.5054
-67.2383
-66.963
-66.682
-66.396
-66.1031
-65.8006
-65.4877
-65.1674
-64.8367
-64.4963
-64.1462
-63.7875
-63.4193
-63.0415
-62.6568
-62.264
-61.8617
-61.452
-61.0395
-60.6253
-60.2059
-59.7768
-59.3384
-58.8999
-58.4664
-58.0376
-57.616
-57.2086
-56.8225
-56.4861
-56.2525
-56.1214
-55.9323
-55.8372
-69.1362
-68.8998
-68.7043
-68.4849
-68.2684
-68.0359
-67.8012
-67.5616
-67.3163
-67.0615
-66.7941
-66.5215
-66.2458
-65.9668
-65.6756
-65.3686
-65.0581
-64.7353
-64.4015
-64.0557
-63.7015
-63.3346
-62.9571
-62.581
-62.1971
-61.7947
-61.3794
-60.9711
-60.566
-60.154
-59.7262
-59.2846
-58.8418
-58.4072
-57.9759
-57.5515
-57.1378
-56.7448
-56.3759
-56.1147
-56.139
-56.0847
-55.9827
-68.8937
-68.6609
-68.4873
-68.2642
-68.0679
-67.8365
-67.6098
-67.3806
-67.1497
-66.9117
-66.6448
-66.3682
-66.0929
-65.8351
-65.5694
-65.2554
-64.9558
-64.6375
-64.3101
-63.9577
-63.6165
-63.2591
-62.8419
-62.4398
-62.073
-61.6802
-61.2169
-60.7668
-60.3875
-60.0372
-59.6439
-59.1707
-58.7212
-58.3258
-57.9291
-57.5248
-57.128
-56.6333
-56.0823
-55.9366
-56.6543
-56.9195
-56.5105
-54.8001
-54.2579
-53.7133
-53.227
-52.7872
-52.3851
-52.0137
-51.6675
-51.3424
-51.0347
-50.7424
-50.4637
-50.1967
-49.9412
-49.6959
-49.4602
-49.234
-49.0168
-48.8085
-48.6091
-48.4187
-48.2373
-48.0651
-47.902
-47.7485
-47.6041
-47.4701
-47.3459
-47.2314
-47.1276
-47.0338
-46.9512
-46.8788
-46.8173
-46.7666
-46.7264
-46.6975
-46.6785
-46.6698
-46.6704
-46.6798
-46.695
-46.6885
-55.1649
-54.8571
-54.5078
-54.1517
-53.7997
-53.4594
-53.1354
-52.8285
-52.5391
-52.2666
-52.009
-51.7658
-51.5348
-51.316
-51.1078
-50.9092
-50.7186
-50.5364
-50.3611
-50.1916
-50.0275
-49.8682
-49.7134
-49.5616
-49.4137
-49.268
-49.1251
-48.9851
-48.8464
-48.7107
-48.5763
-48.445
-48.3143
-48.1874
-48.0633
-47.9426
-47.8258
-47.7124
-47.6043
-47.5017
-47.4067
-47.3186
-47.2386
-55.3927
-55.0363
-54.6885
-54.3493
-54.023
-53.7085
-53.4057
-53.1148
-52.8361
-52.5701
-52.316
-52.0733
-51.8413
-51.6193
-51.4067
-51.2031
-51.0074
-50.8194
-50.6389
-50.4651
-50.297
-50.1357
-49.9797
-49.8289
-49.6835
-49.5428
-49.4068
-49.2748
-49.1465
-49.0217
-48.8994
-48.7804
-48.663
-48.5489
-48.4366
-48.3267
-48.2189
-48.1124
-48.0071
-47.9026
-47.8002
-47.6983
-47.5718
-55.3661
-55.0658
-54.7536
-54.4374
-54.1304
-53.8315
-53.5418
-53.2617
-52.992
-52.7327
-52.4837
-52.2448
-52.0164
-51.7968
-51.5865
-51.3843
-51.1904
-51.0036
-50.8241
-50.6514
-50.4845
-50.3236
-50.1684
-50.0189
-49.8738
-49.7336
-49.5985
-49.4667
-49.3403
-49.217
-49.0964
-48.9791
-48.8648
-48.7546
-48.6484
-48.5467
-48.4479
-48.3516
-48.2576
-48.1658
-48.0772
-47.9898
-47.8843
-55.3748
-55.1156
-54.837
-54.5478
-54.2622
-53.9802
-53.7044
-53.4358
-53.1757
-52.9242
-52.6819
-52.4493
-52.2258
-52.011
-51.8054
-51.6074
-51.4177
-51.2346
-51.0588
-50.8888
-50.725
-50.5653
-50.4136
-50.2658
-50.1234
-49.9863
-49.8544
-49.7253
-49.6019
-49.4785
-49.3571
-49.238
-49.1232
-49.0135
-48.9086
-48.8089
-48.7126
-48.6179
-48.5254
-48.4363
-48.3515
-48.2681
-48.1634
-55.4844
-55.2302
-54.9565
-54.6719
-54.3918
-54.1162
-53.8475
-53.5866
-53.3336
-53.0879
-52.8501
-52.6222
-52.4029
-52.1921
-51.9888
-51.7944
-51.6068
-51.4264
-51.2538
-51.0841
-50.9212
-50.7628
-50.6139
-50.4682
-50.329
-50.1947
-50.0633
-49.9379
-49.8157
-49.6912
-49.5671
-49.4472
-49.3349
-49.229
-49.1302
-49.0375
-48.9456
-48.8528
-48.7628
-48.6771
-48.5965
-48.5177
-48.4186
-55.6255
-55.3365
-55.0452
-54.7533
-54.4717
-54.1998
-53.9353
-53.679
-53.4306
-53.1843
-52.9457
-52.7213
-52.5017
-52.2926
-52.0899
-51.8984
-51.7107
-51.5342
-51.3645
-51.1928
-51.0292
-50.873
-50.7309
-50.5878
-50.4523
-50.3246
-50.197
-50.0891
-49.9773
-49.8544
-49.727
-49.6097
-49.505
-49.4071
-49.3171
-49.2338
-49.1469
-49.055
-48.967
-48.887
-48.814
-48.7473
-48.6471
-55.781
-55.4862
-55.2032
-54.8853
-54.598
-54.3241
-54.0642
-53.8229
-53.5963
-53.3486
-53.1152
-52.9137
-52.7032
-52.5081
-52.3083
-52.1333
-51.946
-51.792
-51.6184
-51.4395
-51.2751
-51.1322
-51.0037
-50.8532
-50.724
-50.6095
-50.4767
-50.3942
-50.2529
-50.0691
-49.8964
-49.7678
-49.6611
-49.5629
-49.4824
-49.4138
-49.3283
-49.2252
-49.1342
-49.0562
-48.9884
-48.9458
-48.8905
-55.8627
-55.2986
-55.0036
-54.7035
-54.4248
-54.2074
-53.9729
-53.7412
-53.4916
-53.1479
-52.8884
-52.7308
-52.4256
-52.1773
-51.9507
-51.7394
-51.5374
-51.3465
-51.1426
-50.8968
-50.7617
-50.625
-50.4849
-50.2987
-50.1932
-50.0675
-49.8925
-49.8676
-49.5917
-49.4088
-49.4488
-49.4804
-49.519
-49.5361
-49.5564
-49.5606
-49.4849
-49.3563
-49.285
-49.2569
-49.2567
-49.303
-49.3671
266.049
250.903
232.743
215.264
198.862
183.383
168.946
155.634
143.478
132.416
122.396
113.335
105.148
97.7371
91.0135
84.8978
79.3086
74.1714
69.4328
65.0198
60.8921
57.0079
53.3325
49.8356
46.4908
43.2842
40.1919
37.2052
34.315
31.5108
28.7832
26.1307
23.5452
21.0242
18.5641
16.1615
13.8153
11.5204
9.27678
7.07904
4.91215
2.82305
1.10251
141.304
141.008
138.194
134.137
129.561
124.719
119.726
114.672
109.618
104.613
99.6978
94.8916
90.2058
85.6644
81.2631
77.0133
72.9114
68.9553
65.1499
61.4804
57.9441
54.5377
51.2507
48.0762
45.0038
42.0341
39.1515
36.3532
33.633
30.986
28.4045
25.8876
23.4272
21.024
18.6721
16.3686
14.1139
11.9036
9.73801
7.6129
5.51797
3.49174
1.84054
112.947
114.729
115.2
115.021
114.199
112.765
110.775
108.306
105.438
102.245
98.7979
95.1609
91.3851
87.5267
83.6255
79.7164
75.8309
71.9888
68.2136
64.5139
60.9007
57.3825
53.9582
50.6346
47.4027
44.2692
41.2239
38.2701
35.3985
32.6076
29.8933
27.2533
24.6799
22.1721
19.7272
17.3406
15.0089
12.7307
10.5035
8.31829
6.16764
4.09331
2.28745
115.164
114.645
113.027
111.228
109.264
107.115
104.777
102.26
99.5788
96.7497
93.7926
90.7241
87.5623
84.326
81.0357
77.7066
74.3566
71.0015
67.6523
64.3246
61.0247
57.7652
54.5493
51.3881
48.2821
45.2347
42.2483
39.3265
36.4668
33.6707
30.937
28.2649
25.6546
23.1014
20.6058
18.1675
15.782
13.4502
11.171
8.93948
6.74805
4.6579
3.05499
101.286
100.693
99.6953
98.5708
97.2829
95.8323
94.2269
92.473
90.572
88.5307
86.3532
84.0496
81.6272
79.0982
76.4738
73.77
70.9946
68.1669
65.2936
62.3945
59.4743
56.5508
53.6284
50.7164
47.8274
44.9617
42.1298
39.3322
36.577
33.8615
31.193
28.5682
25.9914
23.4638
20.9809
18.5485
16.1619
13.824
11.5314
9.2838
7.06697
4.92541
3.18537
87.5622
87.3748
87.0822
86.6382
86.0266
85.2507
84.3134
83.2158
81.9603
80.5519
78.9946
77.2953
75.4629
73.5033
71.4285
69.2474
66.9706
64.6107
62.1782
59.6826
57.1371
54.5524
51.9376
49.3026
46.658
44.0079
41.3663
38.7313
36.1159
33.5216
30.9536
28.415
25.9069
23.4364
20.9999
18.6018
16.2426
13.9239
11.6437
9.40327
7.19076
5.0386
3.21862
78.5784
78.4716
78.269
77.9218
77.4579
76.8764
76.174
75.3482
74.399
73.3257
72.1279
70.8085
69.3695
67.8145
66.1489
64.3761
62.5047
60.5393
58.4904
56.3628
54.1677
51.9129
49.6058
47.2561
44.8731
42.4627
40.0366
37.5962
35.1529
32.7116
30.2761
27.8544
25.4475
23.0631
20.6996
18.364
16.0563
13.7791
11.5343
9.3203
7.13169
4.99567
3.14961
70.8596
70.7739
70.588
70.2879
69.9038
69.4339
68.8734
68.22
67.4722
66.6257
65.6788
64.6316
63.4815
62.2299
60.8779
59.4269
57.8803
56.2411
54.5139
52.7049
50.8178
48.8614
46.8406
44.7622
42.6343
40.4639
38.259
36.0234
33.7677
31.4964
29.2148
26.9307
24.6467
22.371
20.1029
17.8511
15.6153
13.4006
11.2094
9.04013
6.88955
4.7846
2.94023
63.4696
63.4363
63.3199
63.1132
62.8393
62.4938
62.0736
61.5762
60.9989
60.3382
59.5933
58.7608
57.8395
56.8274
55.7251
54.5324
53.2496
51.8785
50.4217
48.8822
47.2631
45.569
43.8048
41.9753
40.0856
38.1433
36.1532
34.1217
32.0549
29.96
27.8406
25.7052
23.5566
21.4029
19.2462
17.0927
14.9451
12.8084
10.6853
8.57742
6.47925
4.42037
2.60482
56.8267
56.8285
56.7592
56.6186
56.4221
56.1661
55.8479
55.4649
55.0139
54.4937
53.9006
53.2323
52.4867
51.6615
50.7557
49.7689
48.6994
47.5479
46.3154
45.0026
43.6129
42.1468
40.6087
39.0016
37.3294
35.5979
33.8107
31.9739
30.0918
28.1705
26.2154
24.2323
22.2257
20.2023
18.1652
16.1206
14.0727
12.0248
9.9825
7.94639
5.91456
3.91514
2.15771
50.8267
50.8577
50.8195
50.7221
50.5769
50.3815
50.1352
49.8344
49.4765
49.06
48.5813
48.0386
47.4287
46.7494
45.9989
45.1763
44.2793
43.3076
42.2602
41.1384
39.9421
38.6722
37.3311
35.9204
34.4432
32.9034
31.3029
29.6476
27.9412
26.1882
24.3924
22.5615
20.6971
18.8074
16.8944
14.9645
13.0225
11.0713
9.11809
7.1616
5.20136
3.2662
1.58657
45.3413
45.3826
45.362
45.2937
45.1852
45.0353
44.8431
44.6049
44.3189
43.9824
43.5934
43.1488
42.6461
42.0832
41.4575
40.7674
40.0115
39.1875
38.2946
37.3325
36.3005
35.1986
34.0282
32.7897
31.4855
30.1171
28.6875
27.1989
25.6556
24.0612
22.4187
20.7344
19.0099
17.2524
15.4649
13.6526
11.8199
9.97137
8.11194
6.24398
4.36731
2.50846
0.910399
40.2089
40.2693
40.2698
40.2299
40.1553
40.0451
39.8979
39.7111
39.4835
39.2125
38.8955
38.5303
38.1151
37.6471
37.1234
36.5424
35.9024
35.2015
34.4378
33.6102
32.7178
31.7604
30.7376
29.6496
28.498
27.2826
26.0063
24.6699
23.2771
21.8299
20.3319
18.787
17.1979
15.5693
13.9054
12.2103
10.4871
8.74213
6.97853
5.19803
3.39895
1.59479
-0.0298434
35.4513
35.5182
35.5284
35.5072
35.4568
35.3769
35.2648
35.119
34.938
34.7194
34.461
34.1609
33.8167
33.4261
32.9867
32.496
31.9526
31.3546
30.6994
29.9861
29.2132
28.3795
27.485
26.5284
25.5105
24.4314
23.2923
22.0938
20.8384
19.5277
18.1637
16.7503
15.2894
13.7853
12.241
10.6606
9.0474
7.40595
5.73988
4.05084
2.33669
0.607794
-0.982324
30.9796
31.0532
31.0747
31.0703
31.0409
30.986
30.903
30.7907
30.6478
30.4724
30.2624
30.0157
29.7304
29.4042
29.0348
28.6197
28.1574
27.646
27.0829
26.4668
25.7963
25.0699
24.2863
23.4447
22.545
21.5864
20.5701
19.496
18.3651
17.1792
15.9398
14.6487
13.3091
11.9229
10.4936
9.02462
7.51898
5.98078
4.41377
2.82038
1.19997
-0.430747
-1.9057
26.7257
26.8133
26.8502
26.8647
26.8564
26.8249
26.7686
26.6867
26.5777
26.4399
26.2712
26.0702
25.8349
25.5635
25.2533
24.9022
24.5092
24.0717
23.5875
23.0548
22.4726
21.8389
21.1521
20.4111
19.6155
18.7641
17.8575
16.8951
15.8775
14.8053
13.6805
12.5031
11.2765
10.0016
8.68173
7.31959
5.91815
4.4805
3.01074
1.51107
-0.0197793
-1.56195
-2.94189
22.7417
22.8324
22.8739
22.8978
22.9033
22.8886
22.8525
22.7939
22.7122
22.6054
22.4713
22.3084
22.1153
21.8901
21.6302
21.3343
21.0001
20.626
20.2096
19.7494
19.2434
18.6903
18.0883
17.4361
16.7322
15.9761
15.1675
14.3055
13.3906
12.4221
11.4018
10.33
9.20815
8.03796
6.82132
5.56078
4.25905
2.91891
1.54445
0.13928
-1.29603
-2.74266
-4.0268
18.9302
19.0327
19.0844
19.1206
19.1402
19.1415
19.1238
19.0863
19.0279
18.9478
18.8435
18.7133
18.5565
18.3706
18.1542
17.9052
17.6222
17.3028
16.9452
16.5477
16.1085
15.6259
15.0982
14.524
13.9016
13.2305
12.5092
11.7378
10.9152
10.0416
9.1168
8.14223
7.11741
6.0447
4.92513
3.76041
2.55292
1.30519
0.0199786
-1.29999
-2.65591
-4.04018
-5.33634
15.3012
15.4135
15.4725
15.5184
15.5494
15.5649
15.5637
15.5445
15.5069
15.4495
15.3706
15.2693
15.1437
14.9923
14.8133
14.6054
14.3667
14.0951
13.7886
13.446
13.0654
12.6449
12.183
11.6776
11.1277
10.5324
9.88967
9.19963
8.46084
7.67319
6.83596
5.95038
5.01573
4.03338
3.00458
1.93022
0.811699
-0.34795
-1.54709
-2.78293
-4.05403
-5.35733
-6.61258
11.8455
11.9637
12.0267
12.0798
12.1201
12.147
12.1591
12.1557
12.1355
12.0976
12.041
11.9642
11.8663
11.7446
11.5982
11.4259
11.2259
10.9961
10.7347
10.4403
10.1112
9.74568
9.34179
8.89789
8.41267
7.88494
7.31304
6.69629
6.03345
5.32388
4.56701
3.76301
2.9119
2.01367
1.06909
0.0794359
-0.954579
-2.03118
-3.14898
-4.30619
-5.50009
-6.7334
-8.02465
8.54816
8.66692
8.73148
8.79081
8.83834
8.87378
8.89678
8.90635
8.9011
8.88022
8.84256
8.78723
8.7127
8.61737
8.49962
8.35842
8.19235
7.99937
7.77773
7.52607
7.24262
6.92581
6.57353
6.18445
5.75715
5.29022
4.78223
4.2315
3.63756
2.99909
2.31582
1.58703
0.812719
-0.00730143
-0.872958
-1.78323
-2.73771
-3.73533
-4.77568
-5.85795
-6.98168
-8.14356
-9.36422
5.35508
5.47808
5.54918
5.61724
5.67388
5.71982
5.7543
5.77677
5.78584
5.78075
5.76092
5.72475
5.67175
5.59984
5.50794
5.39475
5.25878
5.09852
4.91244
4.69852
4.45589
4.18241
3.87636
3.5365
3.16108
2.74892
2.29841
1.80775
1.27662
0.703124
0.0871565
-0.572451
-1.27575
-2.02345
-2.81526
-3.65107
-4.53001
-5.45179
-6.41584
-7.42217
-8.46969
-9.54896
-10.6242
2.30195
2.42264
2.49549
2.56829
2.63152
2.68555
2.72945
2.76271
2.78394
2.79309
2.78863
2.77004
2.7359
2.68473
2.61573
2.52748
2.41835
2.28751
2.13275
1.953
1.74683
1.51248
1.24827
0.952632
0.624065
0.2612
-0.137261
-0.573195
-1.04747
-1.56146
-2.11586
-2.7117
-3.34933
-4.02959
-4.75267
-5.5185
-6.32602
-7.17519
-8.06423
-8.99247
-9.95635
-10.9423
-11.8246
-0.671691
-0.543592
-0.463202
-0.381794
-0.309929
-0.246696
-0.192667
-0.14878
-0.115136
-0.092815
-0.0829712
-0.0859041
-0.102801
-0.135178
-0.183752
-0.249685
-0.334255
-0.438879
-0.565305
-0.714662
-0.888008
-1.08712
-1.31388
-1.56946
-1.85561
-2.17365
-2.52495
-2.91103
-3.33328
-3.79281
-4.29058
-4.82765
-5.40484
-6.02264
-6.68172
-7.38203
-8.12317
-8.90496
-9.72602
-10.586
-11.4828
-12.4134
-13.3061
-3.49971
-3.37636
-3.2971
-3.21441
-3.13866
-3.07011
-3.00936
-2.9573
-2.91441
-2.88102
-2.85882
-2.8481
-2.84983
-2.86559
-2.89577
-2.9419
-3.00471
-3.08569
-3.1865
-3.3081
-3.45175
-3.6194
-3.8122
-4.0315
-4.27918
-4.55648
-4.86472
-5.20544
-5.57996
-5.98945
-6.4351
-6.91815
-7.43952
-7.99951
-8.59903
-9.23852
-9.91772
-10.6365
-11.3943
-12.1907
-13.0264
-13.8989
-14.7079
-6.25219
-6.12785
-6.04538
-5.95786
-5.87743
-5.80289
-5.73527
-5.67554
-5.62352
-5.5806
-5.54754
-5.52429
-5.51243
-5.51289
-5.52629
-5.55437
-5.59761
-5.6572
-5.73478
-5.83143
-5.94846
-6.0874
-6.24934
-6.43572
-6.64842
-6.88847
-7.15724
-7.45637
-7.78711
-8.15072
-8.54855
-8.98168
-9.45118
-9.95762
-10.5017
-11.0846
-11.7057
-12.3653
-13.063
-13.7982
-14.5723
-15.3866
-16.1407
-8.91252
-8.79011
-8.70649
-8.61593
-8.53158
-8.45178
-8.37791
-8.31076
-8.25074
-8.19887
-8.15525
-8.12071
-8.09669
-8.08303
-8.08131
-8.09289
-8.11817
-8.15846
-8.21488
-8.28892
-8.38155
-8.49414
-8.6278
-8.78407
-8.96475
-9.17079
-9.40341
-9.66446
-9.95505
-10.2766
-10.6303
-11.0171
-11.4384
-11.8951
-12.3879
-12.9177
-13.4845
-14.0888
-14.7306
-15.4095
-16.1276
-16.8927
-17.6355
-11.5153
-11.3893
-11.2995
-11.2031
-11.1126
-11.0261
-10.9456
-10.871
-10.8029
-10.7419
-10.6884
-10.6434
-10.6074
-10.581
-10.5656
-10.5617
-10.5707
-10.5931
-10.6303
-10.6835
-10.7538
-10.8422
-10.9501
-11.079
-11.2302
-11.4049
-11.6045
-11.8304
-12.084
-12.3666
-12.6794
-13.0235
-13.4002
-13.8106
-14.2555
-14.7357
-15.2517
-15.8039
-16.3929
-17.0186
-17.6823
-18.3937
-19.1064
-14.0297
-13.9029
-13.8109
-13.7106
-13.616
-13.525
-13.4388
-13.3578
-13.2822
-13.2131
-13.1508
-13.0958
-13.0488
-13.011
-12.9826
-12.965
-12.9588
-12.9646
-12.9843
-13.0185
-13.0681
-13.1344
-13.2187
-13.3224
-13.4465
-13.5926
-13.7617
-13.9553
-14.1747
-14.4211
-14.696
-15.0005
-15.3358
-15.703
-16.103
-16.5367
-17.005
-17.5081
-18.0467
-18.6208
-19.2311
-19.8864
-20.5553
-16.4623
-16.336
-16.2429
-16.1405
-16.0437
-15.9493
-15.8588
-15.7726
-15.6909
-15.6148
-15.5447
-15.481
-15.4247
-15.3761
-15.336
-15.3057
-15.2856
-15.2766
-15.2799
-15.2964
-15.3272
-15.3732
-15.4357
-15.5161
-15.6153
-15.7349
-15.8757
-16.0394
-16.2273
-16.4403
-16.6801
-16.9479
-17.2446
-17.5715
-17.9295
-18.3196
-18.7429
-19.1998
-19.6906
-20.2153
-20.775
-21.3764
-21.9928
-18.8499
-18.7197
-18.6222
-18.5156
-18.4139
-18.3144
-18.2183
-18.126
-18.0381
-17.9548
-17.8771
-17.8052
-17.7395
-17.6808
-17.63
-17.5877
-17.5549
-17.5321
-17.5203
-17.5206
-17.5339
-17.5612
-17.6038
-17.6624
-17.7386
-17.8334
-17.9482
-18.0843
-18.2427
-18.4247
-18.632
-18.8654
-19.1261
-19.4153
-19.7342
-20.0837
-20.4647
-20.8779
-21.3236
-21.8016
-22.3125
-22.8616
-23.4216
-21.1491
-21.0227
-20.9271
-20.8199
-20.7161
-20.6137
-20.5137
-20.417
-20.3237
-20.2343
-20.1496
-20.0702
-19.9959
-19.9281
-19.8672
-19.814
-19.7694
-19.7337
-19.7079
-19.6932
-19.6904
-19.7005
-19.7243
-19.763
-19.8178
-19.8898
-19.9804
-20.0907
-20.2219
-20.3752
-20.5519
-20.7532
-20.9802
-21.2343
-21.5165
-21.8279
-22.1693
-22.5419
-22.9459
-23.3817
-23.8503
-24.3588
-24.8916
-23.4184
-23.2873
-23.1869
-23.0751
-22.9666
-22.8595
-22.7547
-22.6528
-22.5537
-22.4581
-22.3668
-22.2798
-22.198
-22.1216
-22.0512
-21.9879
-21.932
-21.8843
-21.8457
-21.8169
-21.7991
-21.793
-21.7994
-21.8195
-21.8545
-21.9055
-21.9735
-22.0597
-22.1655
-22.292
-22.4402
-22.6114
-22.8071
-23.0283
-23.276
-23.5515
-23.8558
-24.1901
-24.555
-24.9513
-25.3804
-25.8506
-26.3563
-25.6203
-25.4893
-25.3878
-25.2737
-25.1621
-25.0507
-24.9417
-24.8348
-24.7303
-24.6289
-24.5311
-24.4371
-24.3479
-24.2634
-24.1844
-24.1115
-24.0451
-23.9863
-23.9356
-23.8938
-23.862
-23.8408
-23.8311
-23.834
-23.8506
-23.8818
-23.9287
-23.9925
-24.0745
-24.1758
-24.2973
-24.4405
-24.6067
-24.797
-25.0124
-25.254
-25.5233
-25.8212
-26.1486
-26.5066
-26.8968
-27.3286
-27.8134
-27.7551
-27.6258
-27.5255
-27.4109
-27.2974
-27.1842
-27.0723
-26.9617
-26.8531
-26.747
-26.6436
-26.5435
-26.4474
-26.3554
-26.2684
-26.1867
-26.1107
-26.0416
-25.9797
-25.9259
-25.8809
-25.8456
-25.8208
-25.8078
-25.807
-25.8198
-25.8471
-25.89
-25.9497
-26.0273
-26.1239
-26.2409
-26.3794
-26.5405
-26.7253
-26.935
-27.1709
-27.4339
-27.7251
-28.0454
-28.396
-28.7854
-29.2351
-29.8493
-29.7203
-29.6186
-29.5016
-29.3857
-29.2696
-29.1541
-29.0397
-28.9268
-28.8162
-28.7078
-28.6019
-28.4994
-28.4008
-28.3063
-28.2161
-28.1313
-28.0525
-27.9801
-27.915
-27.8577
-27.8092
-27.7706
-27.7424
-27.7255
-27.7209
-27.7298
-27.753
-27.792
-27.8477
-27.9209
-28.0131
-28.1253
-28.2588
-28.4147
-28.5942
-28.7982
-29.0279
-29.2842
-29.5676
-29.8782
-30.2241
-30.6264
-31.9051
-31.7736
-31.6692
-31.5498
-31.4306
-31.311
-31.1918
-31.0732
-30.9561
-30.8407
-30.7272
-30.6157
-30.5073
-30.402
-30.3002
-30.2023
-30.109
-30.021
-29.9389
-29.8632
-29.7944
-29.7337
-29.6818
-29.6395
-29.6072
-29.5865
-29.578
-29.5829
-29.6024
-29.6371
-29.6884
-29.7573
-29.8448
-29.9523
-30.0809
-30.2316
-30.4056
-30.604
-30.8277
-31.0775
-31.3521
-31.6577
-32.0642
-33.8843
-33.7575
-33.6571
-33.5398
-33.4209
-33.3006
-33.1799
-33.0592
-32.9389
-32.8197
-32.7018
-32.5857
-32.4716
-32.3603
-32.2518
-32.1466
-32.0456
-31.949
-31.8576
-31.7719
-31.6925
-31.6203
-31.556
-31.5002
-31.4537
-31.4177
-31.3931
-31.3807
-31.3815
-31.3966
-31.4271
-31.4739
-31.5383
-31.6214
-31.7242
-31.8478
-31.9933
-32.1615
-32.3535
-32.5696
-32.8089
-33.0725
-33.3596
-35.8472
-35.7206
-35.618
-35.4979
-35.3766
-35.2536
-35.1296
-35.0056
-34.8816
-34.7583
-34.6361
-34.5151
-34.3957
-34.2783
-34.1634
-34.0517
-33.943
-33.8382
-33.7381
-33.643
-33.5534
-33.4702
-33.3942
-33.3261
-33.2662
-33.2157
-33.1759
-33.1472
-33.1305
-33.1271
-33.1379
-33.164
-33.2065
-33.2664
-33.3447
-33.4428
-33.5614
-33.7017
-33.8645
-34.0506
-34.2602
-34.4971
-34.7607
-37.7868
-37.6565
-37.5495
-37.4255
-37.3003
-37.173
-37.0447
-36.9164
-36.788
-36.66
-36.5328
-36.4068
-36.2818
-36.1586
-36.0375
-35.919
-35.8032
-35.6907
-35.5823
-35.4781
-35.379
-35.2854
-35.1983
-35.1181
-35.0456
-34.9817
-34.9273
-34.8831
-34.8502
-34.8294
-34.8216
-34.8279
-34.8498
-34.8878
-34.9431
-35.0168
-35.1102
-35.2242
-35.3598
-35.5183
-35.7009
-35.9151
-36.1761
-39.6743
-39.5421
-39.4342
-39.3083
-39.1803
-39.0504
-38.9192
-38.7871
-38.6548
-38.5228
-38.3911
-38.2603
-38.1305
-38.0018
-37.8748
-37.7497
-37.6273
-37.5075
-37.391
-37.2784
-37.1703
-37.067
-36.9693
-36.8779
-36.7934
-36.7167
-36.6484
-36.5895
-36.5412
-36.5038
-36.4785
-36.4663
-36.4683
-36.4855
-36.519
-36.5697
-36.6389
-36.7277
-36.8373
-36.9691
-37.1246
-37.3138
-37.5561
-41.4985
-41.3705
-41.2649
-41.1399
-41.012
-40.8814
-40.7489
-40.6149
-40.4803
-40.3457
-40.2106
-40.0759
-39.9418
-39.8082
-39.6758
-39.545
-39.4162
-39.2896
-39.1658
-39.0452
-38.9283
-38.8158
-38.7082
-38.6063
-38.5104
-38.4215
-38.3403
-38.2677
-38.2044
-38.1514
-38.1094
-38.0797
-38.0628
-38.0601
-38.0729
-38.1016
-38.1476
-38.212
-38.2961
-38.401
-38.5277
-38.6836
-38.9049
-43.3034
-43.1738
-43.0672
-42.9406
-42.8108
-42.6785
-42.544
-42.4079
-42.2709
-42.1332
-41.9948
-41.8564
-41.7181
-41.5799
-41.4425
-41.3063
-41.1713
-41.0384
-40.9075
-40.7795
-40.6546
-40.5332
-40.4162
-40.3042
-40.1976
-40.0973
-40.0038
-39.9179
-39.8407
-39.7728
-39.715
-39.6686
-39.6339
-39.6123
-39.605
-39.6126
-39.6363
-39.6772
-39.736
-39.8134
-39.9098
-40.0315
-40.2205
-45.0812
-44.9507
-44.8429
-44.714
-44.5819
-44.4471