/*--------------------------------*- C++ -*----------------------------------*\
| =========                 |                                                 |
| \\      /  F ield         | OpenFOAM: The Open Source CFD Toolbox           |
|  \\    /   O peration     | Version:  2.3.0                                 |
|   \\  /    A nd           | Web:      www.OpenFOAM.org                      |
|    \\/     M anipulation  |                                                 |
\*---------------------------------------------------------------------------*/
FoamFile
{
    version     2.0;
    format      ascii;
    class       surfaceScalarField;
    location    "3000";
    object      phi;
}
// * * * * * * * * * * * * * * * * * * * * * * * * * * * * * * * * * * * * * //

dimensions      [0 3 -1 0 0 0 0];

internalField   nonuniform List<scalar> 
76114
(
0.00143028
-0.00488717
0.00530631
-0.00184942
0.00104894
-0.00468538
0.00506671
0.000704095
-0.00449189
0.00483674
0.000394348
-0.00430651
0.00461626
0.000117883
-0.00412842
0.00440489
-0.000126568
-0.0039577
0.00420215
-0.000340893
-0.00379349
0.00400781
-0.000525859
-0.00363615
0.00382112
-0.000683324
-0.00348498
0.00364244
-0.000814446
-0.00333977
0.00347089
-0.00092012
-0.00320055
0.00330622
-0.00100194
-0.00306667
0.00314849
-0.00106089
-0.00293803
0.00299698
-0.00109785
-0.00281463
0.00285159
-0.00111417
-0.0026959
0.00271222
-0.00111078
-0.0025817
0.00257831
-0.00108829
-0.0024722
0.0024497
-0.00104792
-0.00236655
0.00232619
-0.000990131
-0.00226519
0.00220741
-0.000916047
-0.00216734
0.00209326
-0.000826018
-0.00207328
0.00198325
-0.000720763
-0.00198264
0.00187738
-0.00060085
-0.00189517
0.00177525
-0.000466797
-0.00181068
0.00167663
-0.000318946
-0.00172939
0.00158154
-0.000157343
-0.00165077
0.00148916
1.72726e-05
-0.00157446
0.00139984
0.00020532
-0.00150111
0.00131306
0.000406266
-0.00142947
0.00122853
0.000620437
-0.00136038
0.0011462
0.000847795
-0.00129324
0.00106588
0.0010893
-0.0012283
0.00098679
0.00134535
-0.00116514
0.00090909
0.00161688
-0.0011042
0.000832664
0.00190488
-0.00104517
0.00075716
0.00221246
-0.00098904
0.000681452
0.00254156
-0.000935332
0.000606236
0.00289581
-0.000884626
0.000530367
0.0032807
-0.000838103
0.00045321
0.00370497
-0.000797323
0.000373059
0.00418339
-0.000764983
0.000286557
0.00474975
-0.000745871
0.000179516
-0.000751675
0.00554068
-3.92668e-05
0.00133708
-0.00450565
-0.00171861
0.000990401
-0.00433869
0.000677047
-0.00417854
0.000394829
-0.00402429
0.000142671
-0.00387626
-8.11446e-05
-0.00373389
-0.000277472
-0.00359716
-0.000447731
-0.00346589
-0.00059311
-0.0033396
-0.000714733
-0.00321815
-0.000813617
-0.00310166
-0.000890953
-0.00298933
-0.000947293
-0.00288169
-0.000984273
-0.00277765
-0.00100221
-0.00267796
-0.00100206
-0.00258185
-0.000984928
-0.00248933
-0.000951351
-0.00240013
-0.000902129
-0.00231441
-0.000837984
-0.00223149
-0.000759546
-0.00215172
-0.000667296
-0.00207489
-0.000561926
-0.00200054
-0.000443764
-0.00192884
-0.000313209
-0.00185995
-0.000171048
-0.00179293
-1.69929e-05
-0.00172851
0.000148381
-0.00166649
0.000325187
-0.00160628
0.000513803
-0.001549
0.000713777
-0.00149321
0.00092602
-0.00144054
0.00115072
-0.00138984
0.00138846
-0.00134194
0.00164065
-0.00129735
0.00190804
-0.00125644
0.00219196
-0.00121925
0.0024944
-0.00118707
0.00281744
-0.00116114
0.00316264
-0.00114253
0.0035299
-0.00113225
0.00391617
-0.00113214
-0.0011467
0.00431119
0.00124306
-0.00416148
-0.00158722
0.000928872
-0.00402451
0.00064379
-0.00389345
0.000386916
-0.00376742
0.000156798
-0.00364615
-4.75966e-05
-0.00352949
-0.000227238
-0.00341752
-0.000383714
-0.00330942
-0.000517533
-0.00320578
-0.000629845
-0.00310584
-0.000721816
-0.00300969
-0.000793869
-0.00291728
-0.000847382
-0.00282818
-0.00088275
-0.00274229
-0.000901118
-0.00265959
-0.000902974
-0.00257999
-0.000889121
-0.00250319
-0.000860128
-0.00242912
-0.000816935
-0.00235761
-0.000759782
-0.00228864
-0.000689427
-0.00222207
-0.000606445
-0.00215787
-0.000511169
-0.00209581
-0.000404039
-0.00203597
-0.000285661
-0.00197833
-0.000155984
-0.00192261
-1.57617e-05
-0.00186873
0.000135192
-0.00181744
0.00029643
-0.00176751
0.000467408
-0.00171998
0.000648962
-0.00167476
0.000840058
-0.00163164
0.00104134
-0.00159112
0.00125244
-0.00155304
0.0014738
-0.00151872
0.00170492
-0.00148757
0.0019468
-0.00146113
0.00219833
-0.00143861
0.00245853
-0.00142133
0.00272719
-0.00141119
0.00300227
-0.00140734
0.0032804
-0.00141028
-0.00142247
0.00355617
0.00115342
-0.00384701
-0.00146789
0.000867139
-0.00373823
0.00060732
-0.00363363
0.000372623
-0.00353272
0.000162362
-0.00343589
-2.49185e-05
-0.00334221
-0.0001901
-0.00325234
-0.000334107
-0.00316541
-0.000457885
-0.003082
-0.000562225
-0.0030015
-0.000647973
-0.00292394
-0.000716085
-0.00284917
-0.000767167
-0.00277709
-0.000802182
-0.00270727
-0.000821522
-0.00264025
-0.000826064
-0.00257545
-0.000816432
-0.00251282
-0.000793112
-0.00245244
-0.000756653
-0.00239407
-0.000707684
-0.00233761
-0.000646819
-0.00228294
-0.000574412
-0.00223028
-0.0004909
-0.00217932
-0.000396702
-0.00213017
-0.000292228
-0.0020828
-0.000177819
-0.00203702
-5.35493e-05
-0.001993
7.9526e-05
-0.00195052
0.00022214
-0.00191013
0.00037391
-0.00187175
0.000533966
-0.00183482
0.000702761
-0.00180043
0.000879818
-0.00176818
0.00106585
-0.00173907
0.00125956
-0.00171242
0.00146119
-0.0016892
0.00167045
-0.00167039
0.00188724
-0.00165539
0.0021112
-0.00164529
0.00234083
-0.00164082
0.00257488
-0.00164138
0.00281328
-0.00164868
-0.00166049
0.00305129
0.00106658
-0.00356142
-0.00135217
0.000805968
-0.00347762
0.000568834
-0.0033965
0.000354549
-0.00331844
0.000162014
-0.00324335
-9.61025e-06
-0.00317059
-0.000161381
-0.00310057
-0.000293707
-0.00303309
-0.000408064
-0.00296765
-0.000504841
-0.00290472
-0.000584783
-0.002844
-0.000648825
-0.00278513
-0.000697365
-0.00272855
-0.000731114
-0.00267352
-0.000750769
-0.0026206
-0.000757111
-0.00256911
-0.000750466
-0.00251946
-0.000731534
-0.00247137
-0.00070067
-0.00242493
-0.000658276
-0.00238
-0.00060497
-0.00233624
-0.000541176
-0.00229407
-0.000467335
-0.00225316
-0.000383835
-0.00221367
-0.000291256
-0.00217538
-0.000189313
-0.00213896
-7.89658e-05
-0.00210335
4.0214e-05
-0.0020697
0.000167176
-0.00203709
0.000302135
-0.0020067
0.00044461
-0.0019773
0.000595005
-0.00195083
0.000752489
-0.00192567
0.000916688
-0.00190327
0.00108843
-0.00188417
0.00126613
-0.0018669
0.00145028
-0.00185454
0.0016404
-0.00184551
0.00183571
-0.00184061
0.0020359
-0.00184101
0.0022401
-0.00184558
0.00244726
-0.00185583
-0.00186968
0.00265645
0.000984562
-0.00330085
-0.00124513
0.000746577
-0.00323963
0.000530212
-0.00318014
0.000334402
-0.00312263
0.000158027
-0.00306698
9.09662e-07
-0.00301347
-0.000138433
-0.00296122
-0.00026056
-0.00291096
-0.000365837
-0.00286237
-0.000455504
-0.00281505
-0.000529963
-0.00276954
-0.000589759
-0.00272533
-0.000635816
-0.0026825
-0.000668482
-0.00264086
-0.000688374
-0.00260071
-0.000695934
-0.00256155
-0.000691798
-0.0025236
-0.00067625
-0.00248692
-0.000650103
-0.00245108
-0.000613593
-0.00241651
-0.000567064
-0.00238277
-0.000511009
-0.00235013
-0.000445661
-0.00231851
-0.00037162
-0.00228771
-0.000289185
-0.00225781
-0.000198704
-0.00222944
-0.000100002
-0.00220205
5.97675e-06
-0.00217568
0.000119671
-0.00215078
0.000240006
-0.00212704
0.000367549
-0.00210484
0.00050151
-0.00208479
0.000642013
-0.00206617
0.000789179
-0.00205044
0.000941485
-0.00203648
0.00110012
-0.00202554
0.00126416
-0.00201858
0.00143248
-0.00201384
0.00160658
-0.00201471
0.00178409
-0.00201852
0.0019662
-0.00202769
0.00215026
-0.0020399
-0.00205731
0.00233789
0.000906208
-0.00306425
-0.00114281
0.000689263
-0.00302269
0.000491771
-0.00298264
0.000312817
-0.00294367
0.000151642
-0.0029058
7.51152e-06
-0.00286934
-0.00012015
-0.00283356
-0.000232358
-0.00279875
-0.00032962
-0.00276511
-0.000412251
-0.00273242
-0.000481529
-0.00270027
-0.00053732
-0.00266954
-0.000580702
-0.00263911
-0.000611806
-0.00260975
-0.000631345
-0.00258117
-0.000639623
-0.00255327
-0.000637378
-0.00252584
-0.000625048
-0.00249925
-0.0006027
-0.00247342
-0.000571048
-0.00244817
-0.000530092
-0.00242373
-0.000480441
-0.00239978
-0.000422551
-0.0023764
-0.000356575
-0.00235369
-0.00028283
-0.00233156
-0.000202043
-0.00231023
-0.000114043
-0.00229005
-1.9078e-05
-0.00227064
8.26742e-05
-0.00225253
0.000190656
-0.00223502
0.000305043
-0.00221923
0.000425099
-0.00220485
0.000551111
-0.00219218
0.000682529
-0.00218185
0.000819342
-0.00217329
0.000961703
-0.0021679
0.00110819
-0.00216507
0.00125953
-0.00216517
0.00141467
-0.00216985
0.00157404
-0.00217789
0.00173643
-0.00219008
0.00190262
-0.00220609
-0.00222572
0.00207102
0.000833009
-0.00284791
-0.00104934
0.000635262
-0.00282494
0.000454928
-0.00280231
0.000291122
-0.00277987
0.000143873
-0.00275855
1.18684e-05
-0.00273734
-0.000105273
-0.00271642
-0.000208174
-0.00269585
-0.000297626
-0.00267565
-0.000374242
-0.00265581
-0.000437972
-0.00263654
-0.000490105
-0.0026174
-0.000530582
-0.00259864
-0.000559996
-0.00258034
-0.000579009
-0.00256215
-0.000588068
-0.00254421
-0.00058712
-0.00252679
-0.000576754
-0.00250962
-0.000557826
-0.00249235
-0.000530193
-0.0024758
-0.000494214
-0.00245971
-0.000450097
-0.0024439
-0.000398606
-0.00242789
-0.000339794
-0.0024125
-0.000273979
-0.00239737
-0.000201392
-0.00238282
-0.000122292
-0.00236915
-3.72124e-05
-0.00235572
5.40224e-05
-0.00234377
0.000151555
-0.00233255
0.000254044
-0.00232171
0.000361867
-0.00231267
0.000475336
-0.00230565
0.000593708
-0.00230023
0.000716639
-0.00229622
0.000844408
-0.00229567
0.000976768
-0.00229743
0.00111249
-0.00230089
0.00125152
-0.00230888
0.00139484
-0.00232121
0.00154213
-0.00233737
0.001692
-0.00235596
-0.00237821
0.00184449
0.000764196
-0.00265132
-0.000960793
0.000583941
-0.00264468
0.000419429
-0.0026378
0.000270181
-0.00263062
0.000134762
-0.00262313
1.44367e-05
-0.00261701
-9.28365e-05
-0.00260915
-0.000187305
-0.00260138
-0.000269596
-0.00259336
-0.000340103
-0.0025853
-0.000399294
-0.00257734
-0.000447357
-0.00256934
-0.000485343
-0.00256065
-0.000513204
-0.00255248
-0.000531149
-0.00254421
-0.000540106
-0.00253525
-0.000540883
-0.00252602
-0.000532029
-0.00251847
-0.000515473
-0.00250891
-0.000491363
-0.00249991
-0.000459703
-0.00249136
-0.00042073
-0.00248287
-0.000374472
-0.00247415
-0.000321717
-0.00246526
-0.00026256
-0.00245653
-0.000197241
-0.00244814
-0.000126121
-0.00244027
-4.92837e-05
-0.00243256
3.25856e-05
-0.00242564
0.000120035
-0.00242
0.000212979
-0.00241466
0.000310043
-0.00240973
0.000412928
-0.00240853
0.000519534
-0.00240683
0.000629938
-0.00240662
0.000745369
-0.0024111
0.000864992
-0.00241705
0.00098749
-0.00242339
0.00111276
-0.00243415
0.00124184
-0.00245029
0.00137481
-0.00247034
0.00151014
-0.00249129
0.00164782
-0.00251588
0.00584764
-0.000835447
0.00052851
0.0061624
-0.000971981
0.000657232
0.00644075
-0.00109701
0.000818667
0.00668521
-0.00121226
0.000967809
0.00690121
-0.00131982
0.00110384
0.00709351
-0.00142041
0.00122811
0.00726548
-0.00151546
0.00134349
0.00741986
-0.00160591
0.00145152
0.00755772
-0.00169281
0.00155496
0.00768361
-0.00177874
0.00165284
0.00779851
-0.00186322
0.00174832
0.00790378
-0.00194727
0.001842
0.0079992
-0.00203137
0.00193594
0.00808729
-0.00211667
0.00202858
0.00816698
-0.00220288
0.00212318
0.00823761
-0.0022907
0.00222007
0.00829928
-0.00238096
0.0023193
0.00835147
-0.00247325
0.00242105
0.00839155
-0.00256722
0.00252714
0.00842041
-0.00266511
0.00263625
0.00843596
-0.00276531
0.00274976
0.0084373
-0.00286914
0.0028678
0.00842307
-0.00297574
0.00298998
0.0083917
-0.00308585
0.00311722
0.00834315
-0.00320055
0.0032491
0.00827513
-0.003318
0.00338602
0.00818721
-0.00344014
0.00352806
0.00807797
-0.00356687
0.00367611
0.00794612
-0.0036976
0.00382944
0.00779071
-0.00383324
0.00398865
0.00761078
-0.00397375
0.00415368
0.00740518
-0.00411937
0.00432497
0.00717227
-0.00427022
0.00450314
0.00691139
-0.0044266
0.00468748
0.00662089
-0.00458881
0.00487931
0.00629993
-0.00475718
0.00507813
0.00594766
-0.00493185
0.00528413
0.00556184
-0.00511236
0.00549819
0.00514211
-0.00530033
0.00572006
0.00468676
-0.00549524
0.00595059
0.00419431
-0.00569733
0.00618978
0.00366386
-0.00590732
0.00643776
-0.00612528
0.00669508
0.00309406
0.00466962
-0.00119387
0.00496883
-0.0012712
0.00522624
-0.00135442
0.00545137
-0.00143739
0.00565347
-0.00152192
0.00583862
-0.00160556
0.00600988
-0.00168672
0.00617138
-0.00176741
0.00632469
-0.00184612
0.00646991
-0.00192396
0.00660784
-0.00200115
0.0067389
-0.00207833
0.00686146
-0.00215392
0.0069761
-0.00223131
0.00708093
-0.00230771
0.00717653
-0.00238629
0.00726074
-0.00246517
0.00733316
-0.00254567
0.00739405
-0.00262811
0.00744133
-0.00271239
0.00747413
-0.00279812
0.00749202
-0.00288702
0.0074939
-0.00297763
0.00747917
-0.00307112
0.00744697
-0.00316835
0.00739632
-0.00326735
0.00732678
-0.0033706
0.00723685
-0.00347693
0.00712606
-0.00358681
0.00699344
-0.00370061
0.00683791
-0.00381822
0.00665866
-0.00394012
0.00645461
-0.00406617
0.00622493
-0.00419692
0.0059684
-0.00433228
0.00568364
-0.00447242
0.00537025
-0.00461846
0.00502669
-0.00476881
0.00465189
-0.00492552
0.00424434
-0.00508768
0.00380317
-0.00525617
0.00332644
-0.00543059
-0.00561247
0.00281363
0.00382134
-0.00145903
0.00407252
-0.00152238
0.00430785
-0.00158975
0.00453037
-0.0016599
0.00473892
-0.00173047
0.00493576
-0.0018024
0.0051221
-0.00187307
0.00529787
-0.00194317
0.0054641
-0.00201235
0.00562132
-0.00208118
0.0057689
-0.00214873
0.00590632
-0.00221575
0.00603502
-0.00228262
0.00615307
-0.00234936
0.00626147
-0.0024161
0.0063588
-0.00248363
0.0064455
-0.00255187
0.00652052
-0.00262069
0.00658269
-0.00269028
0.00663285
-0.00276254
0.00666962
-0.00283489
0.00669202
-0.00290943
0.00670019
-0.0029858
0.00669311
-0.00306405
0.00666947
-0.00314471
0.00663026
-0.00322814
0.0065727
-0.00331304
0.00649673
-0.00340096
0.00640217
-0.00349226
0.00628751
-0.00358595
0.00615172
-0.00368243
0.00599438
-0.00378278
0.00581471
-0.00388651
0.0056115
-0.00399371
0.00538376
-0.00410454
0.00513079
-0.00421945
0.00485086
-0.00433854
0.00454424
-0.00446218
0.00420868
-0.00458997
0.00384336
-0.00472236
0.00344739
-0.0048602
0.00301921
-0.0050024
-0.00515042
0.00255716
0.0032855
-0.00169325
0.00350944
-0.00174632
0.00372381
-0.00180413
0.00392695
-0.00186304
0.00412168
-0.0019252
0.0043057
-0.00198643
0.00448035
-0.00204771
0.00464679
-0.00210961
0.00480431
-0.00216987
0.00495251
-0.00222939
0.00509305
-0.00228927
0.00522476
-0.00234746
0.00534755
-0.00240541
0.00546122
-0.00246302
0.00556573
-0.00252061
0.00566041
-0.00257832
0.00574409
-0.00263554
0.0058177
-0.00269431
0.00588052
-0.0027531
0.0059307
-0.00281272
0.00596908
-0.00287327
0.0059947
-0.00293504
0.006007
-0.0029981
0.00600549
-0.00306254
0.00598879
-0.00312802
0.0059566
-0.00319594
0.00590877
-0.00326521
0.00584444
-0.00333664
0.00576213
-0.00340995
0.00566168
-0.0034855
0.00554273
-0.00356347
0.00540391
-0.00364396
0.00524461
-0.00372721
0.00506361
-0.0038127
0.00486076
-0.0039017
0.00463477
-0.00399345
0.00438488
-0.00408864
0.00410958
-0.00418689
0.00380867
-0.00428906
0.00348063
-0.00439431
0.00312435
-0.00450393
0.00273921
-0.00461726
-0.00473513
0.00232392
0.00286378
-0.00190058
0.00306421
-0.00194674
0.00325737
-0.00199729
0.00344323
-0.0020489
0.0036204
-0.00210238
0.00379054
-0.00215656
0.00395367
-0.00221084
0.0041085
-0.00226444
0.00425566
-0.00231703
0.00439606
-0.00236979
0.00452762
-0.00242083
0.00465148
-0.00247132
0.00476725
-0.00252118
0.00487464
-0.00257042
0.00497332
-0.00261929
0.00506236
-0.00266736
0.00514277
-0.00271595
0.00521268
-0.00276422
0.00527254
-0.00281296
0.00532167
-0.00286184
0.00535956
-0.00291117
0.00538573
-0.00296121
0.00539931
-0.00301167
0.00540052
-0.00306375
0.00538827
-0.00311577
0.00536218
-0.00316985
0.00532141
-0.00322444
0.0052655
-0.00328073
0.00519333
-0.00333778
0.00510525
-0.00339742
0.00499976
-0.00345797
0.00487651
-0.00352071
0.00473422
-0.00358492
0.00457309
-0.00365157
0.00439165
-0.00372027
0.00418922
-0.00379102
0.00396498
-0.0038644
0.003718
-0.00393991
0.00344742
-0.00401849
0.00315236
-0.00409925
0.0028319
-0.00418347
0.00248495
-0.00427031
-0.00436024
0.00211006
0.00252381
-0.0020865
0.00270434
-0.00212728
0.00287921
-0.00217216
0.00304777
-0.00221745
0.00321028
-0.00226489
0.00336642
-0.00231271
0.00351541
-0.00235983
0.00365807
-0.0024071
0.00379419
-0.00245315
0.00392346
-0.00249906
0.00404534
-0.00254272
0.00416054
-0.00258652
0.00426771
-0.00262834
0.00436722
-0.00266993
0.00445881
-0.00271088
0.00454217
-0.00275072
0.004617
-0.00279078
0.0046825
-0.00282972
0.00473881
-0.00286927
0.00478545
-0.00290849
0.00482194
-0.00294765
0.00484762
-0.00298689
0.00486237
-0.00302642
0.00486524
-0.00306661
0.00485628
-0.00310682
0.00483402
-0.00314759
0.00479911
-0.00318952
0.0047499
-0.00323151
0.00468683
-0.00327471
0.00460853
-0.00331912
0.00451471
-0.00336415
0.00440461
-0.00341061
0.00427769
-0.003458
0.00413336
-0.00350723
0.00397057
-0.00355748
0.00378909
-0.00360954
0.00358732
-0.00366263
0.0033651
-0.00371769
0.00312153
-0.00377492
0.00285593
-0.00383364
0.00256693
-0.00389447
0.00225391
-0.00395729
-0.00402209
0.00191576
0.00223852
-0.002254
0.00240235
-0.0022911
0.00256044
-0.00233025
0.00271404
-0.00237106
0.00286214
-0.00241299
0.00300423
-0.00245479
0.00314069
-0.00249629
0.00327137
-0.00253778
0.00339615
-0.00257793
0.00351442
-0.00261733
0.0036271
-0.0026554
0.00373262
-0.00269203
0.00383127
-0.00272699
0.00392331
-0.00276197
0.00400749
-0.00279506
0.00408499
-0.00282821
0.00415422
-0.00286002
0.00421543
-0.00289093
0.0042681
-0.00292194
0.00431193
-0.00295232
0.00434631
-0.00298202
0.00437112
-0.00301171
0.00438584
-0.00304114
0.00438962
-0.0030704
0.00438224
-0.00309943
0.00436383
-0.00312918
0.00433283
-0.00315853
0.00428985
-0.00318854
0.00423388
-0.00321874
0.00416416
-0.0032494
0.00408027
-0.00328027
0.00398169
-0.00331203
0.00386801
-0.00334433
0.00373813
-0.00337735
0.00359205
-0.0034114
0.00342817
-0.00344566
0.00324697
-0.00348143
0.00304714
-0.00351786
0.00282775
-0.00355553
0.00258812
-0.00359401
0.00232711
-0.00363347
0.00204455
-0.00367472
-0.0037169
0.00173936
0.00199565
-0.00240515
0.00214349
-0.00243894
0.00228749
-0.00247425
0.00242689
-0.00251046
0.00256117
-0.00254727
0.00269083
-0.00258445
0.00281542
-0.00262089
0.0029347
-0.00265705
0.00304884
-0.00269208
0.00315801
-0.0027265
0.00326021
-0.0027576
0.00335708
-0.00278891
0.00344778
-0.00281769
0.0035319
-0.00284609
0.00360991
-0.00287308
0.00368061
-0.0028989
0.00374452
-0.00292393
0.0038013
-0.0029477
0.00384993
-0.00297057
0.00389038
-0.00299278
0.00392283
-0.00301446
0.00394602
-0.00303491
0.00395996
-0.00305508
0.00396427
-0.0030747
0.00395877
-0.00309394
0.00394261
-0.00311302
0.00391592
-0.00313184
0.00387771
-0.00315032
0.00382796
-0.00316899
0.00376536
-0.0031868
0.00369055
-0.00320546
0.00360193
-0.00322342
0.00349991
-0.0032423
0.00338316
-0.0032606
0.00325116
-0.0032794
0.00310407
-0.00329857
0.00294038
-0.00331774
0.00276009
-0.00333758
0.00256201
-0.00335744
0.00234547
-0.00337747
0.0021102
-0.0033982
0.00185456
-0.00341908
-0.003441
0.00157866
0.00178548
-0.00254282
0.00191947
-0.00257293
0.00204974
-0.00260452
0.00217627
-0.00263699
0.00229902
-0.00267002
0.00241672
-0.00270214
0.00253043
-0.0027346
0.00263956
-0.00276618
0.00274393
-0.00279645
0.00284287
-0.00282544
0.00293685
-0.00285157
0.00302529
-0.00287735
0.0031084
-0.0029008
0.00318529
-0.00292298
0.00325623
-0.00294401
0.0033217
-0.00296438
0.00338041
-0.00298265
0.00343288
-0.00300016
0.00347786
-0.00301555
0.00351532
-0.00303024
0.00354491
-0.00304405
0.00356689
-0.00305688
0.00358027
-0.00306845
0.00358498
-0.00307941
0.00358044
-0.0030894
0.00356659
-0.00309916
0.00354268
-0.00310792
0.0035087
-0.00311634
0.00346343
-0.00312373
0.00340792
-0.00313129
0.0033401
-0.00313763
0.00326059
-0.00314391
0.00316824
-0.00314995
0.003063
-0.00315537
0.0029446
-0.003161
0.00281179
-0.00316575
0.00266425
-0.0031702
0.00250117
-0.00317449
0.00232204
-0.00317831
0.00212648
-0.00318191
0.00191333
-0.00318505
0.00168277
-0.00318851
0.00143285
-0.00319108
-0.000122592
0.00620539
-0.00675725
0.000674452
0.000387183
0.00598654
-0.00649632
0.00085687
0.00577424
-0.00624393
0.00128847
0.00556801
-0.00599961
0.00168218
0.00537209
-0.00576579
0.00204179
0.00518238
-0.00554199
0.0023679
0.00500042
-0.00532654
0.00265795
0.00482542
-0.00511547
0.00291716
0.00465543
-0.00491464
0.00314586
0.00449204
-0.00472074
0.0033445
0.00433459
-0.00453323
0.00351461
0.00418231
-0.00435242
0.00365635
0.00403542
-0.00417716
0.00377096
0.0038929
-0.00400752
0.0038591
0.00375528
-0.00384342
0.00392202
0.00362114
-0.00368406
0.0039597
0.00349151
-0.00352919
0.00397309
0.00336493
-0.00337831
0.00396333
0.00324155
-0.00323179
0.00393106
0.00312113
-0.00308886
0.00387723
0.00300338
-0.00294954
0.00380258
0.00288847
-0.00281383
0.00370823
0.00277574
-0.00268138
0.00359492
0.00266542
-0.00255211
0.00346456
0.00255663
-0.00242626
0.00331792
0.00245027
-0.00230363
0.0031564
0.0023456
-0.00218408
0.00298163
0.00224272
-0.00206795
0.0027948
0.00214143
-0.0019546
0.00259758
0.00204184
-0.00184461
0.00239161
0.00194384
-0.00173788
0.00217843
0.00184693
-0.00163376
0.00195934
0.00175175
-0.00153265
0.00173695
0.00165687
-0.00143448
0.00151229
0.0015632
-0.00133854
0.00128743
0.00146991
-0.00124505
0.00106455
0.00137581
-0.00115294
0.000845183
0.00128105
-0.00106168
0.000632702
0.00118322
-0.000970742
0.000429776
0.00108065
-0.000877723
0.000241126
0.000967361
-0.00077871
7.27633e-05
0.000833042
-0.000664679
0.000666612
-9.62416e-05
-0.000497607
-0.000117211
0.00570608
0.000616526
0.000344055
0.00552528
0.000771623
0.00534667
0.00116144
0.00517819
0.00151756
0.00501596
0.00184202
0.00485792
0.00213659
0.00470585
0.00240026
0.00456175
0.0026354
0.00442029
0.00284255
0.0042849
0.00302265
0.00415449
0.00317704
0.00402792
0.00330624
0.00390622
0.00341093
0.00378821
0.00349238
0.00367382
0.00355062
0.0035629
0.00358698
0.00345514
0.00360172
0.00335019
0.00359575
0.00324752
0.00356967
0.00314721
0.00352361
0.00304943
0.00345932
0.00295276
0.00337714
0.00285792
0.00327766
0.00276489
0.00316204
0.00267225
0.00303144
0.00258087
0.00288647
0.00249057
0.0027287
0.00240049
0.00255927
0.00231085
0.00237916
0.00222195
0.00219011
0.00213289
0.00199352
0.00204353
0.00179111
0.00195416
0.00158382
0.00186416
0.00137377
0.00177325
0.00116313
0.00168055
0.000953167
0.00158578
0.000746607
0.00148761
0.000545789
0.00138404
0.000354937
0.0012715
0.000178654
0.00114364
2.16642e-05
0.000990032
0.000821355
-0.000133079
-0.00011258
0.0052548
0.000563851
0.00030699
0.00510571
0.000691158
0.0049625
0.00104563
0.00482372
0.00136877
0.00469282
0.00166444
0.00456225
0.00192877
0.00444152
0.00216965
0.00432087
0.00238178
0.00420816
0.00256939
0.00409729
0.00273307
0.00399081
0.0028729
0.00388809
0.00299028
0.00378884
0.00308592
0.00369257
0.00316013
0.00359961
0.00321401
0.00350903
0.00324826
0.00342089
0.00326295
0.0033355
0.003259
0.00325147
0.00323693
0.00316929
0.00319754
0.00308882
0.00314104
0.00300926
0.00306821
0.00293075
0.00298032
0.00285279
0.00287738
0.00277518
0.00275999
0.00269826
0.0026301
0.00262047
0.00248771
0.00254288
0.0023338
0.00246477
0.00217026
0.00238548
0.00199772
0.00230544
0.00181711
0.00222414
0.00163067
0.0021406
0.00143932
0.00205551
0.00124485
0.00196772
0.00104871
0.00187668
0.000853423
0.00178107
0.000660618
0.00168042
0.000473441
0.00157122
0.000295391
0.00144955
0.000131386
0.00130765
-1.51359e-05
0.00113655
0.000969203
-0.000162984
-0.000105861
0.0048449
0.000515762
0.000272929
0.00472692
0.000622093
0.00461334
0.00094408
0.00450174
0.00123667
0.00440023
0.00150209
0.00429683
0.00174419
0.00419942
0.00196093
0.00410413
0.00215392
0.00401517
0.00232396
0.00392725
0.00247222
0.00384255
0.00259908
0.00376123
0.00270549
0.00368243
0.00279199
0.00360608
0.00285996
0.00353164
0.00290909
0.00345991
0.00294031
0.00338967
0.00295455
0.00332125
0.0029517
0.00325432
0.0029325
0.00318849
0.00289814
0.00312318
0.00284812
0.00305928
0.00278395
0.00299491
0.00270537
0.00293137
0.00261296
0.00286759
0.00250848
0.00280273
0.00239135
0.00273759
0.00226293
0.00267131
0.00212385
0.00260384
0.00197524
0.00253409
0.00181831
0.00246237
0.0016539
0.00238855
0.001483
0.0023115
0.00130724
0.00223127
0.00112842
0.00214654
0.000947759
0.00205735
0.000767083
0.00196174
0.000588998
0.0018585
0.000415673
0.00174454
0.000250854
0.00161437
9.96117e-05
0.00145889
-3.61774e-05
0.00127234
0.00110594
-0.00017291
-0.000101209
0.00447356
0.000472558
0.000244884
0.00438082
0.000561641
0.00429658
0.000851303
0.00421208
0.00111774
0.0041338
0.00135933
0.00405524
0.00157769
0.00398106
0.00177323
0.00390859
0.00194817
0.00384023
0.00210309
0.00377233
0.00223717
0.00370847
0.00235242
0.00364599
0.00244919
0.00358566
0.00252807
0.0035272
0.00258937
0.00347033
0.00263451
0.00341477
0.00266315
0.00336103
0.00267647
0.00330794
0.00267459
0.00325619
0.00265848
0.0032046
0.0026278
0.00315386
0.00258379
0.0031033
0.00252616
0.00305254
0.00245596
0.00300157
0.00237364
0.00294992
0.0022793
0.00289707
0.0021739
0.00284299
0.00205784
0.00278736
0.00193254
0.00272915
0.00179797
0.00266866
0.00165504
0.00260529
0.00150504
0.00253856
0.00134916
0.00246737
0.0011887
0.00239173
0.0010245
0.00231074
0.000858483
0.00222336
0.000692298
0.00212793
0.000528
0.0020228
0.000368509
0.00190404
0.000217182
0.0017657
7.7799e-05
0.00159827
-4.69492e-05
0.00139709
0.00123222
-0.000173234
-9.3337e-05
0.00413446
0.000432433
0.000218343
0.00406914
0.000505214
0.00400971
0.00076913
0.00394816
0.00101192
0.00389101
0.00122974
0.00383742
0.00142886
0.00378193
0.00160686
0.00373059
0.00176616
0.00368094
0.00190453
0.00363396
0.0020262
0.00358679
0.00213056
0.00354163
0.00221838
0.00349783
0.00228982
0.00345576
0.00234608
0.00341407
0.00238669
0.00337416
0.00241346
0.00333426
0.00242566
0.00329574
0.00242467
0.00325718
0.0024102
0.00321907
0.00238305
0.00318101
0.00234374
0.00314261
0.00229222
0.00310406
0.00222931
0.00306449
0.00215539
0.00302384
0.00207071
0.00298176
0.00197583
0.00293787
0.00187168
0.00289151
0.00175788
0.00284295
0.00163573
0.00279081
0.00150602
0.00273501
0.00137002
0.00267455
0.00122766
0.00260974
0.00108071
0.00253867
0.000930609
0.00246084
0.000778364
0.00237561
0.000625808
0.00228048
0.000475243
0.00217336
0.000328933
0.00205034
0.000190041
0.00190459
6.23245e-05
0.00172599
-5.23967e-05
0.00151181
0.0013485
-0.000168672
-8.72811e-05
0.00382956
0.000392177
0.000194694
0.00378717
0.000455967
0.00374844
0.00069599
0.00370814
0.000913701
0.0036733
0.00111422
0.0036369
0.00129186
0.00360429
0.00145289
0.00356956
0.0015973
0.00353653
0.00172509
0.00350617
0.00183546
0.00347642
0.00193043
0.00344666
0.00200995
0.00341831
0.00207521
0.0033905
0.00212596
0.00336333
0.00216342
0.0033367
0.0021873
0.00331038
0.00219903
0.00328401
0.0021983
0.00325791
0.0021855
0.00323187
0.00216134
0.00320517
0.00212598
0.00317796
0.00208002
0.00315003
0.00202359
0.00312091
0.00195708
0.00309035
0.00188093
0.0030579
0.00179542
0.00302339
0.0017009
0.00298603
0.00159842
0.00294543
0.00148788
0.00290135
0.0013702
0.00285269
0.00124604
0.00279871
0.00111654
0.00273924
0.000982791
0.00267242
0.000845361
0.00259827
0.000706312
0.00251466
0.000566717
0.00242008
0.000429207
0.00231087
0.000295614
0.00218394
0.00016886
0.00203134
5.1057e-05
0.00184379
-5.55562e-05
0.00161843
0.00145646
-0.000163515
-8.11363e-05
0.00355025
0.000360453
0.000175586
0.00353044
0.000413064
0.00351096
0.000628137
0.00349306
0.000826212
0.00347522
0.00100775
0.00345536
0.00117275
0.00343929
0.00131896
0.00342335
0.00144819
0.0034073
0.00156345
0.0033909
0.00166359
0.00337628
0.00174962
0.00336064
0.00182191
0.00334602
0.001881
0.00333141
0.00192725
0.00331708
0.0019613
0.00330264
0.00198351
0.00328817
0.00199401
0.00327351
0.00199339
0.00325853
0.00198244
0.00324283
0.00196066
0.00322694
0.00192879
0.00320983
0.00188748
0.00319133
0.00183683
0.00317156
0.00177679
0.00315039
0.00170797
0.00312672
0.00163072
0.00310064
0.00154549
0.00307126
0.00145277
0.00303815
0.00135265
0.00300147
0.00124583
0.00295951
0.00113321
0.00291134
0.00101566
0.00285679
0.000893356
0.00279472
0.000768071
0.00272356
0.000641044
0.00264168
0.000513447
0.00254767
0.000387032
0.00243729
0.000265417
0.00230555
0.000151699
0.00214506
4.46419e-05
0.00195085
-5.50304e-05
0.0017181
0.00155569
-0.000154264
-7.72529e-05
0.00329783
0.00032967
0.000155962
0.00329723
0.000370552
0.00329637
0.000568378
0.00329524
0.000749577
0.00329402
0.000912063
0.00329287
0.00105987
0.00329148
0.00119339
0.00328983
0.0013122
0.00328849
0.00141622
0.00328688
0.00150818
0.00328433
0.00158608
0.00328273
0.001652
0.0032801
0.00170562
0.00327779
0.00174754
0.00327515
0.00177864
0.00327154
0.00179869
0.00326812
0.00180858
0.00326363
0.00180837
0.00325874
0.00179816
0.00325303
0.00177904
0.00324606
0.00175044
0.00323844
0.00171308
0.0032287
0.00166743
0.00321721
0.00161331
0.00320451
0.00155109
0.00318895
0.00148151
0.00317021
0.00140487
0.0031479
0.00132102
0.00312199
0.00123026
0.00309223
0.00113307
0.00305671
0.00103062
0.00301378
0.000923486
0.00296392
0.000812527
0.00290568
0.000698087
0.002838
0.000581465
0.00275831
0.000464589
0.00266455
0.000349196
0.00255268
0.000240277
0.00241447
0.000140338
0.002245
3.88799e-05
0.00205231
-6.07737e-05
0.00181775
-0.000154296
0.00164921
-0.000272003
0.000661579
-0.000485818
-0.000442204
0.000767532
-0.000597331
-0.000614606
0.000833292
-0.000660889
-0.000786123
0.000883723
-0.000712206
-0.000955528
0.000927931
-0.000758526
-0.00112253
0.000970041
-0.000803035
-0.00128607
0.00101117
-0.000847642
-0.00144607
0.00105279
-0.000892789
-0.00160238
0.0010952
-0.000938889
-0.00175422
0.00113853
-0.000986703
-0.00190178
0.00118361
-0.00103605
-0.00204421
0.00123027
-0.00108784
-0.00218135
0.00127873
-0.00114159
-0.00231289
0.00132916
-0.00119762
-0.00243837
0.00138179
-0.0012563
-0.00255721
0.00143669
-0.00131786
-0.00266954
0.00149432
-0.00138199
-0.00277402
0.00155415
-0.00144966
-0.00287089
0.0016171
-0.00152023
-0.00295928
0.00168278
-0.0015944
-0.00303861
0.00175163
-0.0016723
-0.00310836