/*--------------------------------*- C++ -*----------------------------------*\
| =========                 |                                                 |
| \\      /  F ield         | OpenFOAM: The Open Source CFD Toolbox           |
|  \\    /   O peration     | Version:  2.3.0                                 |
|   \\  /    A nd           | Web:      www.OpenFOAM.org                      |
|    \\/     M anipulation  |                                                 |
\*---------------------------------------------------------------------------*/
FoamFile
{
    version     2.0;
    format      ascii;
    class       volScalarField;
    location    "4000";
    object      nut;
}
// * * * * * * * * * * * * * * * * * * * * * * * * * * * * * * * * * * * * * //

dimensions      [0 2 -1 0 0 0 0];

internalField   nonuniform List<scalar> 
14201
(
0.060873
0.0576166
0.0544162
0.0512884
0.048242
0.045286
0.0424305
0.039688
0.037073
0.0346039
0.0323003
0.030177
0.0282492
0.0265374
0.0250481
0.0237085
0.0224047
0.0211056
0.019807
0.0184949
0.0171362
0.0156829
0.0141187
0.0127111
0.0641953
0.0614738
0.0588329
0.0562684
0.0537822
0.0513788
0.0490629
0.0468399
0.0447148
0.0426939
0.0407829
0.0389881
0.0373171
0.0357796
0.0343843
0.0331384
0.0320476
0.0311155
0.0303504
0.0297563
0.0293377
0.0290955
0.029029
0.0291366
0.0671642
0.0648976
0.0627038
0.0605802
0.0585276
0.0565487
0.0546472
0.0528269
0.0510921
0.049447
0.0478963
0.0464453
0.0450989
0.0438637
0.0427457
0.0417518
0.0408883
0.0401602
0.039573
0.03913
0.0388321
0.0386785
0.0386657
0.038786
0.0698397
0.0679365
0.0661017
0.0643288
0.0626165
0.0609661
0.0593806
0.0578628
0.0564167
0.0550456
0.0537531
0.0525439
0.0514225
0.0503936
0.0494627
0.0486348
0.0479157
0.0473102
0.0468227
0.0464565
0.0462128
0.0460918
0.046091
0.0462058
0.0722153
0.0706196
0.0690764
0.0675828
0.066138
0.0647429
0.0633996
0.062111
0.0608804
0.059711
0.0586061
0.0575702
0.056607
0.0557215
0.0549185
0.0542026
0.053579
0.0530531
0.0526288
0.0523099
0.052098
0.0519947
0.0519993
0.0521088
0.0743359
0.0729863
0.0716774
0.0704064
0.0691729
0.0679774
0.0668217
0.0657088
0.064642
0.0636241
0.0626589
0.0617505
0.0609031
0.060121
0.0594095
0.0587731
0.0582169
0.0577459
0.0573652
0.057078
0.0568871
0.0567948
0.0568011
0.0569047
0.0762162
0.0750709
0.0739515
0.072859
0.0717935
0.0707558
0.0697473
0.0687707
0.0678301
0.0669287
0.0660701
0.0652582
0.0644972
0.0637924
0.063149
0.0625717
0.0620653
0.0616349
0.0612854
0.0610212
0.0608453
0.0607606
0.060768
0.0608664
0.0778944
0.0769092
0.0759425
0.0749936
0.0740631
0.0731518
0.0722605
0.0713912
0.0705485
0.0697384
0.0689635
0.0682268
0.0675325
0.0668855
0.0662945
0.0657626
0.0652949
0.0648956
0.0645692
0.0643227
0.0641586
0.06408
0.0640883
0.0641825
0.0793789
0.0785305
0.0776885
0.0768558
0.0760344
0.0752253
0.0744297
0.0736469
0.0728799
0.0721415
0.0714354
0.0707568
0.0701211
0.069513
0.0689633
0.0684667
0.0680297
0.0676587
0.0673469
0.0671156
0.0669604
0.0668868
0.0668976
0.0669911
0.0807121
0.0799701
0.0792242
0.0784811
0.0777442
0.0770153
0.0762972
0.0755936
0.0748915
0.0742044
0.0735617
0.0729144
0.0723536
0.071757
0.0712417
0.070773
0.0703551
0.0700241
0.0697128
0.0695004
0.0693501
0.0692792
0.0692914
0.0693968
0.0136453
0.0160534
0.0175694
0.0189983
0.0205502
0.0222756
0.0241723
0.0262243
0.0284136
0.0307245
0.0331446
0.0356637
0.0382742
0.0409689
0.0437413
0.0465849
0.0494935
0.0524604
0.0554786
0.0585412
0.0616408
0.0647698
0.067922
0.0711027
0.029398
0.0298253
0.0304449
0.0312613
0.0322712
0.0334663
0.034835
0.0363639
0.038038
0.0398429
0.0417653
0.0437929
0.0459147
0.0481209
0.0504033
0.0527546
0.055168
0.0576371
0.0601565
0.0627206
0.065324
0.067961
0.0706263
0.0733291
0.0390268
0.0393953
0.0399112
0.0405771
0.0413922
0.0423525
0.0434519
0.0446819
0.0460338
0.0474974
0.049063
0.0507219
0.052465
0.0542841
0.0561728
0.0581246
0.0601338
0.0621951
0.0643042
0.0664567
0.0686481
0.0708744
0.0731323
0.0754357
0.0464289
0.0467642
0.0472225
0.0478051
0.0485112
0.0493368
0.0502768
0.0513253
0.0524741
0.0537158
0.0550428
0.0564475
0.0579224
0.0594613
0.0610585
0.0627086
0.0644075
0.066151
0.0679356
0.0697582
0.0716154
0.0735043
0.0754222
0.0773847
0.0523182
0.0526301
0.0530506
0.0535796
0.0542156
0.0549541
0.0557894
0.0567163
0.0577271
0.0588152
0.0599741
0.0611965
0.0624763
0.0638081
0.0651867
0.0666077
0.068068
0.0695642
0.0710935
0.0726537
0.0742424
0.0758572
0.0774958
0.079165
0.0571026
0.0573966
0.0577896
0.0582804
0.0588663
0.0595431
0.0603043
0.0611441
0.0620561
0.0630334
0.064069
0.0651567
0.0662911
0.0674669
0.0686793
0.0699246
0.0711999
0.072503
0.0738315
0.0751836
0.076557
0.0779504
0.0793623
0.0807944
0.0610543
0.0613332
0.0617047
0.0621669
0.0627156
0.0633462
0.0640523
0.0648275
0.0656655
0.0665591
0.0675012
0.0684863
0.0695091
0.0705644
0.0716475
0.0727551
0.0738853
0.0750363
0.0762058
0.0773915
0.0785917
0.0798052
0.0810311
0.0822688
0.0643609
0.0646262
0.0649802
0.0654203
0.0659408
0.0665357
0.067199
0.0679248
0.068706
0.0695343
0.0704029
0.0713075
0.0722432
0.0732036
0.0741836
0.0751808
0.0761955
0.0772259
0.078268
0.0793197
0.0803794
0.081446
0.0825195
0.0836017
0.0671566
0.0674084
0.0677476
0.0681716
0.0686703
0.0692364
0.0698648
0.070553
0.0712901
0.0720652
0.0728734
0.0737141
0.0745821
0.0754662
0.0763606
0.0772668
0.0781894
0.0791247
0.0800628
0.0810062
0.0819509
0.0828966
0.0838455
0.0848022
0.0695368
0.0697759
0.0701028
0.0705158
0.070993
0.0715322
0.0721314
0.072792
0.0734902
0.0742154
0.0749732
0.0757662
0.0765837
0.0774014
0.0782214
0.0790557
0.0799078
0.0807693
0.0816212
0.0824806
0.0833268
0.0841747
0.0850254
0.0858858
0.0580912
0.0529651
0.0478286
0.0428069
0.0380516
0.033686
0.0297437
0.0262028
0.0230276
0.0201827
0.0176359
0.0153579
0.0133228
0.0115078
0.00989274
0.00846054
0.00719696
0.00609205
0.00514516
0.0043642
0.00380531
0.00327346
0.00267804
0.0019374
0.0585829
0.0539611
0.0493365
0.0447861
0.0404113
0.0363149
0.0325563
0.0291415
0.0260496
0.023254
0.0207287
0.0184499
0.0163975
0.014554
0.0129067
0.0114482
0.010183
0.00912
0.00828626
0.00751564
0.0067181
0.00584416
0.00483506
0.00360524
0.0591368
0.0550178
0.0508901
0.0468061
0.0428269
0.039021
0.0354514
0.0321556
0.0291386
0.0263859
0.0238771
0.0215939
0.0195212
0.0176486
0.015974
0.0145075
0.0132598
0.0122552
0.0113049
0.0103262
0.00926747
0.00808012
0.00671047
0.00509241
0.059755
0.0560746
0.0523879
0.048725
0.0451195
0.0416112
0.038245
0.0350669
0.0321114
0.029387
0.026883
0.0245852
0.0224841
0.0205772
0.0188741
0.0173954
0.016161
0.015052
0.0139352
0.0127554
0.0114649
0.0100149
0.00835095
0.00641484
0.0603761
0.0570841
0.0537801
0.0504817
0.0472073
0.0439787
0.0408227
0.0377752
0.0348814
0.0321789
0.0296731
0.0273558
0.0252224
0.0232768
0.0215371
0.02002
0.0187494
0.017513
0.0162403
0.0148817
0.0133897
0.0117139
0.00979854
0.00758468
0.0609817
0.0580239
0.0550454
0.0520562
0.0490657
0.0460842
0.0431272
0.0402182
0.0373976
0.03472
0.0322143
0.0298796
0.0277166
0.0257355
0.0239619
0.0224096
0.0210504
0.0196935
0.0182806
0.0167637
0.0150945
0.0132205
0.0110828
0.00861914
0.0615511
0.0588809
0.0561791
0.0534511
0.0507005
0.0479321
0.0451535
0.0423796
0.0396413
0.0369965
0.0344968
0.0321505
0.0299643
0.0279547
0.0261524
0.0245803
0.0231162
0.0216415
0.0200994
0.0184405
0.0166135
0.0145626
0.0122248
0.00953465
0.0620841
0.0596534
0.0571862
0.0546788
0.0521311
0.0495448
0.0469231
0.0442742
0.0416208
0.0390162
0.036528
0.0341767
0.0319738
0.0299408
0.0281079
0.0265024
0.0249537
0.0233775
0.0217217
0.0199371
0.01797
0.0157616
0.0132444
0.0103479
0.062539
0.0603368
0.0580751
0.0557562
0.0533802
0.0509489
0.0484647
0.0459313
0.0433624
0.0408009
0.0383262
0.0359736
0.0337618
0.0317137
0.0298542
0.0282094
0.0265886
0.0249243
0.0231681
0.0212721
0.019181
0.0168349
0.0141621
0.0110808
0.0629643
0.0609482
0.0588607
0.056702
0.0544699
0.0521679
0.0498032
0.0473819
0.0449075
0.0423843
0.0399131
0.0375574
0.0353451
0.0332962
0.031425
0.0297363
0.0280493
0.0263051
0.0244573
0.0224621
0.0202557
0.0177876
0.0150064
0.0118231
0.00104886
0.000814047
0.00108778
0.00138673
0.00167451
0.00195515
0.00223672
0.00253089
0.0028563
0.00324258
0.0037329
0.00435527
0.00508819
0.00592578
0.00687015
0.00792697
0.00910384
0.0104081
0.011847
0.0134296
0.015166
0.0170659
0.0191386
0.0213955
0.0021448
0.00128504
0.00137697
0.00166964
0.00196632
0.00226249
0.00257173
0.00291332
0.0033106
0.0037889
0.00437193
0.00506658
0.00585096
0.00672401
0.00768882
0.00875066
0.00991526
0.011188
0.0125754
0.0140851
0.0157255
0.017505
0.0194327
0.0215211
0.0032362
0.00182149
0.00164767
0.00192478
0.00223962
0.00256781
0.00292657
0.00333696
0.00381757
0.0043816
0.00504143
0.0057931
0.00662001
0.00752223
0.00850292
0.009566
0.0107153
0.0119551
0.0132909
0.0147291
0.0162761
0.0179395
0.0197274
0.0216494
0.00421594
0.00235446
0.00189899
0.0021547
0.00249755
0.00287142
0.00329278
0.00377805
0.00433651
0.00497274
0.00569803
0.00649603
0.0073576
0.00828355
0.00927593
0.010337
0.0114694
0.0126768
0.0139632
0.015334
0.0167945
0.0183506
0.0200091
0.0217778
0.0050768
0.00284882
0.00213266
0.00236677
0.00274626
0.0031747
0.00366299
0.00422003
0.00484739
0.00554615
0.00632414
0.00716114
0.00805212
0.00899748
0.00999806
0.011055
0.0121702
0.0133467
0.0145872
0.0158958
0.0172766
0.0187347
0.0202752
0.0219043
0.00583254
0.00329342
0.0023496
0.00256648
0.00298859
0.003475
0.00402845
0.00465047
0.00533763
0.00609156
0.00691289
0.00778325
0.00869937
0.00966088
0.0106673
0.0117191
0.0128176
0.0139647
0.0151627
0.0164143
0.0177227
0.0190914
0.0205244
0.0220254
0.00649618
0.00368773
0.00255044
0.0027565
0.00322427
0.00376834
0.00438211
0.00506104
0.00579946
0.0066033
0.00746158
0.00836123
0.00929904
0.0102738
0.0112845
0.0123307
0.0134133
0.0145332
0.0156921
0.0168918
0.0181342
0.0194215
0.0207564
0.0221406
0.007079
0.00403554
0.00273667
0.00293792
0.00345222
0.00405097
0.00471913
0.00544814
0.00623277
0.00707953
0.00797018
0.00889546
0.00985224
0.0108379
0.0118515
0.0128921
0.0139598
0.0150548
0.0161779
0.0173302
0.0185125
0.0197261
0.0209721
0.0222515
0.00759458
0.00433844
0.00290679
0.00311077
0.00366957
0.00431734
0.00503529
0.00581
0.00663695
0.00752032
0.0084399
0.00938816
0.010361
0.0113555
0.0123707
0.0134063
0.0144605
0.0155323
0.016623
0.0177333
0.0188617
0.0200073
0.0211727
0.0223648
0.00815581
0.00465915
0.00307656
0.00327162
0.00387469
0.00458606
0.0053448
0.00615375
0.0070168
0.0079298
0.00887232
0.00983699
0.0108165
0.0118162
0.0128422
0.0138833
0.0149234
0.0159649
0.0170319
0.0181158
0.0191941
0.0202663
0.021347
0.0224491
0.000586817
0.00202622
0.00414135
0.0064766
0.00878434
0.0110099
0.0131442
0.0151869
0.0171434
0.0190327
0.0209007
0.0228034
0.0247708
0.0267852
0.0288371
0.0312541
0.0340047
0.037002
0.0401803
0.0434965
0.046922
0.0504358
0.0540207
0.0576546
0.000438683
0.00133021
0.00309534
0.00498493
0.00680045
0.00860133
0.0104216
0.0122625
0.014118
0.0159829
0.0178582
0.0197546
0.0216874
0.023667
0.0257183
0.0279613
0.0304276
0.0330454
0.0361091
0.0395043
0.0431126
0.0468591
0.0506955
0.0545728
0.000268036
0.000880156
0.00207415
0.00369169
0.00573433
0.0077609
0.00966705
0.0114831
0.01324
0.0149621
0.0166713
0.0183889
0.020138
0.0219453
0.0238451
0.0258889
0.0281239
0.0305654
0.0333076
0.0362943
0.0397717
0.0435738
0.0475596
0.0516331
0.0002919
0.000753728
0.00176796
0.00313991
0.00491468
0.00699035
0.00906433
0.0110552
0.0129508
0.0147508
0.0164633
0.0181072
0.0197134
0.0213235
0.0229892
0.0247687
0.0267241
0.0289112
0.0313779
0.0341297
0.0372183
0.0407392
0.0446837
0.04887
0.000266744
0.000671687
0.00157997
0.00280303
0.00437818
0.00633012
0.00847502
0.0106035
0.012655
0.0146138
0.0164683
0.0182099
0.0198434
0.0213929
0.0229056
0.0244499
0.0261105
0.0279763
0.0301218
0.0325944
0.0354184
0.0386215
0.0422221
0.046318
0.000266044
0.0006257
0.00146964
0.00259959
0.00405071
0.00585729
0.00797234
0.0101771
0.0123491
0.0144479
0.0164536
0.0183467
0.0201097
0.021737
0.0232446
0.0246802
0.0261254
0.0276888
0.0294853
0.0316123
0.0341283
0.0370545
0.0403718
0.0441205
0.000259438
0.000589911
0.00138649
0.00245071
0.00381403
0.00550917
0.00754857
0.00978507
0.0120489
0.0142647
0.0164021
0.0184392
0.0203518
0.0221172
0.0237234
0.0251825
0.0265445
0.0279048
0.0293952
0.0311581
0.0333095
0.0359113
0.038958
0.042394
0.000257522
0.000566613
0.00132781
0.00234372
0.00364246
0.00525475
0.00720936
0.0094367
0.0117617
0.0140744
0.0163269
0.0184925
0.0205456
0.0224574
0.0242016
0.0257638
0.0271571
0.0284397
0.029725
0.0311716
0.0329459
0.0351736
0.0379015
0.0410973
0.000255053
0.000547704
0.00128075
0.00225914
0.00350763
0.00505512
0.00693442
0.00912782
0.011489
0.0138813
0.0162352
0.0185159
0.0206965
0.0227469
0.0246349
0.0263316
0.0278236
0.0291306
0.0303267
0.0315512
0.0329913
0.0348314
0.0371916
0.0401
0.000253503
0.000532821
0.00124366
0.00219215
0.00340065
0.00489649
0.00671278
0.00885947
0.0112338
0.0136882
0.016131
0.0185158
0.0208126
0.022991
0.0250168
0.0268543
0.0284745
0.0298686
0.0310703
0.0321792
0.033368
0.0348522
0.036823
0.0393863
0.000252003
0.000520387
0.0012128
0.00213674
0.00331246
0.0047659
0.00652948
0.00862647
0.0109964
0.0134968
0.0160168
0.0184962
0.0208995
0.0231961
0.025351
0.0273259
0.0290829
0.0305955
0.0318656
0.0329498
0.0339839
0.0351798
0.0367762
0.03896
0.000250745
0.00050995
0.00118699
0.00209026
0.0032385
0.00465645
0.00637552
0.00842506
0.0107777
0.0133089
0.0158947
0.0184598
0.0209615
0.0233674
0.0256429
0.0277484
0.0296418
0.0312853
0.0326593
0.0337843
0.0347518
0.0357442
0.0370149
0.0388173
0.000249575
0.000500961
0.00116479
0.00205034
0.00317503
0.00456273
0.00624363
0.0082498
0.010577
0.0131257
0.0157663
0.0184087
0.0210015
0.0235092
0.0258972
0.028126
0.0301512
0.0319287
0.0334241
0.0346314
0.0356016
0.0364746
0.0374885
0.0389339
0.000248422
0.000493034
0.00114526
0.00201543
0.00311959
0.00448092
0.00612882
0.00809594
0.0103933
0.0129481
0.0156327
0.0183445
0.0210216
0.0236245
0.026118
0.0284628
0.0306139
0.0325234
0.0341476
0.0354615
0.036483
0.0373085
0.038141
0.0392757
0.000247261
0.000485999
0.00112794
0.00198447
0.00307055
0.00440863
0.00602735
0.00795954
0.0102254
0.012777
0.0154953
0.0182684
0.0210236
0.0237157
0.0263083
0.0287625
0.0310333
0.0330707
0.0348252
0.0362583
0.037363
0.0381967
0.0389187
0.0398035
0.000246047
0.000479663
0.00111234
0.00195668
0.00302664
0.00434399
0.00593672
0.00783736
0.0100717
0.0126131
0.0153556
0.018182
0.021009
0.0237847
0.0264706
0.0290281
0.0314123
0.0335726
0.0354557
0.0370139
0.0382215
0.0391037
0.039776
0.0404759
0.00024485
0.000473917
0.0010983
0.00193154
0.00298697
0.00428571
0.00585502
0.00772701
0.00993105
0.0124568
0.0152152
0.0180869
0.0209795
0.0238336
0.0266076
0.0292625
0.0317545
0.0340322
0.0360405
0.0377252
0.0390472
0.0400058
0.0406771
0.0412554
0.00024367
0.00046874
0.00108554
0.00190875
0.00295086
0.00423276
0.0057808
0.00762683
0.0098021
0.0123089
0.0150756
0.0179851
0.0209371
0.0238645
0.0267216
0.0294689
0.0320628
0.0344527
0.0365817
0.038392
0.0398343
0.0408881
0.0415964
0.0421111
0.000242469
0.000463985
0.00107388
0.00188797
0.00291798
0.00418436
0.00571319
0.00753547
0.00968382
0.0121696
0.0149384
0.0178788
0.0208844
0.02388
0.0268157
0.0296504
0.0323412
0.0348377
0.0370829
0.039016
0.0405809
0.0417421
0.0425154
0.0430134
0.000241267
0.000459648
0.00106327
0.00186904
0.00288805
0.00414033
0.00565151
0.00745222
0.00957541
0.0120393
0.0148052
0.0177702
0.0208236
0.0238829
0.0268928
0.0298106
0.0325932
0.0351913
0.0375479
0.0396004
0.0412879
0.0425635
0.0434211
0.0439361
0.000240066
0.000455724
0.00105364
0.00185184
0.00286085
0.00410029
0.00559539
0.00737631
0.00947612
0.0119182
0.0146774
0.0176614
0.0207573
0.0238759
0.0269561
0.0299528
0.032823
0.0355178
0.0379809
0.0401489
0.0419572
0.0433507
0.0443057
0.0448676
0.000238859
0.000452136
0.00104494
0.00183616
0.00283607
0.00406383
0.00554419
0.00730692
0.00938523
0.0118059
0.0145558
0.0175538
0.0206875
0.0238613
0.0270083
0.0300804
0.033034
0.0358213
0.0383862
0.0406654
0.0425917
0.0441038
0.0451635
0.0457867
0.000237638
0.000448846
0.00103693
0.00182182
0.00281329
0.00403038
0.00549727
0.00724332
0.00930176
0.0117018
0.0144403
0.0174483
0.0206155
0.0238408
0.0270514
0.0301957
0.0332294
0.0361051
0.0387674
0.0411533
0.0431941
0.0448232
0.0459902
0.0466826
0.000236385
0.000445805
0.00102957
0.00180861
0.00279233
0.00399948
0.00545401
0.00718478
0.00922476
0.011605
0.0143308
0.0173451
0.0205417
0.023815
0.0270862
0.0303
0.0334106
0.036371
0.0391267
0.0416148
0.0437656
0.0455085
0.0467824
0.0475532
0.000235088
0.000442952
0.00102268
0.00179628
0.0027728
0.00397073
0.00541375
0.00713028
0.00915304
0.0115144
0.0142263
0.0172438
0.0204659
0.0237838
0.027113
0.0303936
0.0335783
0.03662
0.0394652
0.042051
0.0443074
0.0461604
0.047542
0.0484094
0.000233731
0.000440232
0.00101616
0.00178463
0.00275439
0.00394366
0.00537585
0.00707902
0.00908555
0.0114287
0.014126
0.0171436
0.0203874
0.0237466
0.0271309
0.0304759
0.033732
0.0368521
0.039783
0.0424626
0.0448201
0.0467796
0.0482672
0.0492265
0.000232299
0.000437631
0.00100997
0.00177351
0.00273681
0.00391787
0.00533977
0.00703022
0.00902136
0.011347
0.014029
0.0170439
0.0203057
0.0237027
0.0271393
0.0305462
0.0338713
0.0370668
0.0400802
0.0428498
0.0453047
0.0473672
0.0489585
0.0500107
0.000230795
0.000435101
0.00100399
0.00176276
0.00271982
0.00389299
0.00530501
0.00698331
0.00895974
0.0112684
0.0139345
0.0169442
0.0202201
0.0236514
0.0271373
0.0306036
0.0339953
0.0372638
0.0403567
0.043213
0.0457618
0.0479242
0.0496178
0.0507678
0.000229209
0.000432622
0.000998128
0.00175228
0.00270328
0.00386877
0.00527128
0.00693785
0.00890005
0.0111921
0.013842
0.0168441
0.0201306
0.0235921
0.0271243
0.0306474
0.0341033
0.0374422
0.040612
0.043552
0.0461916
0.0484513
0.0502463
0.0514973
0.00022754
0.000430165
0.000992382
0.00174202
0.00268713
0.00384514
0.00523834
0.00689356
0.00884194
0.0111178
0.0137512
0.0167436
0.020037
0.0235252
0.0271002
0.0306775
0.0341951
0.037602
0.040846
0.043867
0.0465947
0.0489493
0.0508448
0.0521986
0.000225807
0.000427772
0.000986805
0.00173202
0.00267134
0.00382204
0.00520618
0.0068503
0.00878525
0.0110453
0.013662
0.0166431
0.01994
0.023451
0.0270655
0.0306941
0.034271
0.0377435
0.0410592
0.0441585
0.0469717
0.0494189
0.0514133
0.0528689
0.000224008
0.000425423
0.000981352
0.00172224
0.00265594
0.00379955
0.00517485
0.00680815
0.00873003
0.0109746
0.0135747
0.0165431
0.0198405
0.0233707
0.0270212
0.0306982
0.0343319
0.0378675
0.0412524
0.0444275
0.0473237
0.0498613
0.0519532
0.0535118
0.000222151
0.000423136
0.000976069
0.00171277
0.00264101
0.00377771
0.00514447
0.00676731
0.00867652
0.0109061
0.0134896
0.0164444
0.0197397
0.0232855
0.0269687
0.0306911
0.0343791
0.0379755
0.0414271
0.0446754
0.047652
0.0502776
0.0524646
0.0541231
0.00022025
0.000420913
0.000970957
0.0017036
0.00262654
0.00375658
0.00511508
0.00672781
0.00862478
0.0108398
0.0134071
0.0163477
0.0196388
0.0231971
0.0269098
0.0306748
0.0344144
0.0380691
0.041585
0.044904
0.0479582
0.0506687
0.0529474
0.0547021
0.000218303
0.000418758
0.000966023
0.00169475
0.00261258
0.00373618
0.00508673
0.00668971
0.0085749
0.0107759
0.0133274
0.0162534
0.0195386
0.0231068
0.0268461
0.0306511
0.0344401
0.0381508
0.0417288
0.0451159
0.0482451
0.0510379
0.0534059
0.0552543
0.000216305
0.000416647
0.00096122
0.00168614
0.00259904
0.0037164
0.00505926
0.00665286
0.0085267
0.0107142
0.0132504
0.0161617
0.0194397
0.0230154
0.026779
0.0306217
0.034458
0.0382229
0.0418609
0.0453141
0.0485162
0.0513895
0.0538454
0.0557885
0.000214257
0.000414576
0.000956527
0.00167773
0.00258581
0.00369713
0.00503253
0.00661706
0.00847993
0.0106544
0.0131756
0.0160723
0.0193419
0.0229232
0.0267087
0.0305872
0.034469
0.0382865
0.0419828
0.0455004
0.0487736
0.0517254
0.0542678
0.056304
0.000212148
0.00041252
0.000951896
0.00166944
0.0025728
0.0036782
0.00500631
0.00658198
0.00843417
0.0105959
0.0131025
0.0159844
0.0192447
0.0228296
0.0266347
0.030547
0.0344728
0.0383414
0.0420946
0.0456749
0.0490173
0.0520456
0.0546724
0.0568018
0.000209977
0.00041047
0.000947299
0.00166122
0.00255989
0.00365943
0.00498035
0.00654729
0.00838899
0.0105382
0.0130304
0.0158973
0.0191471
0.0227335
0.0265561
0.0305
0.034468
0.0383861
0.0421946
0.0458357
0.0492448
0.0523465
0.0550532
0.0572673
0.000207741
0.000408417
0.000942709
0.00165301
0.00254703
0.00364074
0.00495452
0.00651281
0.00834411
0.0104809
0.0129587
0.0158106
0.0190487
0.0226345
0.026472
0.0304453
0.0344535
0.0384193
0.0422812
0.0459809
0.0494543
0.0526261
0.0554084
0.0577012
0.000205444
0.000406355
0.000938115
0.0016448
0.00253417
0.00362209
0.00492876
0.00647844
0.0082994
0.0104239
0.0128874
0.0157238
0.0189494
0.0225324
0.0263822
0.0303824
0.0344286
0.0384401
0.0423533
0.0461095
0.0496446
0.0528838
0.055739
0.0581086
0.000203084
0.000404285
0.000933517
0.00163659
0.00252131
0.00360344
0.00490304
0.00644416
0.00825486
0.0103672
0.0128164
0.0156374
0.0188494
0.0224278
0.0262873
0.0303118
0.0343938
0.038449
0.0424117
0.0462225
0.0498176
0.053123
0.0560521
0.0585089
0.000200659
0.000402196
0.000928897
0.00162835
0.00250843
0.00358479
0.00487733
0.00640994
0.00821045
0.0103107
0.0127458
0.0155511
0.0187491
0.0223211
0.0261879
0.0302344
0.03435
0.0384472
0.0424577
0.0463215
0.0499751
0.0533451
0.0563458
0.0588788
0.000198171
0.000400087
0.000924251
0.00162008
0.00249551
0.0035661
0.0048516
0.00637573
0.00816611
0.0102543
0.0126754
0.0154651
0.0186483
0.0222124
0.0260845
0.0301507
0.0342981
0.0384354
0.0424924
0.0464079
0.0501185
0.0535516
0.0566222
0.0592323
0.000195622
0.000397951
0.000919562
0.00161174
0.00248251
0.00354732
0.00482579
0.00634146
0.00812173
0.0101979
0.012605
0.015379
0.0185469
0.0221018
0.025977
0.0300607
0.0342377
0.0384136
0.0425153
0.0464806
0.0502461
0.0537394
0.0568755
0.0595548
0.000193016
0.000395793
0.000914829
0.00160333
0.00246942
0.00352843
0.00479985
0.00630706
0.00807724
0.0101415
0.0125346
0.0152929
0.0184451
0.0219894
0.0258657
0.0299647
0.0341694
0.038382
0.0425269
0.0465406
0.0503595
0.0539116
0.0571125
0.0598648
0.000190353
0.000393607
0.000910047
0.00159485
0.00245621
0.00350939
0.00477373
0.00627245
0.00803255
0.0100849
0.0124641
0.0152065
0.0183427
0.0218752
0.0257506
0.0298627
0.0340932
0.0383411
0.0425279
0.0465888
0.0504602
0.0540707
0.0573366
0.0601599
0.000187634
0.000391396
0.000905215
0.00158628
0.00244288
0.00349018
0.00474742
0.00623762
0.00798759
0.010028
0.0123932
0.0151199
0.0182396
0.0217593
0.0256318
0.029755
0.0340095
0.038291
0.0425186
0.0466258
0.050549
0.0542175
0.0575492
0.0604492
0.000184865
0.000389159
0.00090034
0.00157763
0.00242945
0.00347084
0.00472092
0.00620255
0.00794238
0.00997082
0.0123221
0.0150327
0.0181356
0.0216414
0.0255093
0.0296413
0.0339176
0.0382311
0.0424979
0.0466499
0.0506233
0.0543479
0.0577425
0.0607123
0.000182072
0.000386931
0.000895466
0.00156898
0.00241599
0.00345146
0.00469435
0.00616741
0.00789706
0.00991352
0.0122508
0.0149454
0.0180311
0.021522
0.0253834
0.0295221
0.033818
0.0381615
0.0424658
0.0466612
0.050683
0.0544616
0.0579164
0.0609544
0.00017922
0.000384705
0.00089061
0.00156036
0.00240256
0.00343211
0.00466784
0.00613233
0.00785183
0.00985635
0.0121796
0.0148583
0.0179266
0.0214019
0.0252552
0.0293981
0.0337115
0.0380832
0.0424233
0.0466604
0.0507291
0.05456
0.0580725
0.0611727
0.000176333
0.000382466
0.000885772
0.00155178
0.00238921
0.00341289
0.00464151
0.0060975
0.00780692
0.00979959
0.0121091
0.0147718
0.0178228
0.0212818
0.0251255
0.0292708
0.0335997
0.0379976
0.042372
0.0466494
0.0507641
0.0546467
0.0582179
0.0613854
0.000173441
0.000380273
0.000880992
0.00154331
0.00237604
0.00339391
0.00461551
0.0060631
0.0077626
0.00974354
0.0120394
0.0146864
0.0177202
0.0211626
0.0249957
0.0291416
0.0334839
0.0379063
0.0423137
0.0466303
0.0507899
0.0547237
0.0583539
0.0615912
0.000170522
0.000378108
0.000876274
0.00153498
0.00236311
0.00337525
0.00458994
0.0060293
0.00771897
0.00968849
0.0119708
0.0146025
0.0176192
0.0210448
0.0248664
0.0290115
0.0333653
0.0378105
0.0422491
0.0466035
0.0508065
0.0547895
0.0584752
0.0617737
0.000167583
0.00037598
0.000871704
0.0015268
0.00235042
0.00335698
0.00456489
0.0059961
0.00767622
0.00963442
0.0119037
0.0145201
0.01752
0.020929
0.0247383
0.028881
0.033245
0.0377112
0.0421794
0.04657
0.0508147
0.0548451
0.058584
0.0619413
0.000164627
0.000373881
0.000867165
0.00151876
0.00233786
0.003339
0.00454024
0.00596354
0.00763424
0.00958148
0.0118379
0.0144394
0.0174228
0.0208151
0.0246118
0.0287511
0.0331235
0.0376093
0.0421056
0.0465311
0.0508162
0.0548924
0.0586829
0.0620982
0.000161647
0.000371809
0.000862697
0.00151084
0.00232554
0.00332122
0.004516
0.0059315
0.00759307
0.00952948
0.0117734
0.0143604
0.0173276
0.0207035
0.0244871
0.028622
0.0330016
0.0375057
0.042029
0.046488
0.0508126
0.0549339
0.0587758
0.0622497
0.000158622
0.000369744
0.000858254
0.001503
0.00231336
0.00330371
0.00449206
0.00589996
0.00755251
0.00947833
0.0117098
0.0142828
0.017234
0.0205935
0.0243638
0.0284936
0.0328793
0.0374004
0.0419498
0.0464416
0.0508047
0.0549705
0.0588638
0.0623984
0.000155592
0.00036768
0.000853836
0.00149521
0.00230132
0.00328639
0.00446839
0.00586874
0.00751233
0.00942776
0.0116471
0.014206
0.0171415
0.0204847
0.0242413
0.0283651
0.0327559
0.037293
0.0418674
0.0463912
0.050792
0.0550011
0.0589441
0.0625357
0.000152553
0.000365671
0.000849494
0.00148746
0.00228931
0.00326915
0.00444479
0.00583763
0.0074724
0.00937743
0.0115848
0.0141298
0.0170497
0.0203764
0.0241189
0.0282357
0.0326304
0.0371824
0.0417806
0.0463354
0.0507727
0.0550239
0.0590147
0.0626597
0.000149461
0.000363641
0.000845129
0.00147973
0.00227728
0.0032519
0.00442128
0.00580658
0.00743256
0.00932728
0.0115227
0.0140538
0.0169581
0.0202683
0.023996
0.0281048
0.032502
0.0370674
0.0416882
0.0462726
0.0507453
0.0550369
0.0590734
0.062769
0.000146342
0.000361636
0.000840815
0.00147209
0.0022654
0.00323481
0.00439791
0.00577582
0.00739301
0.00927744
0.0114608
0.0139782
0.0168669
0.0201604
0.0238729
0.0279725
0.0323705
0.0369477
0.0415896
0.046202
0.0507086
0.0550391
0.0591199
0.0628663
0.00014318
0.000359651
0.000836531
0.00146453
0.00225367
0.00321792
0.00437485
0.0057454
0.0073539
0.00922815
0.0113996
0.0139034
0.0167765
0.0200533
0.02375
0.0278394
0.0322368
0.0368242
0.0414857
0.0461248
0.0506637
0.0550318
0.0591561
0.0629544
0.000140019
0.00035768
0.000832324
0.00145708
0.00224216
0.00320135
0.00435218
0.00571548
0.00731535
0.0091796
0.0113394
0.0138296
0.0166874
0.0199475
0.0236283
0.0277067
0.0321023
0.0366983
0.0413777
0.0460421
0.0506118
0.0550161
0.059182
0.0630277
0.000136853
0.000355785
0.00082825
0.0014498
0.00223082
0.00318509
0.00432989
0.00568601
0.0072775
0.00913188
0.0112803
0.0137573
0.0166
0.0198437
0.0235086
0.0275755
0.0319682
0.0365715
0.0412673
0.0459557
0.0505549
0.0549937
0.059199
0.0630886
0.00013363
0.000353866
0.000824142
0.00144255
0.00221954
0.00316892
0.00430787
0.00565696
0.00724024
0.00908499
0.0112222
0.0136862
0.0165142
0.0197419
0.023391
0.0274461
0.0318351
0.0364447
0.0411558
0.0458665
0.0504942
0.0549662
0.059209
0.0631392
0.000130366
0.000351946
0.000820034
0.00143532
0.00220835
0.00315286
0.00428598
0.00562821
0.00720338
0.00903863
0.0111648
0.0136162
0.0164297
0.0196416
0.0232751
0.0273182
0.0317029
0.0363179
0.0410432
0.0457755
0.0504304
0.0549345
0.0592146
0.0631874
0.000127035
0.000349989
0.000815857
0.001428
0.00219707
0.00313672
0.00426405
0.00559943
0.00716648
0.00899235
0.0111075
0.0135464
0.0163457
0.0195419
0.0231597
0.0271906
0.0315704
0.0361898
0.0409289
0.045682
0.0503634
0.0548992
0.0592158
0.0632311
0.000123687
0.000348008
0.000811645
0.00142055
0.00218565
0.0031204
0.00424186
0.00557028
0.00712921
0.00894559
0.0110499
0.0134762
0.0162612
0.0194415
0.0230436
0.0270615
0.0314359
0.036059
0.0408107
0.0455839
0.0502912
0.0548579
0.0592105
0.0632677
0.00012028
0.000346019
0.000807355
0.00141299
0.00217394
0.00310378
0.00421922
0.00554058
0.00709124
0.00889812
0.0109914
0.0134048
0.0161754
0.0193397
0.0229254
0.0269299
0.0312975
0.0359234
0.0406869
0.0454796
0.050212
0.0548089
0.0591965
0.0632937
0.000116795
0.000343953
0.000802965
0.00140528
0.00216203
0.00308671
0.0041961
0.00551025
0.00705259
0.00884966
0.0109317
0.0133321
0.0160879
0.0192358
0.0228046
0.0267946
0.0311543
0.0357816
0.0405558
0.0453667
0.0501236
0.0547496
0.0591711
0.0633076
0.00011329
0.000341897
0.000798542
0.00139751
0.00215002
0.00306951
0.00417272
0.00547962
0.00701341
0.00880055
0.010871
0.0132584
0.015999
0.0191302
0.0226814
0.0266558
0.0310062
0.0356336
0.0404174
0.0452457
0.0500262
0.0546809
0.0591361
0.0633127
0.000109766
0.000339868
0.00079416
0.0013898
0.00213809
0.0030524
0.00414941
0.00544899
0.00697414
0.0087513
0.0108101
0.0131841
0.0159096
0.0190237
0.0225568
0.0265149
0.0308546
0.0354804
0.0402724
0.0451171
0.0499202
0.0546026
0.05909
0.0633018
0.000106257
0.000337915
0.000789943
0.00138227
0.00212647
0.0030357
0.00412653
0.00541884
0.00693548
0.00870264
0.01075
0.0131107
0.015821
0.018918
0.022433
0.026374
0.0307023
0.0353252
0.0401239
0.044984
0.049809
0.0545191
0.0590398
0.063293
0.000102747
0.000336061
0.000785918
0.00137512
0.00211528
0.00301966
0.00410454
0.00538971
0.00689806
0.00865561
0.0106918
0.0130395
0.0157349
0.0188153
0.0223124
0.0262364
0.0305522
0.0351712
0.0399755
0.0448497
0.049696
0.0544334
0.0589875
0.0632819
9.92557e-05
0.000334329
0.000782186
0.00136846
0.00210484
0.00300452
0.00408386
0.00536234
0.00686277
0.00861099
0.0106364
0.0129717
0.0156529
0.0187173
0.0221972
0.0261046
0.0304079
0.0350223
0.0398311
0.0447181
0.0495847
0.0543484
0.0589348
0.0632671
9.57946e-05
0.000332753
0.000778741
0.00136233
0.00209524
0.00299059
0.00406469
0.00533695
0.00682998
0.00856952
0.0105847
0.0129085
0.0155764
0.0186257
0.0220894
0.0259811
0.0302723
0.0348817
0.0396942
0.0445931
0.0494786
0.0542674
0.0588847
0.0632542
9.23744e-05
0.000331294
0.0007756
0.00135669
0.00208647
0.00297786
0.00404715
0.00531366
0.0067998
0.00853137
0.0105372
0.0128501
0.0155057
0.0185413
0.02199
0.0258672
0.0301473
0.0347517
0.0395673
0.0444771
0.0493803
0.0541927
0.0588395
0.063244
8.89659e-05
0.000329974
0.000772731
0.0013515
0.00207831
0.00296607
0.00403089
0.00529207