/*--------------------------------*- C++ -*----------------------------------*\
| =========                 |                                                 |
| \\      /  F ield         | OpenFOAM: The Open Source CFD Toolbox           |
|  \\    /   O peration     | Version:  2.3.0                                 |
|   \\  /    A nd           | Web:      www.OpenFOAM.org                      |
|    \\/     M anipulation  |                                                 |
\*---------------------------------------------------------------------------*/
FoamFile
{
    version     2.0;
    format      ascii;
    class       surfaceScalarField;
    location    "4000";
    object      phi;
}
// * * * * * * * * * * * * * * * * * * * * * * * * * * * * * * * * * * * * * //

dimensions      [0 3 -1 0 0 0 0];

internalField   nonuniform List<scalar> 
28212
(
-0.00937604
-0.0132069
0.0146804
0.00790252
-0.010663
-0.0121068
0.0133938
-0.0117803
-0.0110994
0.0122166
-0.0127471
-0.0101719
0.0111386
-0.0135773
-0.00931949
0.0101496
-0.0142884
-0.00853494
0.00924607
-0.0148922
-0.00781301
0.0084168
-0.0153984
-0.0071494
0.0076556
-0.015816
-0.0065373
0.00695496
-0.0161461
-0.00597437
0.0063044
-0.0163906
-0.00545209
0.00569664
-0.0165457
-0.00496966
0.00512471
-0.01661
-0.00452042
0.00458473
-0.0165795
-0.00410071
0.00407019
-0.0164561
-0.00370857
0.00358526
-0.016243
-0.00333658
0.00312347
-0.015943
-0.00298936
0.00268929
-0.0155676
-0.00265715
0.0022818
-0.0151241
-0.00234599
0.00190242
-0.0146255
-0.0020486
0.00155002
-0.0140813
-0.00176834
0.00122413
-0.0134971
-0.00150508
0.000920951
-0.0129024
-0.00125939
0.000664584
-0.00103304
-0.0124179
0.000548531
-0.00839513
-0.0119228
0.00711103
-0.0095047
-0.0109972
-0.0104553
-0.0101487
-0.0112588
-0.00936842
-0.0119308
-0.00864742
-0.0124813
-0.00798443
-0.0129225
-0.00737185
-0.0132647
-0.00680714
-0.0135172
-0.00628489
-0.0136902
-0.00580128
-0.0137895
-0.00535288
-0.013821
-0.00493812
-0.0137918
-0.00454964
-0.0137023
-0.00419014
-0.0135569
-0.00385399
-0.0133553
-0.00353817
-0.0130983
-0.00324644
-0.0127822
-0.00297319
-0.0124104
-0.00271779
-0.0119763
-0.00248271
-0.0114784
-0.00226629
-0.0109152
-0.00206821
-0.0102837
-0.00189094
-0.00173431
-0.00958241
-0.00751472
-0.0108035
0.00639544
-0.00847793
-0.010034
-0.00929593
-0.00933072
-0.00998404
-0.00868031
-0.0105493
-0.00808216
-0.0110056
-0.00752808
-0.0113594
-0.0070181
-0.0116209
-0.00654569
-0.0117979
-0.00610783
-0.0118953
-0.00570387
-0.0119218
-0.00532643
-0.0118841
-0.00497584
-0.0117837
-0.00465001
-0.0116288
-0.004345
-0.0114227
-0.00406009
-0.0111681
-0.00379277
-0.0108708
-0.00354376
-0.0105344
-0.00330961
-0.0101607
-0.00309141
-0.00975394
-0.00288951
-0.00931727
-0.00270296
-0.00885311
-0.00253238
-0.00836483
-0.00237922
-0.00224188
-0.00785726
-0.00672461
-0.00981442
0.00573551
-0.00756455
-0.00919407
-0.00827718
-0.00861809
-0.00886983
-0.00808766
-0.00935381
-0.00759818
-0.00973711
-0.00714478
-0.0100303
-0.00672496
-0.0102404
-0.00633555
-0.0103754
-0.0059728
-0.0104412
-0.00563814
-0.0104438
-0.0053238
-0.0103879
-0.00503172
-0.0102803
-0.00475766
-0.0101243
-0.004501
-0.00992414
-0.00426022
-0.00968187
-0.00403504
-0.00940435
-0.00382129
-0.00909137
-0.00362258
-0.00874749
-0.00343529
-0.00837562
-0.00326139
-0.00797872
-0.00309985
-0.00756037
-0.00295073
-0.00712265
-0.00281694
-0.00269507
-0.00666946
-0.00602191
-0.00894917
0.00515666
-0.00676128
-0.0084547
-0.00738379
-0.00799559
-0.00789991
-0.00757153
-0.00831868
-0.00717941
-0.00864853
-0.00681493
-0.00889614
-0.00647735
-0.00907085
-0.00616083
-0.00917578
-0.00586787
-0.00922117
-0.00559276
-0.00920841
-0.00533656
-0.00914643
-0.0050937
-0.00903544
-0.00486865
-0.00888325
-0.00465319
-0.00869193
-0.00445154
-0.0084662
-0.00426077
-0.00820742
-0.00408007
-0.00792081
-0.00390919
-0.0076088
-0.0037473
-0.00727307
-0.00359712
-0.00691654
-0.00345638
-0.00654189
-0.00332538
-0.00615423
-0.0032046
-0.00309628
-0.00575302
-0.00539052
-0.00818321
0.00462455
-0.00604788
-0.00779734
-0.0065978
-0.00744567
-0.00705256
-0.00711678
-0.00741997
-0.00681201
-0.00770676
-0.00652813
-0.0079211
-0.00626301
-0.00806881
-0.00601313
-0.00815638
-0.0057803
-0.00818845
-0.00556069
-0.00817153
-0.00535348
-0.00810752
-0.00515771
-0.00800354
-0.00497263
-0.00786022
-0.00479651
-0.00768343
-0.00462832
-0.00747546
-0.00446874
-0.00723942
-0.00431611
-0.0069787
-0.0041699
-0.00669424
-0.00403176
-0.00638925
-0.00390212
-0.00606823
-0.0037774
-0.00573142
-0.00366218
-0.00538015
-0.00355587
-0.00345843
-0.005018
-0.00483756
-0.00749601
0.00415036
-0.00541783
-0.00721706
-0.00590725
-0.00695625
-0.00630953
-0.0067145
-0.00663354
-0.00648799
-0.00688618
-0.0062755
-0.00707428
-0.00607491
-0.0072012
-0.00588621
-0.00727552
-0.00570597
-0.00729979
-0.00553642
-0.00728036
-0.0053729
-0.00721865
-0.00521942
-0.00712101
-0.00507027
-0.00698922
-0.0049283
-0.00682703
-0.00479051
-0.00663731
-0.00465846
-0.0064231
-0.00453032
-0.00618553
-0.00440748
-0.0059277
-0.00428959
-0.00565338
-0.00417643
-0.00536106
-0.00406972
-0.0050557
-0.00396754
-0.00473946
-0.00387211
-0.00378474
-0.00441315
-0.00434163
-0.00688497
0.00373059
-0.00486109
-0.0066976
-0.0052966
-0.00652073
-0.00565597
-0.00635513
-0.0059453
-0.00619866
-0.0061692
-0.0060516
-0.00633434
-0.00590977
-0.00644648
-0.00577406
-0.00650896
-0.00564349
-0.0065289
-0.00551648
-0.00650838
-0.00539342
-0.00645147
-0.00527633
-0.00636122
-0.00516052
-0.00624026
-0.00504926
-0.00609211
-0.00493866
-0.00591944
-0.00483113
-0.00572391
-0.00472585
-0.00550823
-0.00462315
-0.00527471
-0.00452312
-0.00502508
-0.00442606
-0.00476175
-0.00433305
-0.00448615
-0.00424315
-0.00419774
-0.00416052
-0.00408142
-0.00390105
-0.00390271
-0.00633804
0.00335578
-0.00436733
-0.00623299
-0.00475703
-0.00613103
-0.00507856
-0.0060336
-0.00533701
-0.00594021
-0.00553762
-0.00585099
-0.00568484
-0.00576255
-0.00578362
-0.00567529
-0.00583857
-0.00558854
-0.00585414
-0.00550092
-0.00583384
-0.00541372
-0.00578161
-0.00532856
-0.00569831
-0.00524383
-0.00558743
-0.00516014
-0.00545283
-0.00507325
-0.00529493
-0.00498904
-0.00511735
-0.00490343
-0.00492292
-0.00481758
-0.00471171
-0.00473433
-0.00448467
-0.0046531
-0.00424578
-0.00457194
-0.00399483
-0.00449411
-0.00373509
-0.00442026
-0.00435055
-0.00346597
-0.00351105
0.00302223
-0.00584922
-0.00392846
-0.00581557
-0.0042785
-0.005781
-0.00456656
-0.00574553
-0.00479865
-0.00570812
-0.00497913
-0.00567052
-0.00511094
-0.00563075
-0.00519968
-0.00558654
-0.00524742
-0.00554081
-0.00525924
-0.0054891
-0.00524148
-0.00543148
-0.00519108
-0.00537895
-0.00511722
-0.00531769
-0.00501432
-0.00526304
-0.00489268
-0.00519489
-0.00475062
-0.0051311
-0.00458722
-0.00506683
-0.00441143
-0.00499337
-0.00421826
-0.0049275
-0.00401391
-0.00485745
-0.00379697
-0.00478888
-0.00356918
-0.0047219
-0.00333382
-0.00465561
-0.00308876
-0.00459561
-0.011073
-0.000918618
-0.000426323
-0.0100137
-0.000938859
-0.00012041
-0.00907775
-0.000991553
5.55599e-05
-0.00822027
-0.00107032
0.00021281
-0.00742301
-0.00116767
0.000370395
-0.00667546
-0.00128524
0.000537675
-0.00597358
-0.00142065
0.000718761
-0.00531675
-0.00157456
0.000917728
-0.0047037
-0.00174967
0.00113662
-0.00413739
-0.0019443
0.00137799
-0.00362083
-0.00216119
0.00164464
-0.00315749
-0.0024011
0.00193776
-0.00275094
-0.00266603
0.00225949
-0.00240667
-0.00295724
0.00261297
-0.00212815
-0.00327848
0.00299996
-0.00192117
-0.00363092
0.00342395
-0.00178997
-0.00401899
0.0038878
-0.00174082
-0.0044454
0.00439625
-0.00177979
-0.00491474
0.00495372
-0.00191376
-0.00543108
0.00556505
-0.00215173
-0.0059995
0.00623747
-0.00250363
-0.00662506
0.00697696
-0.00298091
-0.00731357
0.00779084
-0.00807479
0.00868666
-0.00359279
-0.00883791
-0.00166313
-0.00810756
-0.0016692
-0.00740442
-0.0016947
-0.00673636
-0.00173838
-0.00610277
-0.00180126
-0.00550729
-0.00188073
-0.00494862
-0.00197932
-0.00442775
-0.00209542
-0.00394701
-0.00223042
-0.00350595
-0.00238536
-0.00310729
-0.00255985
-0.00275286
-0.00275553
-0.00244447
-0.00297442
-0.00218396
-0.00321775
-0.0019767
-0.00348574
-0.00182585
-0.00378178
-0.00173606
-0.00410878
-0.00171313
-0.00446833
-0.0017647
-0.00486317
-0.00189851
-0.00529727
-0.00212334
-0.00577467
-0.00244934
-0.00629906
-0.00288693
-0.00687598
-0.00751116
-0.00345056
-0.00734046
-0.00217993
-0.00682207
-0.0021876
-0.00630851
-0.00220826
-0.00580476
-0.00224213
-0.00531617
-0.00228985
-0.00484388
-0.00235301
-0.00439271
-0.00243049
-0.00396398
-0.00252416
-0.00356109
-0.00263331
-0.00318657
-0.00275988
-0.00284347
-0.00290296
-0.00253544
-0.00306357
-0.00226476
-0.0032451
-0.00203754
-0.00344497
-0.00185637
-0.00366691
-0.00172563
-0.00391251
-0.00165184
-0.00418258
-0.00164019
-0.00447998
-0.00169665
-0.00480671
-0.00182774
-0.00516618
-0.00204108
-0.00556133
-0.00234565
-0.00599449
-0.00275095
-0.00647068
-0.00699556
-0.00326655
-0.00621278
-0.00263662
-0.00576225
-0.00263812
-0.0053217
-0.00264881
-0.00489351
-0.00267033
-0.00448009
-0.00270327
-0.00408196
-0.00275115
-0.00370337
-0.00280908
-0.00334547
-0.00288205
-0.00300944
-0.00296934
-0.0027001
-0.00306921
-0.00241861
-0.00318446
-0.00216715
-0.00331502
-0.0019506
-0.00346165
-0.00177089
-0.00362468
-0.00163138
-0.00380642
-0.00153758
-0.00400632
-0.00149355
-0.00422661
-0.00150343
-0.00447009
-0.00157309
-0.00473705
-0.001709
-0.00503028
-0.00191858
-0.00535175
-0.00220825
-0.00570482
-0.00258688
-0.00609205
-0.00651793
-0.00306451
-0.00535088
-0.00303876
-0.00495782
-0.00303118
-0.00457502
-0.00303161
-0.00420355
-0.00304179
-0.00384576
-0.00306106
-0.00350356
-0.00309335
-0.00317699
-0.00313566
-0.00286909
-0.00318994
-0.00258272
-0.00325572
-0.00231865
-0.00333328
-0.00208004
-0.00342307
-0.00186823
-0.00352683
-0.00168823
-0.00364165
-0.00154065
-0.00377225
-0.00143098
-0.00391609
-0.00136124
-0.00407606
-0.00133634
-0.00425151
-0.00136044
-0.00444599
-0.00143921
-0.00465829
-0.00157738
-0.0048921
-0.00178105
-0.00514808
-0.00205689
-0.00542898
-0.00241313
-0.00573581
-0.00607293
-0.00285812
-0.00465666
-0.0034001
-0.00430512
-0.00338272
-0.00396472
-0.00337202
-0.00363541
-0.0033711
-0.00331849
-0.00337798
-0.00301718
-0.00339466
-0.00273067
-0.00342217
-0.00246241
-0.0034582
-0.002214
-0.00350413
-0.00198606
-0.00356122
-0.00178082
-0.0036283
-0.00160204
-0.00370562
-0.00145038
-0.00379331
-0.00133003
-0.00389259
-0.0012429
-0.00400323
-0.00119312
-0.00412584
-0.00118329
-0.00426133
-0.00121927
-0.00441001
-0.0013035
-0.00457406
-0.00144201
-0.00475359
-0.00163907
-0.00495102
-0.00190227
-0.00516578
-0.0022363
-0.00540179
-0.00566049
-0.00264874
-0.00408604
-0.00372721
-0.00376909
-0.00369968
-0.00346289
-0.00367821
-0.00316919
-0.00366481
-0.00288652
-0.00366065
-0.00261858
-0.0036626
-0.0023653
-0.00367545
-0.0021286
-0.0036949
-0.00190905
-0.00372368
-0.00170969
-0.00376058
-0.00153197
-0.00380602
-0.00137789
-0.0038597
-0.00124857
-0.00392263
-0.00114851
-0.00399266
-0.00107881
-0.00407293
-0.00104372
-0.00416093
-0.00104538
-0.00425967
-0.00108765
-0.00436775
-0.00117454
-0.00448717
-0.00131023
-0.0046179
-0.00150039
-0.00476086
-0.0017491
-0.00491706
-0.00206231
-0.00508858
-0.00527579
-0.00244701
-0.00360545
-0.00402282
-0.00331902
-0.00398611
-0.00304337
-0.00395386
-0.00277838
-0.0039298
-0.00252615
-0.00391288
-0.00228522
-0.00390354
-0.00205928
-0.00390139
-0.0018484
-0.00390578
-0.00165468
-0.0039174
-0.00147884
-0.00393642
-0.00132279
-0.00396208
-0.00118807
-0.00399442
-0.00107841
-0.0040323
-0.000993138
-0.00407793
-0.000938064
-0.004128
-0.000912868
-0.00418612
-0.000922099
-0.00425044
-0.000968331
-0.00432152
-0.00105516
-0.00440034
-0.00118669
-0.00448636
-0.00136751
-0.00458004
-0.0016018
-0.00468277
-0.00189509
-0.0047953
-0.00491856
-0.00225232
-0.00319568
-0.00429311
-0.00293685
-0.00424494
-0.00268734
-0.00420336
-0.0024487
-0.00416843
-0.00222016
-0.00414142
-0.00200438
-0.00411933
-0.00180229
-0.00410347
-0.00161395
-0.00409412
-0.00144064
-0.0040907
-0.00128426
-0.0040928
-0.00114654
-0.00409979
-0.00102932
-0.00411164
-0.000933312
-0.0041283
-0.000862068
-0.00414917
-0.000816382
-0.00417369
-0.000799381
-0.00420312
-0.000813461
-0.00423636
-0.000861143
-0.00427384
-0.00094643
-0.00431505
-0.00107292
-0.00435987
-0.00124372
-0.00440924
-0.00146323
-0.00446327
-0.00173572
-0.0045228
-0.00458738
-0.00206689
-0.00284405
-0.00453782
-0.00260913
-0.00447986
-0.0023838
-0.00442869
-0.00216795
-0.00438428
-0.00196296
-0.00434642
-0.00176734
-0.00431494
-0.00158492
-0.00428589
-0.00141654
-0.0042625
-0.00126253
-0.00424471
-0.00112263
-0.0042327
-0.00100024
-0.00422218
-0.000896425
-0.00421546
-0.000812586
-0.00421214
-0.000751485
-0.00421027
-0.000714488
-0.00421068
-0.000702763
-0.00421485
-0.00071715
-0.00422197
-0.000767238
-0.00422375
-0.000849889
-0.0042324
-0.000968797
-0.00424096
-0.00112926
-0.00424878
-0.00133337
-0.00425915
-0.00158581
-0.00427036
-0.0042824
-0.00189079
0.000994193
0.00345411
-0.00377596
-0.000672348
0.00122103
0.00293523
-0.00316207
0.00137629
0.00249667
-0.00265193
0.00147626
0.00212573
-0.0022257
0.00153383
0.00181151
-0.00186908
0.00155925
0.00154494
-0.00157035
0.0015611
0.00131885
-0.0013207
0.00154617
0.00112708
-0.00111215
0.00151957
0.000964703
-0.000938102
0.0014856
0.000827192
-0.000793227
0.0014471
0.000711259
-0.00067276
0.0014065
0.000613415
-0.00057281
0.00136492
0.000531516
-0.000489941
0.00132302
0.000463414
-0.000421512
0.00128077
0.000407516
-0.000365261
0.00123629
0.000363473
-0.000318994
0.00118706
0.000330623
-0.000281401
0.00112816
0.000310252
-0.000251347
0.00105153
0.000305471
-0.000228846
0.000943656
0.000321916
-0.000214039
0.000782632
0.000370565
-0.00020954
0.000531924
0.000471232
-0.000220525
0.000125128
0.000663421
-0.000256624
0.00102773
-0.000583582
-0.000319021
0.000925633
0.00316205
-0.000633567
0.00113718
0.00272368
0.00128578
0.00234807
0.00138478
0.00202674
0.00144486
0.00175143
0.00147483
0.00151497
0.00148185
0.00131183
0.00147158
0.00113735
0.00144875
0.000987538
0.00141733
0.000858612
0.00137977
0.000748819
0.00133795
0.000655238
0.00129308
0.000576382
0.0012449
0.000511599
0.00119258
0.000459835
0.00113375
0.000422304
0.00106387
0.000400501
0.000976192
0.000397927
0.000861213
0.00042045
0.000705957
0.000477172
0.000493043
0.000583479
0.000200106
0.000764169
-0.000190867
0.00105439
0.00149533
-0.00065847
0.000855017
0.00290256
-0.000595533
0.00104903
0.00252966
0.00118745
0.00220965
0.0012814
0.00193279
0.0013397
0.00169313
0.0013698
0.00148487
0.00137793
0.0013037
0.00136923
0.00114605
0.00134783
0.00100894
0.00131631
0.000890128
0.00127771
0.000787421
0.00123334
0.000699604
0.0011836
0.000626124
0.00112847
0.000566735
0.00106657
0.000521735
0.000995209
0.000493662
0.000910382
0.000485328
0.000806293
0.000502016
0.000675677
0.000551066
0.000508835
0.000644014
0.000294674
0.000797639
2.37178e-05
0.00103513
-0.000309024
0.00138714
0.0018744
-0.000688088
0.000780451
0.00265859
-0.000536481
0.000959871
0.00235024
0.00108895
0.00208057
0.00117737
0.00184438
0.00123325
0.00163725
0.00126288
0.00145524
0.00127141
0.00129516
0.0012633
0.00115416
0.00124191
0.00103033
0.00121062
0.000921424
0.00117087
0.000827165
0.00112425
0.000746228
0.00107142
0.000678953
0.00101229
0.00062586
0.000945434
0.000588594
0.000869125
0.000569971
0.000779754
0.000574699
0.000673256
0.000608514
0.000543977
0.000680345
0.000384685
0.000803306
0.00018754
0.000994784
-5.49936e-05
0.00127766
-0.000346456
0.0016786
0.0022156
-0.000687655
0.000712879
0.00244249
-0.000496772
0.000876238
0.00218689
0.00099517
0.00196163
0.00107763
0.00176191
0.00113026
0.00158461
0.00115841
0.00142709
0.00116694
0.00128663
0.00115921
0.00116189
0.00113895
0.00105059
0.00110798
0.000952396
0.00106877
0.000866374
0.0010222
0.000792798
0.000968938
0.000732215
0.000908932
0.000685865
0.000841494
0.000656033
0.000764917
0.000646548
0.000677011
0.000662604
0.000574246
0.00071128
0.000451954
0.000802637
0.000304575
0.000950685
0.00012529
0.00117407
-9.30304e-05
0.00149598
-0.000355696
0.00194126
0.00252927
-0.000669369
0.00064837
0.0022443
-0.000450179
0.00079753
0.00203772
0.000906951
0.00185221
0.000983624
0.00168524
0.00103278
0.00153546
0.00105963
0.00140025
0.00106777
0.00127849
0.00106106
0.0011686
0.00104169
0.00106996
0.00101227
0.000981822
0.000974434
0.000904205
0.000929289
0.000837943
0.000877604
0.0007839
0.000819326
0.000744144
0.000753753
0.000721605
0.000679773
0.000720528
0.000595771
0.000746607
0.000498821
0.00080823
0.000384949
0.000916509
0.000249323
0.00108631
8.60053e-05
0.00133739
-0.00011151
0.00169349
-0.00035239
0.00218214
0.00281718
-0.000640302
0.000589877
0.00206682
-0.000412405
0.000725251
0.00190235
0.000825396
0.00175207
0.000895861
0.00161478
0.000941821
0.0014895
0.000967153
0.00137491
0.000975407
0.00127024
0.000969337
0.00117467
0.000951262
0.00108804
0.00092365
0.00100943
0.000888042
0.000939813
0.000845748
0.000880237
0.000796659
0.000832989
0.000741099
0.000799704
0.000678775
0.000783928
0.000608869
0.000790434
0.000529618
0.000825858
0.000438914
0.000898933
0.000333336
0.00102209
0.000208666
0.00121098
5.88894e-05
0.00148716
-0.000122714
0.0018751
-0.000342899
0.00240233
0.00308275
-0.000608463
0.000535676
0.00190792
-0.000376769
0.000658661
0.00177936
0.000750139
0.00166059
0.000815117
0.0015498
0.000857732
0.00144688
0.000881665
0.00135098
0.000889768
0.00126213
0.000884673
0.00117977
0.000868234
0.00110448
0.000842065
0.0010356
0.000809343
0.000972535
0.000769785
0.000919796
0.000724407
0.000878366
0.000672538
0.000851574
0.000614109
0.000842357
0.000548546
0.000855997
0.000474527
0.000899877
0.000390126
0.000983335
0.000292347
0.00111987
0.000177801
0.00132553
4.1354e-05
0.00162361
-0.000124587
0.00204104
-0.000327186
0.00260493
0.00332936
-0.000573804
0.000485859
0.00176298
-0.000340922
0.000597812
0.00166741
0.000681484
0.00157692
0.000741275
0.00149001
0.000780471
0.00140768
0.000802775
0.00132868
0.000810801
0.00125411
0.000806649
0.00118392
0.000791694
0.00111943
0.000767259
0.00106004
0.000736706
0.00100309
0.000700675
0.000955827
0.000658804
0.000920238
0.000610879
0.000899498
0.000556762
0.000896474
0.000496171
0.000916589
0.000427379
0.000968668
0.000348973
0.00106174
0.000257557
0.00121128
0.000151524
0.00143156
2.67243e-05
0.00174841
-0.000126027
0.00219379
-0.000313587
0.00279249
0.00355441
-0.000538635
0.000440259
-0.000313121
0.00163584
0.000541174
0.0015665
0.00061709
0.001501
0.000672309
0.00143479
0.000709033
0.00137096
0.000730127
0.00130758
0.000737855
0.00124638
0.000735474
0.0011863
0.000721657
0.00113325
0.000697724
0.00108397
0.000670329
0.00103048
0.000637916
0.00098824
0.000600367
0.000957787
0.000556409
0.000943457
0.000506119
0.000946763
0.000449905
0.000972803
0.000385885
0.00103269
0.000313661
0.00113397
0.000226456
0.00129849
0.000125741
0.00153227
1.31549e-05
0.001861
-0.00012455
0.00233149
-0.000300414
0.00296835
-0.000523936
0.00377794
-0.000952331
0.00171397
-0.00134522
-0.00149613
0.00225078
-0.00170698
-0.00207177
0.00257216
-0.00199653
-0.00264251
0.00283655
-0.00226582
-0.0031919
0.00309119
-0.00254179
-0.00370955
0.0033495
-0.00283185
-0.00419276
0.00362172
-0.00313851
-0.00462968
0.00390123
-0.00346432
-0.0050151
0.00419904
-0.00381362
-0.00534259
0.00451324
-0.00418575
-0.00560692
0.00484708
-0.00458274
-0.00580419
0.00520455
-0.00500729
-0.00592837
0.0055885
-0.00546432
-0.00597233
0.00599955
-0.00595558
-0.00593701
0.00644603
-0.00648136
-0.00581133
0.00692654
-0.00705222
-0.00559008
0.00744696
-0.00766822
-0.00526659
0.00801175
-0.00833524
-0.00483389
0.00862253
-0.00905523
-0.00428507
0.00928751
-0.00983633
-0.00360685
0.0100083
-0.0106865
-0.00279504
0.0107908
-0.0116026
-0.00183502
0.0116409
-0.0126009
0.0125641
-0.0136835
-0.000715622
-0.00106833
0.00212383
-0.00156514
0.00274759
-0.00209898
0.00310601
-0.00261518
0.00335275
-0.00311077
0.00358677
-0.00357379
0.00381252
-0.00399668
0.00404461
-0.00437926
0.00428382
-0.00471173
0.0045315
-0.00499388
0.0047954
-0.0052187
0.00507189
-0.00538515
0.005371
-0.00548316
0.00568651
-0.00551608
0.00603246
-0.00547222
0.00640218
-0.00535016
0.00680448
-0.00514485
0.00724166
-0.00484669
0.00771358
-0.00445036
0.0082262
-0.00394664
0.00878379
-0.00332812
0.00938981
-0.00258611
0.0100488
-0.00170914
0.0107639
0.0115412
-0.000686193
-0.00108999
0.00252574
-0.00154629
0.00320388
-0.00203129
0.00359101
-0.0025025
0.00382397
-0.00294811
0.00403238
-0.00336464
0.00422905
-0.00374364
0.00442361
-0.00408147
0.00462166
-0.00437783
0.00482786
-0.00462397
0.00504154
-0.00482092
0.00526883
-0.0049606
0.00551069
-0.00504858
0.00577449
-0.00507028
0.00605416
-0.00502873
0.00636062
-0.00491457
0.00669032
-0.0047239
0.00705099
-0.0044492
0.00743888
-0.00408736
0.00786437
-0.00362833
0.00832476
-0.00306321
0.00882469
-0.00238597
0.00937153
-0.00158589
0.00996385
0.0106087
-0.000653447
-0.00107219
0.00291027
-0.00149118
0.00362288
-0.00193038
0.00403021
-0.00235914
0.00425272
-0.00276037
0.00443361
-0.00313129
0.00459996
-0.00347044
0.00476276
-0.00377317
0.00492439
-0.00403477
0.00508946
-0.00425415
0.00526092
-0.00442955
0.00544423
-0.00455535
0.00563649
-0.00462784
0.00584698
-0.00464792
0.00607424
-0.00460761
0.00632032
-0.00450124
0.00658395
-0.00432722
0.00687697
-0.00407783
0.00718948
-0.00374521
0.00753175
-0.00332614
0.00790569
-0.00281482
0.00831337
-0.00219563
0.00875234
-0.00146672
0.00923494
0.00975912
-0.000617093
-0.00102793
0.00326883
-0.00141113
0.00400608
-0.0018129
0.00443198
-0.0022
0.00463983
-0.00256242
0.00479604
-0.00289821
0.00493574
-0.00320217
0.00506672
-0.00347194
0.00519416
-0.00370613
0.00532365
-0.00390078
0.00545557
-0.00405676
0.0056002
-0.0041701
0.00574984
-0.00423751
0.00591439
-0.00425298
0.00608972
-0.00421287
0.0062802
-0.00411717
0.00648825
-0.00395657
0.00671637
-0.00373095
0.00696386
-0.00343072
0.00723152
-0.00304989
0.00752486
-0.00257868
0.00784217
-0.00201973
0.00819338
-0.00135517
0.00857038
0.00898535
-0.000581401
-0.00097019
0.00359872
-0.00132632
0.00436221
-0.00169076
0.00479641
-0.00203862
0.00498768
-0.00236705
0.00512447
-0.00266659
0.00523528
-0.00293897
0.00533911
-0.00318218
0.00543736
-0.00339248
0.00553395
-0.00357051
0.00563361
-0.00371032
0.00574001
-0.00381067
0.00585018
-0.00386956
0.00597328
-0.00388306
0.00610322
-0.00384965
0.00624679
-0.00376133
0.00639993
-0.00361626
0.0065713
-0.00340859
0.00675619
-0.00313443
0.00695735
-0.00278817
0.0071786
-0.00236374
0.00741774
-0.00185129
0.00768093
-0.00124931
0.0079684
0.00827961
-0.000543559
-0.000910995
0.00390125
-0.00123481
0.00468602
-0.00156338
0.00512499
-0.00188233
0.00530663
-0.00217595
0.00541809
-0.00244897
0.0055083
-0.00269314
0.00558328
-0.00291311
0.00565732
-0.0031029
0.00572374
-0.00326096
0.00579167
-0.00338568
0.00586474
-0.00347947
0.00594397
-0.00353014
0.00602395
-0.00354442
0.0061175
-0.0035118
0.00621416
-0.00343296
0.00632109
-0.00330146
0.00643981
-0.00311184
0.00656658
-0.002864
0.00670951
-0.00255
0.00686459
-0.00216399
0.00703173
-0.00169824
0.00721518
-0.00114855
0.0074187
0.00763835
-0.000507288
-0.000853573
0.00418102
-0.00114774
0.00498019
-0.00144558
0.00542283
-0.00172982
0.00559087
-0.00199513
0.0056834
-0.00224047
0.00575364
-0.00246366
0.00580648
-0.00265891
0.00585257
-0.00283097
0.0058958
-0.00297596
0.00593666
-0.00309008
0.00597886
-0.00317157
0.00602546
-0.00322073
0.00607311
-0.00322923
0.00612601
-0.0032018
0.00618673
-0.00313005
0.00624934
-0.00301036
0.00632012
-0.00284053
0.00639675
-0.00261464
0.00648362
-0.00232682
0.00657678
-0.00197545
0.00668036
-0.00155602
0.00679575
-0.00105685
0.00691954
0.00705339
-0.000471891
-0.00079461
0.00443699
-0.00105437
0.00523995
-0.00132411
0.00569257
-0.00158264
0.00584939
-0.00182754
0.0059283
-0.00204849
0.00597459
-0.00224967
0.00600766
-0.00242725
0.00603015
-0.00258182
0.00605037
-0.00271189
0.00606673
-0.00281564
0.00608261
-0.00289131
0.00610113
-0.00293461
0.00611641
-0.00294593
0.00613733
-0.00291718
0.00615797
-0.00285075
0.00618292
-0.00274252
0.00621188
-0.00259044
0.00624468
-0.00238447
0.00627764
-0.00212504
0.00631735
-0.00180761
0.00636293
-0.00142248
0.00641063
-0.000967314
0.00646437
0.00652461
-0.000438541
-0.000755078
0.00466813
-0.00097003
0.0054549
-0.00121536
0.0059379
-0.00145013
0.00608416
-0.00166942
0.00614759
-0.00186997
0.00617514
-0.00205104
0.00618873
-0.00221338
0.00619249
-0.00235509
0.00619208
-0.00247255
0.00618419
-0.00256626
0.00617632
-0.00263396
0.00616882
-0.00267374
0.00615619
-0.00268149
0.00614509
-0.00265756
0.00613404
-0.0026006
0.00612595
-0.00250184
0.00611313
-0.00235895
0.00610179
-0.00217457
0.00609326
-0.00193893
0.00608171
-0.00164767
0.00607167
-0.00129854
0.0060615
-0.000887711
0.00605354
0.0060414
-0.000404498
0.00145718
-0.000908653
0.00267561
-0.000553847
0.00383909
-0.000242532
0.00497855
8.46664e-05
0.00607183
0.000456744
0.00709296
0.00088128
0.00801258
0.00136218
0.00880834
0.00189353
0.00946313
0.00246868
0.00996677
0.00308161
0.0103147
0.00372224
0.0105121
0.00438739
0.010569
0.00506777
0.0105046
0.00576102
0.010342
0.00646708
0.0101068
0.00719011
0.00982449
0.00793791
0.00951682
0.00872447
0.00920011
0.00956278
0.00888375
0.010466
0.00857547
0.0114469
0.00827543
0.0125167
0.00798526
0.0136839
0.0149666
0.00769906
-9.66767e-05
-0.000811974
0.000186315
-0.000836836
0.000693831
-0.000750048
0.00136866
-0.000590157
0.00217677
-0.00035137
0.00309253
-3.44821e-05
0.0040877
0.000367019
0.00511945
0.000861776
0.00613778
0.00145035
0.00709388
0.00212551
0.0079382
0.00287792
0.00863713
0.00368846
0.00916374
0.00454115
0.00950825
0.00541651
0.00967995
0.00629538
0.0096992
0.00717086
0.00959287
0.00804424
0.00939845
0.0089189
0.00914838
0.00981284
0.00886704
0.0107473
0.00857376
0.0117402
0.00827923
0.0128112
0.00798894
0.0139742
0.015248
0.00770759
-1.36475e-05
-0.000798325
-8.03659e-06
-0.000842446
5.62994e-05
-0.000814383
0.000210001
-0.000743858
0.000488958
-0.000630327
0.000918445
-0.000463969
0.00151446
-0.000229
0.00227454
0.000101701
0.00317545
0.000549433
0.00417182
0.00112915
0.0052061
0.00184364
0.0062114
0.00268316
0.00712243
0.00363012
0.00788604
0.0046529
0.00846159
0.00571983
0.00883445
0.006798
0.00901633
0.00786235
0.00903268
0.00890255
0.00892373
0.0099218
0.00872976
0.0109413
0.00848662
0.0119834
0.00821926
0.0130786
0.00794277
0.0142507
0.0155286
0.00766218
-1.52563e-05
-0.000783067
9.12117e-06
-0.000866822
6.69999e-05
-0.000872261
0.000164645
-0.000841502
0.000310993
-0.000776675
0.000520309
-0.000673284
0.000810816
-0.000519506
0.00120996
-0.000297447
0.0017427
1.66986e-05
0.00242337
0.000448471
0.00324395
0.00102307
0.00416979
0.00175733
0.00514521
0.0026547
0.00609616
0.00370195
0.00694846
0.00486753
0.00763958
0.00610689
0.00813126
0.00737067
0.00841611
0.00861771
0.00851292
0.00982499
0.00846477
0.0109895
0.00831321
0.0121349
0.00810044
0.0132913
0.0078553
0.0144959
0.0157838
0.00760005
1.00251e-05
-0.000793091
2.74183e-05
-0.000884214
5.89436e-05
-0.000903786
0.000109839
-0.000892398
0.000186928
-0.000853763
0.000298795
-0.000785151
0.000458612
-0.000679323
0.000684604
-0.000523439
0.00100015
-0.000298847
0.00143074
1.78837e-05
0.00199769
0.000456109
0.00270745
0.00104757
0.0035448
0.00181734
0.00446748
0.00277927
0.00540871
0.00392631
0.00628833
0.00522726
0.00703035
0.00662865
0.00758024
0.00806782
0.00791869
0.00948654
0.00805926
0.0108489
0.00804297
0.0121512
0.00791751
0.0134168
0.0077272
0.0146862
0.0160058
0.00750519
-4.67841e-07
-0.000792622
1.19431e-05
-0.000896625
3.76913e-05
-0.000929534
7.84583e-05
-0.000933164
0.000137538
-0.000912843
0.000219404
-0.000867017
0.000330965
-0.000790884
0.000482566
-0.000675039
0.000688924
-0.000505205
0.000968026
-0.000261218
0.00134265
8.1482e-05
0.00183698
0.000553245
0.0024659
0.00118842
0.00322689
0.00201828
0.00408987
0.00306333
0.00499538
0.00432176
0.00586212
0.0057619
0.00660808
0.00732186
0.00717022
0.0089244
0.00752032
0.0104988
0.00767176
0.0119998
0.00766411
0.0134245
0.00754836
0.0148019
0.0161836
0.00737063
4.62675e-06
-0.000797248
1.70192e-05
-0.000909017
3.70432e-05
-0.000949558
6.69897e-05
-0.000963111
0.000109432
-0.000955285
0.000167654
-0.000925238
0.000246193
-0.000869423
0.000352074
-0.00078092
0.000495187
-0.000648319
0.000689591
-0.000455622
0.000952117
-0.000181044
0.00130352
0.000201843
0.0017653
0.00072664
0.00235407
0.00142951
0.00307135
0.00234605
0.00389303
0.00350008
0.00476451
0.00489041
0.00560483
0.00648154
0.00632838
0.00820086
0.00686903
0.00995814
0.00719963
0.0116692
0.00733517
0.0132889
0.00731867
0.0148184
0.0162979
0.00720437
2.85682e-06
-0.000800104
1.19533e-05
-0.000918113
2.84347e-05
-0.000966039
5.26953e-05
-0.000987371
8.68389e-05
-0.000989428
0.000133193
-0.000971593
0.000194458
-0.000930687
0.000275447
-0.000861909
0.000383058
-0.00075593
0.000526808
-0.000599371
0.000719543
-0.000373779
0.000977239
-5.58534e-05
0.00131989
0.000383988
0.00176778
0.000981621
0.0023371
0.00177674
0.00303006
0.00280712
0.00382347
0.004097
0.00466276
0.00564225
0.00546633
0.00739728
0.00614865
0.00927582
0.00664465
0.0111732
0.00693327
0.0130003
0.00703617
0.0147155
0.016332
0.00700204
3.31116e-06
-0.000803415
1.13982e-05
-0.000926199
2.49331e-05
-0.000979573
4.46594e-05
-0.0010071
7.18974e-05
-0.00101667
0.000108594
-0.00100829
0.000157165
-0.000979258
0.000220584
-0.000925328
0.000303876
-0.000839222
0.000414117
-0.000709611
0.000561334
-0.000520996
0.000757859
-0.000252379
0.00101962
0.000122223
0.00136531
0.000635934
0.00181421
0.00132784
0.00238074
0.00224059
0.00306487
0.00341287
0.0038409
0.00486622
0.00465017
0.006588
0.00540992
0.00851607
0.00603447
0.0105486
0.00646769
0.0125671
0.00669782
0.0144854
0.0162724
0.00675746
2.60409e-06
-0.000806018
9.01735e-06
-0.000932612
2.0187e-05
-0.000990743
3.66083e-05
-0.00102352
5.91658e-05
-0.00103922
8.93807e-05
-0.0010385
0.000129047
-0.00101892
0.000180558
-0.000976838
0.000247509
-0.000906172
0.000335273
-0.000797375
0.000451317
-0.00063704
0.000605556
-0.000406618
0.000810688
-8.29089e-05
0.00108256
0.000364065
0.00143938
0.000971026
0.00189913
0.00178083
0.00247369
0.00283832
0.00315834
0.00418157
0.00392148
0.00582486
0.00469809
0.00773946
0.00540319
0.00984352
0.00595676