/*--------------------------------*- C++ -*----------------------------------*\
| =========                 |                                                 |
| \\      /  F ield         | OpenFOAM: The Open Source CFD Toolbox           |
|  \\    /   O peration     | Version:  2.3.0                                 |
|   \\  /    A nd           | Web:      www.OpenFOAM.org                      |
|    \\/     M anipulation  |                                                 |
\*---------------------------------------------------------------------------*/
FoamFile
{
    version     2.0;
    format      ascii;
    class       volScalarField;
    location    "50";
    object      p;
}
// * * * * * * * * * * * * * * * * * * * * * * * * * * * * * * * * * * * * * //

dimensions      [0 2 -2 0 0 0 0];

internalField   nonuniform List<scalar> 
7994
(
-0.46821
-0.766158
-0.766689
-0.673607
-0.533017
-0.356419
-0.147872
0.0852182
0.339163
0.614167
0.909096
1.23578
1.63155
2.24282
2.94132
-0.712644
-0.740174
-0.730612
-0.697822
-0.651349
-0.59105
-0.513987
-0.41614
-0.296104
-0.150515
0.0192906
0.216019
0.436772
0.685646
0.957823
-0.670083
-0.632756
-0.568528
-0.478559
-0.36692
-0.238371
-0.0973865
0.0534567
0.211063
0.37496
0.543023
0.715971
0.891724
1.07159
1.25239
-0.640492
-0.607102
-0.557726
-0.490911
-0.408942
-0.314107
-0.20823
-0.0921559
0.0327516
0.166311
0.307003
0.454885
0.608237
0.767494
0.930291
-0.608604
-0.570279
-0.521153
-0.454396
-0.371427
-0.275101
-0.167899
-0.051827
0.0715324
0.201111
0.335714
0.474773
0.617244
0.762977
0.910422
-0.555216
-0.529619
-0.493788
-0.439899
-0.369263
-0.284755
-0.188549
-0.0829318
0.0307108
0.15093
0.276681
0.406989
0.54105
0.678281
0.817587
-0.480802
-0.467766
-0.445134
-0.401844
-0.339746
-0.262446
-0.172567
-0.0729067
0.0349855
0.14916
0.268674
0.392118
0.518959
0.648258
0.779337
-0.389973
-0.399307
-0.385611
-0.351398
-0.297957
-0.228919
-0.146776
-0.0545931
0.0460093
0.152815
0.264841
0.380473
0.499266
0.620035
0.742308
-0.274503
-0.316433
-0.310822
-0.284598
-0.239369
-0.178392
-0.104131
-0.0196892
0.0732588
0.172341
0.276507
0.384001
0.494291
0.606089
0.718876
-0.158464
-0.22028
-0.224603
-0.206819
-0.170108
-0.117767
-0.0521312
0.0238094
0.108302
0.199053
0.294829
0.39402
0.495815
0.598888
0.702285
-0.05085
-0.126837
-0.136467
-0.125827
-0.0972417
-0.0534485
0.0030119
0.0700543
0.145785
0.227919
0.315061
0.40609
0.499711
0.595483
0.690604
0.0409266
-0.0372509
-0.0536281
-0.0495585
-0.0268161
0.00943674
0.0553035
0.11192
0.179218
0.253799
0.332509
0.415827
0.501687
0.590368
0.678707
0.105153
0.0434589
0.024988
0.0239567
0.0418253
0.0736723
0.110843
0.155793
0.213645
0.283393
0.355257
0.433969
0.516087
0.598503
0.67769
0.181556
0.128265
0.116542
0.102276
0.0958165
0.12876
0.173144
0.213749
0.259285
0.321001
0.383893
0.462083
0.541131
0.636348
0.711888
3.63989
3.70502
3.5722
3.58033
3.62061
3.63751
3.62333
3.58251
3.51697
3.43021
3.32029
3.18895
3.03337
2.85421
2.66069
1.26233
1.58004
1.87507
2.14015
2.37366
2.56964
2.72438
2.83514
2.90085
2.92325
2.90433
2.84888
2.76089
2.64606
2.51212
1.43209
1.60355
1.7635
1.9094
2.04219
2.15996
2.26244
2.3483
2.41627
2.46542
2.49316
2.49714
2.47442
2.42187
2.3465
1.09498
1.25707
1.41385
1.56286
1.70337
1.83353
1.9515
2.05563
2.14338
2.21302
2.26145
2.28618
2.28402
2.25289
2.20145
1.05757
1.2013
1.33953
1.47082
1.59451
1.70952
1.81442
1.90812
1.98848
2.05415
2.10217
2.12991
2.13404
2.11327
2.08088
0.956864
1.09362
1.22551
1.35163
1.47088
1.5826
1.68495
1.77704
1.85648
1.92166
1.96965
1.99757
2.00263
1.98359
1.96049
0.909845
1.03789
1.16117
1.2792
1.39071
1.4952
1.59082
1.67658
1.75009
1.80966
1.85228
1.87475
1.87431
1.8484
1.81361
0.863816
0.983073
1.09794
1.20814
1.31227
1.40989
1.49902
1.5787
1.64651
1.70064
1.73818
1.75642
1.75249
1.72616
1.68033
0.830569
0.940135
1.04577
1.14721
1.24301
1.3326
1.41406
1.48631
1.54704
1.59439
1.62572
1.63837
1.63047
1.60122
1.53138
0.804223
0.904054
1.00046
1.09314
1.18054
1.26178
1.33499
1.39914
1.45208
1.49199
1.51637
1.52267
1.50919
1.4742
1.38763
0.78396
0.874852
0.962803
1.04741
1.12696
1.20026
1.26517
1.32125
1.36635
1.39869
1.41604
1.41596
1.3974
1.36051
1.2624
0.765286
0.850431
0.932223
1.00905
1.08186
1.14826
1.20652
1.25638
1.29458
1.31974
1.33087
1.32448
1.30089
1.26155
1.15872
0.757728
0.83745
0.915062
0.984908
1.05288
1.11008
1.16065
1.20562
1.23598
1.25512
1.26358
1.25281
1.22701
1.18855
1.09056
0.784462
0.838132
0.909961
0.983185
1.05143
1.09665
1.12719
1.1666
1.18499
1.20159
1.21627
1.20075
1.17257
1.13863
1.03389
-3.25715
-3.6628
-4.04337
-4.35578
-4.58984
-4.73136
-4.80691
-4.83391
-4.85482
-4.88685
-4.94921
-5.03184
-5.13052
-5.28127
-5.23728
-3.04131
-3.46096
-3.91095
-4.37816
-4.86875
-5.36785
-5.87929
-6.36809
-6.83027
-7.22856
-7.59348
-7.95161
-8.29646
-8.6338
-8.83603
-2.67099
-3.05838
-3.48647
-3.94934
-4.4402
-4.949
-5.47116
-5.99746
-6.55611
-7.15091
-7.82584
-8.64186
-9.72352
-11.1772
-12.5961
-2.18216
-2.44528
-2.72311
-3.00483
-3.28354
-3.56138
-3.8443
-4.15997
-4.55386
-5.11927
-5.93594
-7.08205
-8.50575
-9.98558
-11.0174
-1.65276
-1.79961
-1.94614
-2.08465
-2.21183
-2.3353
-2.47215
-2.68352
-3.03816
-3.6096
-4.36715
-5.23416
-6.05429
-6.67475
-6.97678
-1.16119
-1.22979
-1.30107
-1.36749
-1.42883
-1.50482
-1.63183
-1.86809
-2.23003
-2.70371
-3.21574
-3.70207
-4.0906
-4.34217
-4.44625
-0.73245
-0.744072
-0.772297
-0.804595
-0.847989
-0.934124
-1.09218
-1.33738
-1.64437
-1.98305
-2.30655
-2.58751
-2.79886
-2.93092
-2.98301
-0.369505
-0.336815
-0.340668
-0.364166
-0.419793
-0.531593
-0.703132
-0.924482
-1.16757
-1.41115
-1.6301
-1.81241
-1.94568
-2.0268
-2.05565
-0.0330557
0.0135427
0.00973532
-0.0252005
-0.100986
-0.225315
-0.388033
-0.574498
-0.764609
-0.945642
-1.10299
-1.23009
-1.32065
-1.37342
-1.38915
0.26908
0.306498
0.292752
0.244123
0.158791
0.0394522
-0.101533
-0.252652
-0.40049
-0.536336
-0.651838
-0.74304
-0.805887
-0.840153
-0.846952
0.514372
0.54917
0.528495
0.478065
0.400059
0.298823
0.184106
0.0656688
-0.0469369
-0.148092
-0.232901
-0.298084
-0.340423
-0.360306
-0.360303
0.728553
0.762135
0.744837
0.708234
0.650763
0.573918
0.485033
0.394466
0.310553
0.238909
0.178449
0.131519
0.105951
0.100635
0.107669
0.923236
0.970103
0.963889
0.956863
0.933477
0.884813
0.818216
0.749086
0.687908
0.646125
0.603856
0.563218
0.55161
0.567862
0.584471
1.13067
1.18315
1.18204
1.22495
1.23932
1.20305
1.13334
1.09676
1.0548
1.0538
1.01782
0.978321
0.992776
1.04855
1.07665
-5.23083
-5.25519
-5.08872
-4.96531
-4.86475
-4.78093
-4.72971
-4.68699
-4.63581
-4.5374
-4.37013
-4.11415
-3.77754
-3.37675
-2.948
-8.81913
-8.58049
-8.22888
-7.85597
-7.48132
-7.09596
-6.6681
-6.18346
-5.66349
-5.13261
-4.60914
-4.10291
-3.61839
-3.15567
-2.72053
-12.5029
-11.0111
-9.55383
-8.46168
-7.63412
-6.94428
-6.32476
-5.75169
-5.20155
-4.664
-4.13991
-3.639
-3.16941
-2.73769
-2.35009
-10.9293
-9.77204
-8.20572
-6.74156
-5.59282
-4.78653
-4.23879
-3.85238
-3.5399
-3.25541
-2.973
-2.68809
-2.40156
-2.11969
-1.85422
-6.92863
-6.54392
-5.837
-4.94985
-4.03909
-3.26069
-2.69725
-2.35421
-2.15585
-2.02255
-1.8993
-1.76853
-1.62547
-1.47504
-1.32954
-4.41564
-4.25821
-3.9457
-3.50102
-2.96329
-2.40897
-1.91385
-1.54358
-1.31255
-1.18921
-1.11533
-1.05256
-0.984259
-0.913138
-0.858706
-2.95934
-2.86444
-2.68434
-2.42658
-2.09862
-1.73075
-1.35779
-1.02604
-0.771855
-0.612481
-0.529672
-0.488015
-0.457491
-0.429865
-0.426736
-2.03497
-1.96735
-1.8441
-1.66924
-1.44403
-1.18268
-0.9013
-0.626432
-0.385404
-0.204306
-0.0934701
-0.0423937
-0.0254939
-0.026293
-0.0622578
-1.3701
-1.31734
-1.22555
-1.09634
-0.929385
-0.732688
-0.514704
-0.291167
-0.0797231
0.0990044
0.228195
0.300814
0.326397
0.320179
0.274704
-0.82862
-0.785862
-0.714155
-0.614215
-0.486133
-0.334418
-0.164459
0.0137848
0.189347
0.348449
0.476878
0.56302
0.604362
0.604799
0.555168
-0.343029
-0.307803
-0.251183
-0.172597
-0.072778
0.0450336
0.175945
0.313047
0.450137
0.57937
0.690089
0.772779
0.820535
0.830383
0.779803
0.123616
0.149863
0.193625
0.256961
0.334679
0.426491
0.524906
0.622543
0.719909
0.814575
0.896963
0.961376
1.00225
1.01506
0.978025
0.594468
0.604189
0.636651
0.691375
0.751067
0.827039
0.898506
0.950941
1.00655
1.06597
1.11386
1.14983
1.17231
1.1802
1.14021
1.07207
1.06356
1.08699
1.14338
1.1765
1.25719
1.29922
1.30212
1.32389
1.34316
1.35962
1.34939
1.34997
1.33999
1.26207
-4.98861
-4.63087
-4.37364
-4.07416
-3.75136
-3.40055
-3.0358
-2.66419
-2.3065
-1.97794
-1.69845
-1.47757
-1.32355
-1.24295
-1.17036
-0.271562
-1.3126
-1.41806
-1.414
-1.46144
-1.52867
-1.58505
-1.621
-1.63626
-1.62418
-1.58532
-1.52131
-1.44157
-1.36274
-1.28576
-1.19249
-1.63524
-1.45758
-1.42619
-1.4627
-1.49365
-1.51083
-1.51988
-1.52334
-1.51756
-1.50152
-1.47149
-1.42503
-1.36046
-1.28168
-2.60566
-2.65275
-2.36972
-2.30304
-2.25059
-2.17469
-2.08464
-1.98822
-1.88859
-1.78642
-1.68563
-1.58829
-1.49592
-1.40629
-1.31684
-2.8437
-2.5608
-2.34327
-2.3061
-2.24864
-2.17207
-2.08803
-1.99889
-1.90534
-1.80726
-1.70768
-1.60848
-1.51244
-1.42052
-1.33291
-1.88726
-1.57128
-1.55927
-1.58156
-1.57668
-1.57153
-1.56956
-1.56471
-1.55375
-1.53397
-1.5052
-1.46657
-1.41894
-1.36337
-1.3029
-1.22649
-1.11319
-1.17003
-1.1802
-1.18774
-1.20883
-1.23723
-1.26541
-1.29053
-1.30972
-1.32137
-1.32284
-1.31293
-1.29058
-1.25636
-1.16478
-1.15548
-1.17887
-1.16845
-1.17129
-1.18373
-1.19996
-1.21703
-1.23367
-1.24817
-1.25902
-1.26406
-1.26171
-1.25011
-1.2275
-1.21709
-1.22612
-1.22565
-1.21802
-1.21975
-1.22318
-1.22813
-1.23477
-1.2421
-1.24885
-1.25359
-1.25477
-1.25098
-1.24086
-1.22163
-1.26037
-1.26397
-1.25737
-1.25321
-1.25153
-1.24871
-1.2477
-1.24907
-1.25196
-1.25528
-1.25774
-1.2579
-1.25434
-1.24586
-1.22993
-1.31735
-1.31557
-1.30749
-1.3012
-1.29482
-1.28753
-1.28212
-1.27854
-1.27654
-1.27522
-1.27387
-1.27128
-1.26618
-1.25731
-1.242
-1.37341
-1.3691
-1.35995
-1.35044
-1.34139
-1.33263
-1.32504
-1.31824
-1.3124
-1.30676
-1.301
-1.29425
-1.28557
-1.274
-1.25688
-1.41114
-1.40593
-1.39627
-1.38528
-1.37599
-1.36754
-1.35942
-1.35132
-1.34368
-1.33569
-1.3273
-1.3177
-1.30624
-1.29213
-1.27281
-1.43136
-1.42614
-1.4168
-1.40611
-1.39767
-1.38983
-1.3816
-1.37299
-1.3646
-1.35559
-1.34612
-1.33537
-1.3228
-1.30767
-1.28813
-1.44436
-1.43955
-1.43088
-1.421
-1.41317
-1.40532
-1.39668
-1.38748
-1.37839
-1.36864
-1.35849
-1.34714
-1.33402
-1.31843
-1.29828
-1.45252
-1.4482
-1.44021
-1.43105
-1.42333
-1.41537
-1.4068
-1.39764
-1.38842
-1.37837
-1.36778
-1.35591
-1.34236
-1.32625
-1.3055
-1.46089
-1.45698
-1.44948
-1.4407
-1.43257
-1.42437
-1.41617
-1.40725
-1.39807
-1.38786
-1.37692
-1.36459
-1.35061
-1.3345
-1.31378
-1.46359
-1.45997
-1.45296
-1.44472
-1.43678
-1.42938
-1.42248
-1.41471
-1.40641
-1.39683
-1.38617
-1.37387
-1.35993
-1.34402
-1.32409
-1.46422
-1.46095
-1.45456
-1.44709
-1.43993
-1.43369
-1.42804
-1.42132
-1.41396
-1.40525
-1.39528
-1.38354
-1.37007
-1.35464
-1.33501
-1.45986
-1.45698
-1.45128
-1.44478
-1.43881
-1.43406
-1.42979
-1.4245
-1.41859
-1.41139
-1.4028
-1.39238
-1.3801
-1.3659
-1.34783
-1.46068
-1.45811
-1.45284
-1.44677
-1.44124
-1.43676
-1.43261
-1.42765
-1.42232
-1.41603
-1.40865
-1.39965
-1.38887
-1.37611
-1.3597
-1.46315
-1.46066
-1.45549
-1.44939
-1.44372
-1.43873
-1.43413
-1.42921
-1.42424
-1.41871
-1.41244
-1.40487
-1.39572
-1.38442
-1.36889
-1.47116
-1.46864
-1.46328
-1.45672
-1.45021
-1.44378
-1.43786
-1.43222
-1.42677
-1.42123
-1.41546
-1.40891
-1.40104
-1.39115
-1.3763
-1.47662
-1.474
-1.46852
-1.46168
-1.45464
-1.44739
-1.44087
-1.43505
-1.42941
-1.42393
-1.4185
-1.41266
-1.4058
-1.39709
-1.38317
-1.48391
-1.48126
-1.47578
-1.46882
-1.46149
-1.45377
-1.44686
-1.44068
-1.43456
-1.42874
-1.42319
-1.4175
-1.41108
-1.40308
-1.3902
-1.48761
-1.48505
-1.47982
-1.47322
-1.46626
-1.45907
-1.45267
-1.44688
-1.44091
-1.43519
-1.42965
-1.42404
-1.41786
-1.41033
-1.39825
-1.4916
-1.4893
-1.48454
-1.47859
-1.47235
-1.46599
-1.4603
-1.45501
-1.44934
-1.44384
-1.43839
-1.43283
-1.42676
-1.41961
-1.40812
-1.49397
-1.49199
-1.48781
-1.48273
-1.4775
-1.47236
-1.46775
-1.46344
-1.45866
-1.45391
-1.44895
-1.44365
-1.43771
-1.43065
-1.41935
-1.50046
-1.49879
-1.49513
-1.49075
-1.4863
-1.482
-1.47802
-1.4743
-1.47025
-1.46613
-1.4616
-1.45652
-1.4506
-1.44358
-1.43264
-1.51032
-1.50888
-1.50561
-1.50175
-1.49786
-1.49412
-1.49048
-1.48718
-1.48376
-1.48016
-1.47599
-1.47108
-1.46511
-1.45789
-1.44708
-1.52566
-1.52434
-1.52128
-1.51761
-1.51388
-1.51016
-1.50637
-1.503
-1.49976
-1.49622
-1.49205
-1.48703
-1.48086
-1.47339
-1.46319
-1.54516
-1.54385
-1.54085
-1.53714
-1.53329
-1.5293
-1.52514
-1.52141
-1.51792
-1.514
-1.5094
-1.50392
-1.49722
-1.48907
-1.47919
-1.56784
-1.56646
-1.56341
-1.55951
-1.55536
-1.55087
-1.54617
-1.54185
-1.53773
-1.53302
-1.52762
-1.52129
-1.5137
-1.50453
-1.49394
-1.59153
-1.5901
-1.58702
-1.58297
-1.57858
-1.57369
-1.56854
-1.56356
-1.55863
-1.55288
-1.54639
-1.53893
-1.53022
-1.51994
-1.50916
-1.61632
-1.61481
-1.61168
-1.60744
-1.60276
-1.59738
-1.59167
-1.58587
-1.57992
-1.57298
-1.56529
-1.5566
-1.54675
-1.5354
-1.52414
-1.63986
-1.63828
-1.63514
-1.63078
-1.62591
-1.62019
-1.61403
-1.60748
-1.60057
-1.59248
-1.58361
-1.57367
-1.56257
-1.54998
-1.53738
-1.66158
-1.65998
-1.65688
-1.6525
-1.64751
-1.64149
-1.63491
-1.62764
-1.61981
-1.61071
-1.60078
-1.58978
-1.57762
-1.56407
-1.55115
-1.6772
-1.67568
-1.67278
-1.66869
-1.664
-1.65826
-1.65185
-1.64451
-1.63638
-1.62686
-1.61639
-1.60475
-1.59191
-1.57758
-1.56424
-1.69161
-1.6902
-1.68752
-1.68369
-1.67923
-1.67367
-1.66732
-1.65986
-1.65147
-1.64167
-1.63089
-1.61886
-1.60556
-1.59067
-1.57688
-1.70173
-1.70044
-1.69802
-1.69458
-1.69057
-1.68555
-1.6797
-1.67265
-1.66455
-1.65505
-1.64446
-1.63254
-1.61933
-1.60433
-1.591
-1.71203
-1.71088
-1.70871
-1.7056
-1.7019
-1.69722
-1.69166
-1.68486
-1.67703
-1.6679
-1.65768
-1.64612
-1.63314
-1.61829
-1.60428
-1.7169
-1.71594
-1.71413
-1.71161
-1.70861
-1.70484
-1.70021
-1.69441
-1.68751
-1.67935
-1.66995
-1.65903
-1.64646
-1.63168
-1.61731
-1.72384
-1.72307
-1.72155
-1.71943
-1.71686
-1.71358
-1.70947
-1.70427
-1.69801
-1.6906
-1.68198
-1.6718
-1.65987
-1.64565
-1.63309
-1.72744
-1.72681
-1.72558
-1.72392
-1.72192
-1.71945
-1.71623
-1.71209
-1.70692
-1.70067
-1.69313
-1.68399
-1.67299
-1.65935
-1.64701
-1.73285
-1.73238
-1.73138
-1.73003
-1.72836
-1.72628
-1.72353
-1.72
-1.71553
-1.71012
-1.7035
-1.69532
-1.68527
-1.67231
-1.65986
-1.73412
-1.7338
-1.73308
-1.73218
-1.73109
-1.72983
-1.72801
-1.7256
-1.72228
-1.71807
-1.71259
-1.70554
-1.69652
-1.68458
-1.6721
-1.74093
-1.7407
-1.74008
-1.73928
-1.73826
-1.73704
-1.73532
-1.73312
-1.73011
-1.72638
-1.72152
-1.71522
-1.70704
-1.69587
-1.68396
-1.7472
-1.74697
-1.74639
-1.74563
-1.7447
-1.74367
-1.7422
-1.74035
-1.73776
-1.73451
-1.73017
-1.72455
-1.71714
-1.70682
-1.69546
-1.7585
-1.75829
-1.7577
-1.75684
-1.75571
-1.75432
-1.75248
-1.75024
-1.74732
-1.74383
-1.73944
-1.73396
-1.72689
-1.71719
-1.7059
-1.76763
-1.76742
-1.7669
-1.76613
-1.76513
-1.7639
-1.76222
-1.76009
-1.75721
-1.7537
-1.74923
-1.74375
-1.73686
-1.72734
-1.71632
-1.78332
-1.7831
-1.78253
-1.78162
-1.78038
-1.77872
-1.77654
-1.7738
-1.77028
-1.76612
-1.76111
-1.75524
-1.74811
-1.73862
-1.72623
-1.79787
-1.79762
-1.79705
-1.79614
-1.7949
-1.79329
-1.7911
-1.7883
-1.78463
-1.78021
-1.77482
-1.76858
-1.76119
-1.7517
-1.73729
-1.81579
-1.8156
-1.81509
-1.81424
-1.813
-1.81127
-1.80889
-1.80581
-1.80179
-1.79697
-1.7912
-1.78455
-1.77691
-1.76761
-1.75319
-1.83116
-1.83104
-1.8307
-1.83013
-1.82925
-1.82802
-1.82615
-1.8236
-1.82001
-1.81553
-1.8099
-1.80332
-1.79551
-1.78591
-1.77037
-1.85141
-1.85139
-1.85118
-1.8508
-1.85011
-1.84907
-1.8474
-1.84506
-1.84169
-1.83742
-1.83199
-1.82554
-1.81782
-1.80847
-1.7927
-1.87163
-1.87171
-1.87167
-1.87161
-1.87132
-1.87089
-1.8699
-1.86837
-1.86581
-1.86233
-1.85755
-1.85162
-1.84431
-1.83541
-1.82044
-1.89701
-1.89725
-1.8974
-1.89763
-1.89768
-1.8977
-1.8972
-1.89629
-1.89438
-1.89161
-1.88747
-1.8821
-1.8752
-1.86675
-1.85297
-1.9262
-1.92652
-1.92682
-1.9273
-1.92769
-1.92822
-1.92836
-1.92824
-1.92717
-1.92525
-1.92183
-1.91695
-1.91026
-1.90155
-1.88704
-1.96487
-1.96521
-1.96553
-1.96602
-1.96642
-1.967
-1.96723
-1.96731
-1.96651
-1.96492
-1.96177
-1.95701
-1.95011
-1.94086
-1.92559
-2.01073
-2.01107
-2.01139
-2.01185
-2.01223
-2.01281
-2.01307
-2.01322
-2.01251
-2.01098
-2.00775
-2.00265
-1.99494
-1.98427
-1.9665
-2.066
-2.06633
-2.06661
-2.06701
-2.06727
-2.06764
-2.06767
-2.0675
-2.06644
-2.06445
-2.06057
-2.05446
-2.04522
-2.03218
-2.01055
-2.13095
-2.13121
-2.1314
-2.1316
-2.13162
-2.13162
-2.13121
-2.13048
-2.12876
-2.12593
-2.12098
-2.11342
-2.10216
-2.08648
-2.06013
-2.20669
-2.20685
-2.2069
-2.20682
-2.20645
-2.20588
-2.20478
-2.20317
-2.20042
-2.19639
-2.19002
-2.18067
-2.16717
-2.14878
-2.11796
-2.29055
-2.29067
-2.29067
-2.29048
-2.28992
-2.28905
-2.28747
-2.28522
-2.28159
-2.27642
-2.26859
-2.25736
-2.24138
-2.22006
-2.18572
-2.38432
-2.38448
-2.38454
-2.38442
-2.38383
-2.38285
-2.38096
-2.37819
-2.37373
-2.36742
-2.35799
-2.34457
-2.32547
-2.29973
-2.25909
-2.49003
-2.49023
-2.49035
-2.49032
-2.48977
-2.4888
-2.48675
-2.48368
-2.47857
-2.47124
-2.46017
-2.44428
-2.42151
-2.39042
-2.34233
-2.61366
-2.61394
-2.61416
-2.61427
-2.61373
-2.61274
-2.61042
-2.60687
-2.60085
-2.59214
-2.57887
-2.5597
-2.5321
-2.49419
-2.43569
-2.75807
-2.7585
-2.75894
-2.75936
-2.75904
-2.75826
-2.75584
-2.75195
-2.74493
-2.73447
-2.7182
-2.69437
-2.65998
-2.61266
-2.54055
-2.93607
-2.93672
-2.93747
-2.93827
-2.93818
-2.93749
-2.93467
-2.92976
-2.92071
-2.90695
-2.88547
-2.85407
-2.8091
-2.74811
-2.65846
-3.15861
-3.15941
-3.16028
-3.16113
-3.16079
-3.1595
-3.15537
-3.14835
-3.13565
-3.11635
-3.08652
-3.04319
-2.98196
-2.89987
-2.7837
-3.46031
-3.46117
-3.46204
-3.46247
-3.46095
-3.45743
-3.44949
-3.43656
-3.41515
-3.38366
-3.3373
-3.27254
-3.18443
-3.07041
-2.91561
-3.82226
-3.82324
-3.82402
-3.82389
-3.82091
-3.81475
-3.80204
-3.78164
-3.74872
-3.70078
-3.6316
-3.53695
-3.41186
-3.2558
-3.05371
-4.4561
-4.45648
-4.45423
-4.4485
-4.43561
-4.41397
-4.37829
-4.32607
-4.25145
-4.15249
-4.0244
-3.86524
-3.67309
-3.4509
-3.19068
-4.92448
-4.9244
-4.93419
-4.93571
-4.92379
-4.89638
-4.84763
-4.77649
-4.67562
-4.54205
-4.36964
-4.15627
-3.90265
-3.61476
-3.30228
-7.19677
-7.28678
-7.20461
-7.0765
-6.90933
-6.70046
-6.43529
-6.11835
-5.75399
-5.3645
-4.95987
-4.55335
-4.14668
-3.74046
-3.33779
10.3911
10.0325
9.50021
8.9967
8.46027
7.86277
7.21878
6.54591
5.86909
5.2108
4.59664
4.04516
3.56656
3.15898
2.81948
5.4692
4.47035
4.44989
4.52187
4.52368
4.48321
4.42646
4.34445
4.22799
4.06762
3.86323
3.61841
3.34475
3.05639
2.77518
3.55286
3.13696
3.34391
3.39185
3.37236
3.35343
3.33966
3.31815
3.2846
3.23439
3.1645
3.06899
2.94387
2.78638
2.60483
2.37055
2.32205
2.58941
2.63072
2.65544
2.69447
2.73636
2.7694
2.78921
2.79166
2.77315
2.73005
2.66
2.56018
2.43336
1.63429
1.92016
2.13373
2.1624
2.20854
2.2682
2.32888
2.38506
2.43345
2.46928
2.48664
2.48001
2.44542
2.38015
2.28598
2.08316
2.40545
2.41956
2.39711
2.40038
2.40205
2.39793
2.39173
2.38445
2.3748
2.35955
2.33467
2.29555
2.23734
2.15806
2.47821
2.59404
2.53442
2.52132
2.51041
2.4849
2.45012
2.41192
2.37161
2.32937
2.2845
2.2359
2.18134
2.11729
2.03892
2.32507
2.33388
2.30721
2.31561
2.3105
2.29504
2.27387
2.24893
2.21987
2.18649
2.14821
2.10433
2.05357
1.99425
1.92219
2.06347
2.05402
2.05382
2.0622
2.06103
2.0578
2.05148
2.04123
2.02655
2.00728
1.98283
1.9524
1.91478
1.86894
1.8142
1.85161
1.84831
1.85588
1.86192
1.86538
1.86962
1.87079
1.86778
1.86046
1.84879
1.83247
1.81087
1.78302
1.74817
1.70663
1.67168
1.67401
1.68322
1.69088
1.69854
1.7066
1.71173
1.71345
1.71154
1.70589
1.69603
1.68133
1.66086
1.63368
1.60081
1.52998
1.53459
1.54417
1.55366
1.56233
1.56978
1.57499
1.57781
1.57816
1.57593
1.57065
1.56152
1.54737
1.52684
1.5011
1.42134
1.4264
1.43578
1.4456
1.45322
1.45859
1.46265
1.46496
1.46564
1.46452
1.46137
1.45548
1.44584
1.43106
1.41271
1.34191
1.34656
1.35486
1.36329
1.36867
1.37166
1.37406
1.37499
1.37471
1.373
1.36986
1.36475
1.35692
1.34531
1.33099
1.26417
1.2681
1.27529
1.28239
1.28659
1.28905
1.2915
1.29266
1.29277
1.29142
1.28863
1.28393
1.27682
1.2663
1.2536
1.18555
1.18884
1.19521
1.20153
1.2056
1.20846
1.21137
1.21317
1.2141
1.21365
1.21185
1.20815
1.20215
1.19326
1.18312
1.09913
1.10212
1.10823
1.11475
1.11997
1.12431
1.12828
1.13152
1.13407
1.13547
1.13556
1.13377
1.12963
1.12241
1.11448
1.01497
1.01793
1.02411
1.03109
1.03749
1.04284
1.04742
1.0517
1.05556
1.05852
1.06041
1.06056
1.05841
1.05307
1.04674
0.936072
0.939084
0.9453
0.952582
0.959522
0.965338
0.970336
0.9755
0.980394
0.984632
0.987967
0.989757
0.989351
0.985866
0.981531
0.867041
0.870052
0.876175
0.883432
0.890324
0.896042
0.901116
0.906569
0.911787
0.916456
0.920387
0.922939
0.923486
0.921008
0.917706
0.80538
0.808307
0.814297
0.821432
0.828207
0.833932
0.839203
0.844774
0.84999
0.854555
0.858373
0.860875
0.861498
0.859274
0.856099
0.753081
0.755879
0.761627
0.768475
0.774962
0.780632
0.785818
0.790872
0.795386
0.799111
0.802022
0.803664
0.803582
0.800924
0.797496
0.704745
0.707396
0.712969
0.719591
0.726053
0.731982
0.737262
0.741713
0.745471
0.748175
0.749943
0.750369
0.749271
0.746063
0.742119
0.661342
0.663862
0.669176
0.675452
0.681665
0.687495
0.692342
0.695767
0.698473
0.69996
0.700437
0.699616
0.697448
0.693582
0.689696
0.61763
0.619969
0.624956
0.630799
0.63663
0.64204
0.646257
0.648822
0.650784
0.651453
0.651115
0.649541
0.646822
0.64267
0.64022
0.57226
0.574412
0.579025
0.584375
0.589669
0.594406
0.597873
0.599748
0.601207
0.601407
0.600713
0.598945
0.596279
0.592348
0.590285
0.523338
0.525263
0.529427
0.534224
0.53888
0.542928
0.545776
0.547322
0.548636
0.548872
0.548378
0.547016
0.544913
0.541657
0.540397
0.469417
0.471134
0.474948
0.479359
0.483635
0.48734
0.490069
0.491803
0.493447
0.494219
0.494481
0.494089
0.493225
0.491358
0.492004
0.41446
0.415996
0.419468
0.423507
0.427391
0.430847
0.433624
0.435702
0.437724
0.439174
0.440386
0.441256
0.441922
0.441809
0.44426
0.356607
0.358059
0.361411
0.365416
0.369384
0.373172
0.376658
0.379605
0.38238
0.384801
0.387155
0.38933
0.391484
0.392876
0.396219
0.30214
0.303559
0.306827
0.310801
0.314845
0.318924
0.323018
0.326622
0.329925
0.333072
0.336293
0.33945
0.342598
0.344851
0.347547
0.250134
0.251575
0.254841
0.258932
0.263212
0.267743
0.272472
0.276714
0.280565
0.284418
0.288358
0.292241
0.296115
0.299244
0.300917
0.203895
0.205336
0.208576
0.212645
0.217022
0.221684
0.226657
0.231093
0.235204
0.239391
0.243704
0.247932
0.252103
0.255949
0.25768
0.160476
0.161939
0.165125
0.169216
0.173642
0.178433
0.183513
0.188086
0.192397
0.196823
0.201289
0.205514
0.209474
0.213115
0.213052
0.121059
0.122474
0.125542
0.129435
0.133709
0.138256
0.143111
0.147441
0.151657
0.155918
0.160139
0.163918
0.167172
0.169914
0.168326
0.0819806
0.0833279
0.0862087
0.0898988
0.0939524
0.0982625
0.102853
0.106983
0.111079
0.115153
0.119067
0.122387
0.125005
0.127206
0.126346
0.0435815
0.0448011
0.0474124
0.0506775
0.0542796
0.0580516
0.062139
0.0658096
0.0695992
0.0732759
0.0767267
0.0794911
0.0814141
0.0828351
0.0802962
0.000621096
0.0017188
0.00409357
0.00710174
0.0104392
0.0139465
0.0177914
0.0213438
0.0250434
0.0285413
0.0316973
0.0340437
0.0355466
0.0366847
0.0347345
-0.0417362
-0.0408179
-0.0388333
-0.03644
-0.0338298
-0.0311421
-0.028097
-0.0252041
-0.0220392
-0.019081
-0.0163508
-0.0142369
-0.0127743
-0.0111512
-0.0125882
-0.0925459
-0.0917777
-0.0900318
-0.0878808
-0.0854984
-0.0829984
-0.0801031
-0.0772319
-0.074092
-0.0711681
-0.068459
-0.0662938
-0.0645534
-0.06254
-0.0640342
-0.141881
-0.141283
-0.139947
-0.138449
-0.136887
-0.135302
-0.133336
-0.131231
-0.128729
-0.126286
-0.123804
-0.12149
-0.119328
-0.116254
-0.115552
-0.202148
-0.201642
-0.200404
-0.198908
-0.197273
-0.195516
-0.193347
-0.190932
-0.188158
-0.18537
-0.182478
-0.179574
-0.176518
-0.172274
-0.169256
-0.257497
-0.257099
-0.256178
-0.255208
-0.254262
-0.253283
-0.251939
-0.250239
-0.248053
-0.245641
-0.242848
-0.239691
-0.236012
-0.231103
-0.22912
-0.323354
-0.322982
-0.32206
-0.320904
-0.319675
-0.318235
-0.316423
-0.314137
-0.311448
-0.30843
-0.305061
-0.301225
-0.296768
-0.29036
-0.286367
-0.382896
-0.382546
-0.381796
-0.380943
-0.380128
-0.379135
-0.377809
-0.375929
-0.373509
-0.37053
-0.366955
-0.362581
-0.357245
-0.34943
-0.341481
-0.451894
-0.451486
-0.450596
-0.449344
-0.447982
-0.446199
-0.444039
-0.441156
-0.43781
-0.433809
-0.429241
-0.423834
-0.417451
-0.408401
-0.398149
-0.513039
-0.512612
-0.511808
-0.510715
-0.509578
-0.507985
-0.506026
-0.503252
-0.499878
-0.495636
-0.490622
-0.484532
-0.477206
-0.467243
-0.455509
-0.580128
-0.579663
-0.578787
-0.577442
-0.575942
-0.573779
-0.571192
-0.567593
-0.563411
-0.55822
-0.5523
-0.5453
-0.537029
-0.526183
-0.513689
-0.641576
-0.641082
-0.640255
-0.639006
-0.637638
-0.635578
-0.63309
-0.629496
-0.625206
-0.619724
-0.613311
-0.605556
-0.59634
-0.584025
-0.570219
-0.706686
-0.706163
-0.70528
-0.703855
-0.702234
-0.699776
-0.696851
-0.692718
-0.68786
-0.681679
-0.674491
-0.665909
-0.655774
-0.642395
-0.626286
-0.7668
-0.766286
-0.765471
-0.764167
-0.762693
-0.760428
-0.757682
-0.753684
-0.748825
-0.742441
-0.734805
-0.725582
-0.714862
-0.70162
-0.680429
-0.828372
-0.827871
-0.82709
-0.825796
-0.824296
-0.821917
-0.819013
-0.814726
-0.809494
-0.802552
-0.79417
-0.783926
-0.771983
-0.758156
-0.734575
-0.887395
-0.886891
-0.886128
-0.884865
-0.883378
-0.881038
-0.878144
-0.873862
-0.86852
-0.861323
-0.852451
-0.841489
-0.828405
-0.814035
-0.79085
-0.946009
-0.94553
-0.94483
-0.943647
-0.942245
-0.939973
-0.937132
-0.932842
-0.927446
-0.920096
-0.911011
-0.899728
-0.886271
-0.871807
-0.85015
-1.00432
-1.00388
-1.00322
-1.00212
-1.00078
-0.998644
-0.995937
-0.991865
-0.986655
-0.979524
-0.970614
-0.959533
-0.946174
-0.931675
-0.910292
-1.06248
-1.06209
-1.06153
-1.06061
-1.05948
-1.05765
-1.05527
-1.05162
-1.04686
-1.04024
-1.03189
-1.02143
-1.0087
-0.994899
-0.97638
-1.12361
-1.12326
-1.12275
-1.12191
-1.12086
-1.1192
-1.11703
-1.11373
-1.10939
-1.10335
-1.09565
-1.08588
-1.0738
-1.06008
-1.04143
-1.18614
-1.18586
-1.18548
-1.18487
-1.1841
-1.18283
-1.18109
-1.17835
-1.17461
-1.16927
-1.16228
-1.15314
-1.14135
-1.12708
-1.10614
-1.25395
-1.25374
-1.25345
-1.25299
-1.25236
-1.25131
-1.24983
-1.24746
-1.24416
-1.23935
-1.23291
-1.22419
-1.21254
-1.19782
-1.17557
-1.32562
-1.32549
-1.32535
-1.32511
-1.32476
-1.32408
-1.32301
-1.32117
-1.3184
-1.31417
-1.3082
-1.29972
-1.28784
-1.27192
-1.24658
-1.40579
-1.40573
-1.40569
-1.40557
-1.40533
-1.4048
-1.40386
-1.40219
-1.3996
-1.39555
-1.38963
-1.38092
-1.36819
-1.35033
-1.31991
-1.49368
-1.49369
-1.49375
-1.49379
-1.4937
-1.49337
-1.49262
-1.49118
-1.48874
-1.48478
-1.47872
-1.46951
-1.45567
-1.4359
-1.40091
-1.59402
-1.59408
-1.59421
-1.5943
-1.59424
-1.59388
-1.59306
-1.59146
-1.58879
-1.58445
-1.57779
-1.56759
-1.5522
-1.53035
-1.49121
-1.70676
-1.70686
-1.70701
-1.70713
-1.70702
-1.70663
-1.70565
-1.70386
-1.7008
-1.69588
-1.68822
-1.67652
-1.65887
-1.63427
-1.59176
-1.83668
-1.8368
-1.83699
-1.83708
-1.83687
-1.83618
-1.83475
-1.83221
-1.82811
-1.82175
-1.81213
-1.79774
-1.77636
-1.7467
-1.69715
-1.9824
-1.98255
-1.98277
-1.98286
-1.98255
-1.98166
-1.97981
-1.97658
-1.97135
-1.96328
-1.95109
-1.93305
-1.90661
-1.87021
-1.81193
-2.15136
-2.15151
-2.15172
-2.15164
-2.15106
-2.14956
-2.14686
-2.14228
-2.13518
-2.12442
-2.10854
-2.0854
-2.05207
-2.00662
-1.93676
-2.34567
-2.34583
-2.34598
-2.34579
-2.3448
-2.34276
-2.33897
-2.33285
-2.32328
-2.30903
-2.28807
-2.25793
-2.21515
-2.15737
-2.07179
-2.57964
-2.57977
-2.57986
-2.57932
-2.57764
-2.57426
-2.56844
-2.55923
-2.54534
-2.52516
-2.49623
-2.45551
-2.39903
-2.32383
-2.21658
-2.84783
-2.84801
-2.84807
-2.84739
-2.84518
-2.84086
-2.83316
-2.82097
-2.80219
-2.77482
-2.7354
-2.68029
-2.60464
-2.5048
-2.36181
-3.19379
-3.19393
-3.1938
-3.19227
-3.18828
-3.18078
-3.16815
-3.14864
-3.11966
-3.07842
-3.02076
-2.9423
-2.83822
-2.70602
-2.52069
-3.58398
-3.5843
-3.58408
-3.58229
-3.57703
-3.56746
-3.55036
-3.52394
-3.48352
-3.42582
-3.34505
-3.23642
-3.09516
-2.92211
-2.69798
-4.2557
-4.2553
-4.25186
-4.2442
-4.22831
-4.20228
-4.16071
-4.10068
-4.01656
-3.90602
-3.76463
-3.59018
-3.38062
-3.13996
-2.85557
-4.74461
-4.74508
-4.75408
-4.75362
-4.73843
-4.70677
-4.65226
-4.57374
-4.46313
-4.31742
-4.13037
-3.90019
-3.62736
-3.31908
-2.99033
-7.06976
-7.15579
-7.06858
-6.93773
-6.76632
-6.5517
-6.27638
-5.94706
-5.56715
-5.16038
-4.73664
-4.31024
-3.88272
-3.4558
-3.04063
-0.346461
0.69966
-1.59653
-0.57885
-0.706691
-1.89192
-1.14673
1.47322
-0.191351
-0.118045
-0.425802
0.619426
-0.175464
-0.678486
-0.743571
0.559641
-1.0947
-2.81924
-1.33653
-0.583555
0.567237
-0.154712
0.846007
1.861
0.992826
-0.594683
0.431245
-1.07441
-7.41076
-0.351138
-1.95459
-1.15854
0.849782
0.0202268
0.810771
0.0546369
-2.90571
0.149597
1.01446
0.187848
-1.53338
-0.218087
0.268395
0.0681527
-0.26774
0.0335198
-0.00198951
0.846318
0.293874
-0.358851
-0.743875
1.68806
0.249941
2.8236
-0.0439567
0.569001
0.0598571
0.0625617
0.816532
-1.71948
0.101901
0.595123
0.756529
-0.422853
4.28716
-0.103867
0.880682
0.444816
-0.143721
-0.4328
-1.50297
0.17026
-0.0586409
-0.29314
0.298027
-1.26773
0.893553
0.608769
0.0328913
0.0295491
-1.05108
2.47965
-0.281792
0.171689
-0.276596
-1.23082
1.25391
0.0272928
-0.16279
-1.03721
0.195702
0.295199
-0.129679
1.0507
-0.685916
0.00536292
1.31218
0.406372
0.397897
-1.25607
-1.06586
0.0508489
-0.60662
-0.069795
0.23668
0.396552
-1.17613
-1.67397
-0.481724
0.996843
0.0795283
-0.100955
-0.177455
-0.0973528
0.882013
-0.534098
0.253811
1.01968
0.474508
2.09991
0.0433857
-0.876388
-1.33091
0.552819
0.149955
0.382951
-0.989018
0.00695771
-3.80934
0.80645
-0.74354
0.310089
-0.00274208
1.00543
0.10638
-0.0096856
-1.61343
-0.348335
-0.166521
1.18437
-0.250958
0.396565
-0.402511
-1.08922
-1.77583
-0.966204
-1.98655
-1.33828
0.929352
-0.0731553
0.805092
-0.0883842
0.588887
-0.324785
-0.0293265
-0.000715955
0.280368
0.161501
0.744232
0.0248425
0.0291332
-0.0836252
0.0200751
3.06054
-0.315629
0.00582825
-0.284233
0.765807
-0.709081
-0.0755969
-2.43715
1.02106
-0.187612
0.533186
-3.75631
0.000251503