/*--------------------------------*- C++ -*----------------------------------*\
| =========                 |                                                 |
| \\      /  F ield         | OpenFOAM: The Open Source CFD Toolbox           |
|  \\    /   O peration     | Version:  2.3.0                                 |
|   \\  /    A nd           | Web:      www.OpenFOAM.org                      |
|    \\/     M anipulation  |                                                 |
\*---------------------------------------------------------------------------*/
FoamFile
{
    version     2.0;
    format      ascii;
    class       surfaceScalarField;
    location    "50";
    object      phi;
}
// * * * * * * * * * * * * * * * * * * * * * * * * * * * * * * * * * * * * * //

dimensions      [0 3 -1 0 0 0 0];

internalField   nonuniform List<scalar> 
15873
(
-0.00180831
-0.01977
0.0214456
0.000172383
-0.00303458
-0.0166358
0.017862
-0.00389332
-0.0140248
0.0148836
-0.00444786
-0.0118504
0.012405
-0.00474921
-0.0100387
0.0103402
-0.00483858
-0.00852969
0.00861907
-0.00475081
-0.00727213
0.00718438
-0.00451444
-0.00622404
0.00598766
-0.00415356
-0.00535072
0.0049898
-0.00368819
-0.00462288
0.00415752
-0.00313543
-0.00401611
0.00346327
-0.00250893
-0.00351045
0.002884
-0.00182034
-0.00308895
0.00240029
-0.00107809
-0.00273762
0.00199543
-0.00244478
-0.000276366
0.00164302
-0.0016513
-0.0182698
0.000151102
-0.00275491
-0.0155322
-0.00352582
-0.0132538
-0.00401936
-0.0113568
-0.0042815
-0.00977656
-0.00435102
-0.00846015
-0.00426009
-0.00736305
-0.00403501
-0.0064491
-0.00369852
-0.00568721
-0.00326882
-0.00505255
-0.00276145
-0.00452349
-0.00218924
-0.00408263
-0.00156295
-0.00371525
-0.000891448
-0.00340909
-0.003154
-0.000182248
-0.00150461
-0.0169044
0.000139154
-0.00250671
-0.0145301
-0.00320599
-0.0125545
-0.00365331
-0.0109095
-0.00389003
-0.00953983
-0.0039512
-0.00839896
-0.00386613
-0.00744811
-0.00365918
-0.00665603
-0.00335018
-0.0059962
-0.00295679
-0.00544593
-0.00249263
-0.00498764
-0.00196963
-0.00460561
-0.00139765
-0.00428723
-0.000784852
-0.00402187
-0.00380071
-0.000138144
-0.00136993
-0.0156641
0.000129651
-0.00227915
-0.0136209
-0.002913
-0.0119207
-0.00331746
-0.010505
-0.00353095
-0.00932633
-0.00358542
-0.00834448
-0.00350702
-0.0075265
-0.00331791
-0.00684514
-0.00303685
-0.00627724
-0.00267864
-0.00580413
-0.00225669
-0.00540959
-0.00178132
-0.00508097
-0.00126153
-0.00480702
-0.000704721
-0.00457867
-0.00438835
-0.000117084
-0.00124962
-0.014537
0.000122448
-0.00207524
-0.0127953
-0.00265075
-0.0113452
-0.00301743
-0.0101384
-0.00321073
-0.00913302
-0.00325924
-0.00829596
-0.00318715
-0.00759859
-0.00301462
-0.00701767
-0.00275843
-0.00653344
-0.00243255
-0.00613
-0.00204824
-0.0057939
-0.00161577
-0.00551344
-0.00114291
-0.00527988
-0.00063648
-0.0050851
-0.00492276
-0.000102069
-0.00114079
-0.0135127
0.000116527
-0.00189123
-0.0120448
-0.00241364
-0.0108227
-0.00274672
-0.00980529
-0.00292157
-0.00895817
-0.00296505
-0.00825248
-0.00289895
-0.00766469
-0.00274166
-0.00717495
-0.00250837
-0.00676673
-0.00221166
-0.00642671
-0.00186232
-0.00614325
-0.0014689
-0.00590686
-0.0010389
-0.00570988
-0.000578387
-0.00554561
-0.00540861
-9.25354e-05
-0.00104319
-0.0125814
0.000111909
-0.00172549
-0.0113625
-0.00220038
-0.0103479
-0.0025026
-0.00950307
-0.00266152
-0.00879926
-0.00270062
-0.00821339
-0.00264012
-0.00772519
-0.00249684
-0.00731823
-0.00228437
-0.0069792
-0.0020143
-0.00669678
-0.00169643
-0.00646112
-0.00133858
-0.00626471
-0.000947496
-0.00610097
-0.000528761
-0.00596434
-0.00585038
-8.69961e-05
-0.000955221
-0.0117343
0.000108051
-0.00157572
-0.010742
-0.00200728
-0.0099163
-0.00228225
-0.00922811
-0.00242623
-0.00865528
-0.00246172
-0.0081779
-0.00240659
-0.00778032
-0.00227607
-0.00744876
-0.00208275
-0.00717252
-0.00183705
-0.00694249
-0.00154794
-0.00675022
-0.00122248
-0.00659017
-0.000866875
-0.00645657
-0.00048615
-0.00634507
-0.006252
-8.45298e-05
-0.000875624
-0.0109634
0.000104795
-0.00143984
-0.0101778
-0.00183262
-0.00952352
-0.0020825
-0.00897823
-0.00221349
-0.00852429
-0.00224574
-0.00814566
-0.0021955
-0.00783055
-0.00207665
-0.00756762
-0.00190079
-0.00734837
-0.00167755
-0.00716574
-0.00141451
-0.00701327
-0.00111856
-0.00688612
-0.000795348
-0.00677979
-0.000449209
-0.00669121
-0.00661711
-8.40904e-05
-0.000802933
-0.0102621
0.000101583
-0.00131635
-0.00966441
-0.00167386
-0.00916602
-0.00190116
-0.00875093
-0.00202048
-0.00840497
-0.00204957
-0.00811658
-0.00200393
-0.0078762
-0.00189602
-0.00767553
-0.00173609
-0.0075083
-0.00153297
-0.00736887
-0.00129404
-0.0072522
-0.0010251
-0.00715506
-0.0007311
-0.00707379
-0.000416451
-0.00700586
-0.00694902
-8.45442e-05
-0.000735944
-0.00962382
9.7668e-05
-0.00120341
-0.00919694
-0.0015287
-0.00884073
-0.00173569
-0.00854394
-0.00184441
-0.00829626
-0.0018712
-0.00808978
-0.0018298
-0.0079176
-0.00173149
-0.00777384
-0.00158612
-0.00765367
-0.00140173
-0.00755326
-0.00118433
-0.0074696
-0.000939914
-0.00739948
-0.000672736
-0.00734097
-0.000386702
-0.00729189
-0.00725074
-8.4985e-05
-0.000673777
-0.00904282
9.27732e-05
-0.00109953
-0.00877118
-0.00139584
-0.00854443
-0.00158457
-0.00835521
-0.00168351
-0.00819731
-0.00170784
-0.00806545
-0.00167052
-0.00795492
-0.00158143
-0.00786293
-0.00144944
-0.00778567
-0.00128138
-0.00772132
-0.00108409
-0.00766688
-0.000861775
-0.0076218
-0.000618945
-0.0075838
-0.000358937
-0.0075519
-0.00752503
-8.46398e-05
-0.000615959
-0.00851398
8.71112e-05
-0.0010035
-0.00838364
-0.00127357
-0.00827437
-0.00144543
-0.00818334
-0.00153583
-0.00810692
-0.0015585
-0.00804278
-0.00152447
-0.00798896
-0.00144364
-0.00794376
-0.00132342
-0.00790589
-0.00117109
-0.00787365
-0.000991495
-0.00784648
-0.000789447
-0.00782384
-0.000568752
-0.0078045
-0.000332382
-0.00778827
-0.00777438
-8.30357e-05
-0.000561728
8.0271e-05
-0.00803253
-0.000914785
-0.00803059
-0.00116048
-0.00802868
-0.00131742
-0.00802641
-0.00140016
-0.00802418
-0.00142081
-0.00802213
-0.00139005
-0.00801972
-0.00131666
-0.00801715
-0.00120784
-0.00801472
-0.00106924
-0.00801225
-0.000905919
-0.00800979
-0.000722307
-0.00800745
-0.00052159
-0.00800521
-0.000306681
-0.00800318
-7.99809e-05
-0.00800108
0.000535808
-0.00244339
0.00163127
0.00128858
-0.00273297
0.00198018
0.00198885
-0.00308068
0.00238046
0.0026289
-0.00349813
0.00285806
0.00319832
-0.00399932
0.00342992
0.00368389
-0.00460125
0.00411567
0.00406908
-0.00532394
0.00493874
0.00433376
-0.00619191
0.00592722
0.00445316
-0.00723451
0.0071151
0.00439744
-0.0084864
0.00854213
0.00412966
-0.00998936
0.0102571
0.00360674
-0.0117939
0.0123169
0.002776
-0.0139589
0.0147897
0.00157545
-0.0165562
0.0177568
-0.0196704
0.0213137
-6.78153e-05
0.0005277
-0.00315331
0.00120156
-0.00340684
0.00183204
-0.00371113
0.00241021
-0.0040763
0.00292547
-0.00451456
0.00336481
-0.00504059
0.00371261
-0.00567172
0.00395027
-0.00642955
0.00405461
-0.00733885
0.00399878
-0.00843057
0.00375007
-0.00974065
0.00326921
-0.0113131
0.00250979
-0.0131995
0.00141608
-0.0154625
-0.0181758
-7.85493e-05
0.000508638
-0.00380007
0.00112164
-0.00401985
0.00169415
-0.00428362
0.00221803
-0.00460018
0.00268362
-0.00498014
0.00307909
-0.00543606
0.00339097
-0.0059836
0.0036017
-0.00664027
0.00369148
-0.00742863
0.00363589
-0.00837498
0.00340541
-0.00951016
0.00296461
-0.0108723
0.00227166
-0.0125066
0.00127538
-0.0144662
-0.0168162
-8.42056e-05
0.000470575
-0.00438772
0.00102743
-0.00457671
0.00154739
-0.00480357
0.00202306
-0.00507586
0.00244554
-0.00540261
0.00280453
-0.00579505
0.00308667
-0.00626573
0.00327715
-0.00683076
0.0033572
-0.00750867
0.00330455
-0.00832233
0.00309293
-0.00929855
0.00269026
-0.0104696
0.00205808
-0.0118744
0.00115067
-0.0135588
-0.015579
-8.64996e-05
0.000432279
-0.00492207
0.000938509
-0.00508294
0.00141107
-0.00527613
0.00184316
-0.00550795
0.00222705
-0.0057865
0.00255246
-0.00612045
0.00280816
-0.00652142
0.00298016
-0.00700276
0.00305167
-0.00758018
0.00300249
-0.00827314
0.00280839
-0.00910445
0.00244079
-0.010102
0.00186434
-0.011298
0.00103826
-0.0127327
-0.014453
-8.77727e-05
0.000393192
-0.00540779
0.000853328
-0.00554307
0.00128273
-0.00570553
0.00167532
-0.00590054
0.00202362
-0.0061348
0.00231908
-0.0064159
0.00255091
-0.00675325
0.00270652
-0.00715837
0.00277072
-0.00764437
0.00272512
-0.00822754
0.00254795
-0.00892728
0.00221247
-0.00976652
0.00168781
-0.0107733
0.000935804
-0.0119807
-0.0134288
-8.8375e-05
0.000354594
-0.00584938
0.000772814
-0.00596129
0.00116305
-0.00609576
0.00151973
-0.00625722
0.00183612
-0.00645119
0.0021044
-0.00668418
0.00231479
-0.00696363
0.00245568
-0.00729926
0.00251352
-0.00770221
0.00247153
-0.00818555
0.00230957
-0.00876532
0.00200434
-0.00946129
0.00152684
-0.0102958
0.000842951
-0.0112968
-0.0124977
-8.8138e-05
0.000316888
-0.0062508
0.000697023
-0.00634143
0.00105165
-0.00645039
0.00137578
-0.00658134
0.00166318
-0.00673859
0.00190685
-0.00692785
0.00209779
-0.00715457
0.00222562
-0.0074271
0.00227779
-0.00775437
0.00223914
-0.00814689
0.00209194
-0.00861812
0.00181393
-0.00918328
0.00137989
-0.00986174
0.000758169
-0.0106751
-0.0116514
-8.80486e-05
0.000280821
-0.00661571
0.000626358
-0.00668696
0.000948583
-0.00677262
0.00124317
-0.00687593
0.0015045
-0.00699992
0.00172569
-0.00714904
0.00189916
-0.00732804
0.00201534
-0.00754328
0.00206267
-0.0078017
0.00202741
-0.00811163
0.00189345
-0.00848416
0.00164093
-0.00893076
0.00124627
-0.00946707
0.000681566
-0.0101104
-0.0108826
-8.72997e-05
0.000247168
-0.00694743
0.000561252
-0.00700104
0.000854336
-0.0070657
0.00112202
-0.00714361
0.00135937
-0.00723727
0.0015606
-0.00735027
0.00171833
-0.00748576
0.00182379
-0.00764874
0.00186684
-0.00784474
0.00183514
-0.00807993
0.00171341
-0.00836243
0.00148419
-0.00870153
0.00112567
-0.00910855
0.00061275
-0.00959745
-0.010184
-8.58297e-05
0.00021656
-0.00724897
0.000502094
-0.00728658
0.000768474
-0.00733209
0.00101181
-0.00738695
0.00122784
-0.0074533
0.00141059
-0.00753301
0.00155406
-0.00762924
0.0016503
-0.00774498
0.00168957
-0.00788401
0.00166075
-0.00805111
0.00155035
-0.00825203
0.00134232
-0.00849349
0.00101703
-0.00878326
0.000551136
-0.00913156
-0.00954961
-8.3241e-05
0.000189506
-0.00752312
0.000449092
-0.00754616
0.000691267
-0.00757426
0.000912689
-0.00760837
0.00110885
-0.00764947
0.00127556
-0.00769972
0.00140602
-0.0077597
0.00149349
-0.00783245
0.00152923
-0.00791975
0.00150354
-0.00802542
0.00140373
-0.00815223
0.00121493
-0.00830469
0.000919706
-0.00848804
0.000496722
-0.00870858
-0.00897372
-7.91656e-05
0.00016619
-0.00777234
0.000402206
-0.00778218
0.000622386
-0.00779444
0.000823728
-0.00780971
0.00100246
-0.0078282
0.00115376
-0.00785102
0.00127282
-0.00787877
0.00135255
-0.00791217
0.00138558
-0.00795279
0.00136223
-0.00800208
0.00127182
-0.00806182
0.00110082
-0.00813369
0.000832803
-0.00822003
0.000449018
-0.00832479
-0.00845066
-7.40386e-05
0.000146663
-0.00799898
0.000361269
-0.00799678
0.000561624
-0.00799479
0.000744692
-0.00799278
0.000907432
-0.00799094
0.00104535
-0.00798893
0.00115343
-0.00798685
0.00122624
-0.00798498
0.00125656
-0.00798311
0.00123595
-0.00798147
0.00115412
-0.00797999
0.000998842
-0.00797841
0.000755937
-0.00797712
0.000407449
-0.0079763
-6.77928e-05
-0.00797542
0.0018694
0.0197765
-0.0214438
-0.000202167
0.00309057
0.016647
-0.017868
0.00393543
0.0140321
-0.0148771
0.00446331
0.0118452
-0.0123727
0.00472296
0.0100132
-0.010273
0.00475621
0.0084763
-0.00850921
0.00459822
0.007183
-0.00702521
0.00428173
0.00609081
-0.00577414
0.00383636
0.00516585
-0.00472073
0.00329152
0.00437996
-0.00383524
0.00267319
0.00370941
-0.00309151
0.00200703
0.00313171
-0.00246618
0.00132278
0.00262089
-0.00193704
0.000647937
0.00215326
-0.00147972
0.00174169
-7.00404e-06
-0.00108681
0.00173859
0.0182538
-0.000215897
0.00285766
0.0155281
0.00363793
0.0132517
0.00413417
0.0113492
0.00438996
0.00975698
0.00444449
0.0084224
0.00432616
0.00730041
0.00406349
0.00635436
0.00367619
0.00555215
0.00319044
0.00486639
0.00262717
0.00427191
0.00201137
0.00374684
0.00136145
0.00327081
0.000681096
0.00283011
0.00243925
-1.47497e-05
0.0016135
0.0168644
-0.00022412
0.00263911
0.0145025
0.00335992
0.0125308
0.00382577
0.0108832
0.00407688
0.00950565
0.00414706
0.00835191
0.00406399
0.00738264
0.00385407
0.00656437
0.00353859
0.00586641
0.00314219
0.0052637
0.00267479
0.0047392
0.00214123
0.00428057
0.0015306
0.00388233
0.000812979
0.0035463
0.00328552
-3.22087e-05
0.00148556
0.0156001
-0.000221211
0.00241963
0.0135684
0.00307777
0.0118727
0.00350499
0.010456
0.00373915
0.00927159
0.00381215
0.00827899
0.00375205
0.00744292
0.00358339
0.00673296
0.00332504
0.00612508
0.00298354
0.00560481
0.00255983
0.00516306
0.00204633
0.00479365
0.00143872
0.00448996
0.000738751
0.00424609
0.00405591
-3.16301e-05
0.00135711
0.0144525
-0.000209474
0.00220393
0.0127216
0.00280034
0.0112764
0.00318699
0.0100695
0.00339979
0.00905903
0.00346857
0.00821029
0.00341924
0.00749268
0.00326829
0.00688379
0.00302513
0.00636865
0.00269244
0.00593722
0.00227582
0.00557993
0.00178291
0.0052864
0.00122544
0.00504749
0.000617979
0.00485363
0.00469641
-2.25456e-05
0.00123304
0.0134125
-0.000192999
0.00200011
0.0119546
0.00253921
0.0107373
0.00288896
0.00971977
0.00308138
0.00886679
0.00314308
0.0081486
0.00309305
0.00754296
0.00294274
0.00703402
0.00270215
0.00660946
0.00238098
0.00625829
0.00199182
0.00596924
0.00154619
0.00573199
0.00105623
0.00553751
0.00053235
0.00537758
0.00524545
-1.66863e-05
0.00111729
0.01247
-0.000174753
0.00181185
0.01126
0.00229977
0.0102495
0.00261564
0.00940392
0.00278836
0.00869417
0.00283856
0.0080984
0.00278239
0.00759924
0.00263308
0.00718328
0.00240384
0.00683881
0.00210731
0.00655477
0.00175595
0.00632067
0.00135993
0.006128
0.000928382
0.0059691
0.000468532
0.00583746
0.00572789
-1.38944e-05
0.0010099
0.0116149
-0.000154774
0.00163947
0.0106305
0.00208093
0.00980807
0.00236572
0.00911914
0.00251747
0.00854248
0.00255571
0.00806014
0.00249643
0.00765859
0.00235439
0.0073253
0.00214338
0.00704986
0.00187526
0.00682286
0.00156079
0.00663518
0.00120825
0.00648052
0.000824942
0.00635242
0.000416505
0.0062459
0.00615689
-1.24929e-05
0.000912103
0.0108394
-0.000136569
0.00148231
0.0100603
0.00188135
0.00940905
0.00213613
0.00886437
0.00226876
0.00840988
0.00229796
0.00803095
0.00223982
0.00771675
0.00210878
0.00745632
0.00191759
0.00724108
0.00167685
0.00706358
0.00139516
0.00691688
0.00108004
0.00679563
0.000737607
0.00669485
0.000372411
0.0066111
0.00654084
-1.15399e-05
0.000822767
0.0101365
-0.000119921
0.00133871
0.00954433
0.00169827
0.0090495
0.00192578
0.00863687
0.00204248
0.0082932
0.00206579
0.00800763
0.00201157
0.00777098
0.00189287
0.00757501
0.00172068
0.00741328
0.00150441
0.00727984
0.00125198
0.00716932
0.000969491
0.00707811
0.000662105
0.00700224
0.000334278
0.00693892
0.00688577
-1.06536e-05
0.000740292
0.00949997
-0.000103737
0.00120664
0.00907799
0.00153023
0.00872592
0.00173418
0.00843292
0.00183817
0.00818921
0.00185857
0.00798723
0.00180938
0.00782018
0.00170227
0.00768211
0.00154753
0.00756802
0.00135351
0.00747385
0.00112647
0.00739636
0.000872529
0.00733204
0.000596054
0.00727871
0.000300948
0.00723402
0.00719643
-9.72644e-06
0.000663984
0.00892384
-8.78501e-05
0.00108556
0.00865642
0.00137757
0.00843392
0.00156157
0.00824891
0.00165522
0.00809557
0.00167363
0.00796882
0.00162981
0.00786399
0.00153388
0.00777804
0.00139493
0.00770697
0.00121999
0.00764878
0.00101594
0.00760041
0.000786991
0.00756098
0.000537754
0.00752794
0.000271589
0.00750017
0.00747677
-8.75791e-06
0.000594215
0.00840182
-7.22059e-05
0.000975654
0.00827497
0.00124006
0.00816952
0.00140664
0.00808233
0.00149198
0.00801023
0.00150962
0.00795118
0.00147042
0.00790319
0.00138436
0.00786409
0.00125905
0.00783228
0.00110193
0.00780591
0.000917709
0.00778463
0.000711066
0.00776763
0.000485969
0.00775303
0.00024553
0.00774061
0.00773007
-7.77431e-06
0.000531622
0.00792831
-5.81241e-05
0.000877584
0.007929
0.00111714
0.00792995
0.00126899
0.00793047
0.00134716
0.00793206
0.00136357
0.00793476
0.0013286
0.00793816
0.00125124
0.00794145
0.00113861
0.00794491
0.000996826
0.0079477
0.000830409
0.00795105
0.000643605
0.00795444
0.000439832
0.00795681
0.000222344
0.00795809
-6.8415e-06
0.00795926
-0.000667449
0.00175115
-0.00109214
-0.00134472
0.00216593
-0.0014881
-0.00203361
0.00263584
-0.00194802
-0.00270143
0.0031484
-0.00247973
-0.00332269
0.00372834
-0.00310782
-0.00386873
0.00440154
-0.00385464
-0.00431577
0.00519047
-0.00474384
-0.00463251
0.00611913
-0.00580171
-0.00479023
0.0072157
-0.00705813
-0.00475563
0.00851435
-0.00854846
-0.00449349
0.0100576
-0.0103197
-0.00396193
0.0118971
-0.0124283
-0.00311176
0.0140928
-0.0149429
-0.00188396
0.016718
-0.0179457
0.0198592
-0.0215348
-0.000208278
-0.000717531
0.00244972
-0.00139327
0.00284436
-0.00204742
0.00328815
-0.00266297
0.00376635
-0.00322831
0.00429335
-0.0037146
0.00488951
-0.00410112
0.00557719
-0.0043633
0.00638229
-0.00447941
0.00733204
-0.00442313
0.00845851
-0.00416398
0.00979853
-0.00366394
0.0113972
-0.00287846
0.0133073
-0.00175316
0.0155927
0.0183288
-0.000222797
-0.00087263
0.0032884
-0.00158067
0.00355302
-0.00218671
0.00389326
-0.00271601
0.0042959
-0.00318127
0.00475848
-0.00357773
0.005286
-0.00389145
0.00589105
-0.00410045
0.00659126
-0.00418083
0.00741253
-0.00410804
0.00838571
-0.00385369
0.00954424
-0.00338394
0.0109275
-0.00265828
0.0125817
-0.00162667
0.0145611
0.016932
-0.0002299
-0.000799634
0.00405631
-0.00149451
0.00424792
-0.00209562
0.00449428
-0.00260162
0.00480187
-0.00301936
0.00517628
-0.00335667
0.00562325
-0.00361343
0.00614798
-0.00378139
0.00675916
-0.00384061
0.00747191
-0.00376603
0.0083111
-0.00352943
0.0093077
-0.00309894
0.010497
-0.00243664
0.0119194
-0.00149735
0.0136218
0.0156614
-0.000226756
-0.000662652
0.0046966
-0.00126927
0.00485452
-0.0018247
0.00504985
-0.00231423
0.00529139
-0.00272667
0.00558882
-0.00305453
0.00595109
-0.00329431
0.0063879
-0.00344311
0.00690794
-0.00349175
0.0075207
-0.00342208
0.00824144
-0.00320777
0.00909347
-0.00281865
0.0101079
-0.00221888
0.0113196
-0.00136772
0.0127706
0.0145085
-0.00021486
-0.000565748
0.00524579
-0.00108997
0.00537874
-0.00157995
0.00553994
-0.00202498
0.00573643
-0.00241268
0.00597659
-0.00273115
0.00626956
-0.00296862
0.00662545
-0.00311575
0.00705507
-0.00316368
0.00756873
-0.0031005
0.00817828
-0.00290673
0.00889977
-0.00255494
0.00975613
-0.002013
0.0107777
-0.00124206
0.0119997
0.0134633
-0.000196789
-0.000496419
0.00572837
-0.000956695
0.00583901
-0.00138867
0.00597199
-0.00178491
0.00613266
-0.00213599
0.00632772
-0.00243135
0.00656492
-0.00265865
0.00685279
-0.00280523
0.00720165
-0.00285866
0.00762221
-0.00280602
0.00812568
-0.00263137
0.00872517
-0.00231343
0.00943824
-0.00182298
0.0102872
-0.00112501
0.0113017
0.0125163
-0.000177991
-0.000441576
0.00615748
-0.000850321
0.00624775
-0.00123399
0.00635569
-0.00158683
0.00648549
-0.00190133
0.00664225
-0.00216893
0.00683252
-0.00237877
0.00706266
-0.00251885
0.00734174
-0.00257566
0.00767905
-0.00253467
0.00808471
-0.00238037
0.00857091
-0.00209315
0.00915105
-0.00164912
0.00984325
-0.0010164
0.010669
0.0116572
-0.000157305
-0.000395555
0.0065415
-0.000760944
0.00661314
-0.00110362
0.00669838
-0.00141895
0.00680081
-0.00170068
0.00692399
-0.00194111
0.00707294
-0.00213153
0.00725309
-0.00226117
0.00747139
-0.00231733
0.00773522
-0.00228564
0.00805304
-0.00215031
0.00843561
-0.00189279
0.00889356
-0.00149097
0.00944147
-0.000917735
0.0100958
0.0108784
-0.000138913
-0.000355627
0.00688648
-0.000683576
0.00694108
-0.000991105
0.00700591
-0.0012737
0.0070834
-0.00152612
0.00717641
-0.00174214
0.00728896
-0.00191374
0.0074247
-0.00203141
0.00758906
-0.00208412
0.00778794
-0.00205878
0.00802771
-0.00193965
0.0083165
-0.00170942
0.00866335
-0.00134696
0.00907904
-0.000827952
0.00957686
0.0101722
-0.000121685
-0.000320438
0.00719718
-0.000615629
0.00723626
-0.000892181
0.00728246
-0.00114615
0.00733736
-0.00137313
0.00740339
-0.0015669
0.00748273
-0.00172115
0.00757895
-0.00182746
0.00769536
-0.00187552
0.007836
-0.00185358
0.00800578
-0.00174763
0.00821056
-0.00154128
0.00845701
-0.00121493
0.00875269
-0.000745473
0.00910744
0.00953217
-0.000105436
-0.000289148
0.00747757
-0.000555407
0.00750252
-0.000804684
0.00753173
-0.00103359
0.00756627
-0.00123755
0.00760736
-0.00141224
0.00765741
-0.0015507
0.00771741
-0.00164599
0.00779065
-0.00168898
0.00787899
-0.00166949
0.0079863
-0.0015744
0.00811548
-0.00138849
0.00827112
-0.00109406
0.00845827
-0.000669604
0.00868301
0.0089528
-9.02192e-05
-0.000261153
0.00773096
-0.000501762
0.00774313
-0.000726859
0.00775684
-0.000933364
0.00777277
-0.00111755
0.00779154
-0.00127442
0.00781429
-0.00139916
0.00784215
-0.00148467
0.00787616
-0.00152329
0.00791762
-0.00150494
0.00796794
-0.00141866
0.00802921
-0.0012507
0.00810315
-0.000984321
0.0081919
-0.000600457
0.00829916
0.00842815
-7.57987e-05
-0.000236165
0.00796028
-0.000453943
0.00796092
-0.000657707
0.00796061
-0.000844227
0.00795931
-0.00101083
0.00795815
-0.00115249
0.00795595
-0.00126438
0.00795404
-0.00134127
0.00795306
-0.00137561
0.00795195
-0.0013587
0.00795104
-0.00127994
0.00795045
-0.00112733
0.00795054
-0.000886187
0.00795077
-0.000538198
0.00795117
-6.23169e-05
0.00795226
0.000105008
0.00153865
0.00011406
0.00198701
0.000121828
0.00239258
0.000129276
0.00287689
0.000135664
0.00345686
0.000141597
0.00415179
0.000146557
0.00498478
0.000150835
0.0059835
0.000153808
0.00718136
0.000155435
0.00861753
0.000155231
0.0103404
0.000153369
0.0124069
0.000150319
0.0148867
0.000147849
0.0178645
0.0214424
0.000150992
0.0001431
0.00139587
0.000136359
0.00199414
0.000132437
0.0023965
0.000132491
0.00287706
0.000133631
0.00345565
0.000135497
0.0041501
0.000137133
0.00498306
0.00013876
0.00598199
0.000139842
0.00718021
0.000140647
0.00861678
0.000140916
0.0103401
0.000140793
0.012407
0.000140366
0.0148871
0.000140078
0.0178647
0.0214414
0.000141041
0.000161351
0.00123472
0.000161264
0.00199456
0.00015321
0.00240449
0.000148345
0.00288212
0.000144909
0.00345898
0.000142634
0.00415253
0.000140585
0.00498501
0.000139006
0.00598368
0.000137404
0.00718174
0.000136042
0.00861821
0.000134697
0.0103414
0.00013354
0.0124082
0.000132647
0.014888
0.000132322
0.017865
0.0214403
0.000133458
8.84007e-05
0.00114643
0.000118878
0.00196458
0.00012127
0.00240198
0.000119747
0.00288392
0.000118164
0.00346043
0.00011772
0.00415315
0.000117654
0.00498497
0.000118264
0.00598318
0.000119001
0.00718094
0.000120023
0.00861724
0.000121007
0.0103404
0.000121963
0.0124072
0.000122851
0.0148871
0.000123896
0.017864
0.0214384
0.000125736
-2.70857e-05
0.00117359
4.48032e-05
0.00189295
7.00714e-05
0.00237659
7.83535e-05
0.00287577
8.20795e-05
0.00345655
8.54468e-05
0.00414987
8.8895e-05
0.0049814
9.29224e-05
0.00597922
9.70522e-05
0.00717674
0.000101325
0.00861301
0.000105356
0.0103363
0.000109064
0.0124035
0.000112327
0.0148839
0.00011525
0.0178611
0.0214354
0.000118259
-5.83958e-05
0.00123197
1.26482e-05
0.00182193
5.10216e-05
0.00233823
6.71396e-05
0.0028597
7.42771e-05
0.00344942
7.8465e-05
0.00414574
8.19104e-05
0.00497794
8.55354e-05
0.00597566
8.93601e-05
0.0071729
9.34466e-05
0.00860897
9.75304e-05
0.0103322
0.000101515
0.0123996
0.000105254
0.0148801
0.000108775
0.0178576
0.0214319
0.000112362
-2.85253e-05
0.00126047
1.59181e-05
0.00177718
5.28911e-05
0.00230129
7.25537e-05
0.00283985
8.18501e-05
0.00344015
8.60764e-05
0.00414144
8.84502e-05
0.00497557
9.02954e-05
0.00597381
9.22129e-05
0.00717099
9.43994e-05
0.00860682
9.68069e-05
0.0103299
9.94189e-05
0.012397
0.000102142
0.0148775
0.000105003
0.0178548
0.0214288
0.000108124
-1.29716e-06
0.00126174
2.44155e-05
0.00175117
5.48025e-05
0.00227099
7.51852e-05
0.00281931
8.6309e-05
0.00342913
9.14816e-05
0.0041362
9.38723e-05
0.00497326
9.4962e-05
0.00597271
9.57708e-05
0.00717023
9.66391e-05
0.00860598
9.77337e-05
0.0103288
9.90977e-05
0.0123957
0.00010072
0.0148759
0.000102658
0.0178529
0.0214264
0.000105027
1.15663e-05
0.0012501
2.98915e-05
0.00173265
5.43834e-05
0.00224653
7.38475e-05
0.00279974
8.597e-05
0.00341705
9.23658e-05
0.00412974
9.5424e-05
0.00497024
9.66468e-05
0.00597147
9.71727e-05
0.00716973
9.75121e-05
0.00860566
9.79572e-05
0.0103284
9.86094e-05
0.012395
9.95346e-05
0.014875
0.000100775
0.0178517
0.0214247
0.000102511
1.49146e-05
0.00123517
3.21193e-05
0.00171546
5.30758e-05
0.00222555
7.12639e-05
0.00278156
8.37182e-05
0.00340458
9.11293e-05
0.00412232
9.49843e-05
0.00496637
9.67073e-05
0.00596975
9.73389e-05
0.0071691
9.75427e-05
0.00860547
9.7684e-05
0.0103283
9.7946e-05
0.0123948
9.8436e-05
0.0148745
9.92715e-05
0.0178509
0.0214233
0.000100655
1.46648e-05
0.00122049
3.19711e-05
0.00169831
5.10157e-05
0.00220645
6.82134e-05
0.00276446
8.06833e-05
0.00339204
8.88349e-05
0.00411423
9.34201e-05
0.00496173
9.57684e-05
0.00596743
9.67023e-05
0.00716814
9.70135e-05
0.00860518
9.70691e-05
0.0103282
9.71392e-05
0.0123947
9.73723e-05
0.0148743
9.7908e-05
0.0178503
0.0214222
9.8988e-05
1.35624e-05
0.00120699
3.04538e-05
0.00168162
4.83207e-05
0.00218855
6.48927e-05
0.00274804
7.74226e-05
0.00337946
8.60476e-05
0.0041057
9.12294e-05
0.0049565
9.4147e-05
0.00596457
9.54537e-05
0.0071668
9.59671e-05
0.00860469
9.6073e-05
0.0103281
9.60849e-05
0.0123947
9.6191e-05
0.0148742
9.65316e-05
0.01785
0.0214213
9.73859e-05
1.23277e-05
0.00119472
2.82986e-05
0.00166582
4.52589e-05
0.00217155
6.14645e-05
0.00273195
7.41071e-05
0.00336673
8.31043e-05
0.0040968
8.87812e-05
0.00495075
9.21973e-05
0.00596121
9.38794e-05
0.00716508
9.46397e-05
0.00860396
9.48474e-05
0.0103279
9.4871e-05
0.0123947
9.49155e-05
0.0148742
9.5127e-05
0.0178497
0.0214207
9.57418e-05
1.1209e-05
0.00118355
2.61162e-05
0.00165107
4.23202e-05
0.00215532
5.82399e-05
0.00271616
7.10378e-05
0.0033539
8.03382e-05
0.0040876
8.6426e-05
0.00494462
9.02513e-05
0.00595746
9.22697e-05
0.00716302
9.32539e-05
0.008603
9.35787e-05
0.0103275
9.36425e-05
0.0123947
9.36535e-05
0.0148742
9.38236e-05
0.0178496
0.0214201
9.43695e-05
1.0355e-05
0.0011732
2.42217e-05
0.00163726
3.97048e-05
0.00213978
5.52468e-05
0.00270067
6.8101e-05
0.00334095
7.76543e-05
0.0040781
8.40992e-05
0.0049381
8.82916e-05
0.00595331
9.06374e-05
0.00716064
9.18583e-05
0.00860181
9.23174e-05
0.0103271
9.2427e-05
0.0123945
9.2442e-05
0.0148742
9.2525e-05
0.0178494
0.0214196
9.29948e-05
9.67952e-06
0.00116355
2.26655e-05
0.00162433
3.74807e-05
0.00212498
5.25726e-05
0.00268564
6.54975e-05
0.00332802
7.52707e-05
0.00406839
8.20307e-05
0.00493131
8.65063e-05
0.00594888
8.91188e-05
0.007158
9.05228e-05
0.00860043
9.10937e-05
0.0103265
9.125e-05
0.0123944
9.12309e-05
0.0148742
9.12554e-05
0.0178494
0.0214194
9.15263e-05
9.10726e-06
0.00115444
2.12469e-05
0.00161214
3.53299e-05
0.00211086
4.98532e-05
0.00267108
6.2786e-05
0.00331504
7.28115e-05
0.00405836
7.98771e-05
0.0049242
8.46438e-05
0.00594413
8.75341e-05
0.00715508
8.9151e-05
0.00859883
8.98585e-05
0.0103258
9.00715e-05
0.0123942
9.00615e-05
0.0148742
9.00022e-05
0.0178494
0.0214192
9.01274e-05
8.49268e-06
0.00114591
1.98783e-05
0.00160069
3.32638e-05
0.00209749
4.72632e-05
0.00265706
6.02433e-05
0.00330208
7.05212e-05
0.00404808
7.7893e-05
0.00491682
8.29061e-05
0.00593913
8.60384e-05
0.00715193
8.78281e-05
0.00859705
8.86594e-05
0.0103249
8.89392e-05
0.0123939
8.89245e-05
0.0148742
8.88442e-05
0.0178495
0.0214192
8.88796e-05
7.92806e-06
0.00113792
1.85647e-05
0.00158991
3.12545e-05
0.00208477
4.47449e-05
0.00264347
5.76697e-05
0.00328912
6.81666e-05
0.00403753
7.5833e-05
0.00490913
8.11088e-05
0.00593383
8.44989e-05
0.00714851
8.64864e-05
0.00859506
8.74613e-05
0.0103239
8.78108e-05
0.0123936
8.7817e-05
0.0148742
8.76878e-05
0.0178496
0.0214192
8.76277e-05
7.39001e-06
0.0011305
1.74274e-05
0.0015798
2.95102e-05
0.00207271
4.25948e-05
0.00263035
5.54311e-05
0.00327631
6.60772e-05
0.00402685
7.39916e-05
0.00490123
7.94801e-05
0.00592832
8.30768e-05
0.00714491
8.5213e-05
0.00859291
8.63074e-05
0.0103228
8.67203e-05
0.0123931
8.67435e-05
0.0148741
8.66152e-05
0.0178497
0.0214193
8.65636e-05
6.93011e-06
0.00112349
1.63915e-05
0.00157025
2.78805e-05
0.00206117
4.05339e-05
0.00261761
5.31589e-05
0.00326366
6.39008e-05
0.00401604
7.20455e-05
0.00489307
7.77675e-05
0.00592255
8.15912e-05
0.00714107
8.39111e-05
0.00859056
8.51408e-05
0.0103216
8.56351e-05
0.0123926
8.56897e-05
0.0148741
8.55581e-05
0.0178499
0.0214194
8.54379e-05
6.52017e-06
0.00111688
1.55271e-05
0.00156123
2.64846e-05
0.00205018
3.87393e-05
0.00260534
5.11148e-05
0.00325128
6.19137e-05
0.0040052
7.02569e-05
0.00488472
7.61789e-05
0.00591658
8.01889e-05
0.00713704
8.26557e-05
0.00858806
8.40044e-05
0.0103202
8.45742e-05
0.012392
8.46485e-05
0.014874
8.45072e-05
0.01785
0.0214195
8.43256e-05
6.1992e-06
0.00111057
1.47383e-05
0.00155264
2.5175e-05
0.00203967
3.69615e-05
0.00259349
4.90059e-05
0.00323918
5.984e-05
0.00399429
6.839e-05
0.00487614
7.45303e-05
0.00591037
7.87402e-05
0.00713281
8.13795e-05
0.00858538
8.2857e-05
0.0103187
8.35048e-05
0.0123914
8.36187e-05
0.0148739
8.34363e-05
0.0178502
0.0214198
8.31888e-05
5.89724e-06
0.00110459
1.40153e-05
0.0015445
2.39853e-05
0.00202966
3.53156e-05
0.00258213
4.70672e-05
0.00322742
5.79039e-05
0.00398341
6.66484e-05
0.00486739
7.29791e-05
0.00590399
7.73611e-05
0.00712841
8.01402e-05
0.00858256
8.17308e-05
0.0103171
8.24515e-05
0.0123906
8.25929e-05
0.0148737
8.24044e-05
0.0178503
0.0214201
8.20771e-05
5.59619e-06
0.0010989
1.32676e-05
0.00153676
2.27701e-05
0.00202011
3.36358e-05
0.0025712
4.50813e-05
0.00321594
5.58994e-05
0.00397253
6.4817e-05
0.00485845
7.13572e-05
0.00589739
7.59278e-05
0.00712382
7.88699e-05
0.00857958
8.05851e-05
0.0103153
8.13911e-05
0.0123898
8.15775e-05
0.0148735
8.13857e-05
0.0178505
0.0214204
8.1039e-05
5.28477e-06
0.00109353
1.25253e-05
0.00152941
2.16114e-05
0.002011
3.20489e-05
0.00256069
4.32475e-05
0.00320474
5.40027e-05
0.00396171
6.30643e-05
0.00484939
6.97838e-05
0.00589062
7.45287e-05
0.00711906
7.76163e-05
0.00857645
7.94496e-05
0.0103135
8.03361e-05
0.0123889
8.05632e-05
0.0148732
8.03795e-05
0.0178507
0.0214208
7.99729e-05
5.0106e-06
0.00108844
1.18457e-05
0.00152243
2.05284e-05
0.0020023
3.05659e-05
0.00255055
4.14935e-05
0.0031938