/*--------------------------------*- C++ -*----------------------------------*\
| =========                 |                                                 |
| \\      /  F ield         | OpenFOAM: The Open Source CFD Toolbox           |
|  \\    /   O peration     | Version:  2.3.0                                 |
|   \\  /    A nd           | Web:      www.OpenFOAM.org                      |
|    \\/     M anipulation  |                                                 |
\*---------------------------------------------------------------------------*/
FoamFile
{
    version     2.0;
    format      ascii;
    class       volVectorField;
    location    "50";
    object      U;
}
// * * * * * * * * * * * * * * * * * * * * * * * * * * * * * * * * * * * * * //

dimensions      [0 1 -1 0 0 0 0];

internalField   nonuniform List<vector> 
7994
(
(20.0415 0.117004 3.41441e-21)
(20.0342 0.114924 5.07157e-21)
(20.0313 0.12347 -1.69565e-20)
(20.0313 0.132779 8.19839e-21)
(20.0326 0.143015 9.86547e-21)
(20.0344 0.154012 -1.49129e-20)
(20.0358 0.165307 5.10356e-21)
(20.0362 0.176362 0)
(20.0353 0.186735 0)
(20.0327 0.196044 -6.56089e-21)
(20.0284 0.204055 5.98914e-21)
(20.0225 0.210532 -1.01981e-20)
(20.0148 0.215185 9.27807e-21)
(20.0049 0.215175 0)
(19.9936 0.213788 0)
(20.0358 0.118531 0)
(20.0277 0.117315 0)
(20.0218 0.118441 0)
(20.0171 0.120338 7.00234e-21)
(20.013 0.122648 -1.28683e-20)
(20.0091 0.125287 6.50598e-22)
(20.005 0.128179 8.85296e-21)
(20.0007 0.131198 -3.72797e-21)
(19.9962 0.134208 1.61704e-21)
(19.9914 0.137056 -1.0677e-21)
(19.9863 0.139618 3.87411e-22)
(19.9811 0.141784 -1.62209e-21)
(19.9758 0.143477 8.50844e-22)
(19.9704 0.144604 0)
(19.9653 0.145097 4.36725e-36)
(20.0402 0.12077 0)
(20.0299 0.119598 0)
(20.023 0.119557 -5.30325e-21)
(20.0181 0.120208 5.10913e-21)
(20.0145 0.121153 2.78535e-21)
(20.0115 0.122136 -1.18628e-21)
(20.0087 0.12301 -1.19924e-21)
(20.0058 0.123692 -1.32786e-22)
(20.0027 0.124143 0)
(19.9994 0.124344 0)
(19.9959 0.124293 0)
(19.9923 0.123989 0)
(19.9885 0.123436 0)
(19.9847 0.122636 0)
(19.981 0.121594 0)
(20.0438 0.12324 0)
(20.0328 0.120793 2.95643e-21)
(20.0247 0.118948 -2.87891e-21)
(20.0186 0.117778 0)
(20.0139 0.117045 3.25766e-21)
(20.0102 0.116589 -3.0844e-21)
(20.0069 0.116296 1.19445e-21)
(20.0039 0.116083 -1.3307e-21)
(20.001 0.115891 5.62793e-22)
(19.9981 0.115672 -3.49776e-22)
(19.9952 0.115393 0)
(19.9922 0.115026 0)
(19.9892 0.114553 0)
(19.9863 0.113956 -6.04694e-22)
(19.9834 0.113222 5.89736e-22)
(20.0493 0.127432 0)
(20.0382 0.124235 0)
(20.0298 0.121337 -2.37716e-21)
(20.0234 0.119139 3.54486e-22)
(20.0184 0.117425 1.85394e-21)
(20.0144 0.116058 9.43769e-22)
(20.011 0.114936 -9.00271e-22)
(20.0079 0.113987 0)
(20.005 0.113154 0)
(20.0022 0.112393 0)
(19.9994 0.111669 0)
(19.9966 0.11095 0)
(19.9938 0.110214 -1.12933e-21)
(19.991 0.10944 1.10053e-21)
(19.9882 0.108611 -2.73869e-36)
(20.0551 0.133082 0)
(20.0444 0.129324 1.27995e-21)
(20.0358 0.125719 -1.24633e-21)
(20.0289 0.122787 0)
(20.0234 0.120353 0)
(20.0189 0.118319 -1.0287e-21)
(20.0151 0.116603 1.55671e-21)
(20.0117 0.11514 -4.46929e-22)
(20.0086 0.113877 -4.61592e-22)
(20.0055 0.112766 -4.71767e-22)
(20.0026 0.111768 8.06645e-22)
(19.9997 0.110849 0)
(19.9968 0.10998 0)
(19.9939 0.109139 -6.62721e-22)
(19.991 0.10831 6.57176e-22)
(20.0618 0.140481 0)
(20.0512 0.136589 0)
(20.0425 0.13265 0)
(20.0353 0.129304 0)
(20.0295 0.126426 0)
(20.0246 0.123953 0)
(20.0204 0.121826 0)
(20.0166 0.119996 0)
(20.0131 0.118414 0)
(20.0097 0.117036 0)
(20.0065 0.115822 0)
(20.0033 0.114736 0)
(20.0001 0.11375 0)
(19.9969 0.112841 0)
(19.9937 0.111994 0)
(20.0682 0.150037 5.04285e-22)
(20.0579 0.145871 -4.99625e-22)
(20.0492 0.141907 0)
(20.0419 0.138377 0)
(20.0357 0.135272 0)
(20.0304 0.132558 0)
(20.0257 0.130201 4.51056e-22)
(20.0215 0.128167 -4.4348e-22)
(20.0175 0.126415 0)
(20.0138 0.124905 0)
(20.0101 0.123594 -6.96568e-22)
(20.0065 0.122444 6.9219e-22)
(20.0029 0.121421 0)
(19.9994 0.120503 0)
(19.9958 0.119677 1.51558e-36)
(20.0736 0.161027 -3.7695e-22)
(20.0641 0.156649 3.78809e-22)
(20.0556 0.152972 0)
(20.0483 0.149533 0)
(20.0418 0.146445 0)
(20.0362 0.143701 3.34222e-22)
(20.031 0.141295 -4.73286e-22)
(20.0263 0.139214 7.79417e-23)
(20.0218 0.137434 -2.21281e-22)
(20.0176 0.135921 2.83359e-22)
(20.0135 0.13463 7.56651e-22)
(20.0095 0.133516 -7.55626e-22)
(20.0055 0.132538 6.28796e-22)
(20.0015 0.131667 -2.50517e-22)
(19.9975 0.13089 -3.80012e-22)
(20.0783 0.172455 0)
(20.0695 0.168321 0)
(20.0614 0.165167 0)
(20.054 0.162084 -4.72067e-22)
(20.0474 0.159244 4.65778e-22)
(20.0414 0.156665 0)
(20.0359 0.154372 0)
(20.0306 0.152379 1.60944e-22)
(20.0257 0.150685 -1.60457e-22)
(20.0209 0.149266 -5.95536e-22)
(20.0164 0.148085 1.01141e-21)
(20.0119 0.147087 -4.16268e-22)
(20.0076 0.146219 0)
(20.0033 0.14544 3.95468e-22)
(19.9989 0.144732 -3.97472e-22)
(20.082 0.183366 5.97066e-23)
(20.0738 0.179953 -2.31951e-22)
(20.0661 0.177622 1.70655e-22)
(20.0589 0.175148 -2.84808e-22)
(20.0522 0.172769 2.82032e-22)
(20.046 0.170526 -6.25494e-23)
(20.0401 0.16848 6.2271e-23)
(20.0345 0.166683 0)
(20.029 0.165154 0)
(20.0238 0.163884 -3.40465e-22)
(20.0188 0.162849 3.41602e-22)
(20.0139 0.162 0)
(20.0093 0.161273 0)
(20.0047 0.160604 0)
(20.0001 0.159968 0)
(20.0839 0.192267 0)
(20.0767 0.190479 0)
(20.0695 0.189229 6.78564e-23)
(20.0626 0.187626 -1.16774e-22)
(20.0561 0.185917 4.92207e-23)
(20.0498 0.184161 0)
(20.0437 0.18247 0)
(20.0377 0.180967 0)
(20.0319 0.179671 2.79093e-22)
(20.0262 0.178571 -2.80088e-22)
(20.0208 0.177678 -4.86073e-22)
(20.0156 0.176958 4.88739e-22)
(20.0107 0.176353 0)
(20.0059 0.175781 0)
(20.001 0.175198 0)
(20.0842 0.198866 0)
(20.0779 0.198936 0)
(20.0715 0.198877 3.26763e-23)
(20.0651 0.198286 -3.23978e-23)
(20.0588 0.197444 -7.61311e-23)
(20.0527 0.196356 1.96987e-22)
(20.0465 0.195105 -1.21009e-22)
(20.0403 0.19399 2.42495e-22)
(20.0342 0.192977 -2.43217e-22)
(20.0282 0.192074 0)
(20.0224 0.191307 5.24133e-22)
(20.0169 0.190672 -5.27077e-22)
(20.0116 0.190138 3.74467e-22)
(20.0068 0.189609 -3.76969e-22)
(20.0018 0.189024 0)
(20.0827 0.202286 0)
(20.0773 0.20412 0)
(20.0717 0.205386 0)
(20.0659 0.205767 -1.36471e-22)
(20.0603 0.205996 2.88002e-22)
(20.0547 0.205933 -1.4479e-22)
(20.0483 0.205214 0)
(20.042 0.204553 0)
(20.0359 0.203825 0)
(20.0297 0.203136 0)
(20.0236 0.202541 0)
(20.0177 0.201907 3.36851e-22)
(20.0121 0.201429 -3.37443e-22)
(20.0071 0.200947 -1.12365e-22)
(20.002 0.200288 1.15515e-22)
(19.9719 0.183002 0)
(19.9474 0.172364 0)
(19.9263 0.160015 2.30732e-20)
(19.9085 0.15082 -2.53898e-20)
(19.8947 0.141638 2.83669e-20)
(19.8854 0.131936 -3.11008e-20)
(19.8808 0.121643 0)
(19.8808 0.110821 0)
(19.885 0.0996262 -7.37606e-20)
(19.8926 0.0883502 1.51917e-19)
(19.9023 0.0774574 -7.70664e-20)
(19.9127 0.0675569 -3.60437e-20)
(19.9221 0.0592573 7.006e-20)
(19.9289 0.0531827 -1.77859e-20)
(19.9316 0.0489863 -1.51313e-20)
(19.9604 0.144937 -4.37478e-36)
(19.9557 0.143768 0)
(19.9512 0.141217 5.14628e-21)
(19.9469 0.137337 -1.83143e-20)
(19.943 0.132146 2.91774e-20)
(19.9396 0.125722 1.19902e-21)
(19.9371 0.118241 -1.97003e-20)
(19.9354 0.109972 2.33333e-20)
(19.9347 0.101285 -5.09956e-20)
(19.9349 0.0926079 -3.12754e-23)
(19.9358 0.0843842 5.82053e-20)
(19.937 0.0770253 -3.02183e-20)
(19.938 0.0708576 0)
(19.9378 0.066188 0)
(19.9353 0.0625323 0)
(19.9771 0.120346 0)
(19.9732 0.118811 0)
(19.9691 0.116878 0)
(19.9651 0.11454 0)
(19.9613 0.111788 0)
(19.9577 0.108618 0)
(19.9546 0.10505 0)
(19.9519 0.101119 1.8323e-20)
(19.9499 0.0968933 4.88559e-22)
(19.9485 0.0924677 3.46182e-22)
(19.9474 0.0879756 -2.33217e-20)
(19.9464 0.083614 -2.46178e-20)
(19.945 0.0796366 2.55625e-20)
(19.9422 0.0764352 0)
(19.9375 0.0736533 0)
(19.9805 0.112357 8.14812e-22)
(19.9775 0.111303 -8.36831e-22)
(19.9746 0.109987 0)
(19.9716 0.108399 0)
(19.9688 0.106536 0)
(19.9662 0.104398 -6.48672e-21)
(19.9637 0.102004 -7.66749e-21)
(19.9615 0.0993862 3.15437e-20)
(19.9594 0.0965999 -1.71286e-20)
(19.9575 0.093727 1.93586e-20)
(19.9554 0.0908813 -2.04559e-20)
(19.9528 0.0882231 0)
(19.9495 0.0859488 1.13475e-20)
(19.9449 0.0843482 -1.16599e-20)
(19.9386 0.0828278 0)
(19.9855 0.10773 2.7422e-36)
(19.9827 0.10676 2.02479e-21)
(19.9799 0.105661 -2.07884e-21)
(19.9771 0.104439 0)
(19.9743 0.103104 0)
(19.9717 0.10167 0)
(19.9691 0.100163 0)
(19.9666 0.0986143 0)
(19.9641 0.0970702 8.35832e-21)
(19.9614 0.0955888 -8.76707e-21)
(19.9585 0.0942441 -9.62343e-21)
(19.9549 0.0931424 -7.88345e-23)
(19.9505 0.0924085 1.05249e-20)
(19.9448 0.0922789 0)
(19.9379 0.0918108 0)
(19.9881 0.10749 8.99981e-22)
(19.9852 0.106653 -9.09017e-22)
(19.9823 0.105778 0)
(19.9795 0.104876 0)
(19.9766 0.103964 5.73847e-21)
(19.9738 0.103062 4.12918e-22)
(19.971 0.102198 3.86247e-22)
(19.9682 0.101405 3.52278e-22)
(19.9653 0.100718 -1.57489e-20)
(19.9621 0.100184 8.33556e-21)
(19.9586 0.0998558 0)
(19.9544 0.0998033 0)
(19.9493 0.100103 4.9119e-21)
(19.9431 0.100941 -5.04793e-21)
(19.936 0.101332 0)
(19.9905 0.111209 0)
(19.9873 0.110469 0)
(19.9841 0.109763 0)
(19.9809 0.109107 0)
(19.9777 0.108518 0)
(19.9745 0.10802 0)
(19.9713 0.107635 0)
(19.9681 0.107393 0)
(19.9647 0.107323 0)
(19.9611 0.107457 0)
(19.9571 0.107825 0)
(19.9524 0.108463 0)
(19.947 0.109388 0)
(19.9406 0.110689 0)
(19.9333 0.111245 0)
(19.9922 0.118941 -1.51796e-36)
(19.9886 0.11829 0)
(19.9849 0.117718 0)
(19.9813 0.117242 2.70927e-21)
(19.9777 0.116878 -2.72844e-21)
(19.9741 0.116646 0)
(19.9705 0.116565 0)
(19.9668 0.116661 7.23637e-21)
(19.963 0.116957 -7.36481e-21)
(19.959 0.117474 0)
(19.9546 0.118227 0)
(19.9497 0.119225 0)
(19.9441 0.120465 0)
(19.9378 0.12192 2.18226e-21)
(19.9307 0.123057 -2.22796e-21)
(19.9935 0.130209 -5.08285e-22)
(19.9895 0.129625 -6.31235e-22)
(19.9854 0.12914 1.13927e-21)
(19.9813 0.128766 -2.74513e-21)
(19.9773 0.128515 2.75124e-21)
(19.9732 0.128399 3.17372e-21)
(19.9692 0.128439 1.78687e-22)
(19.9651 0.128657 -6.95528e-21)
(19.9609 0.12907 7.31885e-21)
(19.9565 0.129688 -3.77577e-21)
(19.9518 0.130506 0)
(19.9468 0.131509 0)
(19.9412 0.13267 0)
(19.9352 0.133835 -2.02975e-21)
(19.9289 0.135241 2.05856e-21)
(19.9945 0.144104 -5.22553e-22)
(19.9901 0.143566 5.21314e-22)
(19.9856 0.143123 0)
(19.9811 0.142779 -1.38175e-21)
(19.9767 0.142532 4.34515e-21)
(19.9723 0.142391 -2.96507e-21)
(19.9679 0.14238 -3.32488e-21)
(19.9635 0.142524 3.3372e-21)
(19.9589 0.142832 0)
(19.9543 0.143299 0)
(19.9495 0.143895 -3.80904e-21)
(19.9443 0.144584 3.86234e-21)
(19.9389 0.145322 0)
(19.9333 0.1459 0)
(19.9277 0.146966 0)
(19.9953 0.159383 0)
(19.9905 0.158866 0)
(19.9857 0.158422 0)
(19.9809 0.15804 0)
(19.9762 0.157698 1.47581e-21)
(19.9716 0.157405 -1.47214e-21)
(19.9669 0.157201 0)
(19.9622 0.157112 0)
(19.9574 0.157135 -3.50454e-21)
(19.9527 0.157241 3.5219e-21)
(19.9478 0.157374 -3.63507e-21)
(19.9427 0.157486 3.67215e-21)
(19.9376 0.157527 -1.81092e-21)
(19.9324 0.157228 2.70975e-21)
(19.9275 0.157639 -8.84191e-22)
(19.996 0.174644 0)
(19.9909 0.174118 0)
(19.9859 0.173626 0)
(19.9809 0.173129 1.37767e-21)
(19.9761 0.172596 -1.3715e-21)
(19.9712 0.172041 -1.5386e-21)
(19.9663 0.171534 1.53417e-21)
(19.9614 0.171087 0)
(19.9566 0.170677 0)
(19.9518 0.170257 0)
(19.947 0.169727 -1.74089e-21)
(19.9422 0.169041 3.48844e-21)
(19.9374 0.168146 -1.75191e-21)
(19.9329 0.166701 0)
(19.9289 0.165616 0)
(19.9966 0.188469 0)
(19.9913 0.187877 -5.96985e-22)
(19.9861 0.187309 5.94162e-22)
(19.9811 0.186614 -1.37478e-21)
(19.9762 0.185782 1.36821e-21)
(19.9713 0.184848 0)
(19.9662 0.183935 -1.57646e-21)
(19.9613 0.183033 1.57279e-21)
(19.9564 0.182085 -1.65449e-21)
(19.9518 0.181017 3.33119e-21)
(19.9473 0.17965 -1.68064e-21)
(19.9428 0.178036 -1.66489e-21)
(19.9386 0.176099 1.67943e-21)
(19.9349 0.173423 0)
(19.9318 0.170768 0)
(19.9968 0.19962 1.43902e-22)
(19.9915 0.198809 -1.42933e-22)
(19.9864 0.1982 -6.55063e-22)
(19.9813 0.197255 6.29379e-22)
(19.9765 0.196035 0)
(19.9717 0.194564 0)
(19.9666 0.193097 0)
(19.9618 0.191624 0)
(19.9571 0.190081 0)
(19.9528 0.188284 -1.64041e-21)
(19.9487 0.185825 3.33322e-21)
(19.9446 0.183263 -1.6698e-21)
(19.941 0.180315 0)
(19.9383 0.176281 0)
(19.936 0.172389 0)
(20.048 -0.151068 -3.40224e-20)
(20.048 -0.157753 3.81051e-20)
(20.0356 -0.161495 0)
(20.0036 -0.161927 0)
(19.9438 -0.159022 0)
(19.8445 -0.153238 0)
(19.6906 -0.14546 3.60844e-19)
(19.4633 -0.136638 -4.0522e-19)
(19.1452 -0.127926 0)
(18.7166 -0.119446 0)
(18.1523 -0.111036 3.01912e-19)
(17.4252 -0.103432 -3.44535e-19)
(16.4907 -0.0962324 2.12108e-19)
(15.2868 -0.0579141 -4.00094e-19)
(14.0231 -0.0607416 1.77052e-19)
(20.0331 -0.179291 0)
(20.0357 -0.192813 -8.50931e-20)
(20.0301 -0.204362 9.3591e-20)
(20.0122 -0.213858 0)
(19.9761 -0.221123 0)
(19.914 -0.226471 0)
(19.814 -0.229544 0)
(19.661 -0.230383 2.69578e-19)
(19.4396 -0.228543 -3.0053e-19)
(19.1369 -0.224027 3.84626e-19)
(18.7397 -0.218983 2.25197e-20)
(18.201 -0.207318 -6.38426e-19)
(17.3904 -0.192541 4.7369e-19)
(16.1288 -0.164304 -2.99966e-19)
(14.4451 -0.107349 -4.32229e-19)
(20.0102 -0.205497 0)
(20.0115 -0.225523 0)
(20.0066 -0.245814 9.73849e-20)
(19.9929 -0.266008 -1.0582e-19)
(19.9662 -0.285797 -1.45006e-19)
(19.9208 -0.30514 -1.72471e-20)
(19.8498 -0.323198 -1.91932e-20)
(19.7451 -0.340096 2.34612e-19)
(19.5921 -0.356514 0)
(19.3584 -0.379101 0)
(18.995 -0.416737 0)
(18.4642 -0.453692 0)
(17.7769 -0.456197 0)
(17.021 -0.36604 0)
(16.4227 -0.133146 0)
(19.9816 -0.223356 0)
(19.978 -0.246495 -3.22477e-20)
(19.9687 -0.270504 3.48448e-20)
(19.9516 -0.294916 0)
(19.9238 -0.319588 -1.07193e-19)
(19.8821 -0.344651 1.16027e-19)
(19.8195 -0.371259 -1.45962e-19)
(19.7193 -0.404357 3.13989e-19)
(19.5527 -0.44875 -6.86928e-20)
(19.308 -0.496914 -7.49389e-20)
(19.0056 -0.528644 0)
(18.6852 -0.518278 0)
(18.3925 -0.444632 0)
(18.173 -0.297237 -2.46276e-20)
(18.0652 -0.086411 2.382e-20)
(19.9515 -0.232486 0)
(19.9434 -0.25527 0)
(19.9298 -0.278838 2.79076e-20)
(19.9094 -0.302629 1.95713e-21)
(19.8798 -0.327025 1.97374e-21)
(19.8351 -0.354051 -7.71399e-20)
(19.7617 -0.388265 3.87441e-20)
(19.6453 -0.430025 -4.14856e-20)
(19.4904 -0.468413 -5.76822e-21)
(19.3202 -0.485775 3.51777e-20)
(19.1606 -0.468424 0)
(19.0299 -0.410752 0)
(18.9369 -0.314815 -2.41023e-20)
(18.883 -0.189572 2.27763e-20)
(18.8622 -0.0485133 0)
(19.9235 -0.235606 0)
(19.9124 -0.255927 0)
(19.8966 -0.277408 1.89262e-20)
(19.8743 -0.299358 -4.09337e-20)
(19.8412 -0.323458 4.40826e-20)
(19.7887 -0.352431 1.5173e-21)
(19.7101 -0.385111 -4.41907e-20)
(19.6124 -0.411867 2.01115e-20)
(19.5122 -0.420655 -2.44753e-20)
(19.4243 -0.403925 4.73599e-20)
(19.3567 -0.360769 -2.32699e-20)
(19.3111 -0.29512 0)
(19.2849 -0.213253 0)
(19.2732 -0.122148 0)
(19.2702 -0.027846 0)
(19.8992 -0.234397 0)
(19.8862 -0.251676 0)
(19.8688 -0.271077 0)
(19.8441 -0.291801 0)
(19.8069 -0.315176 0)
(19.7543 -0.339561 0)
(19.6916 -0.358114 0)
(19.6295 -0.362667 0)
(19.5771 -0.348866 0)
(19.5386 -0.316896 0)
(19.5146 -0.269969 0)
(19.5027 -0.212506 0)
(19.4994 -0.148791 0)
(19.5007 -0.0823409 0)
(19.5032 -0.01548 0)
(19.8777 -0.22922 0)
(19.8638 -0.244322 2.34786e-21)
(19.8449 -0.262342 -2.38735e-21)
(19.8185 -0.281318 5.37878e-21)
(19.7831 -0.299707 1.06455e-21)
(19.7421 -0.312842 -1.22986e-20)
(19.7024 -0.31536 -1.9505e-21)
(19.6696 -0.304394 -2.05791e-21)
(19.6466 -0.280276 1.36683e-20)
(19.6336 -0.245369 8.61846e-22)
(19.6291 -0.202809 -5.35114e-21)
(19.6308 -0.155632 6.31121e-21)
(19.6358 -0.10627 -9.33718e-21)
(19.6415 -0.0564048 3.16326e-21)
(19.6459 -0.00691687 0)
(19.8583 -0.221624 2.94077e-23)
(19.8442 -0.235418 -2.9974e-23)
(19.8252 -0.251286 0)
(19.8011 -0.265518 0)
(19.7743 -0.275059 0)
(19.7486 -0.276436 -1.54094e-21)
(19.7277 -0.267722 3.56461e-21)
(19.7136 -0.249112 -4.75096e-21)
(19.7068 -0.222291 -7.07794e-22)
(19.7063 -0.189544 3.08059e-21)
(19.7105 -0.153135 0)
(19.7175 -0.114968 0)
(19.7254 -0.0763911 2.17914e-21)
(19.7324 -0.0381969 -1.04692e-21)
(19.7372 -0.000650475 -1.09758e-21)
(19.8416 -0.213023 0)
(19.8282 -0.22436 0)
(19.812 -0.235642 0)
(19.7944 -0.242681 -1.10271e-21)
(19.778 -0.243328 9.99464e-22)
(19.7649 -0.23631 0)
(19.7566 -0.221701 0)
(19.7535 -0.200642 1.2707e-21)
(19.755 -0.174801 -1.1981e-21)
(19.7603 -0.145924 -2.07537e-21)
(19.7681 -0.115537 3.1758e-21)
(19.7769 -0.0848022 -1.14349e-21)
(19.7854 -0.0544674 0)
(19.7925 -0.0248833 6.72291e-22)
(19.7972 0.00397026 -6.71447e-22)
(19.8289 -0.201104 0)
(19.818 -0.20875 0)
(19.8067 -0.214015 0)
(19.7965 -0.214129 -2.15607e-21)
(19.7888 -0.208428 4.04958e-22)
(19.7844 -0.196891 2.46139e-21)
(19.7837 -0.180207 -9.39527e-22)
(19.7864 -0.159548 0)
(19.7921 -0.136263 0)
(19.7999 -0.111613 -3.23724e-22)
(19.8089 -0.0865977 3.14769e-22)
(19.818 -0.0619144 0)
(19.8262 -0.0379845 0)
(19.8328 -0.0149564 0)
(19.8373 0.00732064 0)
(19.8211 -0.186054 0)
(19.814 -0.188243 -1.96527e-21)
(19.8081 -0.1879 3.56586e-21)
(19.8038 -0.183092 -1.61948e-21)
(19.802 -0.173995 0)
(19.8029 -0.160886 0)
(19.8066 -0.144401 -1.62065e-21)
(19.8125 -0.125506 1.54873e-21)
(19.8201 -0.105258 0)
(19.8287 -0.0846148 3.44177e-22)
(19.8378 -0.0642235 -8.66261e-23)
(19.8466 -0.0444215 -1.51913e-22)
(19.8542 -0.0254654 -9.34526e-23)
(19.8601 -0.00749871 4.08309e-23)
(19.8642 0.00967947 -4.08734e-23)
(19.8184 -0.166397 0)
(19.8152 -0.164619 0)
(19.8136 -0.160362 0)
(19.8132 -0.152887 0)
(19.8149 -0.142699 0)
(19.819 -0.129862 -1.56495e-21)
(19.8253 -0.114708 1.49575e-21)
(19.8327 -0.0980482 0)
(19.841 -0.0807124 0)
(19.8496 -0.0636265 0)
(19.8584 -0.0471506 0)
(19.8667 -0.0312233 4.34121e-22)
(19.8736 -0.0160164 -4.31027e-22)
(19.8787 -0.00192843 0)
(19.8824 0.0112464 0)
(19.8191 -0.146738 0)
(19.8191 -0.141414 0)
(19.8205 -0.134611 0)
(19.8222 -0.12648 2.4491e-21)
(19.8256 -0.116886 -4.65985e-21)
(19.8313 -0.105166 2.20068e-21)
(19.8388 -0.0913689 0)
(19.847 -0.0767854 0)
(19.8557 -0.0617283 0)
(19.8639 -0.0478148 0)
(19.8722 -0.0345397 0)
(19.8805 -0.0215482 0)
(19.887 -0.00900067 0)
(19.8914 0.00209791 2.05038e-22)
(19.8947 0.0122006 -2.08436e-22)
(14.0727 0.0724439 1.74823e-19)
(15.3613 0.0702126 -3.94008e-19)
(16.5794 0.107951 2.09777e-19)
(17.5211 0.114469 -3.38634e-19)
(18.2498 0.122064 2.96544e-19)
(18.8124 0.130479 0)
(19.2391 0.138832 0)
(19.5559 0.147468 -3.8956e-19)
(19.7821 0.15589 3.46966e-19)
(19.9354 0.16314 0)
(20.0338 0.168209 0)
(20.0928 0.170282 0)
(20.1236 0.168882 0)
(20.1347 0.163945 3.46861e-20)
(20.1326 0.156253 -3.12627e-20)
(14.5497 0.136056 -4.24961e-19)
(16.2384 0.186442 -2.89936e-19)
(17.4946 0.214356 4.53461e-19)
(18.2948 0.228307 -6.09188e-19)
(18.8301 0.238192 2.31615e-20)
(19.2271 0.242961 3.73465e-19)
(19.5293 0.246119 -2.90108e-19)
(19.75 0.246634 2.60672e-19)
(19.9019 0.244293 0)
(20.0011 0.239612 0)
(20.0626 0.232844 0)
(20.0981 0.224048 0)
(20.1153 0.213154 8.5608e-20)
(20.12 0.20015 -7.78442e-20)
(20.116 0.185403 0)
(16.4508 0.192216 0)
(17.0772 0.415581 0)
(17.8556 0.495779 0)
(18.5567 0.484349 0)
(19.0896 0.44047 0)
(19.4474 0.401382 0)
(19.6758 0.377743 0)
(19.827 0.359357 2.21837e-19)
(19.9318 0.340218 -1.97589e-20)
(20.003 0.319726 -1.76416e-20)
(20.0484 0.298412 -1.35198e-19)
(20.0752 0.276692 -9.63919e-20)
(20.0887 0.254823 8.87322e-20)
(20.0932 0.232898 0)
(20.0912 0.211323 0)
(18.0682 0.146807 2.35424e-20)
(18.1857 0.353779 -2.44882e-20)
(18.4191 0.49463 0)
(18.7301 0.559322 0)
(19.0689 0.559774 0)
(19.3844 0.519722 -7.20107e-20)
(19.6337 0.466534 -6.47987e-20)
(19.7987 0.420374 2.93021e-19)
(19.8975 0.386317 -1.34377e-19)
(19.9602 0.35823 1.04914e-19)
(20.0026 0.331528 -9.69422e-20)
(20.0308 0.305139 0)
(20.0482 0.279148 3.03306e-20)
(20.0574 0.253656 -2.80785e-20)
(20.0606 0.229342 0)
(18.8628 0.096103 0)
(18.8863 0.236494 2.22463e-20)
(18.9466 0.359896 -2.36266e-20)
(19.0507 0.451983 0)
(19.1966 0.503706 0)
(19.3728 0.513448 3.21835e-20)
(19.5571 0.488548 -5.77848e-21)
(19.7202 0.444811 -3.7386e-20)
(19.8385 0.400593 3.40496e-20)
(19.9115 0.365611 -6.68354e-20)
(19.9563 0.337722 1.98904e-21)
(19.9864 0.312128 2.005e-21)
(20.0072 0.287037 2.33764e-20)
(20.021 0.262246 0)
(20.0293 0.238952 0)
(19.2711 0.0667952 0)
(19.2768 0.161241 0)
(19.2929 0.252261 0)
(19.3263 0.333088 0)
(19.3823 0.396181 -2.13017e-20)
(19.4627 0.434846 4.28068e-20)
(19.5643 0.44554 -2.17708e-20)
(19.6766 0.43039 1.66967e-20)
(19.782 0.398592 -3.62382e-20)
(19.8635 0.363243 1.48685e-21)
(19.9165 0.333121 3.44379e-20)
(19.9497 0.308126 -3.1377e-20)
(19.9723 0.285046 1.43747e-20)
(19.9886 0.262342 0)
(20 0.241559 0)
(19.5047 0.0512347 0)
(19.5054 0.118286 0)
(19.5083 0.184927 0)
(19.5174 0.248395 0)
(19.537 0.304715 0)
(19.5706 0.349104 0)
(19.6199 0.376995 0)
(19.6836 0.385484 0)
(19.7553 0.375323 0)
(19.8245 0.352187 0)
(19.88 0.32498 0)
(19.918 0.300113 0)
(19.9431 0.278244 0)
(19.9609 0.257631 0)
(19.9741 0.239329 0)
(19.6477 0.0422965 0)
(19.6471 0.0918716 3.03403e-21)
(19.6457 0.141811 -8.80707e-21)
(19.6458 0.190985 5.90111e-21)
(19.6504 0.237411 -4.62623e-21)
(19.6624 0.278279 1.01302e-21)
(19.684 0.310298 1.04275e-20)
(19.7164 0.330288 -2.29721e-21)
(19.7583 0.336237 -2.10978e-21)
(19.8057 0.328596 -5.05904e-21)
(19.8519 0.311193 1.03737e-21)
(19.89 0.289955 9.45094e-22)
(19.9176 0.269219 -1.82147e-22)
(19.937 0.249799 1.78648e-22)
(19.9509 0.232644 0)
(19.7392 0.0365825 -1.06738e-21)
(19.7384 0.0741175 -9.55554e-22)
(19.7357 0.112227 2.05462e-21)
(19.7327 0.150501 0)
(19.7311 0.187956 0)
(19.7332 0.222982 2.24705e-21)
(19.7408 0.253457 -8.42005e-22)
(19.7554 0.276978 -2.44028e-21)
(19.7774 0.291342 8.11814e-22)
(19.8057 0.295235 3.84092e-23)
(19.8376 0.289098 0)
(19.8688 0.275576 0)
(19.8953 0.258508 0)
(19.9156 0.240742 1.01507e-21)
(19.9305 0.224654 -1.01061e-21)
(19.7993 0.0325033 -6.42293e-22)
(19.7986 0.0612785 6.42626e-22)
(19.7959 0.0906591 0)
(19.7919 0.120566 -9.00592e-22)
(19.7881 0.150529 2.30508e-21)
(19.7858 0.179634 -1.43143e-21)
(19.7866 0.206544 -2.79273e-22)
(19.7916 0.229612 2.96433e-22)
(19.8016 0.247096 0)
(19.8167 0.257477 0)
(19.8359 0.259952 2.59759e-21)
(19.8574 0.254936 -2.87095e-21)
(19.8787 0.24417 0)
(19.8974 0.230071 0)
(19.9126 0.216193 0)
(19.8393 0.0292904 0)
(19.839 0.0514663 0)
(19.8366 0.0742253 0)
(19.8327 0.0976279 0)
(19.8282 0.121466 2.34777e-23)
(19.8241 0.145214 -2.4147e-23)
(19.8217 0.168036 0)
(19.8218 0.188866 0)
(19.8251 0.206476 -2.00566e-21)
(19.832 0.219589 4.8012e-21)
(19.8422 0.227176 4.38827e-22)
(19.8551 0.228771 -3.61908e-21)
(19.8695 0.224667 0)
(19.8841 0.215884 0)
(19.8977 0.205415 0)
(19.8663 0.026569 -5.36223e-23)
(19.8663 0.0436869 5.35297e-23)
(19.8644 0.0613885 -1.77038e-22)
(19.8608 0.0797243 -2.90586e-22)
(19.8563 0.0986149 -1.36544e-22)
(19.8517 0.117754 6.26875e-22)
(19.8479 0.13658 0)
(19.8457 0.154496 2.36415e-21)
(19.8454 0.170733 -2.47641e-21)
(19.8475 0.184273 0)
(19.852 0.194195 0)
(19.8587 0.199871 -2.20778e-21)
(19.8671 0.201008 4.86267e-21)
(19.8767 0.197681 -2.68319e-21)
(19.887 0.191669 0)
(19.8845 0.0241632 0)
(19.885 0.0374251 0)
(19.8835 0.0513453 -5.12981e-22)
(19.8803 0.0657871 5.16807e-22)
(19.8761 0.0807762 0)
(19.8714 0.0961462 0)
(19.867 0.11132 0)
(19.8639 0.126205 0)
(19.862 0.140489 1.82535e-21)
(19.8614 0.153223 -1.91202e-21)
(19.8624 0.163662 0)
(19.8652 0.171322 0)
(19.8693 0.175836 0)
(19.8746 0.176778 0)
(19.8816 0.175108 0)
(19.8969 0.0221662 -2.08562e-22)
(19.8979 0.032542 2.01126e-22)
(19.8969 0.043737 0)
(19.894 0.0552351 0)
(19.8902 0.0672534 0)
(19.8853 0.0800643 0)
(19.8808 0.09217 0)
(19.8776 0.104158 0)
(19.8751 0.116405 0)
(19.873 0.127702 2.43361e-21)
(19.8721 0.137608 -5.10436e-21)
(19.8725 0.145689 2.6983e-21)
(19.8739 0.152066 0)
(19.8761 0.155831 0)
(19.88 0.157948 0)
(19.417 0.111728 0)
(19.8961 0.0789325 0)
(19.9862 0.0902217 0)
(20.0301 0.095391 0)
(20.0532 0.100647 0)
(20.0649 0.105192 0)
(20.0696 0.109244 0)
(20.0696 0.112653 0)
(20.0664 0.115287 0)
(20.0612 0.116865 0)
(20.0551 0.117187 0)
(20.0493 0.116164 0)
(20.0453 0.114043 0)
(20.0454 0.110901 0)
(20.0523 0.111469 0)
(17.6789 -0.314879 0)
(19.9281 0.220291 0)
(19.9502 0.110336 0)
(19.9771 0.0978586 0)
(20.0023 0.0989172 0)
(20.0216 0.101079 0)
(20.0353 0.102636 0)
(20.0443 0.103914 0)
(20.0495 0.104984 0)
(20.0516 0.105728 0)
(20.0513 0.106109 0)
(20.0495 0.106072 0)
(20.0476 0.105758 0)
(20.0475 0.105132 0)
(20.0518 0.105226 0)
(15.7632 -0.167881 -1.83651e-37)
(19.947 0.242751 0)
(19.999 0.10887 0)
(19.9942 0.108819 0)
(20.0078 0.109744 0)
(20.0222 0.108394 0)
(20.0338 0.106669 0)
(20.0419 0.105282 0)
(20.0469 0.1041 0)
(20.0493 0.102982 0)
(20.0495 0.101917 0)
(20.0485 0.100891 0)
(20.0471 0.100042 0)
(20.0469 0.0995335 0)
(20.0497 0.0995728 0)
(13.8509 -0.072087 0)
(19.9415 0.172632 0)
(20.0799 0.0725849 0)
(20.043 0.0892308 0)
(20.0368 0.090426 0)
(20.0409 0.0895967 0)
(20.0466 0.0890642 0)
(20.051 0.089214 0)
(20.0533 0.0896965 0)
(20.0535 0.090326 0)
(20.0522 0.0910122 0)
(20.0499 0.091639 0)
(20.0477 0.0921964 0)
(20.0467 0.0928162 0)
(20.0484 0.0935462 0)
(13.6858 0.0163715 0)
(19.3764 0.0362447 0)
(19.9767 0.0301705 0)
(20.0335 0.0583971 0)
(20.0361 0.0618635 0)
(20.0378 0.063719 0)
(20.0415 0.0659793 0)
(20.0452 0.068821 0)
(20.0478 0.0719202 0)
(20.0489 0.0750965 0)
(20.0484 0.078207 0)
(20.047 0.0810702 0)
(20.0454 0.0835839 0)
(20.0448 0.0857757 0)
(20.0463 0.0876018 0)
(14.5268 0.0560861 0)
(18.5204 -0.0436567 0)
(19.6663 0.0246754 0)
(19.9383 0.0492059 0)
(19.9991 0.0541311 0)
(20.0155 0.0573257 0)
(20.0233 0.0601186 0)
(20.0291 0.0629033 0)
(20.0338 0.0658199 0)
(20.0371 0.0688952 0)
(20.039 0.0720535 0)
(20.0398 0.075136 0)
(20.0401 0.0780244 0)
(20.0407 0.0806816 0)
(20.043 0.0830325 0)
(15.0638 0.0307171 9.44435e-36)
(17.9393 -0.0346335 0)
(19.3267 0.0338972 0)
(19.8023 0.0503051 0)
(19.9472 0.0581849 0)
(19.9927 0.0626672 0)
(20.0095 0.065141 0)
(20.018 0.0667576 0)
(20.0239 0.0682497 0)
(20.0283 0.0698972 0)
(20.0314 0.0717535 0)
(20.0335 0.0737498 0)
(20.0349 0.0758193 0)
(20.0366 0.0779205 0)
(20.0395 0.0800494 0)
(15.1977 0.00693862 0)
(17.6186 -0.00565042 0)
(19.045 0.0355662 0)
(19.6577 0.049824 0)
(19.8874 0.0610333 0)
(19.9702 0.0667557 0)
(20.0009 0.0693392 0)
(20.0138 0.0704615 0)
(20.0206 0.0711367 0)
(20.025 0.0718138 0)
(20.028 0.0726633 0)
(20.0302 0.0737085 0)
(20.0318 0.0749381 0)
(20.0337 0.0763264 0)
(20.0367 0.0779486 0)
(15.0957 0.00139404 -1.92423e-35)
(17.4202 0.0118505 0)
(18.8222 0.0338536 0)
(19.5172 0.0489662 0)
(19.8198 0.0613122 0)
(19.9422 0.067681 0)
(19.9908 0.0707191 0)
(20.0105 0.0719781 0)
(20.0194 0.0724638 0)
(20.024 0.0727326 0)
(20.0269 0.0730584 0)
(20.0288 0.0735463 0)
(20.0303 0.0742324 0)
(20.032 0.0751028 0)
(20.0348 0.0763576 0)
(14.919 0.00294863 -2.01656e-35)
(17.2482 0.0179898 0)
(18.637 0.0329052 0)
(19.3859 0.0481258 0)
(19.7477 0.0600622 0)
(19.9081 0.06684 0)
(19.9767 0.0705282 0)
(20.0055 0.0722413 0)
(20.0178 0.0728807 0)
(20.0234 0.0730584 0)
(20.0264 0.0731333 0)
(20.0281 0.0732884 0)
(20.0294 0.0736141 0)
(20.0309 0.0741329 0)
(20.0334 0.0751128 0)
(14.7373 0.00451275 0)
(17.0762 0.0187787 0)
(18.4723 0.0321201 0)
(19.2645 0.046507 0)
(19.6753 0.0577858 0)
(19.8704 0.0649734 0)
(19.9595 0.0693229 0)
(19.9988 0.0715923 0)
(20.0156 0.0725724 0)
(20.0229 0.0728731 0)
(20.0263 0.0729041 0)
(20.0279 0.0729013 0)
(20.029 0.0730068 0)
(20.0302 0.073279 0)
(20.0323 0.0740207 0)
(14.5682 0.00499644 2.24805e-35)
(16.906 0.0177083 0)
(18.3194 0.0306478 0)
(19.1492 0.0440987 0)
(19.6031 0.0550154 0)
(19.8305 0.0626315 0)
(19.9399 0.0675061 0)
(19.9903 0.0702831 0)
(20.0127 0.0716485 0)
(20.0223 0.0721722 0)
(20.0263 0.0722855 0)
(20.0281 0.072256 0)
(20.029 0.0722622 0)
(20.0299 0.0723887 0)
(20.0315 0.07296 0)
(14.4143 0.00484322 0)
(16.7431 0.0161363 0)
(18.1747 0.028608 0)
(19.0368 0.041387 0)
(19.5302 0.052255 0)
(19.7887 0.0602569 0)
(19.918 0.0655144 0)
(19.9801 0.0687041 0)
(20.0087 0.0704164 0)
(20.0211 0.0711725 0)
(20.0263 0.0714074 0)
(20.0282 0.0714075 0)
(20.029 0.0713781 0)
(20.0297 0.0714186 0)
(20.0309 0.0718512 0)
(14.2744 0.00446313 4.76841e-35)
(16.5904 0.0146349 0)
(18.0364 0.0265115 0)
(18.9262 0.0388148 0)
(19.4563 0.0497423 0)
(19.7451 0.0580239 0)
(19.8941 0.0635597 0)
(19.9683 0.0670822 0)
(20.0035 0.0690966 0)
(20.0193 0.0700743 0)
(20.0258 0.0704425 0)
(20.0283 0.0704957 0)
(20.0291 0.0704603 0)
(20.0295 0.0704608 0)
(20.0304 0.0708138 0)
(14.146 0.0040345 -4.84807e-35)
(16.4479 0.0133893 0)
(17.9041 0.0246273 0)
(18.8174 0.0365026 0)
(19.3816 0.0474264 0)
(19.7 0.0558746 0)
(19.8687 0.0616413 0)
(19.955 0.065455 0)
(19.9973 0.0677498 0)
(20.0168 0.0689501 0)
(20.0251 0.0694637 0)
(20.0282 0.0695806 0)
(20.0291 0.06955 0)
(20.0294 0.0695128 0)
(20.0299 0.0697897 0)
(14.0264 0.00361909 0)
(16.3145 0.0123708 0)
(17.7776 0.0229734 0)
(18.7112 0.0343929 0)
(19.3067 0.0452388 0)
(19.6537 0.0537855 0)
(19.8419 0.059785 0)
(19.9407 0.0638609 0)
(19.9903 0.0664089 0)
(20.0138 0.0678184 0)
(20.024 0.0684752 0)
(20.0279 0.0686633 0)
(20.0291 0.0686383 0)
(20.0292 0.0685587 0)
(20.0295 0.0687615 0)
(13.9138 0.00324039 0)
(16.189 0.0114584 0)
(17.657 0.0214214 0)
(18.6084 0.0323235 0)
(19.2317 0.0430161 0)
(19.6061 0.0516468 0)
(19.814 0.0579206 0)
(19.9253 0.0622424 0)
(19.9825 0.0650299 0)
(20.0103 0.0666447 0)
(20.0227 0.0674511 0)
(20.0276 0.0677224 0)
(20.029 0.0677234 0)
(20.0292 0.0676129 0)
(20.0292 0.0677381 0)
(13.8079 0.00289919 5.01567e-35)
(16.0707 0.0105928 0)
(17.5425 0.0199643 0)
(18.5091 0.0303558 0)
(19.1565 0.040866 0)
(19.5571 0.0496159 0)
(19.7849 0.0561699 0)
(19.9089 0.0606998 0)
(19.974 0.0636854 0)
(20.0064 0.065473 0)
(20.0212 0.0664114 0)
(20.0272 0.0667691 0)
(20.029 0.0668114 0)
(20.0292 0.0666997 0)
(20.0291 0.0668106 0)
(13.7087 0.00262854 -5.04767e-35)
(15.9595 0.00983251 0)
(17.4338 0.0186705 0)
(18.4132 0.0285869 0)
(19.0813 0.0388737 0)
(19.5067 0.0477283 0)
(19.7545 0.0545112 0)
(19.8917 0.0592118 0)
(19.9649 0.0623661 0)
(20.002 0.0643039 0)
(20.0195 0.0653625 0)
(20.0267 0.0658054 0)
(20.0291 0.0658969 0)
(20.0293 0.0657915 0)
(20.0292 0.0658898 0)
(13.6161 0.00245271 0)
(15.855 0.0092625 0)
(17.3304 0.0176587 0)
(18.3203 0.0271756 0)
(19.0066 0.0372333 0)
(19.4553 0.0461419 0)
(19.7231 0.0530731 0)
(19.8735 0.0578975 0)
(19.9551 0.0611716 0)
(19.9972 0.0632136 0)
(20.0175 0.0643583 0)
(20.0261 0.0648684 0)