/*--------------------------------*- C++ -*----------------------------------*\
| =========                 |                                                 |
| \\      /  F ield         | OpenFOAM: The Open Source CFD Toolbox           |
|  \\    /   O peration     | Version:  2.3.0                                 |
|   \\  /    A nd           | Web:      www.OpenFOAM.org                      |
|    \\/     M anipulation  |                                                 |
\*---------------------------------------------------------------------------*/
FoamFile
{
    version     2.0;
    format      ascii;
    class       surfaceScalarField;
    location    "50";
    object      phi;
}
// * * * * * * * * * * * * * * * * * * * * * * * * * * * * * * * * * * * * * //

dimensions      [0 3 -1 0 0 0 0];

internalField   nonuniform List<scalar> 
15867
(
-0.00181305
-0.0197722
0.0214405
0.000167145
-0.00303702
-0.0166362
0.0178601
-0.00389484
-0.0140248
0.0148827
-0.00444889
-0.0118504
0.0124044
-0.00474996
-0.0100387
0.0103399
-0.00483914
-0.00852967
0.00861886
-0.00475126
-0.00727212
0.00718424
-0.00451477
-0.00622404
0.00598755
-0.0041538
-0.00535072
0.00498972
-0.00368836
-0.00462289
0.00415745
-0.00313552
-0.00401612
0.00346321
-0.00250896
-0.00351046
0.00288394
-0.00182029
-0.00308896
0.00240022
-0.00107797
-0.00273762
0.00199535
-0.00244479
-0.000276135
0.00164292
-0.0016517
-0.0182704
0.000149775
-0.0027554
-0.0155325
-0.00352621
-0.013254
-0.00401965
-0.0113569
-0.0042817
-0.00977663
-0.00435115
-0.0084602
-0.00426018
-0.00736309
-0.00403506
-0.00644913
-0.00369855
-0.00568724
-0.00326884
-0.00505258
-0.00276146
-0.00452351
-0.00218925
-0.00408265
-0.00156295
-0.00371526
-0.000891446
-0.0034091
-0.00315401
-0.00018224
-0.00150427
-0.0169045
0.000138316
-0.00250659
-0.0145302
-0.00320596
-0.0125546
-0.0036533
-0.0109096
-0.00389003
-0.00953989
-0.0039512
-0.00839902
-0.00386612
-0.00744816
-0.00365916
-0.00665608
-0.00335016
-0.00599624
-0.00295675
-0.00544597
-0.00249259
-0.00498768
-0.00196958
-0.00460564
-0.00139759
-0.00428726
-0.000784784
-0.00402189
-0.00380073
-0.000138068
-0.00136944
-0.015664
0.00012898
-0.00227879
-0.0136209
-0.00291272
-0.0119207
-0.00331724
-0.0105051
-0.00353076
-0.00932636
-0.00358525
-0.00834452
-0.00350687
-0.00752654
-0.00331775
-0.00684518
-0.00303671
-0.00627728
-0.00267849
-0.00580417
-0.00225655
-0.00540962
-0.00178117
-0.005081
-0.00126138
-0.00480705
-0.000704564
-0.0045787
-0.00438837
-0.000116921
-0.00124908
-0.0145368
0.000121854
-0.00207476
-0.0127952
-0.00265034
-0.0113451
-0.00301706
-0.0101383
-0.0032104
-0.00913303
-0.00325894
-0.00829598
-0.00318687
-0.00759861
-0.00301436
-0.0070177
-0.00275817
-0.00653347
-0.00243231
-0.00613003
-0.00204799
-0.00579393
-0.00161552
-0.00551347
-0.00114267
-0.00527991
-0.000636237
-0.00508513
-0.00492279
-0.000101821
-0.00114023
-0.0135126
0.000115941
-0.00189071
-0.0120447
-0.00241316
-0.0108227
-0.00274627
-0.00980524
-0.00292115
-0.00895815
-0.00296465
-0.00825248
-0.00289858
-0.00766469
-0.00274131
-0.00717497
-0.00250803
-0.00676675
-0.00221132
-0.00642674
-0.00186199
-0.00614327
-0.00146857
-0.00590689
-0.00103856
-0.00570992
-0.000578052
-0.00554564
-0.00540865
-9.21965e-05
-0.00104269
-0.0125813
0.000111408
-0.00172498
-0.0113624
-0.00219988
-0.0103478
-0.00250212
-0.00950301
-0.00266105
-0.00879922
-0.00270016
-0.00821337
-0.00263968
-0.00772518
-0.00249641
-0.00731824
-0.00228395
-0.00697921
-0.00201388
-0.0066968
-0.00169601
-0.00646115
-0.00133816
-0.00626474
-0.000947081
-0.006101
-0.000528343
-0.00596438
-0.00585042
-8.65731e-05
-0.000954809
-0.0117343
0.000107769
-0.00157526
-0.010742
-0.0020068
-0.00991624
-0.00228176
-0.00922806
-0.00242574
-0.00865525
-0.00246124
-0.00817788
-0.00240611
-0.00778031
-0.00227559
-0.00744877
-0.00208227
-0.00717253
-0.00183657
-0.00694251
-0.00154747
-0.00675025
-0.00122201
-0.0065902
-0.000866397
-0.00645661
-0.000485668
-0.00634511
-0.00625204
-8.40419e-05
-0.000875187
-0.0109634
0.000104307
-0.00143939
-0.0101778
-0.00183215
-0.00952348
-0.00208202
-0.00897819
-0.00221301
-0.00852426
-0.00224524
-0.00814565
-0.00219501
-0.00783055
-0.00207615
-0.00756763
-0.00190029
-0.00734839
-0.00167705
-0.00716576
-0.001414
-0.0070133
-0.00111806
-0.00688615
-0.000794839
-0.00677983
-0.000448695
-0.00669125
-0.00661717
-8.3571e-05
-0.000802577
-0.0102621
0.000101257
-0.00131597
-0.0096644
-0.00167345
-0.00916601
-0.00190073
-0.00875092
-0.00202004
-0.00840496
-0.00204911
-0.00811658
-0.00200346
-0.00787621
-0.00189555
-0.00767554
-0.00173561
-0.00750832
-0.00153248
-0.0073689
-0.00129355
-0.00725223
-0.00102461
-0.0071551
-0.000730603
-0.00707384
-0.000415949
-0.00700591
-0.00694908
-8.40367e-05
-0.000735703
-0.00962388
9.74747e-05
-0.00120313
-0.00919698
-0.00152838
-0.00884076
-0.00173535
-0.00854395
-0.00184404
-0.00829627
-0.00187082
-0.0080898
-0.0018294
-0.00791762
-0.00173108
-0.00777387
-0.0015857
-0.0076537
-0.0014013
-0.00755329
-0.0011839
-0.00746963
-0.000939475
-0.00739952
-0.000672294
-0.00734102
-0.000386255
-0.00729195
-0.0072508
-8.45346e-05
-0.000673658
-0.00904293
9.26976e-05
-0.00109937
-0.00877126
-0.00139563
-0.0085445
-0.00158433
-0.00835526
-0.00168325
-0.00819736
-0.00170756
-0.0080655
-0.00167021
-0.00795497
-0.00158111
-0.00786297
-0.00144911
-0.00778571
-0.00128104
-0.00772136
-0.00108375
-0.00766693
-0.000861427
-0.00762185
-0.000618594
-0.00758385
-0.000358584
-0.00755196
-0.00752509
-8.42864e-05
-0.000615972
-0.00851414
8.71695e-05
-0.00100347
-0.00838377
-0.0012735
-0.00827448
-0.00144533
-0.00818343
-0.00153569
-0.00810699
-0.00155835
-0.00804284
-0.00152429
-0.00798902
-0.00144344
-0.00794383
-0.00132321
-0.00790594
-0.00117087
-0.00787371
-0.000991268
-0.00784653
-0.000789217
-0.00782389
-0.000568521
-0.00780455
-0.000332152
-0.00778833
-0.00777444
-8.28077e-05
-0.000561863
8.04427e-05
-0.00803272
-0.000914882
-0.00803075
-0.00116054
-0.00802882
-0.00131745
-0.00802653
-0.00140016
-0.00802429
-0.00142079
-0.00802222
-0.00139
-0.00801981
-0.0013166
-0.00801723
-0.00120776
-0.00801479
-0.00106915
-0.00801232
-0.000905824
-0.00800985
-0.000722206
-0.00800751
-0.00052149
-0.00800526
-0.000306585
-0.00800323
-7.98934e-05
-0.00800113
0.000535948
-0.00244339
0.00163136
0.00128866
-0.00273297
0.00198024
0.00198888
-0.00308067
0.0023805
0.00262889
-0.00349812
0.00285809
0.00319829
-0.00399931
0.00342993
0.00368382
-0.00460123
0.00411568
0.00406901
-0.00532392
0.00493874
0.00433368
-0.00619189
0.00592721
0.0044531
-0.00723449
0.00711507
0.00439739
-0.0084864
0.0085421
0.00412967
-0.00998939
0.0102571
0.00360679
-0.011794
0.0123169
0.00277611
-0.0139591
0.0147898
0.00157561
-0.0165566
0.0177571
-0.019671
0.0213143
-6.76188e-05
0.00052771
-0.00315332
0.00120158
-0.00340685
0.00183206
-0.00371114
0.00241023
-0.0040763
0.00292551
-0.00451456
0.00336486
-0.00504059
0.00371268
-0.00567172
0.00395035
-0.00642955
0.00405472
-0.00733885
0.00399891
-0.00843059
0.00375023
-0.0097407
0.00326939
-0.0113132
0.00251001
-0.0131998
0.00141633
-0.0154629
-0.0181764
-7.82887e-05
0.00050872
-0.00380009
0.00112173
-0.00401987
0.00169424
-0.00428363
0.00221813
-0.0046002
0.00268373
-0.00498016
0.00307921
-0.00543607
0.00339111
-0.00598361
0.00360185
-0.00664029
0.00369166
-0.00742866
0.0036361
-0.00837503
0.00340564
-0.00951024
0.00296488
-0.0108724
0.00227197
-0.0125068
0.0012757
-0.0144666
-0.0168168
-8.38782e-05
0.000470742
-0.00438775
0.0010276
-0.00457673
0.00154757
-0.00480359
0.00202325
-0.00507588
0.00244574
-0.00540264
0.00280474
-0.00579507
0.00308689
-0.00626576
0.0032774
-0.0068308
0.00335746
-0.00750872
0.00330484
-0.0083224
0.00309326
-0.00929866
0.00269062
-0.0104698
0.00205846
-0.0118747
0.00115107
-0.0135592
-0.0155796
-8.6119e-05
0.000432533
-0.0049221
0.00093877
-0.00508297
0.00141134
-0.00527616
0.00184344
-0.00550798
0.00222735
-0.00578654
0.00255276
-0.00612049
0.00280848
-0.00652147
0.0029805
-0.00700282
0.00305204
-0.00758025
0.00300287
-0.00827324
0.0028088
-0.00910459
0.00244123
-0.0101022
0.00186479
-0.0112982
0.0010387
-0.0127331
-0.0144535
-8.73595e-05
0.000393537
-0.00540783
0.000853681
-0.00554311
0.00128309
-0.00570557
0.00167569
-0.00590059
0.00202401
-0.00613485
0.00231948
-0.00641596
0.00255133
-0.00675331
0.00270696
-0.00715844
0.00277117
-0.00764447
0.00272559
-0.00822766
0.00254844
-0.00892743
0.00221297
-0.00976673
0.00168831
-0.0107736
0.000936276
-0.0119811
-0.0134293
-8.79554e-05
0.000355024
-0.00584943
0.000773252
-0.00596134
0.0011635
-0.00609582
0.00152019
-0.00625728
0.00183659
-0.00645125
0.00210489
-0.00668426
0.00231528
-0.00696371
0.0024562
-0.00729935
0.00251404
-0.00770231
0.00247206
-0.00818567
0.00231011
-0.00876547
0.00200488
-0.0094615
0.00152737
-0.010296
0.000843454
-0.0112972
-0.0124981
-8.77127e-05
0.000317384
-0.00625085
0.000697525
-0.00634148
0.00105217
-0.00645046
0.0013763
-0.00658141
0.00166371
-0.00673867
0.00190739
-0.00692793
0.00209833
-0.00715465
0.00222618
-0.00742719
0.00227835
-0.00775448
0.00223969
-0.00814702
0.00209249
-0.00861827
0.00181447
-0.00918347
0.00138042
-0.009862
0.000758672
-0.0106754
-0.0116519
-8.75448e-05
0.000281347
-0.00661577
0.000626889
-0.00668702
0.00094912
-0.00677269
0.00124371
-0.006876
0.00150505
-0.007
0.00172624
-0.00714912
0.00189971
-0.00732812
0.00201589
-0.00754337
0.00206321
-0.0078018
0.00202793
-0.00811174
0.00189395
-0.00848429
0.00164141
-0.00893093
0.00124671
-0.00946728
0.000681925
-0.0101106
-0.0108829
-8.70739e-05
0.00024768
-0.00694749
0.000561767
-0.00700111
0.000854852
-0.00706577
0.00112254
-0.00714369
0.00135988
-0.00723735
0.00156111
-0.00735034
0.00171883
-0.00748584
0.00182429
-0.00764882
0.00186732
-0.00784482
0.0018356
-0.00808002
0.00171384
-0.00836253
0.00148458
-0.00870166
0.001126
-0.00910871
0.000612984
-0.00959761
-0.0101842
-8.57153e-05
0.000217012
-0.00724904
0.000502545
-0.00728664
0.000768922
-0.00733215
0.00101225
-0.00738701
0.00122828
-0.00745337
0.00141102
-0.00753308
0.00155448
-0.0076293
0.0016507
-0.00774504
0.00168994
-0.00788406
0.00166109
-0.00805116
0.00155065
-0.0082521
0.00134259
-0.00849359
0.00101724
-0.00878336
0.000551249
-0.00913162
-0.00954969
-8.32245e-05
0.000189859
-0.00752318
0.00044944
-0.00754622
0.000691607
-0.00757432
0.000913019
-0.00760843
0.00110917
-0.00764952
0.00127587
-0.00769977
0.00140631
-0.00775975
0.00149376
-0.00783248
0.00152947
-0.00791977
0.00150373
-0.00802543
0.00140388
-0.00815225
0.00121506
-0.00830477
0.000919795
-0.0084881
0.000496688
-0.00870851
-0.00897371
-7.9285e-05
0.000166413
-0.0077724
0.00040242
-0.00778223
0.00062259
-0.00779449
0.00082392
-0.00780975
0.00100264
-0.00782824
0.00115392
-0.00785105
0.00127297
-0.00787879
0.00135267
-0.00791218
0.00138567
-0.00795278
0.00136227
-0.00800204
0.0012718
-0.00806178
0.0011008
-0.00813377
0.000832749
-0.00822005
0.000448833
-0.00832458
-0.00845061
-7.42505e-05
0.000146742
-0.00799903
0.000361337
-0.00799682
0.00056168
-0.00799483
0.000744738
-0.00799281
0.000907463
-0.00799096
0.00104536
-0.00798895
0.00115343
-0.00798686
0.00122621
-0.00798496
0.0012565
-0.00798307
0.00123586
-0.0079814
0.00115397
-0.0079799
0.000998661
-0.00797845
0.000755674
-0.00797704
0.000407083
-0.00797597
-6.7963e-05
-0.00797554
0.00186917
0.0197779
-0.0214451
-0.000201878
0.00309046
0.0166484
-0.0178694
0.00393537
0.0140334
-0.0148783
0.00446326
0.0118463
-0.0123737
0.00472274
0.0100142
-0.0102737
0.00475586
0.00847717
-0.0085097
0.00459747
0.00718368
-0.00702541
0.00428073
0.00609128
-0.00577405
0.00383486
0.00516613
-0.00472047
0.00328986
0.00438007
-0.00383486
0.00267108
0.0037094
-0.00309105
0.00200491
0.00313162
-0.00246569
0.00132018
0.00262075
-0.00193657
0.000645467
0.00215314
-0.00147926
0.00174159
-1.02145e-05
-0.00108634
0.0017385
0.0182551
-0.00021572
0.00285772
0.0155294
0.00363808
0.0132529
0.00413447
0.0113503
0.0043903
0.00975799
0.004445
0.00842327
0.00432665
0.00730113
0.00406413
0.00635491
0.00367665
0.00555251
0.00319101
0.00486658
0.00262745
0.00427194
0.00201174
0.00374671
0.00136145
0.00327056
0.00068112
0.00282984
0.00243896
-1.53098e-05
0.0016135
0.0168657
-0.000223961
0.0026393
0.0145037
0.00336028
0.0125319
0.00382634
0.0108842
0.0040776
0.00950651
0.00414803
0.00835265
0.00406503
0.00738325
0.00385541
0.00656485
0.00353985
0.0058667
0.00314379
0.00526379
0.00267623
0.00473908
0.00214288
0.00428028
0.00153212
0.00388195
0.000814574
0.00354591
0.00328515
-3.06558e-05
0.00148563
0.0156012
-0.00022108
0.00241989
0.0135695
0.00307821
0.0118736
0.0035056
0.0104569
0.00373991
0.00927232
0.00381304
0.00827962
0.00375303
0.00744346
0.00358448
0.00673336
0.00332621
0.0061253
0.00298482
0.00560484
0.00256112
0.00516294
0.00204766
0.00479342
0.00143993
0.00448969
0.000739943
0.00424582
0.00405567
-3.05801e-05
0.00135721
0.0144534
-0.000209408
0.0022042
0.0127225
0.00280076
0.0112772
0.00318754
0.0100702
0.00340043
0.00905966
0.0034693
0.00821084
0.00342005
0.00749312
0.00326923
0.00688408
0.00302615
0.00636879
0.00269351
0.00593724
0.00227686
0.00557985
0.00178391
0.00528629
0.00122632
0.00504736
0.000618801
0.0048535
0.00469629
-2.18438e-05
0.00123315
0.0134133
-0.000192964
0.00200036
0.0119553
0.00253957
0.010738
0.00288941
0.00972038
0.0030819
0.00886733
0.00314371
0.00814904
0.00309378
0.00754327
0.00294357
0.00703421
0.00270303
0.00660955
0.00238187
0.0062583
0.00199266
0.00596921
0.00154699
0.00573195
0.00105696
0.00553746
0.000533032
0.00537753
0.00524541
-1.60789e-05
0.00111737
0.0124706
-0.00017473
0.00181204
0.0112606
0.00230004
0.0102501
0.002616
0.00940444
0.00278881
0.0086946
0.00283911
0.00809873
0.00278302
0.00759946
0.00263377
0.00718341
0.00240452
0.00683888
0.00210798
0.0065548
0.00175658
0.00632068
0.00136053
0.00612799
0.000928926
0.00596909
0.000469046
0.00583746
0.00572789
-1.34279e-05
0.00100994
0.0116154
-0.000154733
0.0016396
0.010631
0.00208114
0.00980856
0.00236603
0.00911956
0.00251786
0.00854281
0.00255618
0.00806039
0.00249693
0.00765876
0.00235491
0.00732541
0.00214388
0.00704994
0.00187575
0.00682291
0.00156123
0.00663522
0.00120866
0.00648055
0.00082532
0.00635244
0.00041686
0.00624593
0.00615691
-1.21692e-05
0.000912124
0.0108398
-0.000136521
0.00148241
0.0100607
0.00188154
0.00940945
0.0021364
0.0088647
0.00226909
0.00841014
0.00229832
0.00803115
0.0022402
0.0077169
0.00210915
0.00745643
0.00191794
0.00724117
0.00167718
0.00706365
0.00139546
0.00691694
0.00108032
0.00679568
0.000737857
0.0066949
0.000372645
0.00661114
0.00654088
-1.13273e-05
0.000822776
0.0101369
-0.000119874
0.00133879
0.0095447
0.00169842
0.00904982
0.00192599
0.00863714
0.00204272
0.00829342
0.00206605
0.00800781
0.00201183
0.00777113
0.00189312
0.00757513
0.00172091
0.00741338
0.00150462
0.00727992
0.00125217
0.00716939
0.000969667
0.00707817
0.000662264
0.0070023
0.000334425
0.00693897
0.00688581
-1.05209e-05
0.000740292
0.00950028
-0.000103689
0.0012067
0.00907829
0.00153033
0.00872619
0.00173432
0.00843314
0.00183833
0.00818941
0.00185873
0.0079874
0.00180954
0.00782032
0.00170243
0.00768223
0.00154768
0.00756813
0.00135364
0.00747395
0.00112659
0.00739644
0.000872635
0.00733212
0.000596148
0.00727877
0.000301033
0.00723408
0.00719649
-9.65011e-06
0.000663967
0.0089241
-8.78031e-05
0.00108558
0.00865666
0.00137762
0.00843414
0.00156165
0.00824911
0.00165531
0.00809574
0.00167372
0.00796898
0.00162991
0.00786413
0.00153397
0.00777816
0.00139502
0.00770708
0.00122007
0.00764888
0.00101601
0.00760049
0.000787049
0.00756106
0.000537803
0.00752801
0.000271632
0.00750024
0.00747683
-8.7205e-06
0.000594181
0.00840205
-7.21497e-05
0.000975646
0.00827518
0.00124007
0.00816972
0.00140667
0.00808251
0.00149202
0.00801039
0.00150967
0.00795133
0.00147047
0.00790332
0.00138441
0.00786421
0.00125909
0.00783239
0.00110196
0.00780601
0.000917742
0.00778472
0.000711091
0.00776771
0.000485987
0.00775311
0.000245544
0.00774067
0.00773013
-7.76257e-06
0.000531582
0.00792851
-5.80688e-05
0.000877559
0.0079292
0.00111713
0.00793013
0.001269
0.00793064
0.00134717
0.00793221
0.00136359
0.0079349
0.00132862
0.00793829
0.00125125
0.00794158
0.00113863
0.00794503
0.000996837
0.00794781
0.000830422
0.00795114
0.000643607
0.00795453
0.000439828
0.00795689
0.00022234
0.00795816
-6.84578e-06
0.00795931
-0.000669846
0.00175089
-0.00109229
-0.00134715
0.0021656
-0.00148817
-0.00203544
0.00263554
-0.00194807
-0.00270332
0.00314812
-0.00247977
-0.00332411
0.00372807
-0.00310786
-0.00387012
0.00440128
-0.00385468
-0.00431675
0.00519022
-0.00474387
-0.00463339
0.00611889
-0.00580172
-0.0047908
0.00721547
-0.00705812
-0.00475611
0.00851413
-0.00854842
-0.00449375
0.0100574
-0.0103196
-0.00396217
0.0118969
-0.0124282
-0.00311191
0.0140926
-0.0149427
-0.00188413
0.0167178
-0.0179455
0.019859
-0.0215347
-0.000208451
-0.000717849
0.00244918
-0.00139391
0.00284382
-0.00204776
0.00328769
-0.00266349
0.00376593
-0.00322855
0.00429296
-0.00371491
0.00488914
-0.00410121
0.00557684
-0.0043634
0.00638198
-0.00447937
0.00733176
-0.00442307
0.00845828
-0.00416387
0.00979834
-0.00366384
0.011397
-0.00287838
0.0133072
-0.00175312
0.0155926
0.0183287
-0.000222809
-0.00087121
0.00328804
-0.00157947
0.00355273
-0.00218558
0.00389304
-0.00271503
0.00429575
-0.00318033
0.00475835
-0.00357693
0.00528588
-0.0038907
0.00589092
-0.00409984
0.00659113
-0.00418026
0.00741242
-0.00410757
0.00838561
-0.00385329
0.00954416
-0.00338361
0.0109274
-0.00265803
0.0125816
-0.00162648
0.0145611
0.016932
-0.00022977
-0.000798635
0.00405609
-0.00149365
0.00424774
-0.00209475
0.00449415
-0.00260081
0.00480178
-0.00301855
0.00517623
-0.00335596
0.00562323
-0.00361275
0.00614797
-0.00378081
0.00675915
-0.00384007
0.00747189
-0.00376556
0.00831109
-0.00352901
0.0093077
-0.00309858
0.010497
-0.00243634
0.0119194
-0.0014971
0.0136218
0.0156615
-0.000226547
-0.000661992
0.00469649
-0.0012687
0.00485443
-0.00182415
0.00504977
-0.00231372
0.00529133
-0.00272615
0.00558879
-0.00305403
0.00595108
-0.00329381
0.00638791
-0.00344264
0.00690797
-0.00349132
0.00752073
-0.00342169
0.00824148
-0.00320741
0.00909351
-0.00281832
0.0101079
-0.00221858
0.0113197
-0.00136745
0.0127707
0.0145086
-0.000214634
-0.000565176
0.00524575
-0.00108947
0.0053787
-0.00157948
0.00553992
-0.00202457
0.00573641
-0.00241229
0.00597659
-0.00273078
0.00626957
-0.00296826
0.00662547
-0.0031154
0.00705511
-0.00316335
0.00756878
-0.00310019
0.00817834
-0.00290644
0.00889983
-0.00255467
0.0097562
-0.00201275
0.0107778
-0.00124182
0.0119998
0.0134634
-0.000196575
-0.000495978
0.00572838
-0.000956298
0.00583902
-0.0013883
0.00597199
-0.00178458
0.00613267
-0.00213568
0.00632774
-0.00243107
0.00656495
-0.00265839
0.00685283
-0.00280498
0.0072017
-0.00285841
0.00762227
-0.00280579
0.00812575
-0.00263115
0.00872524
-0.00231322
0.00943832
-0.00182277
0.0102873
-0.00112479
0.0113018
0.0125164
-0.000177731
-0.00044127
0.00615751
-0.000850042
0.00624777
-0.00123373
0.00635572
-0.00158659
0.00648553
-0.00190111
0.00664229
-0.00216872
0.00683256
-0.00237858
0.0070627
-0.00251867
0.0073418
-0.00257549
0.00767911
-0.0025345
0.00808478
-0.00238022
0.00857099
-0.002093
0.00915113
-0.00164898
0.00984333
-0.00101627
0.0106691
0.0116573
-0.00015718
-0.000395354
0.00654154
-0.00076076
0.00661317
-0.00110344
0.00669841
-0.00141878
0.00680085
-0.00170052
0.00692403
-0.00194097
0.00707299
-0.0021314
0.00725314
-0.00226105
0.00747145
-0.00231721
0.00773528
-0.00228554
0.00805311
-0.00215021
0.00843568
-0.0018927
0.00889363
-0.00149089
0.00944155
-0.000917665
0.0100959
0.0108785
-0.000138852
-0.000355503
0.00688652
-0.000683461
0.00694112
-0.000990996
0.00700595
-0.0012736
0.00708345
-0.00152602
0.00717646
-0.00174205
0.00728901
-0.00191366
0.00742475
-0.00203133
0.00758911
-0.00208404
0.007788
-0.00205871
0.00802777
-0.00193959
0.00831657
-0.00170937
0.00866342
-0.00134691
0.00907911
-0.00082791
0.00957694
0.0101723
-0.000121648
-0.000320367
0.00719723
-0.000615564
0.00723631
-0.000892121
0.0072825
-0.00114609
0.00733741
-0.00137307
0.00740343
-0.00156685
0.00748278
-0.0017211
0.00757899
-0.00182741
0.00769541
-0.00187546
0.00783605
-0.00185353
0.00800584
-0.00174758
0.00821063
-0.00154124
0.00845709
-0.00121489
0.00875277
-0.000745441
0.00910752
0.00953223
-0.000105402
-0.000289114
0.00747762
-0.000555377
0.00750257
-0.000804657
0.00753177
-0.00103356
0.00756631
-0.00123753
0.0076074
-0.00141222
0.00765746
-0.00155068
0.00771745
-0.00164596
0.00779069
-0.00168894
0.00787903
-0.00166945
0.00798634
-0.00157437
0.00811555
-0.00138846
0.00827119
-0.00109403
0.00845834
-0.00066958
0.00868308
0.00895285
-9.01947e-05
-0.000261143
0.007731
-0.000501755
0.00774317
-0.000726855
0.00775688
-0.000933363
0.00777281
-0.00111755
0.00779158
-0.00127443
0.00781432
-0.00139916
0.00784219
-0.00148466
0.00787618
-0.00152327
0.00791763
-0.00150491
0.00796798
-0.00141863
0.00802927
-0.00125068
0.00810323
-0.000984301
0.00819197
-0.000600438
0.00829922
0.00842821
-7.57823e-05
-0.000236168
0.00796032
-0.00045395
0.00796096
-0.000657717
0.00796065
-0.000844241
0.00795934
-0.00101084
0.00795819
-0.00115251
0.00795599
-0.0012644
0.00795407
-0.00134129
0.00795308
-0.0013756
0.00795193
-0.00135867
0.00795105
-0.00127991
0.00795051
-0.00112731
0.00795062
-0.000886171
0.00795084
-0.000538181
0.00795123
-6.22921e-05
0.00795231
0.000104805
0.0015386
0.000113693
0.00198687
0.000121533
0.00239246
0.000128916
0.00287678
0.000135398
0.00345674
0.000141341
0.00415164
0.00014642
0.00498459
0.000150809
0.00598326
0.000153955
0.00718106
0.000155785
0.00861712
0.000155824
0.0103398
0.000154236
0.0124061
0.000151439
0.0148856
0.000148811
0.0178627
0.0214396
0.000149778
0.000142961
0.00139593
0.000135973
0.00199396
0.000132194
0.00239632
0.000132145
0.00287689
0.000133422
0.00345546
0.000135249
0.00414989
0.000137002
0.00498282
0.000138651
0.0059817
0.000139834
0.00717984
0.000140707
0.00861633
0.000141058
0.0103395
0.000140986
0.0124062
0.000140541
0.014886
0.000140104
0.0178632
0.0214391
0.000140627
0.000161221
0.00123493
0.000161036
0.00199438
0.000153108
0.00240429
0.000148207
0.00288193
0.000144893
0.00345879
0.000142585
0.00415231
0.00014062
0.00498476
0.000139024
0.00598339
0.000137467
0.00718138
0.000136106
0.00861776
0.00013478
0.0103408
0.000133622
0.0124074
0.0001327
0.014887
0.000132289
0.0178636
0.0214383
0.000133095
8.84556e-05
0.00114666
0.000118914
0.00196438
0.000121359
0.00240175
0.000119819
0.00288371
0.000118263
0.00346022
0.000117802
0.00415292
0.000117765
0.0049847
0.000118366
0.00598287
0.000119126
0.00718057
0.000120152
0.00861679
0.000121141
0.0103398
0.000122087
0.0124065
0.000122945
0.0148862
0.0001239
0.0178627
0.0214367
0.000125508
-2.69163e-05
0.00117375
4.50763e-05
0.00189281
7.03317e-05
0.00237641
7.86793e-05
0.0028756
8.23958e-05
0.00345638
8.57876e-05
0.00414968
8.92159e-05
0.00498117
9.32329e-05
0.00597895
9.73336e-05
0.00717641
0.000101587
0.0086126
0.000105593
0.0103358
0.000109272
0.0124028
0.000112491
0.014883
0.000115332
0.0178599
0.0214338
0.000118196
-5.81764e-05
0.00123203
1.30072e-05
0.00182184
5.13221e-05
0.0023381
6.75267e-05
0.00285956
7.45967e-05
0.00344927
7.88417e-05
0.00414557
8.22361e-05
0.00497773
8.58866e-05
0.0059754
8.96824e-05
0.00717259
9.37735e-05
0.00860858
9.78366e-05
0.0103318
0.000101801
0.0123989
0.000105498
0.0148793
0.000108942
0.0178565
0.0214304
0.000112408
-2.83942e-05
0.00126049
1.62535e-05
0.00177714
5.31735e-05
0.00230121
7.29708e-05
0.00283975
8.22059e-05
0.00344003
8.65193e-05
0.00414129
8.88413e-05
0.00497539
9.07276e-05
0.00597358
9.26101e-05
0.0071707
9.48028e-05
0.00860646
9.71908e-05
0.0103294
9.97837e-05
0.0123964
0.000102474
0.0148767
0.000105259
0.0178537
0.0214275
0.000108266
-1.20872e-06
0.00126173
2.46848e-05
0.00175113
5.50278e-05
0.00227093
7.55328e-05
0.00281922
8.6593e-05
0.00342901
9.18606e-05
0.00413605
9.4207e-05
0.00497308
9.53604e-05
0.00597249
9.61498e-05
0.00716994
9.70497e-05
0.00860563
9.81408e-05
0.0103283
9.95038e-05
0.0123951
0.000101117
0.0148751
0.000102999
0.0178519
0.0214251
0.000105323
1.16493e-05
0.0012501
3.01203e-05
0.00173262
5.46071e-05
0.00224647
7.41669e-05
0.00279966
8.62661e-05
0.00341694
9.27342e-05
0.00412961
9.57667e-05
0.00497007
9.70436e-05
0.00597125
9.75596e-05
0.00716945
9.79266e-05
0.00860531
9.83745e-05
0.0103279
9.90356e-05
0.0123945
9.99573e-05
0.0148742
0.000101182
0.0178507
0.0214234
0.000102887
1.50049e-05
0.00123516
3.22972e-05
0.00171543
5.32798e-05
0.00222549
7.15262e-05
0.00278148
8.39774e-05
0.00340448
9.14415e-05
0.00412219
9.52962e-05
0.0049662
9.70672e-05
0.00596953
9.77049e-05
0.00716882
9.79414e-05
0.00860512
9.80932e-05
0.0103278
9.83658e-05
0.0123942
9.88702e-05
0.0148738
9.96856e-05
0.0178499
0.0214221
0.000101068
1.4763e-05
0.00122049
3.21159e-05
0.00169828
5.12189e-05
0.0022064
6.84442e-05
0.00276439
8.09548e-05
0.00339195
8.91319e-05
0.00411411
9.37377e-05
0.00496158
9.61161e-05
0.00596722
9.70632e-05
0.00716787
9.73968e-05
0.00860484
9.74628e-05
0.0103278
9.75477e-05
0.0123942
9.77908e-05
0.0148736
9.83211e-05
0.0178494
0.021421
9.94159e-05
1.36411e-05
0.00120698
3.05283e-05
0.00168159
4.84606e-05
0.00218849
6.50307e-05
0.00274796
7.76119e-05
0.00337935
8.62529e-05
0.00410557
9.14797e-05
0.00495633
9.44281e-05
0.00596436
9.57669e-05
0.00716653
9.63124e-05
0.00860435
9.6437e-05
0.0103277
9.64699e-05
0.0123942
9.65863e-05
0.0148735
9.69286e-05
0.017849
0.0214202
9.77737e-05
1.24062e-05
0.00119472
2.83691e-05
0.00166579
4.54093e-05
0.00217149
6.16141e-05
0.00273187
7.43315e-05
0.00336663
8.33352e-05
0.00409667
8.90623e-05
0.00495059
9.24974e-05
0.00596101
9.42094e-05
0.00716482
9.49926e-05
0.00860362
9.52185e-05
0.0103275
9.52641e-05
0.0123942
9.53132e-05
0.0148735
9.55285e-05
0.0178489
0.0214196
9.61205e-05
1.13116e-05
0.00118354
2.62196e-05
0.00165103
4.24956e-05
0.00215526
5.8416e-05
0.00271608
7.127e-05
0.00335379
8.05815e-05
0.00408747
8.6715e-05
0.00494445
9.05645e-05
0.00595725
9.26173e-05
0.00716276
9.36309e-05
0.00860267
9.39802e-05
0.0103271
9.40635e-05
0.0123941
9.40915e-05
0.0148735
9.42476e-05
0.0178487
0.0214191
9.4788e-05
1.04551e-05
0.00117321
2.4378e-05
0.00163724
3.99338e-05
0.00213973
5.55161e-05
0.0027006
6.8429e-05
0.00334086
7.80069e-05
0.00407798
8.44866e-05
0.00493795
8.86989e-05
0.00595312
9.1064e-05
0.00716039
9.23033e-05
0.0086015
9.27774e-05
0.0103267
9.29018e-05
0.012394
9.2921e-05
0.0148735
9.30065e-05
0.0178486
0.0214187
9.34387e-05
9.79522e-06
0.00116355
2.28638e-05
0.00162431
3.77297e-05
0.00212492
5.28787e-05
0.00268557
6.58324e-05
0.00332793
7.56495e-05
0.00406827
8.24319e-05
0.00493116
8.69443e-05
0.00594869
8.95777e-05
0.00715776
9.10116e-05
0.00860013
9.16012e-05
0.0103261
9.17729e-05
0.0123939
9.17637e-05
0.0148736
9.17773e-05
0.0178487
0.0214184
9.20068e-05
9.22024e-06
0.00115444
2.14854e-05
0.00161212
3.5617e-05
0.00211082
5.0233e-05
0.00267102
6.31941e-05
0.00331496
7.32808e-05
0.00405826
8.03588e-05
0.00492407
8.51653e-05
0.00594396
8.8065e-05
0.00715485
8.9707e-05
0.00859855
9.0428e-05
0.0103254
9.06556e-05
0.0123937
9.06531e-05
0.0148736
9.05945e-05
0.0178487
0.0214184
9.06748e-05
8.62508e-06
0.0011459
2.01402e-05
0.00160068
3.35644e-05
0.00209745
4.76594e-05
0.002657
6.06512e-05
0.003302
7.10022e-05
0.00404798
7.83806e-05
0.00491669
8.34482e-05
0.00593896
8.65932e-05
0.00715171
8.84208e-05
0.00859677
8.92735e-05
0.0103246
8.95755e-05
0.0123935
8.95865e-05
0.0148736
8.95202e-05
0.0178488
0.0214183
8.95533e-05
8.0505e-06
0.00113791
1.88295e-05
0.0015899
3.156e-05
0.00208474
4.51568e-05
0.00264342
5.80977e-05
0.00328905
6.8675e-05
0.00403744
7.63468e-05
0.00490901
8.16818e-05
0.00593367
8.50819e-05
0.0071483
8.71105e-05
0.00859479
8.81105e-05
0.0103236
8.84949e-05
0.0123931
8.85408e-05
0.0148736
8.84692e-05
0.0178489
0.0214183
8.84698e-05
7.50936e-06
0.00113047
1.76677e-05
0.0015798
2.9791e-05
0.00207267
4.29682e-05
0.00263029
5.58183e-05
0.00327625
6.65445e-05
0.00402676
7.44683e-05
0.00490111
8.00229e-05
0.00592816
8.36362e-05
0.0071447
8.58245e-05
0.00859263
8.69519e-05
0.0103225
8.74077e-05
0.0123927
8.74809e-05
0.0148736
8.73857e-05
0.017849
0.0214183
8.73393e-05
7.04097e-06
0.00112346
1.66095e-05
0.00157025
2.81409e-05
0.00206114
4.08772e-05
0.00261756
5.35232e-05
0.00326359
6.4337e-05
0.00401595
7.24916e-05
0.00489295
7.82764e-05
0.00592239
8.2119e-05
0.00714086
8.44881e-05
0.00859028
8.5752e-05
0.0103212
8.62897e-05
0.0123922
8.63809e-05
0.0148735
8.62647e-05
0.0178491
0.0214185
8.61278e-05
6.6288e-06
0.00111685
1.573e-05
0.00156122
2.67295e-05
0.00205015
3.90555e-05
0.00260528
5.1449e-05
0.00325121
6.23117e-05
0.00400511
7.06678e-05
0.0048846
7.66459e-05
0.00591642
8.0675e-05
0.00713683
8.31891e-05
0.00858778
8.45706e-05
0.0103198
8.517e-05
0.0123916
8.52816e-05
0.0148734
8.51295e-05
0.0178493
0.0214187
8.49229e-05
6.29571e-06
0.00111053
1.49305e-05
0.00155263
2.54063e-05
0.00203964
3.72612e-05
0.00259344
4.93263e-05
0.00323911
6.02165e-05
0.00399421
6.87771e-05
0.00487602
7.49676e-05
0.00591021
7.91957e-05
0.0071326
8.18733e-05
0.00858511
8.33772e-05
0.0103183
8.40538e-05
0.0123909
8.41925e-05
0.0148733
8.40206e-05
0.0178495
0.021419
8.37559e-05
5.98238e-06
0.00110455
1.41924e-05
0.00154449
2.41951e-05
0.00202963
3.55905e-05
0.00258208
4.7355e-05
0.00322735
5.82468e-05
0.00398332
6.70058e-05
0.00486727
7.33832e-05
0.00590383
7.7783e-05
0.0071282
8.06001e-05
0.00858229
8.22148e-05
0.0103167
8.2961e-05
0.0123902
8.31294e-05
0.0148731
8.2944e-05
0.0178497
0.0214193
8.25996e-05
5.67485e-06
0.00109886
1.34425e-05
0.00153674
2.29755e-05
0.00202007
3.39104e-05
0.00257115
4.53726e-05
0.00321587
5.62437e-05
0.00397244
6.51683e-05
0.00485833
7.17523e-05
0.00589724
7.63349e-05
0.00712362
7.93105e-05
0.00857931
8.10454e-05
0.010315
8.18739e-05
0.0123894
8.20811e-05
0.0148729
8.18978e-05
0.0178498
0.0214197
8.1528e-05
5.37017e-06
0.00109349
1.27062e-05
0.0015294
2.18193e-05
0.00201097
3.23234e-05
0.00256064
4.35292e-05
0.00320468
5.43374e-05
0.00396163
6.3404e-05
0.00484928
7.01661e-05
0.00589047
7.49205e-05
0.00711887
7.80392e-05
0.0085762
7.98854e-05
0.0103132
8.07882e-05
0.0123885
8.1028e-05
0.0148727
8.08372e-05
0.01785
0.0214201
8.04056e-05
5.08731e-06
0.00108841
1.20216e-05
0.00152242
2.07304e-05
0.00200227
3.08378e-05
0.00255051
4.17753e-05
0.00319375