/*--------------------------------*- C++ -*----------------------------------*\
| =========                 |                                                 |
| \\      /  F ield         | OpenFOAM: The Open Source CFD Toolbox           |
|  \\    /   O peration     | Version:  2.3.0                                 |
|   \\  /    A nd           | Web:      www.OpenFOAM.org                      |
|    \\/     M anipulation  |                                                 |
\*---------------------------------------------------------------------------*/
FoamFile
{
    version     2.0;
    format      ascii;
    class       volVectorField;
    location    "1000";
    object      U;
}
// * * * * * * * * * * * * * * * * * * * * * * * * * * * * * * * * * * * * * //

dimensions      [0 1 -1 0 0 0 0];

internalField   nonuniform List<vector> 
14467
(
(22.0823 1.09224 -8.85111e-23)
(22.1655 1.23952 -1.92023e-20)
(22.254 1.36726 5.52394e-20)
(22.3465 1.50856 -3.58329e-20)
(22.4432 1.66266 0)
(22.5448 1.8326 0)
(22.6525 2.02168 0)
(22.7679 2.23361 -1.02181e-20)
(22.8926 2.47226 2.75222e-19)
(23.0277 2.74135 1.42655e-20)
(23.1736 3.04405 -6.30335e-19)
(23.3288 3.38298 3.31829e-19)
(23.4892 3.75982 0)
(23.6473 4.1752 -4.10869e-19)
(23.7912 4.62888 4.05936e-19)
(23.9034 5.11925 0)
(23.9596 5.64413 1.41262e-20)
(23.9282 6.2 -2.8929e-21)
(23.7686 6.78175 0)
(23.4305 7.37886 0)
(22.8544 7.9821 0)
(21.9789 8.60576 -1.28382e-21)
(20.7338 9.27672 1.12832e-19)
(19.0162 9.79727 -1.12606e-19)
(21.9522 1.19023 1.80778e-20)
(22.0078 1.32169 -5.47995e-21)
(22.0653 1.44444 -1.84127e-21)
(22.1216 1.57614 1.74392e-20)
(22.1756 1.71599 -1.74307e-20)
(22.2261 1.86474 1.56232e-21)
(22.2718 2.0233 1.31734e-21)
(22.311 2.19299 -1.35386e-19)
(22.3423 2.37553 2.88435e-19)
(22.3639 2.57312 -1.61716e-19)
(22.374 2.78819 0)
(22.3705 3.02327 0)
(22.3511 3.28056 2.50356e-19)
(22.313 3.56158 -1.26837e-19)
(22.2527 3.86665 -1.29716e-19)
(22.1658 4.19424 1.57369e-21)
(22.0476 4.54056 1.06869e-19)
(21.8921 4.89852 -1.09634e-19)
(21.693 5.25709 -4.99444e-20)
(21.4445 5.60077 4.99258e-20)
(21.1427 5.90876 -3.40167e-20)
(20.7866 6.15541 1.08677e-19)
(20.3758 6.30607 -1.99807e-19)
(19.9094 6.31434 1.29492e-19)
(21.8312 1.25845 -1.37925e-20)
(21.8684 1.37575 2.60393e-21)
(21.9048 1.4909 -3.03098e-21)
(21.9388 1.61348 -1.69746e-20)
(21.9698 1.74321 2.0439e-20)
(21.9972 1.88053 -4.49999e-21)
(22.0203 2.02569 -6.95689e-23)
(22.0381 2.17885 -2.21755e-21)
(22.0491 2.34005 9.79007e-21)
(22.0518 2.50923 -1.04024e-20)
(22.0437 2.68615 1.05784e-20)
(22.0223 2.87041 -4.48219e-21)
(21.9845 3.06141 6.89395e-22)
(21.9271 3.25815 8.85727e-21)
(21.8466 3.4592 -9.49844e-21)
(21.7394 3.66233 2.91887e-20)
(21.6023 3.86451 -2.98614e-20)
(21.4324 4.0616 -2.06457e-21)
(21.2274 4.24822 -9.29756e-20)
(20.9866 4.41782 9.36609e-20)
(20.7113 4.56273 1.33471e-21)
(20.4052 4.67462 -3.23176e-21)
(20.0762 4.74469 0)
(19.7376 4.76444 9.27368e-24)
(21.7207 1.30008 -1.33143e-20)
(21.743 1.40458 2.25174e-20)
(21.7627 1.50874 -2.62031e-20)
(21.7786 1.61803 6.65459e-20)
(21.7901 1.73234 -7.0851e-21)
(21.7965 1.8519 -6.90002e-20)
(21.7971 1.97687 7.15016e-20)
(21.7912 2.10736 -3.36236e-20)
(21.7777 2.24343 -2.9839e-20)
(21.7559 2.38497 -6.56907e-23)
(21.7245 2.53166 6.75596e-20)
(21.6822 2.68295 -3.92516e-20)
(21.6273 2.83794 4.59017e-20)
(21.5581 2.99538 8.84819e-21)
(21.4729 3.1536 -6.01956e-20)
(21.3697 3.31033 -8.67858e-20)
(21.2472 3.46274 -1.84031e-20)
(21.1043 3.60738 1.11402e-19)
(20.9407 3.74017 0)
(20.757 3.85641 5.80194e-21)
(20.555 3.95108 -1.10787e-19)
(20.338 4.01927 1.07288e-19)
(20.1111 4.05684 0)
(19.8812 4.06109 5.36055e-21)
(21.6222 1.3251 -8.32244e-21)
(21.6341 1.41784 -9.95814e-21)
(21.6428 1.51123 4.13476e-20)
(21.6478 1.60834 -3.37072e-20)
(21.6485 1.70916 0)
(21.6444 1.81376 -6.59457e-20)
(21.6351 1.92214 6.40076e-20)
(21.6197 2.03425 6.35142e-20)
(21.5976 2.14999 -7.12858e-20)
(21.568 2.26913 0)
(21.5299 2.39125 0)
(21.4823 2.51579 -7.05993e-20)
(21.4241 2.64184 -7.54763e-21)
(21.3539 2.76824 8.22956e-20)
(21.2704 2.89353 2.63545e-21)
(21.1724 3.01586 -1.23499e-19)
(21.0589 3.1331 1.33096e-19)
(20.9294 3.24271 -4.28331e-21)
(20.7843 3.34183 0)
(20.6244 3.42736 -1.27125e-20)
(20.4517 3.4961 -7.62833e-21)
(20.2692 3.54506 -6.20917e-20)
(20.0807 3.572 6.13219e-20)
(19.8911 3.57565 3.30947e-20)
(21.5351 1.33841 0)
(21.5394 1.42038 1.00059e-20)
(21.5405 1.50347 0)
(21.5378 1.58932 -4.18325e-20)
(21.5311 1.67798 3.59004e-20)
(21.5198 1.76949 -3.5852e-20)
(21.5036 1.86383 3.68194e-20)
(21.4818 1.96091 5.86364e-21)
(21.454 2.06062 4.77361e-21)
(21.4194 2.16274 -6.28041e-21)
(21.3775 2.26693 0)
(21.3276 2.37268 -5.6415e-21)
(21.269 2.4792 7.54324e-21)
(21.2011 2.58539 6.96861e-20)
(21.1227 2.68987 -7.27499e-20)
(21.0328 2.79106 -7.74191e-20)
(20.9308 2.88715 7.3924e-20)
(20.8161 2.97613 9.7061e-20)
(20.6889 3.05582 1.69167e-20)
(20.5501 3.12395 -1.11267e-19)
(20.4014 3.17831 7.59146e-20)
(20.2452 3.21675 6.53554e-21)
(20.0846 3.23766 1.66006e-20)
(19.9228 3.2402 -8.43312e-20)
(21.4585 1.34339 -6.65992e-21)
(21.4579 1.41627 0)
(21.454 1.49014 5.63047e-20)
(21.4465 1.56622 -9.23132e-20)
(21.4353 1.64456 5.49147e-20)
(21.42 1.72518 -5.7171e-21)
(21.4003 1.80807 0)
(21.3755 1.8931 9.80244e-22)
(21.3452 1.98014 5.38644e-20)
(21.3088 2.06896 8.50627e-21)
(21.2657 2.15928 -5.6653e-20)
(21.2154 2.25075 8.16616e-21)
(21.1577 2.34279 -7.6222e-21)
(21.0921 2.43439 0)
(21.0181 2.52429 8.92053e-20)
(20.9348 2.61101 -8.14473e-20)
(20.8415 2.69292 0)
(20.7376 2.76826 0)
(20.6228 2.83535 4.46606e-22)
(20.498 2.89248 -5.76392e-20)
(20.3646 2.93803 1.38215e-19)
(20.2251 2.97043 -7.2993e-20)
(20.082 2.9881 4.30649e-20)
(19.9376 2.99033 -4.35954e-20)
(21.3912 1.34269 2.08533e-20)
(21.3874 1.40808 0)
(21.3804 1.47381 -6.62352e-21)
(21.3698 1.54154 -6.59371e-21)
(21.356 1.61122 0)
(21.3383 1.68278 5.68131e-20)
(21.3165 1.75638 -5.66844e-20)
(21.2902 1.83182 -1.45746e-20)
(21.2588 1.90894 6.93104e-20)
(21.222 1.98752 -6.17095e-20)
(21.1789 2.06713 0)
(21.129 2.14759 6.29784e-20)
(21.0723 2.22861 -5.65967e-21)
(21.0088 2.30939 4.63236e-21)
(20.9384 2.38882 1.64055e-20)
(20.8606 2.46541 -8.97017e-20)
(20.7746 2.53754 1.17518e-19)
(20.6795 2.60353 -1.06446e-19)
(20.5751 2.66192 -7.33881e-21)
(20.4614 2.71147 8.4987e-20)
(20.3394 2.75092 -8.75776e-20)
(20.2117 2.77951 0)
(20.0816 2.79523 0)
(19.9498 2.79715 -2.36676e-20)
(21.3305 1.33894 -2.91655e-20)
(21.3258 1.39784 1.5288e-20)
(21.3175 1.45631 -3.06081e-20)
(21.305 1.51689 3.8289e-20)
(21.29 1.57941 -3.8755e-20)
(21.2711 1.64335 2.26811e-20)
(21.2484 1.70932 7.15549e-20)
(21.2216 1.77704 9.24297e-21)
(21.1902 1.8463 -6.04081e-21)
(21.1538 1.91698 -7.61851e-20)
(21.112 1.98843 9.14533e-21)
(21.0631 2.06015 7.68736e-20)
(21.0076 2.13236 -1.49687e-19)
(20.9456 2.20448 8.26082e-20)
(20.8779 2.27583 4.36408e-22)
(20.8042 2.34489 -1.22894e-20)
(20.7241 2.41015 3.15012e-22)
(20.6363 2.46995 0)
(20.54 2.52261 -6.43129e-20)
(20.4355 2.56706 4.87117e-20)
(20.3221 2.60121 1.81095e-20)
(20.2016 2.62731 0)
(20.0827 2.64221 0)
(19.9604 2.64338 0)
(21.2743 1.33358 -7.89906e-21)
(21.2718 1.38692 -8.35587e-21)
(21.2639 1.43905 8.54771e-21)
(21.2499 1.49334 -1.67706e-20)
(21.2351 1.55037 8.29609e-21)
(21.2161 1.60795 -5.75577e-22)
(21.1934 1.66774 -1.78262e-20)
(21.1674 1.72963 -3.60704e-20)
(21.1374 1.79267 3.54168e-20)
(21.1026 1.85722 4.55183e-20)
(21.0636 1.92236 -7.78106e-21)
(21.0163 1.98699 -8.84407e-21)
(20.9624 2.0523 -4.13234e-20)
(20.9024 2.11718 -5.74267e-20)
(20.8376 2.18181 3.45318e-20)
(20.768 2.24469 1.2506e-20)
(20.694 2.30451 7.3269e-22)
(20.6137 2.35932 -1.49137e-20)
(20.522 2.40804 7.75149e-20)
(20.4218 2.45073 -7.96728e-20)
(20.3142 2.47852 -1.91664e-20)
(20.1976 2.50356 4.08186e-20)
(20.0883 2.51959 -1.07046e-19)
(19.9721 2.51766 2.16357e-20)
(16.7997 9.50926 -1.54137e-20)
(15.8392 8.65657 4.35242e-21)
(15.4124 7.85779 -1.03061e-20)
(15.2582 7.12173 -3.65576e-19)
(15.254 6.43633 3.60585e-19)
(15.3394 5.79661 4.30362e-19)
(15.48 5.20636 4.8e-19)
(15.6536 4.66656 -9.39282e-19)
(15.8459 4.17719 0)
(16.0464 3.73704 -6.13105e-20)
(16.2472 3.34434 0)
(16.4428 2.99612 -6.3726e-20)
(16.6295 2.68884 9.01866e-19)
(16.8052 2.41851 -8.2645e-19)
(16.969 2.18096 0)
(17.121 1.97212 -5.56599e-20)
(17.2619 1.78785 -4.90352e-20)
(17.393 1.62427 9.53344e-20)
(17.5155 1.47778 6.54895e-19)
(17.6307 1.34524 -7.45139e-19)
(17.7396 1.22395 0)
(17.8429 1.11172 8.62773e-20)
(17.9414 1.00684 -1.60494e-19)
(18.0376 0.912543 -1.49201e-19)
(19.4089 6.16914 -6.7113e-20)
(18.96 5.89825 2.16368e-20)
(18.5772 5.55731 5.41852e-20)
(18.2629 5.19121 1.84093e-19)
(18.0113 4.82219 -5.95329e-19)
(17.8156 4.46221 4.04087e-19)
(17.6685 4.11873 -4.33387e-19)
(17.5633 3.79626 4.13683e-19)
(17.4938 3.49682 0)
(17.4543 3.22069 7.81672e-20)
(17.4398 2.96727 -2.4092e-20)
(17.4458 2.73529 2.60511e-20)
(17.4684 2.5232 -4.6811e-20)
(17.5042 2.32906 -7.83771e-19)
(17.5505 2.15082 -3.3913e-20)
(17.6048 1.9864 1.15065e-20)
(17.6652 1.83393 7.42991e-19)
(17.73 1.69182 -9.21626e-20)
(17.7977 1.55881 0)
(17.867 1.43393 0)
(17.937 1.31644 0)
(18.0069 1.20591 2.49468e-19)
(18.076 1.10232 9.86179e-22)
(18.1431 1.00732 0)
(19.4068 4.73096 2.69724e-20)
(19.0987 4.64609 -3.39678e-20)
(18.8219 4.5161 4.43837e-21)
(18.5814 4.35178 2.4313e-20)
(18.3785 4.16305 1.65678e-20)
(18.2122 3.95851 -2.76621e-19)
(18.0803 3.74509 2.97582e-19)
(17.9798 3.52849 2.29235e-20)
(17.9072 3.31332 0)
(17.8587 3.10283 -2.30471e-20)
(17.8308 2.89945 -6.47437e-19)
(17.8201 2.70463 -8.35594e-21)
(17.8235 2.51929 7.08517e-19)
(17.8383 2.34384 6.63448e-19)
(17.862 2.17838 -6.19301e-19)
(17.8926 2.02271 0)
(17.9286 1.87647 4.27415e-20)
(17.9684 1.73922 4.00597e-20)
(18.0113 1.6104 0)
(18.0564 1.48941 2.42992e-19)
(18.1031 1.3756 -3.22118e-19)
(18.1512 1.26829 7.79156e-20)
(18.2 1.1666 0)
(18.2487 1.07024 6.8008e-20)
(19.6543 4.03198 0)
(19.4337 3.97116 0)
(19.2243 3.88133 -4.51582e-20)
(19.0313 3.76733 4.4401e-20)
(18.8579 3.63447 -1.69584e-19)
(18.7055 3.48784 4.09265e-19)
(18.5747 3.33205 2.92313e-20)
(18.4648 3.17107 -2.98704e-19)
(18.3748 3.00827 3.11059e-19)
(18.3031 2.84622 -3.06433e-19)
(18.2479 2.68696 0)
(18.2074 2.53201 0)
(18.1798 2.38234 0)
(18.1634 2.23857 5.81615e-19)
(18.1568 2.10102 -6.17878e-19)
(18.1584 1.96971 0)
(18.167 1.84456 2.70354e-19)
(18.1816 1.72537 -3.47467e-19)
(18.2012 1.6119 3.76804e-20)
(18.2249 1.50388 -2.27906e-19)
(18.2521 1.40098 3.06592e-19)
(18.2822 1.3029 -2.28608e-19)
(18.3146 1.20919 1.30623e-19)
(18.3486 1.12249 -5.24688e-20)
(19.7039 3.55613 -4.40077e-20)
(19.5213 3.51402 0)
(19.3464 3.45046 -7.10013e-20)
(19.1829 3.36797 5.73434e-20)
(19.0334 3.26975 1.63309e-20)
(18.8996 3.15916 0)
(18.7821 3.03944 2.62278e-19)
(18.6809 2.91361 -5.77953e-19)
(18.5955 2.78431 -7.69059e-21)
(18.5248 2.65371 5.72623e-19)
(18.4678 2.52354 -2.85252e-19)
(18.4231 2.39515 2.55465e-19)
(18.3893 2.26955 -2.87702e-19)
(18.3652 2.14743 0)
(18.3496 2.02925 0)
(18.3413 1.91524 -2.55449e-19)
(18.3392 1.80553 3.2787e-19)
(18.3424 1.70016 0)
(18.3501 1.59911 -3.29521e-19)
(18.3618 1.50227 2.93229e-19)
(18.3769 1.40946 0)
(18.395 1.32049 -7.23253e-20)
(18.4156 1.23504 0)
(18.4383 1.15496 -6.76078e-20)
(19.7625 3.22445 2.48055e-20)
(19.6054 3.19082 -2.50474e-20)
(19.4539 3.14009 0)
(19.3108 3.07406 -6.08026e-20)
(19.1783 2.99489 6.09291e-20)
(19.0578 2.90513 -1.60756e-20)
(18.9501 2.80723 -1.36151e-19)
(18.8555 2.70344 1.50885e-19)
(18.7736 2.59595 -2.60702e-19)
(18.7038 2.48656 -5.98102e-21)
(18.6454 2.37674 5.53659e-19)
(18.5975 2.26764 -2.74152e-19)
(18.5589 2.16022 -2.79419e-19)
(18.5289 2.05512 2.4246e-19)
(18.5064 1.95278 -3.4256e-20)
(18.4905 1.85346 -3.54354e-20)
(18.4803 1.7573 3.44174e-20)
(18.475 1.66449 -3.45408e-20)
(18.474 1.57508 3.46897e-20)
(18.477 1.48896 -1.41175e-19)
(18.4833 1.40601 1.41733e-19)
(18.4927 1.3261 7.18516e-20)
(18.5047 1.24907 0)
(18.519 1.1757 6.81615e-20)
(19.7943 2.97722 1.22144e-20)
(19.6537 2.94911 1.30637e-20)
(19.518 2.90656 2.86073e-20)
(19.389 2.85101 -2.86797e-20)
(19.2689 2.78423 1.25849e-19)
(19.1588 2.70818 -1.08905e-19)
(19.0597 2.62488 1.00147e-19)
(18.9716 2.53604 -1.29873e-19)
(18.8942 2.44364 -1.18582e-19)
(18.8273 2.3492 1.32165e-19)
(18.7703 2.25394 -3.3097e-20)
(18.7224 2.15893 3.40972e-20)
(18.6828 2.06503 0)
(18.6507 1.97281 3.41171e-20)
(18.6253 1.88269 6.7347e-20)
(18.6059 1.79488 0)
(18.5914 1.7095 -8.61825e-22)
(18.5811 1.62698 -2.37221e-19)
(18.5749 1.54735 3.40119e-19)
(18.5724 1.47041 -1.36744e-19)
(18.5731 1.39611 1.71645e-19)
(18.5765 1.32433 -1.73092e-19)
(18.5823 1.25506 6.8615e-20)
(18.5904 1.1881 0)
(19.8188 2.78573 1.15939e-20)
(19.69 2.76135 -1.31338e-20)
(19.566 2.72424 0)
(19.4474 2.67573 -2.89735e-20)
(19.3367 2.61745 6.19246e-20)
(19.2346 2.55101 -3.03525e-20)
(19.1425 2.4779 3.21391e-20)
(19.0598 2.39953 3.18808e-20)
(18.9863 2.31805 9.83061e-20)
(18.9225 2.23447 -1.28764e-19)
(18.8672 2.14995 3.30185e-20)
(18.8201 2.06553 0)
(18.7802 1.98196 -1.31488e-19)
(18.7473 1.89967 1.30025e-19)
(18.7203 1.8192 9.82991e-20)
(18.699 1.74044 -1.30559e-19)
(18.6817 1.66377 -1.64937e-19)
(18.6681 1.58987 1.31558e-19)
(18.6585 1.5185 1.66169e-19)
(18.6525 1.44939 -1.33122e-19)
(18.6493 1.38255 -3.38578e-20)
(18.6486 1.31789 -3.40522e-20)
(18.6501 1.25558 -3.33237e-20)
(18.6535 1.19455 3.25853e-20)
(19.8379 2.63285 1.25571e-20)
(19.7171 2.61159 -1.92716e-20)
(19.6026 2.5786 -2.12813e-20)
(19.4912 2.53488 2.75101e-20)
(19.3878 2.48269 -1.84004e-21)
(19.2917 2.42357 2.91985e-20)
(19.2058 2.35773 3.07581e-20)
(19.1275 2.28692 -1.58365e-19)
(19.0572 2.21386 9.33083e-20)
(18.9966 2.1382 1.27937e-19)
(18.9427 2.06193 3.37694e-20)
(18.8965 1.9855 -1.57875e-19)
(18.8569 1.91005 0)
(18.824 1.83532 3.16143e-20)
(18.7962 1.76285 -1.28182e-19)
(18.7745 1.69095 1.5906e-19)
(18.7552 1.62157 9.67696e-20)
(18.7393 1.55503 -1.28374e-19)
(18.7281 1.49039 3.20804e-20)
(18.72 1.42792 3.2304e-20)
(18.7143 1.36734 3.25407e-20)
(18.7109 1.3086 3.27977e-20)
(18.7093 1.25242 3.32461e-20)
(18.7095 1.1964 3.18786e-20)
(19.8556 2.50668 2.5393e-20)
(19.7414 2.48891 -2.55458e-20)
(19.6338 2.45999 -2.641e-20)
(19.5257 2.41861 2.78254e-20)
(19.4285 2.37136 7.96818e-22)
(19.3369 2.31868 -5.80542e-20)
(19.257 2.25729 3.07013e-20)
(19.1806 2.19278 -9.11825e-20)
(19.113 2.12675 3.54034e-22)
(19.0555 2.05595 0)
(19.0012 1.98723 -3.16189e-20)
(18.9572 1.91681 4.60648e-22)
(18.9181 1.84826 3.17926e-20)
(18.8865 1.77845 6.52957e-20)
(18.8587 1.71383 -1.26435e-19)
(18.8381 1.64628 -3.22419e-20)
(18.8159 1.58332 3.26224e-20)
(18.7986 1.52319 -1.25192e-19)
(18.7867 1.46422 9.26262e-20)
(18.7771 1.40776 -6.42633e-20)
(18.7699 1.35193 3.23505e-20)
(18.7648 1.29758 -9.88553e-20)
(18.7615 1.24676 -3.30732e-20)
(18.7609 1.19316 3.12965e-20)
(19.4348 -1.22753 -1.4596e-19)
(19.2828 -1.227 0)
(19.1156 -1.22629 0)
(18.9346 -1.224 -8.09988e-20)
(18.7408 -1.22048 0)
(18.5354 -1.21578 8.62516e-20)
(18.3196 -1.21 0)
(18.0939 -1.20322 0)
(17.859 -1.19549 4.89381e-20)
(17.6149 -1.1869 -5.08702e-20)
(17.3616 -1.17745 -8.81585e-19)
(17.0983 -1.16715 9.34138e-19)
(16.8239 -1.15598 1.00167e-18)
(16.5368 -1.14387 -1.07647e-18)
(16.2343 -1.13072 0)
(15.9127 -1.11633 -1.93188e-20)
(15.5669 -1.10043 1.41934e-18)
(15.1892 -1.08255 -1.61738e-18)
(14.7679 -1.062 -2.79212e-20)
(14.2844 -1.0377 -1.59237e-20)
(13.7059 -1.00742 -6.35646e-19)
(12.9683 -0.968751 6.00727e-19)
(11.9533 -0.871933 2.68843e-19)
(10.8714 -0.810383 0)
(19.4306 -1.22255 -1.94823e-20)
(19.2933 -1.22227 -6.10083e-20)
(19.1436 -1.22173 8.31561e-20)
(18.9822 -1.21999 0)
(18.8101 -1.21724 -8.72091e-20)
(18.6278 -1.21353 -8.95894e-20)
(18.436 -1.2089 -6.93498e-19)
(18.235 -1.20337 7.64924e-19)
(18.0249 -1.19695 -5.01982e-20)
(17.8055 -1.18966 0)
(17.5766 -1.1815 0)
(17.3371 -1.17243 0)
(17.0858 -1.16238 -3.04871e-20)
(16.8209 -1.15126 1.04596e-18)
(16.5395 -1.13895 -1.12804e-18)
(16.2381 -1.12522 0)
(15.9113 -1.10975 7.18908e-19)
(15.5512 -1.0921 -6.8241e-19)
(15.1462 -1.07155 5.37259e-20)
(14.677 -1.04708 0)
(14.1102 -1.01596 5.83182e-19)
(13.3863 -0.978142 -7.15239e-19)
(12.4411 -0.89828 0)
(11.7013 -0.80018 1.21311e-18)
(19.4266 -1.21959 -6.1825e-20)
(19.3023 -1.22 2.34477e-19)
(19.1673 -1.21997 -1.16359e-22)
(19.0221 -1.21888 -3.53942e-19)
(18.8672 -1.21684 5.42354e-19)
(18.703 -1.21388 -3.70107e-19)
(18.5296 -1.21 -4.75369e-20)
(18.3472 -1.20519 -4.91635e-20)
(18.1556 -1.19947 -5.09379e-20)
(17.9545 -1.19281 5.30329e-20)
(17.7433 -1.1852 -5.55106e-20)
(17.521 -1.17657 -8.71818e-19)
(17.2863 -1.16688 1.01573e-18)
(17.0373 -1.156 3.30251e-20)
(16.7712 -1.1438 0)
(16.4842 -1.13007 5.73998e-19)
(16.1711 -1.1145 -4.1323e-20)
(15.824 -1.09668 -7.88152e-19)
(15.4308 -1.07594 -2.60586e-20)
(14.9722 -1.0514 -4.75455e-19)
(14.4145 -1.02009 7.62101e-19)
(13.7037 -0.979831 -2.50308e-19)
(12.8121 -0.907953 -3.15782e-19)
(12.2392 -0.798202 3.2835e-19)
(19.4223 -1.21711 8.65859e-20)
(19.3083 -1.21736 8.96125e-20)
(19.1849 -1.21731 -1.82035e-19)
(19.0524 -1.21637 2.76986e-19)
(18.9109 -1.21458 -1.87951e-19)
(18.7607 -1.21194 9.57369e-20)
(18.6017 -1.20845 -4.93167e-20)
(18.4337 -1.2041 5.0466e-20)
(18.2564 -1.19886 -3.23832e-22)
(18.0695 -1.19271 -5.41667e-20)
(17.8721 -1.18561 -3.85409e-22)
(17.6631 -1.1775 -5.93799e-20)
(17.4411 -1.16829 0)
(17.2041 -1.15787 -3.33523e-20)
(16.9494 -1.14609 -3.599e-20)
(16.673 -1.13272 -2.92433e-22)
(16.3696 -1.11746 4.23277e-20)
(16.0313 -1.09988 0)
(15.6459 -1.07934 0)
(15.1935 -1.05493 0)
(14.6406 -1.02389 -2.02969e-19)
(13.9378 -0.981593 1.59761e-19)
(13.0817 -0.911659 9.85642e-20)
(12.5996 -0.799983 -5.93087e-20)
(19.4181 -1.21345 1.13981e-20)
(19.3136 -1.21401 -1.05172e-19)
(19.2006 -1.21408 -2.6211e-22)
(19.0793 -1.2133 -4.79894e-19)
(18.9498 -1.21177 5.35845e-19)
(18.8119 -1.20948 0)
(18.6654 -1.20641 5.06967e-20)
(18.51 -1.20253 5.22109e-20)
(18.3453 -1.19781 5.38223e-19)
(18.1706 -1.19219 3.81865e-22)
(17.9849 -1.18562 5.84048e-20)
(17.7873 -1.178 -9.74168e-19)
(17.5759 -1.16926 5.77267e-19)
(17.3489 -1.15928 0)
(17.1034 -1.14788 7.25791e-20)
(16.8354 -1.13483 7.80457e-20)
(16.5396 -1.11979 1.14861e-22)
(16.2079 -1.10235 3.7092e-19)
(15.828 -1.08185 -4.61474e-19)
(15.3798 -1.05734 0)
(14.8299 -1.02626 2.62951e-19)
(14.1327 -0.982669 -2.30813e-19)
(13.3007 -0.912887 0)
(12.874 -0.803096 0)
(19.4146 -1.21153 0)
(19.3186 -1.21123 0)
(19.2151 -1.21116 -9.8639e-20)
(19.1039 -1.21049 1.49022e-19)
(18.9848 -1.20918 -5.03182e-20)
(18.8576 -1.20722 0)
(18.722 -1.20454 0)
(18.5774 -1.20108 -5.34817e-20)
(18.4233 -1.19683 -1.1022e-19)
(18.2589 -1.19172 -5.13195e-19)
(18.0832 -1.18564 4.73845e-19)
(17.895 -1.17849 0)
(17.6926 -1.17018 -6.50299e-20)
(17.4739 -1.16061 -5.50609e-19)
(17.236 -1.14961 -3.70708e-20)
(16.9751 -1.13692 5.8773e-19)
(16.6856 -1.12217 -4.22811e-20)
(16.3594 -1.10492 -3.68629e-19)
(15.984 -1.0845 4.55721e-19)
(15.5394 -1.05984 5.64353e-20)
(14.9923 -1.02852 0)
(14.2998 -0.983848 0)
(13.4857 -0.913109 1.76284e-19)
(13.0978 -0.805114 -2.03915e-19)
(19.4118 -1.2084 0)
(19.3234 -1.2084 1.52458e-19)
(19.2281 -1.20839 -1.02019e-19)
(19.1255 -1.2078 -1.02897e-19)
(19.0153 -1.20668 2.07653e-19)
(18.8972 -1.205 4.21531e-19)
(18.7707 -1.20264 -4.28859e-19)
(18.6353 -1.1995 -3.8404e-19)
(18.49 -1.19564 5.0689e-19)
(18.3344 -1.19103 5.23575e-19)
(18.1672 -1.18547 -4.82423e-19)
(17.9871 -1.17876 -6.29562e-20)
(17.7923 -1.17085 6.59812e-20)
(17.5804 -1.16173 0)
(17.3489 -1.15124 0)
(17.0939 -1.13901 0)
(16.8097 -1.12464 -4.22488e-19)
(16.4883 -1.10775 2.74252e-19)
(16.1171 -1.0877 0)
(15.6756 -1.06329 -5.52727e-20)
(15.1313 -1.03195 1.86212e-19)
(14.4433 -0.986566 -7.1104e-20)
(13.6427 -0.915099 8.37456e-20)
(13.2793 -0.808617 -9.54903e-20)
(19.4092 -1.2064 -1.31075e-20)
(19.3275 -1.20584 -9.2224e-20)
(19.2394 -1.20572 0)
(19.1444 -1.20508 -1.06018e-19)
(19.0419 -1.20401 0)
(18.9318 -1.20265 5.41136e-20)
(18.8134 -1.20073 1.64856e-19)
(18.6858 -1.19787 -2.80174e-19)
(18.548 -1.19433 0)
(18.3993 -1.1903 0)
(18.2394 -1.18539 2.45176e-19)
(18.066 -1.17919 -4.46078e-19)
(17.8776 -1.17134 1.99753e-19)
(17.6716 -1.16236 0)
(17.4451 -1.1526 -7.40581e-20)
(17.1951 -1.14114 7.86956e-20)
(16.9149 -1.12736 8.40553e-20)
(16.5967 -1.11102 -1.6637e-22)
(16.2282 -1.0913 -9.84858e-20)
(15.7894 -1.06728 4.33301e-19)
(15.2476 -1.03659 -1.80936e-19)
(14.5631 -0.990549 -3.42641e-20)
(13.7744 -0.914414 -3.98652e-20)
(13.4419 -0.802539 -1.79838e-19)
(19.4079 -1.20372 6.09164e-20)
(19.3323 -1.20323 4.76801e-20)
(19.2505 -1.20327 1.08941e-19)
(19.1621 -1.20271 1.95121e-23)
(19.0655 -1.20177 5.48726e-20)
(18.9607 -1.20058 -1.10735e-19)
(18.8492 -1.19892 2.80504e-19)
(18.7296 -1.19606 -2.2839e-19)
(18.598 -1.19221 -5.85148e-20)
(18.4561 -1.18902 -6.01673e-20)
(18.3022 -1.18505 0)
(18.1364 -1.17954 -2.57481e-19)
(17.9551 -1.17236 5.36585e-19)
(17.7515 -1.16281 -2.81e-19)
(17.5288 -1.15362 -1.58859e-22)
(17.2843 -1.14304 6.51274e-23)
(17.0088 -1.12931 0)
(16.6956 -1.11364 -8.9879e-20)
(16.331 -1.09521 -9.70433e-20)
(15.8925 -1.07254 2.12257e-19)
(15.3525 -1.04318 -2.34809e-19)
(14.6781 -0.999235 0)
(13.9056 -0.927501 0)
(13.5648 -0.817618 3.40214e-19)
(19.4028 -1.20287 6.206e-20)
(19.3326 -1.20079 -7.10246e-21)
(19.2565 -1.20076 0)
(19.1755 -1.19967 -5.63336e-20)
(19.0878 -1.19794 -5.65437e-20)
(18.9928 -1.19779 2.29239e-19)
(18.8845 -1.19758 -1.19581e-22)
(18.7707 -1.19466 -2.29251e-19)
(18.6438 -1.19021 5.95792e-20)
(18.5004 -1.18699 -1.21368e-19)
(18.3569 -1.18395 4.72724e-23)
(18.1858 -1.18056 2.59264e-19)
(18.0164 -1.17053 0)
(17.8247 -1.16011 0)
(17.5952 -1.15258 -2.21617e-19)
(17.3579 -1.14427 7.726e-20)
(17.0784 -1.13139 2.4731e-19)
(16.7618 -1.11709 1.75879e-19)
(16.3971 -1.09696 -2.86424e-19)
(15.9647 -1.07452 1.04218e-19)
(15.4233 -1.05128 -1.15212e-19)
(14.7355 -1.01232 0)
(13.9689 -0.92153 -1.45724e-19)
(13.7513 -0.762271 -3.19144e-19)
(12.9439 -0.694866 -2.03576e-20)
(14.8898 -0.925643 0)
(16.1403 -0.988105 2.7998e-18)
(16.9913 -1.05811 -2.34142e-18)
(17.6434 -1.10819 1.99291e-18)
(18.1718 -1.14877 -1.71193e-18)
(18.6115 -1.18227 0)
(18.9813 -1.21037 2.1566e-20)
(19.2921 -1.23378 -2.61844e-18)
(19.5506 -1.25301 2.4059e-18)
(19.7618 -1.26832 3.45148e-20)
(19.9295 -1.27994 -2.13933e-18)
(20.0576 -1.28807 1.95563e-18)
(20.1503 -1.29293 5.82616e-20)
(20.213 -1.29486 -1.77934e-18)
(20.2516 -1.29439 3.3868e-18)
(20.2718 -1.29203 -3.18857e-18)
(20.278 -1.28826 -3.91838e-21)
(20.2738 -1.28343 3.0012e-18)
(20.2622 -1.27779 -1.44939e-18)
(20.2451 -1.27154 1.76143e-19)
(20.2244 -1.26479 1.71319e-19)
(20.2012 -1.25731 -4.9922e-19)
(20.176 -1.25142 4.77582e-19)
(13.4636 -0.73995 -9.80766e-19)
(15.4017 -0.918434 0)
(16.6433 -0.991849 -1.23607e-18)
(17.4749 -1.06271 3.16322e-18)
(18.0971 -1.11004 -1.84032e-18)
(18.5881 -1.14885 2.55143e-20)
(18.985 -1.18053 4.60891e-20)
(19.3081 -1.2067 -1.35503e-18)
(19.57 -1.22805 1.24993e-18)
(19.7796 -1.24511 1.17368e-18)
(19.9436 -1.25825 -1.13363e-18)
(20.0677 -1.26781 3.30046e-20)
(20.1576 -1.27413 3.12499e-20)
(20.2189 -1.27761 -1.88864e-18)
(20.2575 -1.27867 1.79527e-18)
(20.2787 -1.27783 0)
(20.2869 -1.27555 -1.71647e-18)
(20.2855 -1.2722 2.40546e-18)
(20.277 -1.26804 3.07826e-21)
(20.2634 -1.26326 -8.48708e-19)
(20.2461 -1.25803 6.45354e-19)
(20.2263 -1.25236 -7.16485e-19)
(20.2046 -1.24615 3.50868e-19)
(20.1816 -1.24114 -3.3646e-19)
(13.8631 -0.77239 -1.1933e-19)
(15.7828 -0.91955 1.46774e-18)
(17.0138 -1.00171 -1.1944e-18)
(17.8267 -1.0686 3.1903e-20)
(18.4219 -1.11243 0)
(18.8807 -1.14789 -2.51307e-20)
(19.2421 -1.176 -9.1857e-20)
(19.528 -1.19869 1.35343e-18)
(19.7524 -1.21681 -1.25501e-18)
(19.9256 -1.23099 1.1826e-18)
(20.0557 -1.24176 -1.07587e-18)
(20.1499 -1.24955 0)
(20.2148 -1.25478 0)
(20.2566 -1.25786 0)
(20.2807 -1.25917 -9.20144e-19)
(20.2918 -1.25909 -4.06561e-21)
(20.2933 -1.25788 -3.76915e-21)
(20.2877 -1.25578 8.24577e-19)
(20.277 -1.25293 0)
(20.2627 -1.24947 -6.86742e-19)
(20.2457 -1.24552 7.63854e-19)
(20.2269 -1.24109 -3.7503e-19)
(20.2068 -1.23615 -1.3393e-21)
(20.1859 -1.23213 3.53877e-19)
(14.162 -0.787604 5.40002e-20)
(16.0682 -0.918903 -1.37847e-18)
(17.291 -1.0056 -3.66577e-21)
(18.0876 -1.06908 5.93834e-20)
(18.6594 -1.11129 8.2969e-19)
(19.0905 -1.14471 5.03486e-20)
(19.422 -1.17065 -1.43228e-18)
(19.6771 -1.19124 1.40931e-18)
(19.8714 -1.20737 1.28193e-18)
(20.0164 -1.2198 -1.20147e-18)
(20.1216 -1.22911 -1.13954e-18)
(20.195 -1.2358 2.15872e-18)
(20.2435 -1.24032 6.795e-20)
(20.2733 -1.24307 -1.9637e-18)
(20.2891 -1.2444 1.82478e-18)
(20.2948 -1.2446 -9.05487e-19)
(20.2931 -1.24388 5.47839e-20)
(20.2859 -1.24241 0)
(20.2747 -1.2403 -5.18518e-20)
(20.2607 -1.23767 0)
(20.2445 -1.23459 0)
(20.2269 -1.23109 3.90297e-19)
(20.2083 -1.2271 -4.77888e-19)
(20.1892 -1.22364 0)
(14.4064 -0.796343 8.03744e-19)
(16.3032 -0.919972 1.98689e-21)
(17.5183 -1.00851 -5.50579e-19)
(18.2999 -1.06946 -6.04711e-20)
(18.8509 -1.1106 5.44229e-20)
(19.2578 -1.14243 -9.96634e-20)
(19.5634 -1.16676 7.38872e-19)
(19.7923 -1.18577 -7.72786e-19)
(19.9615 -1.2004 0)
(20.0838 -1.21149 -1.22029e-18)
(20.1694 -1.21968 2.30839e-18)
(20.2268 -1.22551 -2.2635e-18)
(20.2632 -1.22941 -3.14418e-21)
(20.2841 -1.23179 -3.09207e-21)
(20.2939 -1.23296 9.618e-19)
(20.2956 -1.23319 -9.31004e-19)
(20.2915 -1.23264 8.99328e-19)
(20.2831 -1.23147 0)
(20.2717 -1.22977 -7.4958e-19)
(20.258 -1.22763 8.36342e-19)
(20.2428 -1.22511 -4.11943e-19)
(20.2264 -1.22224 3.03071e-19)
(20.2093 -1.21894 9.98265e-20)
(20.1918 -1.21597 0)
(14.6156 -0.801892 8.42191e-19)
(16.5029 -0.921518 -6.91343e-19)
(17.7096 -1.01031 5.3084e-19)
(18.4764 -1.06989 -4.71099e-19)
(19.0076 -1.11024 0)
(19.3926 -1.14068 4.9321e-20)
(19.6754 -1.16366 0)
(19.8819 -1.18128 4.30115e-20)
(20.0302 -1.19462 -6.09351e-19)
(20.134 -1.20456 6.1326e-19)
(20.2042 -1.21177 0)
(20.2495 -1.21683 1.39063e-19)
(20.2767 -1.22018 -1.32976e-19)
(20.2911 -1.2222 0)
(20.2964 -1.22321 -6.14766e-20)
(20.2952 -1.22342 4.7604e-19)
(20.2893 -1.22299 -4.03125e-19)
(20.2801 -1.22203 4.50415e-19)
(20.2685 -1.22064 -9.3502e-19)
(20.2552 -1.21888 -1.21016e-21)
(20.2407 -1.2168 8.5066e-19)
(20.2255 -1.21441 -3.14348e-19)
(20.2097 -1.21167 0)
(20.1938 -1.20922 -1.01961e-19)
(14.7853 -0.803639 8.18432e-23)
(16.6705 -0.920176 7.3203e-20)
(17.8666 -1.00997 0)
(18.6188 -1.06865 0)
(19.134 -1.10891 -5.2763e-20)
(19.4997 -1.13876 8.31974e-19)
(19.7626 -1.16072 2.15456e-21)
(19.95 -1.17726 -6.87796e-19)
(20.0809 -1.18951 6.1175e-19)
(20.1699 -1.19847 -6.17614e-19)
(20.2282 -1.20488 0)
(20.2643 -1.2093 -7.03304e-20)
(20.2849 -1.21219 -9.56403e-23)
(20.2946 -1.21393 -5.19673e-19)
(20.2966 -1.2148 5.00143e-19)
(20.2934 -1.21498 0)
(20.2863 -1.21463 -5.90023e-20)
(20.2766 -1.21385 -4.04006e-19)
(20.2651 -1.2127 3.94849e-19)
(20.2523 -1.21125 0)
(20.2386 -1.20952 -4.94316e-19)
(20.2244 -1.20754 4.88248e-19)
(20.2099 -1.20531 0)
(20.1953 -1.20345 5.30484e-20)
(14.9552 -0.803119 -5.81299e-19)
(16.8148 -0.91715 4.20971e-19)
(17.9996 -1.00564 -7.43279e-19)
(18.7428 -1.06912 3.36412e-19)
(19.2376 -1.11004 5.1763e-20)
(19.5861 -1.13772 3.39156e-19)
(19.8315 -1.1585 -3.63312e-19)
(20.0025 -1.17386 -8.60435e-20)
(20.1191 -1.18507 6.53662e-19)
(20.1961 -1.19315 -6.20759e-19)
(20.245 -1.19887 5.946e-19)
(20.2741 -1.20277 -5.68055e-19)
(20.2897 -1.2053 -4.10567e-19)
(20.2958 -1.2068 4.60075e-19)
(20.2955 -1.20756 6.36427e-20)
(20.2908 -1.20773 0)
(20.283 -1.20744 0)
(20.2731 -1.20678 -5.89284e-20)
(20.2617 -1.20583 5.21668e-19)
(20.2494 -1.20459 -4.56179e-19)
(20.2365 -1.20311 -1.69722e-19)
(20.2231 -1.20145 1.67985e-19)
(20.2097 -1.19962 1.11793e-19)
(20.1963 -1.1981 -2.23642e-19)
(15.0177 -0.793525 4.72515e-19)
(16.9434 -0.905349 9.95328e-22)
(18.0902 -1.00355 4.82369e-19)
(18.8192 -1.06995 1.09927e-19)
(19.3218 -1.10719 -4.06924e-19)
(19.656 -1.1363 0)
(19.8869 -1.1563 0)
(20.0441 -1.17081 4.28543e-19)
(20.1488 -1.18114 -3.25703e-19)
(20.2158 -1.18846 7.01715e-19)
(20.2572 -1.19359 -1.1187e-18)
(20.2808 -1.19708 1.14596e-18)
(20.2924 -1.19928 -1.36492e-19)
(20.2959 -1.20059 1.34589e-19)
(20.2938 -1.20127 -5.15914e-19)
(20.288 -1.20144 0)
(20.2796 -1.20118 4.91343e-19)
(20.2696 -1.20061 6.12924e-20)
(20.2584 -1.19985 -1.76768e-19)
(20.2467 -1.1988 -2.33666e-19)
(20.2344 -1.19747 -2.3235e-19)
(20.2217 -1.19606 4.04415e-19)
(20.2091 -1.19451 -2.30577e-19)
(20.1967 -1.19332 -1.17144e-19)
(15.3568 -0.784492 3.03016e-19)
(17.0467 -0.85967 -2.497e-19)
(18.1537 -0.97806 -3.50596e-19)
(18.9908 -1.09054 -5.39146e-19)
(19.402 -1.1199 4.03247e-19)
(19.7161 -1.13706 -9.46086e-20)
(19.9329 -1.1556 0)
(20.0778 -1.16852 -2.56629e-19)
(20.1714 -1.17747 2.44165e-19)
(20.2308 -1.18405 -7.79811e-20)
(20.2661 -1.18888 -7.49533e-20)
(20.2854 -1.192 -3.6123e-19)
(20.294 -1.19397 2.79295e-19)
(20.2952 -1.19513 -6.7721e-20)
(20.2917 -1.19576 -6.55201e-20)
(20.2852 -1.19592 -6.36126e-20)
(20.2765 -1.19567 0)
(20.2664 -1.19524 -1.22194e-19)
(20.2552 -1.19463 -5.94473e-20)
(20.2442 -1.19361 -1.79222e-19)
(20.2321 -1.19228 4.82555e-19)
(20.2206 -1.19112 -1.80271e-19)
(20.2094 -1.18998 -6.0799e-20)
(20.1978 -1.18938 1.21811e-19)
(18.1081 2.0751 -6.68039e-18)
(22.4903 0.934195 5.70464e-18)
(23.5477 1.10095 -1.90325e-18)
(24.2353 1.58221 -1.15717e-18)
(24.7451 1.93744 1.02148e-18)
(25.0824 2.19173 -7.05394e-19)
(25.256 2.38267 6.49238e-19)
(25.2846 2.51646 -1.8675e-20)
(25.1944 2.59186 0)
(25.0153 2.61315 -1.04574e-20)
(24.7767 2.58613 0)
(24.5047 2.51912 2.52984e-20)
(24.2209 2.42062 1.78488e-19)
(23.9417 2.29935 -1.52831e-19)
(23.6779 2.16345 9.42651e-20)
(23.4359 2.01978 -7.60747e-20)
(23.2178 1.87414 9.87128e-20)
(23.0233 1.73059 -6.35937e-20)
(22.85 1.5919 -6.403e-20)
(22.6948 1.45957 8.60669e-21)
(22.5544 1.33426 7.4429e-21)
(22.4261 1.21554 2.00012e-20)
(22.3079 1.10888 7.80581e-21)
(22.1984 0.97665 -1.84035e-20)
(6.71304 -0.465069 -7.11651e-18)
(15.1589 -0.769944 -7.43864e-20)
(18.4597 -0.565152 7.58265e-20)
(20.3318 -0.229478 -5.03913e-20)
(21.628 0.0753007 7.83131e-19)
(22.601 0.361789 -6.50096e-19)
(23.3284 0.631174 0)
(23.8429 0.874316 0)
(24.1701 1.08312 0)
(24.3376 1.25342 -2.88788e-19)
(24.3753 1.38277 5.2921e-19)
(24.3136 1.47135 -2.65804e-19)
(24.1813 1.52152 1.75035e-19)
(24.004 1.53732 -1.68493e-19)
(23.8028 1.52382 3.1519e-20)
(23.5936 1.48663 7.38112e-20)
(23.3875 1.43131 -1.95968e-19)
(23.1915 1.36292 1.76675e-19)
(23.0089 1.28583 -3.58753e-20)