/*--------------------------------*- C++ -*----------------------------------*\
| =========                 |                                                 |
| \\      /  F ield         | OpenFOAM: The Open Source CFD Toolbox           |
|  \\    /   O peration     | Version:  2.3.0                                 |
|   \\  /    A nd           | Web:      www.OpenFOAM.org                      |
|    \\/     M anipulation  |                                                 |
\*---------------------------------------------------------------------------*/
FoamFile
{
    version     2.0;
    format      ascii;
    class       volScalarField;
    location    "10000";
    object      nut;
}
// * * * * * * * * * * * * * * * * * * * * * * * * * * * * * * * * * * * * * //

dimensions      [0 2 -1 0 0 0 0];

internalField   nonuniform List<scalar> 
123327
(
0.0392865
0.0380362
0.0368044
0.0355902
0.0343941
0.0332167
0.0320579
0.0309179
0.0297971
0.0286955
0.0276125
0.0265483
0.025503
0.024476
0.0234669
0.0224757
0.0215025
0.0205471
0.0196086
0.0186875
0.0177835
0.0168961
0.0160246
0.0151695
0.0143309
0.0135075
0.0127
0.0119092
0.0111339
0.0103743
0.00963106
0.00890354
0.00819368
0.00750159
0.0068294
0.00617834
0.00555056
0.00495055
0.00438511
0.00385703
0.00336957
0.0028912
0.00220665
0.0399571
0.0388251
0.0377085
0.0366061
0.0355181
0.0344446
0.0333861
0.0323424
0.0313131
0.030299
0.0292999
0.0283148
0.0273436
0.0263867
0.0254439
0.024514
0.0235981
0.0226954
0.0218055
0.0209286
0.0200647
0.0192135
0.0183749
0.0175492
0.0167368
0.0159368
0.0151497
0.0143772
0.0136189
0.0128748
0.0121464
0.0114353
0.0107431
0.0100726
0.00942664
0.0088069
0.00821971
0.00767094
0.00716536
0.00671007
0.00631122
0.00597543
0.00570687
0.0405935
0.0395667
0.0385524
0.0375496
0.0365572
0.0355762
0.0346071
0.0336484
0.032701
0.0317655
0.030841
0.0299268
0.029023
0.0281301
0.0272476
0.0263747
0.025512
0.0246589
0.0238152
0.0229811
0.0221567
0.0213424
0.0205379
0.0197433
0.0189594
0.0181861
0.0174234
0.0166741
0.0159374
0.0152142
0.0145068
0.0138168
0.0131465
0.0124986
0.0118761
0.0112822
0.010722
0.0102009
0.00972288
0.00929245
0.00891546
0.00859558
0.0083364
0.0411932
0.04026
0.0393369
0.038422
0.0375149
0.0366163
0.0357258
0.0348427
0.0339676
0.0331012
0.0322419
0.0313907
0.0305468
0.0297106
0.0288817
0.0280596
0.0272444
0.0264358
0.0256334
0.0248384
0.0240498
0.0232686
0.0224947
0.0217285
0.0209704
0.0202207
0.0194806
0.0187514
0.0180339
0.0173294
0.0166396
0.0159666
0.0153125
0.0146805
0.014074
0.0134961
0.0129513
0.0124434
0.0119773
0.0115575
0.0111871
0.0108699
0.0106081
0.0417547
0.0409056
0.0400631
0.0392266
0.0383952
0.0375694
0.0367481
0.0359315
0.0351203
0.0343141
0.0335126
0.0327165
0.0319252
0.0311385
0.0303567
0.029579
0.0288056
0.0280359
0.0272708
0.0265097
0.0257526
0.0250002
0.0242536
0.0235122
0.0227766
0.0220477
0.0213264
0.0206146
0.0199134
0.0192232
0.018547
0.0178874
0.0172457
0.0166252
0.0160292
0.0154609
0.0149246
0.0144242
0.0139644
0.0135484
0.0131792
0.0128603
0.012593
0.0422771
0.0415034
0.0407335
0.0399666
0.0392022
0.0384399
0.03768
0.0369222
0.0361667
0.0354132
0.0346628
0.0339148
0.0331687
0.0324253
0.031685
0.0309464
0.0302095
0.0294741
0.0287411
0.0280093
0.0272796
0.0265527
0.025829
0.0251089
0.0243929
0.0236819
0.0229764
0.0222792
0.0215908
0.020912
0.0202469
0.0195965
0.0189635
0.0183515
0.0177623
0.0172004
0.0166694
0.0161736
0.0157162
0.0153005
0.0149304
0.0146086
0.014337
0.0427624
0.0420562
0.0413508
0.0406457
0.0399398
0.0392342
0.0385289
0.0378227
0.0371151
0.0364081
0.0357015
0.0349955
0.0342888
0.0335832
0.0328787
0.0321748
0.0314703
0.030765
0.0300594
0.0293539
0.0286487
0.0279435
0.027239
0.0265368
0.0258371
0.0251414
0.0244498
0.0237646
0.023086
0.0224175
0.0217601
0.0211163
0.0204897
0.0198833
0.0193003
0.0187429
0.0182158
0.0177222
0.0172649
0.0168485
0.0164768
0.0161514
0.0158748
0.0432126
0.0425665
0.0419175
0.0412674
0.0406136
0.0399579
0.0393008
0.0386402
0.0379747
0.0373074
0.0366389
0.0359699
0.0352981
0.0346241
0.03395
0.0332767
0.0326018
0.031923
0.0312407
0.0305592
0.0298752
0.0291888
0.0285013
0.0278137
0.0271277
0.0264454
0.0257664
0.0250906
0.02442
0.0237589
0.0231075
0.0224685
0.0218463
0.0212448
0.0206661
0.0201127
0.0195881
0.0190953
0.0186383
0.0182213
0.0178455
0.0175168
0.0172353
0.0436297
0.0430396
0.0424363
0.0418372
0.0412288
0.040614
0.039999
0.0393824
0.0387526
0.0381211
0.0374826
0.0368459
0.0362063
0.0355581
0.0349085
0.0342599
0.0336123
0.0329618
0.0322954
0.0316358
0.0309701
0.0303033
0.0296291
0.0289555
0.0282786
0.0276075
0.0269397
0.0262754
0.0256081
0.0249528
0.0243081
0.0236712
0.0230496
0.0224499
0.0218778
0.0213261
0.020803
0.0203122
0.0198544
0.0194397
0.0190549
0.0187279
0.0184391
0.00186911
0.00205422
0.00231923
0.00259379
0.00287054
0.00315045
0.00343209
0.00371719
0.00400676
0.00430127
0.00460294
0.00491356
0.00523369
0.00556467
0.00590828
0.00626419
0.00663419
0.00701804
0.00741715
0.00783044
0.00825919
0.00870298
0.00916177
0.00963481
0.0101214
0.0106206
0.0111332
0.0116578
0.0121977
0.0127584
0.0133426
0.0139506
0.0145803
0.0152313
0.0159036
0.0165987
0.0173161
0.0180552
0.0188163
0.0195997
0.0204054
0.0212332
0.0220818
0.00551197
0.00538837
0.00532768
0.00532626
0.00538031
0.00548082
0.00562454
0.00580454
0.00601672
0.00625758
0.00652369
0.00681232
0.00712084
0.00744842
0.00779295
0.00815348
0.00852932
0.00892075
0.00932513
0.00974459
0.0101769
0.010623
0.011081
0.011552
0.0120355
0.0125309
0.0130385
0.0135583
0.0140921
0.0146397
0.0152032
0.0157812
0.0163745
0.0169837
0.0176085
0.01825
0.0189081
0.0195835
0.0202761
0.0209865
0.0217152
0.0224619
0.0232269
0.00813499
0.00798719
0.00789508
0.00785617
0.00786927
0.00792884
0.00803045
0.00817194
0.00834837
0.00855587
0.00879043
0.00905165
0.00933479
0.00963872
0.00996119
0.0103006
0.0106572
0.0110275
0.0114128
0.0118115
0.0122229
0.0126458
0.0130809
0.0135284
0.0139857
0.014455
0.0149345
0.0154258
0.0159283
0.0164423
0.0169679
0.0175057
0.0180557
0.0186175
0.0191921
0.0197802
0.0203819
0.0209969
0.0216263
0.0222702
0.0229288
0.0236023
0.024291
0.0103982
0.010241
0.0101349
0.0100799
0.0100728
0.0101115
0.0101926
0.0103133
0.0104682
0.0106556
0.0108723
0.0111139
0.0113791
0.0116655
0.0119704
0.0122928
0.0126306
0.0129838
0.0133509
0.01373
0.0141202
0.0145217
0.0149346
0.0153564
0.0157893
0.016231
0.0166828
0.017144
0.0176145
0.0180946
0.0185842
0.0190832
0.0195915
0.0201102
0.0206392
0.0211789
0.0217294
0.0222911
0.0228642
0.0234488
0.0240451
0.0246534
0.0252741
0.0123778
0.0122127
0.0120966
0.0120298
0.0120104
0.0120371
0.0121047
0.0122115
0.0123534
0.012527
0.0127301
0.0129589
0.0132115
0.0134846
0.0137758
0.0140847
0.0144093
0.0147479
0.0150985
0.0154603
0.0158332
0.0162163
0.0166082
0.0170095
0.017419
0.0178376
0.018264
0.0186982
0.0191404
0.0195898
0.0200468
0.0205109
0.0209832
0.0214636
0.0219521
0.0224495
0.0229553
0.0234701
0.0239936
0.024526
0.0250674
0.0256175
0.0261769
0.0141156
0.0139432
0.01382
0.0137456
0.0137182
0.0137353
0.0137938
0.0138914
0.0140239
0.0141889
0.0143822
0.0146018
0.0148446
0.015107
0.0153884
0.015687
0.0159996
0.0163257
0.016663
0.0170107
0.0173679
0.0177344
0.018109
0.0184918
0.0188831
0.0192808
0.0196851
0.020096
0.0205133
0.0209361
0.0213641
0.0217984
0.0222389
0.022686
0.0231401
0.0236006
0.0240676
0.024541
0.0250213
0.0255078
0.0260006
0.0264997
0.0270052
0.0156476
0.01547
0.0153411
0.0152599
0.0152261
0.0152363
0.0152887
0.0153802
0.0155065
0.0156645
0.0158515
0.0160635
0.0162979
0.0165527
0.0168264
0.0171157
0.01742
0.0177356
0.0180608
0.0183947
0.0187389
0.0190912
0.0194517
0.0198196
0.0201942
0.0205742
0.0209599
0.0213509
0.0217463
0.0221454
0.0225485
0.0229564
0.0233702
0.0237892
0.0242132
0.024642
0.0250751
0.0255127
0.025955
0.0264013
0.0268513
0.0273054
0.0277642
0.0170044
0.0168216
0.016687
0.0166009
0.0165621
0.0165673
0.0166152
0.016702
0.0168247
0.016978
0.0171589
0.0173653
0.0175938
0.0178419
0.0181095
0.0183918
0.018689
0.018994
0.0193066
0.0196292
0.0199629
0.0203047
0.0206526
0.0210073
0.02137
0.0217335
0.0221023
0.022477
0.0228535
0.0232306
0.023611
0.0239974
0.0243893
0.0247845
0.0251829
0.025584
0.025987
0.0263932
0.0268028
0.0272136
0.0276258
0.02804
0.0284577
0.0182098
0.0180203
0.0178825
0.0177917
0.0177488
0.0177508
0.0177947
0.0178791
0.0180011
0.0181474
0.0183243
0.0185266
0.0187488
0.0189905
0.0192568
0.0195287
0.0198267
0.0201129
0.0204135
0.0207279
0.0210582
0.0213882
0.0217246
0.0220704
0.0224264
0.0227654
0.0231246
0.0234864
0.0238413
0.0241978
0.0245609
0.0249322
0.0253082
0.0256811
0.0260589
0.0264355
0.0268102
0.0271908
0.0275733
0.0279518
0.0283319
0.0287118
0.0290967
0.00994524
0.00935153
0.00878514
0.00824519
0.00773077
0.00724102
0.00677508
0.00633212
0.00591146
0.00551244
0.00513429
0.0047763
0.00443776
0.00411807
0.00381671
0.00353337
0.00326791
0.00302062
0.00279243
0.00258511
0.00240188
0.00224221
0.00210083
0.00197316
0.00185606
0.00174732
0.00164521
0.00154835
0.00145557
0.00136578
0.00127804
0.00119146
0.00110519
0.00101844
0.000930438
0.000840505
0.000747973
0.000652226
0.000552785
0.000449433
0.000342561
0.000232388
0.00010791
0.00990942
0.00936023
0.00883408
0.00833037
0.00784836
0.00738736
0.00694667
0.00652563
0.00612365
0.0057402
0.00537473
0.00502662
0.00469533
0.00438036
0.00408128
0.00379777
0.00352964
0.00327701
0.00304029
0.00282059
0.00262006
0.00244141
0.00228319
0.00214116
0.00201187
0.00189274
0.00178176
0.00167728
0.00157792
0.00148242
0.00138971
0.00129877
0.00120864
0.00111839
0.00102714
0.000934069
0.000838418
0.000739548
0.000637168
0.000531799
0.00042617
0.00033064
0.000293644
0.00988
0.00937273
0.00888511
0.00841622
0.00796541
0.00753211
0.00711578
0.00671589
0.00633198
0.00596363
0.00561046
0.00527204
0.00494796
0.00463778
0.00434121
0.00405794
0.00378786
0.00353093
0.00328741
0.00305793
0.00284389
0.00264792
0.00247245
0.00231474
0.0021714
0.00203984
0.00191802
0.00180414
0.00169662
0.00159407
0.00149522
0.00139889
0.00130399
0.00120946
0.00111426
0.00101743
0.000918052
0.000815441
0.000709532
0.00060202
0.000500679
0.00043699
0.000494313
0.00985279
0.00938518
0.00893303
0.00849615
0.00807407
0.00766634
0.00727253
0.00689229
0.00652524
0.00617107
0.00582952
0.00550036
0.00518321
0.00487784
0.00458398
0.00430146
0.00403017
0.00377007
0.00352133
0.00328437
0.00306017
0.00285064
0.00265909
0.00248606
0.00232838
0.00218359
0.00204981
0.00192531
0.0018085
0.00169786
0.00159198
0.00148953
0.00138924
0.00128992
0.00119037
0.00108945
0.000986129
0.000879715
0.00077054
0.000662444
0.000572414
0.000560508
0.00070728
0.0098317
0.00939772
0.00897738
0.00856955
0.00817365
0.00778929
0.00741617
0.00705399
0.00670252
0.00636151
0.00603084
0.00571034
0.00539983
0.00509915
0.00480813
0.00452666
0.00425468
0.00399223
0.00373942
0.00349661
0.00326447
0.00304445
0.00283926
0.00265198
0.00248057
0.00232265
0.00217654
0.0020408
0.00191395
0.0017945
0.00168093
0.00157178
0.00146566
0.0013612
0.00125706
0.00115193
0.00104468
0.000934647
0.000822832
0.000716464
0.00064621
0.000698723
0.000920694
0.00981024
0.00940924
0.00901817
0.00863679
0.00826474
0.00790174
0.00754754
0.00720192
0.00686475
0.0065359
0.0062153
0.0059029
0.00559869
0.00530256
0.00501438
0.00473414
0.00446183
0.00419756
0.00394148
0.00369387
0.00345533
0.00322693
0.00301078
0.00281057
0.00262647
0.00245608
0.00229791
0.00215083
0.00201361
0.00188488
0.00176317
0.00164695
0.0015347
0.00142489
0.00131602
0.00120664
0.00109554
0.000982135
0.000868439
0.000766408
0.000723767
0.000844074
0.00112667
0.0097909
0.00941973
0.00905545
0.00869821
0.00834799
0.00800464
0.0076679
0.00733754
0.00701346
0.0066957
0.00638427
0.00607933
0.00578103
0.00548933
0.00520412
0.00492525
0.00465285
0.00438712
0.00412824
0.00387653
0.00363251
0.00339712
0.00317206
0.00296054
0.00276493
0.00258306
0.00241347
0.00225533
0.00210777
0.00196965
0.00183961
0.0017161
0.00159749
0.00148222
0.00136864
0.00125513
0.00114032
0.00102384
0.000908975
0.00081376
0.000804547
0.000989623
0.00132163
0.00977403
0.00942942
0.00908934
0.00875399
0.0084237
0.00809886
0.00777875
0.00746285
0.0071509
0.00684318
0.00653986
0.00624121
0.00594809
0.00566086
0.00537953
0.00510277
0.00483076
0.00456384
0.00430255
0.00404713
0.00379775
0.00355576
0.00332276
0.00310157
0.00289583
0.00270369
0.00252352
0.00235464
0.00219654
0.00204877
0.00191033
0.00177964
0.00165464
0.00153347
0.00141468
0.00129689
0.00117855
0.00105948
0.00094466
0.000859008
0.000887016
0.001131
0.00150486
0.00975946
0.00943834
0.00911993
0.00880391
0.00849096
0.00818459
0.00788187
0.00758153
0.00728133
0.00698289
0.00668679
0.00639123
0.00610133
0.00581646
0.00554356
0.00527286
0.00500407
0.00473765
0.00447465
0.0042185
0.00396324
0.00371243
0.00346973
0.00323714
0.00302302
0.00282501
0.00263776
0.00246226
0.00229398
0.00213386
0.00198406
0.00184507
0.00171777
0.0015955
0.00147277
0.00134807
0.00122398
0.00109881
0.000980481
0.00090308
0.000967381
0.00126623
0.00167796
0.000141294
0.000293995
0.000449509
0.000635603
0.000847485
0.0010846
0.00134627
0.0016318
0.00194049
0.0022719
0.00262557
0.0030013
0.003399
0.00381871
0.00426035
0.00472399
0.00520996
0.00571825
0.00624907
0.00680264
0.00737915
0.00797859
0.00860125
0.00924716
0.00991629
0.0106085
0.0113239
0.0120621
0.0128227
0.0136053
0.0144091
0.0152333
0.0160768
0.0169382
0.0178157
0.0187074
0.0196108
0.0205228
0.0214399
0.022358
0.0232721
0.0241766
0.0250655
0.000402731
0.000571972
0.000776239
0.0010058
0.00125928
0.00153687
0.00183831
0.00216306
0.00251054
0.0028802
0.00327136
0.00368348
0.0041161
0.00456886
0.00504153
0.00553368
0.00604518
0.00657591
0.00712559
0.00769425
0.00828168
0.00888776
0.00951226
0.0101552
0.0108161
0.0114948
0.012191
0.0129042
0.0136338
0.0143793
0.01514
0.0159147
0.0167024
0.0175018
0.0183112
0.0191287
0.0199522
0.0207789
0.021606
0.0224298
0.0232465
0.0240514
0.0248399
0.000672794
0.000889528
0.00112974
0.00140258
0.00169875
0.00201723
0.0023579
0.00272047
0.00310434
0.00350899
0.00393373
0.00437775
0.00484045
0.00532124
0.00581947
0.00633465
0.00686629
0.00741402
0.00797734
0.00855592
0.0091494
0.00975741
0.0103796
0.0110155
0.0116648
0.012327
0.0130016
0.0136881
0.0143858
0.015094
0.0158118
0.0165385
0.0172727
0.0180132
0.0187585
0.0195071
0.0202568
0.0210056
0.0217507
0.0224894
0.0232183
0.0239335
0.0246293
0.000944323
0.00120533
0.00148182
0.00179359
0.00212921
0.00248581
0.00286287
0.00326011
0.00367708
0.00411309
0.00456738
0.00503911
0.00552747
0.0060317
0.00655099
0.00708461
0.00763187
0.00819222
0.00876499
0.00934959
0.00994552
0.0105522
0.0111692
0.0117959
0.0124317
0.0130762
0.0137287
0.0143885
0.0150551
0.0157277
0.0164054
0.0170872
0.0177722
0.018459
0.0191464
0.0198329
0.0205169
0.0211965
0.0218693
0.0225331
0.023185
0.0238216
0.0244371
0.00120621
0.00150654
0.00181799
0.00216508
0.0025364
0.00292764
0.0033378
0.00376652
0.00421325
0.00467726
0.00515771
0.00565366
0.00616414
0.00668826
0.00722506
0.00777362
0.00833322
0.00890296
0.00948218
0.0100701
0.0106661
0.0112695
0.0118796
0.0124957
0.0131174
0.0137438
0.0143745
0.0150089
0.0156461
0.0162854
0.016926
0.0175669
0.0182071
0.0188455
0.019481
0.0201123
0.0207381
0.0213567
0.0219661
0.0225645
0.0231496
0.0237189
0.0242685
0.00145354
0.00178915
0.00213273
0.00251194
0.0029155
0.00333797
0.00377795
0.00423497
0.0047084
0.00519742
0.00570104
0.00621821
0.00674784
0.00728883
0.00784027
0.00840106
0.00897024
0.00954701
0.0101304
0.0107197
0.011314
0.0119126
0.0125148
0.0131199
0.013727
0.0143357
0.0149454
0.0155556
0.0161656
0.0167745
0.0173812
0.0179849
0.0185847
0.0191797
0.019769
0.0203516
0.0209261
0.0214912
0.0220452
0.0225866
0.0231138
0.023625
0.0241184
0.00168478
0.00205225
0.00242522
0.00283344
0.0032659
0.00371628
0.00418294
0.00466528
0.00516275
0.00567424
0.00619847
0.00673422
0.00728035
0.00783573
0.00839923
0.00896977
0.00954637
0.0101281
0.0107141
0.0113031
0.0118943
0.0124872
0.0130809
0.0136745
0.014267
0.0148582
0.0154481
0.0160361
0.0166214
0.0172027
0.0177786
0.0183485
0.0189119
0.0194681
0.0200165
0.0205563
0.021086
0.0216043
0.0221099
0.0226018
0.0230785
0.0235392
0.023983
0.00190068
0.00229741
0.00269742
0.00313138
0.00358912
0.00406388
0.00455381
0.00505894
0.0055785
0.00611071
0.00665344
0.00720525
0.00776535
0.00833289
0.00890637
0.00948431
0.0100663
0.0106516
0.0112386
0.0118261
0.012413
0.0129996
0.0135847
0.0141664
0.0147433
0.0153172
0.015889
0.0164577
0.0170214
0.0175776
0.0181251
0.0186642
0.0191949
0.0197166
0.020229
0.0207317
0.0212224
0.0216998
0.0221632
0.0226118
0.0230443
0.0234604
0.0238608
0.00210369
0.00252811
0.00295534
0.00340979
0.0038882
0.00438303
0.00489142
0.00541724
0.00595897
0.00651146
0.0070707
0.00763563
0.00820725
0.00878538
0.00936693
0.00994913
0.0105351
0.0111233
0.0117104
0.0122945
0.0128756
0.0134564
0.0140339
0.0146021
0.01516
0.0157178
0.0162746
0.0168283
0.0173741
0.0179065
0.0184263
0.0189375
0.019439
0.0199297
0.0204111
0.0208829
0.0213398
0.0217807
0.0222073
0.0226186
0.0230119
0.0233871
0.0237472
6.9569e-05
0.000573057
0.00111239
0.00169254
0.00230211
0.00293567
0.00359023
0.00426211
0.00494912
0.00565081
0.00636778
0.00709917
0.00784541
0.0086063
0.00938359
0.0101763
0.0109853
0.0118118
0.0126546
0.0135149
0.0143927
0.0152885
0.0162027
0.0171352
0.0180871
0.0190576
0.0200477
0.0210581
0.0220884
0.023138
0.0242081
0.0252988
0.0264105
0.0275425
0.0286951
0.0298684
0.0310631
0.0322783
0.033514
0.0347694
0.0360447
0.0373389
0.0386528
2.67456e-05
0.000388887
0.000810117
0.00128591
0.00180608
0.00236249
0.00295012
0.00356542
0.00420601
0.00487108
0.00555807
0.00626599
0.00699482
0.00774341
0.00851169
0.00929961
0.0101063
0.0109321
0.0117773
0.0126416
0.0135249
0.0144276
0.01535
0.016292
0.0172535
0.0182352
0.0192369
0.0202599
0.0213022
0.0223653
0.0234491
0.0245535
0.025679
0.0268257
0.0279929
0.0291809
0.0303904
0.0316204
0.0328708
0.034141
0.0354317
0.0367417
0.0380734
1.39755e-05
0.000310336
0.000662302
0.00106648
0.00151922
0.00201457
0.00254735
0.00311423
0.00371262
0.00434007
0.00499441
0.00567428
0.00637878
0.0071066
0.00785793
0.0086313
0.00942624
0.010243
0.0110813
0.0119404
0.0128204
0.0137214
0.0146435
0.0155863
0.0165504
0.0175353
0.0185414
0.0195691
0.0206175
0.0216873
0.0227782
0.0238905
0.0250239
0.0261796
0.0273561
0.0285537
0.0297727
0.0310124
0.032273
0.0335539
0.0348555
0.036177
0.03752
6.80783e-06
0.000249925
0.00056218
0.000923162
0.00133299
0.00178572
0.00227749
0.00280514
0.00336618
0.00395827
0.00458023
0.00523046
0.00590769
0.00661106
0.00733982
0.00809365
0.00887178
0.00967365
0.0104986
0.0113468
0.0122179
0.0131119
0.0140286
0.0149673
0.0159286
0.0169121
0.0179183
0.0189466
0.0199966
0.0210691
0.0221639
0.0232804
0.0244189
0.0255798
0.0267626
0.0279669
0.0291925
0.0304401
0.0317086
0.032998
0.0343082
0.0356393
0.0369941
4.57332e-06
0.000217769
0.000504924
0.000835376
0.00121146
0.00162941
0.00208644
0.00257964
0.00310694
0.00366676
0.00425807
0.00487929
0.00552969
0.00620825
0.0069137
0.00764621
0.0084055
0.00919013
0.00999981
0.0108342
0.0116933
0.0125774
0.0134853
0.0144167
0.0153723
0.0163514
0.017354
0.0183797
0.019429
0.0205012
0.0215967
0.0227152
0.023856
0.0250196
0.0262059
0.0274144
0.0286455
0.0298987
0.0311732
0.0324691
0.0337862
0.035124
0.0364845
3.41628e-06
0.00019519
0.000463094
0.000769627
0.00111926
0.00150981
0.00193851
0.00240299
0.00290174
0.00343389
0.00399779
0.00459273
0.00521812
0.00587272
0.00655573
0.00726742
0.0080069
0.00877349
0.0095663
0.0103855
0.0112313
0.0121031
0.0130001
0.0139228
0.0148703
0.0158424
0.0168391
0.0178608
0.0189068
0.0199766
0.0210707
0.0221886
0.0233296
0.0244945
0.0256827
0.026894
0.0281283
0.029385
0.0306635
0.0319641
0.0332864
0.0346293
0.0359932
2.66407e-06
0.000176575
0.000429142
0.000716896
0.00104588
0.00141414
0.00181937
0.00226007
0.00273462
0.00324232
0.00378225
0.0043537
0.00495603
0.005588
0.00625022
0.00694137
0.00766103
0.00840927
0.00918535
0.00998917
0.0108206
0.0116792
0.0125644
0.0134762
0.0144139
0.0153777
0.0163678
0.0173832
0.0184239
0.0194901
0.0205809
0.0216961
0.0228365
0.0240013
0.0251897
0.0264019
0.0276378
0.0288967
0.0301783
0.0314823
0.0328082
0.0341554
0.0355234
2.33844e-06
0.00016141
0.000401582
0.000674093
0.000985858
0.00133523
0.00172068
0.00214099
0.00259476
0.00308127
0.00359975
0.00415009
0.00473131
0.0053429
0.00598486
0.00665667
0.00735803
0.00808838
0.00884799
0.00963619
0.0104528
0.0112976
0.0121699
0.0130703
0.0139975
0.0149522
0.0159335
0.0169414
0.017976
0.0190366
0.0201228
0.0212352
0.022373
0.0235357
0.0247232
0.0259354
0.0271718
0.0284319
0.0297153
0.0310218
0.0323505
0.0337013
0.0350741
2.42041e-06
0.000148493
0.000378634
0.000638613
0.000935449
0.00126873
0.00163733
0.00203989
0.00247542
0.00294339
0.00344297
0.00397387
0.00453605
0.00512905
0.00575226
0.00640605
0.00708991
0.00780316
0.00854633
0.00931898
0.0101208
0.0109516
0.0118112
0.0126992
0.0136158
0.0145599
0.0155319
0.0165322
0.0175593
0.0186132
0.0196944
0.0208022
0.0219358
0.0230959
0.0242814
0.0254924
0.0267282
0.0279882
0.0292728
0.0305807
0.0319116
0.0332659
0.0346428
2.72867e-06
0.000137341
0.000359324
0.000608008
0.000892139
0.00121178
0.00156547
0.0019523
0.00237167
0.00282314
0.00330595
0.00381968
0.00436466
0.00494035
0.00554628
0.00618299
0.00685009
0.00754707
0.0082745
0.00903212
0.00981966
0.0106366
0.0114828
0.0123588
0.0132639
0.0141974
0.01516
0.0161511
0.01717
0.018217
0.0192921
0.020394
0.0215235
0.0226796
0.0238624
0.025071
0.0263051
0.0275648
0.0288492
0.0301577
0.0314905
0.0328468
0.0342274
2.9479e-06
0.000127691
0.000342238
0.000581055
0.000854481
0.00116204
0.0015027
0.00187579
0.00228059
0.00271716
0.00318477
0.00368313
0.00421199
0.00477156
0.00536199
0.00598298
0.00663421
0.00731605
0.00802842
0.00877147
0.00954453
0.0103479
0.0111812
0.0120448
0.0129383
0.0138615
0.0148136
0.015795
0.0168055
0.0178453
0.0189132
0.0200093
0.0211333
0.0222853
0.0234639
0.0246695
0.0259015
0.0271592
0.0284428
0.0297512
0.0310843
0.0324413
0.0338238
3.07126e-06
0.000119284
0.000327127
0.000557503
0.000821246
0.00111795
0.00144711
0.00180778
0.00219986
0.00262293
0.00307643
0.00356052
0.00407497
0.00461999
0.00519568
0.00580183
0.00643859
0.00710591
0.00780424
0.00853301
0.00929259
0.0100828
0.0109034
0.0117546
0.0126365
0.0135487
0.0144903
0.0154621
0.0164642
0.0174952
0.0185558
0.0196453
0.0207638
0.0219103
0.0230845
0.0242865
0.0255152
0.0267711
0.0280528
0.0293604
0.030693
0.0320497
0.0334308
3.11426e-06
0.000111894
0.000313844
0.000536635
0.000791576
0.00107859
0.00139721
0.00174691
0.00212747
0.00253822
0.00297907
0.00345024
0.00395157
0.0044831
0.00504485
0.0056374
0.00626034
0.00691414
0.00759863
0.00831392
0.00906037
0.00983809
0.0106462
0.0114852
0.0123556
0.0132564
0.0141879
0.0151502
0.0161429
0.0171654
0.0182183
0.0193008
0.0204128
0.0215535
0.022723
0.0239206
0.0251461
0.0263988
0.0276785
0.0289848
0.0303162
0.0316723
0.0330529
3.09259e-06
0.000105198
0.000302031
0.000518032
0.000764929
0.00104332
0.00135262
0.00169235
0.00206196
0.00246148
0.00289092
0.00335001
0.00383913
0.00435803
0.00490718
0.0054868
0.00609698
0.00673781
0.00740942
0.00811176
0.00884567
0.00961073
0.0104068
0.0112342
0.012093
0.0129833
0.0139044
0.0148567
0.0158402
0.0168545
0.017899
0.0189741
0.0200791
0.0212138
0.0223779
0.0235706
0.0247921
0.0260416
0.0273189
0.028623
0.0299534
0.0313096
0.0326933
3.04077e-06
9.9198e-05
0.000291138
0.000501121
0.000740875
0.00101136
0.00131219
0.00164267
0.00200256
0.00239188
0.00281057
0.00325867
0.00373612
0.00424334
0.00478084
0.00534855
0.0059463
0.00657479
0.00723414
0.00792459
0.00864618
0.00939946
0.010184
0.011
0.0118478
0.0127271
0.0136376
0.0145803
0.0155546
0.0165599
0.0175963
0.0186636
0.0197615
0.02089
0.0220481
0.0232358
0.0244529
0.0256987
0.026973
0.0282748
0.0296036
0.030959
0.0323412
2.97759e-06
9.397e-05
0.000281413
0.000485881
0.000718929
0.000982143
0.00127498
0.00159699
0.00194795
0.00232795
0.00273684
0.00317463
0.00364156
0.00413801
0.00466438
0.00522072
0.00580694
0.00642368
0.00707161
0.00775026
0.00846025
0.00920193
0.00997531
0.0107806
0.0116173
0.0124858
0.0133865
0.0143194
0.0152844
0.0162807
0.0173087
0.0183683
0.0194589
0.0205807
0.0217328
0.0229155
0.0241275
0.0253695
0.0266401
0.027939
0.029266
0.0306206
0.0320046
2.89346e-06
8.92109e-05
0.000272585
0.000472008
0.000698883
0.000955504
0.00124107
0.00155516
0.00189781
0.00226912
0.00266882
0.00309702
0.00355427
0.00404049
0.0045563
0.00510186
0.00567742
0.00628352
0.00692014
0.0075879
0.00828685
0.00901726
0.00977973
0.0105741
0.0114003
0.0122589
0.0131496
0.0140727
0.0150283
0.0160157
0.0170353
0.018087
0.0191703
0.020285
0.0214309
0.0226076
0.023815
0.0250524
0.0263187
0.0276145
0.0289387
0.0302917
0.0316732
2.82276e-06
8.56146e-05
0.00026435
0.000459028
0.000680218
0.000930718
0.00120965
0.00151663
0.00185157
0.00221457
0.00260583
0.00302543
0.0034732
0.00394985
0.00445589
0.00499123
0.00555698
0.00615259
0.00677877
0.00743603
0.00812423
0.00884398
0.009596
0.0103797
0.0111957
0.0120443
0.0129252
0.013839
0.0147853
0.0157638
0.0167751
0.0178187
0.0188944
0.020002
0.0211417
0.0223124
0.0235143
0.0247463
0.0260087
0.0273004
0.0286218
0.0299714
0.0313488
2.79139e-06
8.40209e-05
0.000256903
0.000447207
0.000663083
0.000907768
0.00118047
0.00148083
0.0018085
0.00216391
0.00254738
0.00295854
0.00339763
0.00386551
0.00436217
0.00488842
0.00544427
0.00602991
0.00664591
0.00729301
0.00797128
0.00868116
0.00942296
0.0101966
0.0110028
0.0118413
0.0127126
0.0136167
0.0145538
0.0155237
0.0165269
0.0175626
0.0186305
0.019731
0.0208639
0.0220287
0.0232245
0.0244515
0.0257092
0.0269971
0.0283142
0.0296598
0.0310335
2.83269e-06
8.46546e-05
0.000249939
0.000436294
0.000647452
0.000886764
0.00115364
0.00144766
0.00176878
0.00211721
0.00249295
0.00289605
0.0033272
0.00378647
0.00427459
0.00479181
0.00533831
0.00591476
0.00652123
0.00715859
0.0078272
0.00852719
0.00925917
0.0100234
0.0108199
0.011649
0.0125108
0.0134055
0.0143336
0.0152951
0.0162898
0.0173171
0.0183776
0.0194711
0.020597
0.0217553
0.0229456
0.0241672
0.0254203
0.0267034
0.0280159
0.0293578
0.0307275
2.92139e-06
8.6443e-05
0.000243726
0.000426226
0.000633035
0.00086727
0.00112854
0.00141664
0.00173153
0.00207328
0.00244178
0.0028377
0.00326119
0.00371254
0.00419247
0.00470099
0.0052387
0.00580615
0.00640383
0.00703196
0.0076912
0.00838187
0.00910444
0.00985921
0.0106462
0.011466
0.0123188
0.0132048
0.014124
0.0150767
0.0160627
0.0170823
0.0181353
0.0192214
0.0203404
0.0214923
0.0226767
0.0238929
0.0251406
0.026419
0.0277276
0.0290656
0.0304323
2.99637e-06
8.79107e-05
0.000238069
0.000416907
0.00061941
0.00084878
0.00110506
0.00138775
0.00169673
0.00203207
0.00239392
0.0027828
0.00319894
0.00364279
0.00411482
0.0046154
0.00514458
0.00570354
0.0062926
0.00691195
0.00756252
0.00824421
0.00895759
0.00970295
0.010481
0.0112917
0.0121357
0.0130129
0.0139236
0.0148679
0.0158458
0.0168576
0.0179028
0.0189817
0.0200939
0.0212393
0.0224174
0.0236276
0.0248701
0.026144
0.0274487
0.0287839
0.0301492
3.06062e-06
8.89742e-05
0.000232589
0.000408096
0.000606625
0.000831419
0.00108274
0.00136024
0.00166375
0.0019932
0.00234874
0.0027311
0.00314043
0.00357705
0.00404173
0.00453443
0.00505575
0.0056067
0.00618732
0.00679843
0.00744031
0.00811332
0.0088178
0.00955461
0.010324
0.011126
0.0119613
0.0128297
0.013732
0.0146679
0.0156379
0.0166416
0.0176793
0.018751
0.0198564
0.0209951
0.0221667
0.0233717
0.024609
0.0258781
0.0271791
0.0285106
0.0298726
3.10587e-06
8.97327e-05
0.000227563
0.000399822
0.000594585
0.000815002
0.00106178
0.00133436
0.0016325
0.00195642
0.00230627
0.00268229
0.003085
0.00351488
0.00397245
0.0044579
0.00497185
0.00551491
0.00608767
0.0066908
0.00732421
0.00798882
0.00868517
0.00941341
0.0101743
0.0109678
0.0117945
0.0126547
0.0135486
0.0144764
0.0154381
0.0164343
0.0174646
0.018529
0.0196274
0.0207594
0.0219251
0.0231245
0.0243566
0.0256212
0.026918
0.0282464
0.0296069
3.13704e-06
9.02026e-05
0.000222776
0.000391993
0.000583345
0.000799869
0.00104233
0.00131017
0.00160321
0.00192175
0.00226601
0.00263616
0.00303273
0.00345606
0.00390696
0.00438543
0.00489215
0.00542787
0.00599307
0.00658821
0.00721367
0.00787021
0.00855853
0.00927866
0.0100311
0.0108163
0.0116346
0.0124867
0.0133727
0.0142923
0.0152465
0.0162349
0.0172579
0.018315
0.0194065
0.0205322
0.0216918
0.0228855
0.0241123
0.0253721
0.0266646
0.0279895
0.0293466
3.16892e-06
9.04935e-05
0.000218262
0.00038472
0.000572642
0.000785414
0.00102377
0.00128717
0.0015754
0.00188878
0.00222765
0.00259231
0.00298288
0.00340008
0.00384435
0.00431603
0.00481599
0.00534481
0.0059028
0.0064904
0.00710802
0.00775688
0.00843737
0.00914966
0.00989426
0.0106713
0.0114816
0.0123259
0.0132037
0.0141158
0.0150621
0.0160432
0.0170588
0.0181086
0.0191934
0.0203129
0.0214663
0.0226539
0.0238755
0.0251304
0.0264188
0.0277402
0.0290954
3.20097e-06
9.07186e-05
0.000214054
0.00037787
0.000562693
0.00077184
0.00100608
0.00126518
0.00154904
0.00185771
0.00219152
0.00255075
0.00293574
0.00334686
0.00378483
0.00425037
0.00474378
0.00526571
0.00581676
0.00639698
0.00700754
0.00764912
0.00832181
0.0090263
0.00976299
0.0105325
0.0113353
0.0121714
0.0130417
0.013946
0.0148849
0.0158585
0.0168667
0.0179094
0.0189877
0.0201007
0.0212478
0.0224299
0.0236457
0.0248958
0.0261794
0.0274961
0.0288461
3.22519e-06
9.07453e-05
0.000209971
0.000371324
0.000553211
0.000758868
0.000989287
0.00124435
0.00152395
0.00182815
0.00215701
0.00251115
0.00289074
0.00329631
0.00372846
0.00418784
0.00467489
0.00519026
0.00573433
0.00630775
0.00691158
0.00754583
0.008211
0.00890784
0.00963723
0.0103994
0.0111944
0.012023
0.0128857
0.0137828
0.0147141
0.0156805
0.0166814
0.0177176
0.018789
0.019895
0.0210364
0.0222124
0.0234228
0.0246675
0.0259458
0.0272571
0.0286011
3.24655e-06
9.07416e-05
0.000206193
0.000365036
0.000544147
0.00074666
0.000973456
0.00122478
0.00150032
0.00180011
0.00212433
0.00247334
0.00284771
0.00324802
0.00367451
0.00412799
0.0046089
0.00511796
0.00565565
0.00622267
0.0068196
0.00744664
0.00810464
0.0087946
0.00951671
0.0102714
0.0110591
0.0118803
0.0127356
0.0136253
0.0145496
0.0155086
0.0165029
0.0175322
0.0185966
0.0196962
0.0208314
0.0220012
0.0232061
0.0244452
0.0257181
0.0270245