/*--------------------------------*- C++ -*----------------------------------*\
| =========                 |                                                 |
| \\      /  F ield         | OpenFOAM: The Open Source CFD Toolbox           |
|  \\    /   O peration     | Version:  2.3.0                                 |
|   \\  /    A nd           | Web:      www.OpenFOAM.org                      |
|    \\/     M anipulation  |                                                 |
\*---------------------------------------------------------------------------*/
FoamFile
{
    version     2.0;
    format      ascii;
    class       volVectorField;
    location    "10000";
    object      U;
}
// * * * * * * * * * * * * * * * * * * * * * * * * * * * * * * * * * * * * * //

dimensions      [0 1 -1 0 0 0 0];

internalField   nonuniform List<vector> 
123327
(
(13.0509 -0.802063 1.11668e-21)
(12.9108 -0.915275 6.74071e-22)
(12.7636 -1.02373 2.4125e-21)
(12.6149 -1.13564 0)
(12.4647 -1.25086 -5.42944e-21)
(12.3129 -1.36906 -4.35332e-21)
(12.1594 -1.49034 0)
(12.0041 -1.61473 -1.71431e-21)
(11.8471 -1.74246 1.06815e-20)
(11.6884 -1.8737 -1.22476e-20)
(11.5276 -2.00863 -1.04279e-20)
(11.3648 -2.14732 4.94563e-21)
(11.1999 -2.29027 1.21187e-20)
(11.0325 -2.43778 -8.98069e-21)
(10.8624 -2.58997 0)
(10.6894 -2.74729 2.0786e-21)
(10.5134 -2.91033 -1.04807e-20)
(10.3341 -3.07937 -2.38367e-21)
(10.1511 -3.25513 1.56614e-20)
(9.96429 -3.43829 1.13698e-21)
(9.7733 -3.62974 -5.4612e-21)
(9.57762 -3.83019 -2.9682e-21)
(9.37668 -4.04089 8.89364e-21)
(9.17026 -4.26306 9.58947e-21)
(8.95802 -4.4982 0)
(8.7391 -4.74791 -1.8906e-20)
(8.51319 -5.01392 -4.11976e-21)
(8.28055 -5.29934 1.69657e-20)
(8.04013 -5.60633 -1.42267e-20)
(7.79146 -5.93788 -1.7467e-20)
(7.53493 -6.29858 -1.02111e-20)
(7.26965 -6.69227 -3.82485e-20)
(6.99688 -7.12491 2.51378e-20)
(6.71661 -7.6036 -1.08654e-20)
(6.42981 -8.13655 -3.44529e-20)
(6.13526 -8.73389 3.67903e-20)
(5.83281 -9.40948 4.90971e-21)
(5.52631 -10.1794 1.36298e-20)
(5.22531 -11.0639 -1.8891e-20)
(4.93936 -12.09 0)
(4.70899 -13.2985 7.59792e-21)
(4.60139 -14.7502 6.96156e-21)
(4.74634 -16.3932 5.91534e-19)
(13.1847 -0.96053 -2.16043e-21)
(13.0656 -1.07029 2.70789e-21)
(12.9411 -1.17571 0)
(12.8161 -1.28438 0)
(12.6903 -1.3962 3.15609e-21)
(12.5637 -1.5111 1.12887e-21)
(12.4364 -1.62917 0)
(12.3082 -1.7504 0)
(12.1793 -1.87497 -3.79939e-21)
(12.0497 -2.00318 -6.86696e-21)
(11.9195 -2.1352 4.23383e-23)
(11.7885 -2.27126 -5.54494e-22)
(11.6565 -2.4116 -5.87436e-21)
(11.5238 -2.55668 1.79289e-21)
(11.3903 -2.70681 8.66983e-21)
(11.2555 -2.86215 -5.92425e-21)
(11.1198 -3.02328 8.13815e-21)
(10.9831 -3.19062 -2.18726e-21)
(10.8452 -3.36447 1.1989e-20)
(10.7064 -3.54553 7.65366e-21)
(10.5666 -3.73439 1.34585e-20)
(10.4259 -3.93175 -5.66612e-21)
(10.2846 -4.13833 9.16439e-21)
(10.1429 -4.35516 2.35787e-22)
(10.0013 -4.58329 -1.41891e-21)
(9.85986 -4.82386 -1.62162e-22)
(9.71936 -5.07819 -2.19645e-21)
(9.58118 -5.34795 1.67259e-20)
(9.4461 -5.6349 -6.60668e-21)
(9.31525 -5.94079 1.59814e-20)
(9.19078 -6.26791 9.51144e-21)
(9.07538 -6.61882 -4.1913e-20)
(8.97226 -6.99601 9.23426e-20)
(8.88593 -7.4023 -4.55198e-20)
(8.82212 -7.84075 0)
(8.78718 -8.31449 4.32817e-20)
(8.79231 -8.82651 -8.91546e-21)
(8.85127 -9.3791 -3.75422e-20)
(8.98045 -9.9728 2.80756e-20)
(9.20329 -10.6057 -2.96489e-20)
(9.55189 -11.2698 6.96993e-21)
(10.0749 -11.9418 -7.07917e-21)
(10.8323 -12.5752 7.73861e-20)
(13.3118 -1.09877 0)
(13.2079 -1.20512 -3.56984e-21)
(13.1001 -1.30811 0)
(12.9922 -1.4144 0)
(12.8839 -1.52376 -1.10575e-21)
(12.7751 -1.63626 1.11194e-21)
(12.6661 -1.75204 -1.37198e-21)
(12.5566 -1.87109 1.37523e-21)
(12.4467 -1.99354 0)
(12.3368 -2.1197 3.08341e-21)
(12.2268 -2.24974 2.14104e-21)
(12.1167 -2.38393 1.65074e-21)
(12.0064 -2.52261 -3.4918e-21)
(11.8962 -2.66612 -4.03712e-21)
(11.7859 -2.81496 -8.93787e-21)
(11.6755 -2.96935 6.89926e-21)
(11.5651 -3.12972 4.20465e-21)
(11.4547 -3.29662 0)
(11.3444 -3.47053 -2.35786e-21)
(11.2343 -3.65196 0)
(11.1248 -3.84157 1.6343e-21)
(11.016 -4.04009 -7.56421e-21)
(10.9083 -4.24828 -3.10353e-21)
(10.8021 -4.46696 0)
(10.698 -4.69716 -5.2687e-21)
(10.5967 -4.93992 4.98058e-22)
(10.4987 -5.19644 -1.00063e-20)
(10.4059 -5.46787 -1.19616e-20)
(10.3193 -5.75575 2.32515e-20)
(10.2403 -6.06146 -2.32613e-20)
(10.1714 -6.38639 7.35773e-22)
(10.1155 -6.73217 1.12762e-20)
(10.0756 -7.10017 -2.84746e-21)
(10.056 -7.49158 2.26987e-21)
(10.0614 -7.90728 0)
(10.0975 -8.34743 0)
(10.1717 -8.81075 0)
(10.2929 -9.29456 -4.33757e-21)
(10.4698 -9.79373 5.20565e-22)
(10.7122 -10.2997 -3.91232e-20)
(11.0304 -10.7982 3.99487e-20)
(11.4325 -11.2679 0)
(11.9211 -11.6769 -2.55134e-21)
(13.431 -1.21847 0)
(13.3407 -1.31811 2.3818e-21)
(13.248 -1.41651 0)
(13.1553 -1.51823 -1.22167e-21)
(13.0625 -1.62294 -4.09887e-22)
(12.9697 -1.73073 5.02288e-22)
(12.8767 -1.8417 1.89326e-22)
(12.7835 -1.9558 0)
(12.6904 -2.07323 0)
(12.5975 -2.19409 0)
(12.5049 -2.31865 -3.12421e-21)
(12.4128 -2.44713 2.33451e-21)
(12.3211 -2.57991 5.60175e-22)
(12.2301 -2.71727 -1.87177e-21)
(12.1398 -2.85963 4.21712e-21)
(12.0501 -3.00734 -7.5408e-22)
(11.9612 -3.16083 -4.14535e-21)
(11.8731 -3.32038 0)
(11.7861 -3.48648 -8.01922e-21)
(11.7004 -3.65957 2.88975e-21)
(11.6163 -3.84029 1.76877e-21)
(11.5344 -4.02907 6.63715e-22)
(11.4549 -4.22666 9.96818e-22)
(11.3784 -4.43358 0)
(11.3058 -4.65066 0)
(11.2377 -4.87873 3.46234e-21)
(11.1753 -5.11849 0)
(11.12 -5.37082 5.90431e-21)
(11.0732 -5.63663 2.22742e-21)
(11.0367 -5.91672 -5.83406e-21)
(11.0128 -6.21196 6.07551e-21)
(11.0041 -6.52285 -3.16038e-21)
(11.0135 -6.84994 2.76709e-21)
(11.0449 -7.19327 -2.19831e-21)
(11.1022 -7.55228 1.00049e-21)
(11.1901 -7.926 -2.41415e-21)
(11.3139 -8.3119 2.68285e-21)
(11.4787 -8.70654 2.1862e-20)
(11.6904 -9.10426 -3.84813e-20)
(11.9537 -9.49738 -9.18449e-21)
(12.2717 -9.87586 -2.14569e-20)
(12.6452 -10.2267 4.46488e-20)
(13.0701 -10.5349 8.64098e-21)
(13.54 -1.31786 -6.85661e-22)
(13.4626 -1.41229 3.3136e-22)
(13.3827 -1.50621 -4.37289e-22)
(13.3029 -1.60308 -2.99584e-22)
(13.223 -1.70281 -2.14353e-21)
(13.1431 -1.80552 1.21653e-21)
(13.063 -1.91136 -1.33271e-21)
(12.9829 -2.02033 4.3233e-22)
(12.9029 -2.13256 0)
(12.8231 -2.24814 -1.89107e-22)
(12.7437 -2.36715 1.19412e-21)
(12.6652 -2.48999 -1.29069e-21)
(12.5873 -2.6169 -2.07633e-21)
(12.5104 -2.74825 2.19393e-21)
(12.4345 -2.88443 -3.4714e-22)
(12.3597 -3.02581 1.15281e-21)
(12.2859 -3.17279 0)
(12.2132 -3.32579 0)
(12.1421 -3.48496 1.45709e-21)
(12.0727 -3.6509 -3.75039e-21)
(12.0054 -3.82399 3.37049e-22)
(11.9405 -4.00484 6.04197e-21)
(11.8788 -4.19384 -2.07579e-22)
(11.8206 -4.39169 0)
(11.7666 -4.59879 -7.94313e-22)
(11.7178 -4.81589 -3.32113e-22)
(11.6753 -5.04356 0)
(11.6404 -5.28244 -2.26893e-21)
(11.6145 -5.53298 -2.20018e-21)
(11.5993 -5.79595 4.05483e-22)
(11.5969 -6.07155 -1.4054e-21)
(11.6097 -6.35994 8.6448e-23)
(11.6403 -6.66123 0)
(11.6917 -6.97495 -1.31562e-21)
(11.7674 -7.30011 4.04456e-21)
(11.8708 -7.63519 3.55124e-21)
(12.0058 -7.97738 -9.24353e-21)
(12.1763 -8.32295 2.39541e-21)
(12.3857 -8.66671 -4.63725e-20)
(12.6361 -9.00227 1.7388e-21)
(12.9287 -9.3217 5.38708e-20)
(13.2622 -9.61526 0)
(13.6325 -9.8738 0)
(13.6427 -1.40237 2.58629e-21)
(13.5752 -1.49169 -7.04392e-21)
(13.5059 -1.58071 -1.22538e-22)
(13.4365 -1.67242 4.40349e-21)
(13.3672 -1.76674 1.46147e-21)
(13.298 -1.86407 0)
(13.2287 -1.96449 5.78695e-22)
(13.1595 -2.06807 8.10235e-22)
(13.0902 -2.17487 -3.50821e-22)
(13.021 -2.28502 1.10333e-22)
(12.9523 -2.39833 -4.07719e-22)
(12.8846 -2.51519 -7.20405e-22)
(12.8177 -2.63607 5.00288e-22)
(12.752 -2.76112 0)
(12.6876 -2.8907 0)
(12.6245 -3.02525 -1.23143e-21)
(12.5628 -3.16525 3.66936e-22)
(12.5025 -3.31117 1.27719e-22)
(12.4437 -3.46296 2.10545e-21)
(12.3869 -3.62113 0)
(12.3325 -3.78605 -1.73349e-22)
(12.2811 -3.95829 -1.96526e-21)
(12.233 -4.13824 2.24106e-21)
(12.1888 -4.32638 0)
(12.1491 -4.52307 -7.42165e-22)
(12.115 -4.72876 8.08486e-22)
(12.0874 -4.94408 -2.29955e-22)
(12.0678 -5.16933 5.99303e-22)
(12.0573 -5.40505 -1.24071e-22)
(12.0575 -5.65155 2.85378e-22)
(12.0707 -5.90862 6.89089e-22)
(12.0986 -6.17654 -5.20882e-22)
(12.1439 -6.45483 3.01069e-21)
(12.2091 -6.74273 -1.83136e-21)
(12.297 -7.03954 0)
(12.4103 -7.34311 1.30668e-20)
(12.5523 -7.65064 -2.03741e-20)
(12.7259 -7.95866 1.77282e-20)
(12.9329 -8.26301 -8.792e-21)
(13.1746 -8.55841 -9.76697e-21)
(13.4504 -8.83813 1.27947e-20)
(13.7591 -9.09457 0)
(14.0972 -9.32117 0)
(13.7368 -1.47431 -3.2712e-21)
(13.6785 -1.55925 -3.09193e-21)
(13.6179 -1.64318 0)
(13.5568 -1.72957 -4.99919e-21)
(13.4961 -1.81834 2.55668e-21)
(13.4359 -1.91026 -2.36634e-21)
(13.3756 -2.00541 0)
(13.3153 -2.10356 -1.37488e-21)
(13.255 -2.20512 0)
(13.1943 -2.31013 1.03682e-21)
(13.1338 -2.41821 1.3919e-21)
(13.0746 -2.52941 5.80627e-22)
(13.0164 -2.64465 -9.90975e-22)
(12.9593 -2.76397 -1.7818e-22)
(12.9035 -2.88752 0)
(12.8495 -3.01559 7.52317e-22)
(12.7973 -3.14898 -2.75761e-22)
(12.7465 -3.28837 0)
(12.6971 -3.43364 -8.24635e-23)
(12.6495 -3.58471 -6.88407e-24)
(12.6049 -3.74218 7.03711e-24)
(12.5633 -3.90665 2.09518e-23)
(12.5251 -4.07867 -2.15213e-23)
(12.4908 -4.2584 -4.59024e-22)
(12.461 -4.4463 7.37046e-22)
(12.4368 -4.64233 5.8301e-23)
(12.4195 -4.84711 -6.02645e-23)
(12.4102 -5.06097 0)
(12.4099 -5.28463 -5.6148e-22)
(12.4201 -5.51761 1.09499e-21)
(12.4428 -5.76028 1.40551e-21)
(12.4798 -6.0123 2.70151e-21)
(12.5332 -6.27287 0)
(12.6058 -6.54116 3.30767e-21)
(12.7001 -6.81643 -3.42372e-21)
(12.8175 -7.09721 -4.29351e-21)
(12.9608 -7.37956 -6.46341e-21)
(13.133 -7.6607 -7.85072e-21)
(13.335 -7.93775 8.58104e-21)
(13.5679 -8.20599 2.3504e-20)
(13.8284 -8.45948 -3.6426e-20)
(14.1176 -8.69159 0)
(14.4311 -8.89726 0)
(13.8223 -1.53478 0)
(13.7724 -1.61631 3.07224e-21)
(13.7197 -1.69573 -3.00892e-21)
(13.665 -1.77691 5.74173e-21)
(13.6114 -1.86 -2.53181e-21)
(13.559 -1.94651 3.59618e-21)
(13.5057 -2.03702 -2.41266e-21)
(13.4519 -2.1301 2.22876e-21)
(13.3997 -2.22633 -1.0706e-21)
(13.3463 -2.32675 -1.63306e-21)
(13.2924 -2.43017 0)
(13.2396 -2.53614 2.07616e-21)
(13.1884 -2.64606 1.15701e-21)
(13.1382 -2.76052 -1.83732e-21)
(13.0888 -2.87902 -1.92339e-21)
(13.0413 -3.00133 1.10742e-21)
(12.996 -3.12839 5.85348e-23)
(12.9526 -3.26169 -5.95516e-23)
(12.9107 -3.4015 -1.88813e-21)
(12.8703 -3.54608 0)
(12.8331 -3.69682 1.43673e-21)
(12.7991 -3.85421 0)
(12.769 -4.01884 0)
(12.7425 -4.19121 4.5446e-22)
(12.7205 -4.37153 0)
(12.7032 -4.55937 0)
(12.6929 -4.75462 0)
(12.6913 -4.95862 0)
(12.6989 -5.17198 6.87361e-22)
(12.716 -5.39364 -7.11572e-22)
(12.7453 -5.62429 0)
(12.7889 -5.86381 -6.73064e-21)
(12.8473 -6.11052 2.74393e-21)
(12.9238 -6.36253 4.02301e-21)
(13.0226 -6.62073 -4.15987e-21)
(13.1417 -6.88418 0)
(13.2841 -7.14758 6.29111e-21)
(13.4542 -7.40787 2.48619e-20)
(13.6511 -7.66311 1.81811e-21)
(13.8785 -7.91195 0)
(14.1249 -8.14608 0)
(14.4007 -8.36062 0)
(14.6957 -8.55034 3.59501e-20)
(13.8974 -1.58706 0)
(13.8539 -1.66555 2.34132e-21)
(13.8088 -1.74324 7.26129e-21)
(13.7587 -1.81849 3.87993e-21)
(13.7125 -1.89447 -1.63285e-21)
(13.6701 -1.97439 4.71978e-21)
(13.6264 -2.06008 1.50089e-21)
(13.5764 -2.14781 3.16879e-21)
(13.529 -2.23878 3.44033e-21)
(13.4815 -2.33495 -6.55759e-22)
(13.4341 -2.43491 2.75267e-21)
(13.3884 -2.53566 2.08811e-22)
(13.3434 -2.63945 2.54191e-21)
(13.3 -2.7489 4.53287e-21)
(13.2573 -2.86316 4.27598e-21)
(13.2162 -2.9807 4.0526e-22)
(13.1781 -3.10118 1.33779e-22)
(13.1402 -3.22629 -1.32223e-22)
(13.103 -3.36259 1.45788e-21)
(13.0661 -3.50156 -2.19473e-21)
(13.0347 -3.64706 -1.46792e-21)
(13.0062 -3.79817 2.17868e-21)
(12.9821 -3.957 -2.32789e-21)
(12.9606 -4.12237 0)
(12.9462 -4.2972 3.16915e-22)
(12.934 -4.47875 2.69736e-23)
(12.9274 -4.66615 3.08869e-21)
(12.9297 -4.86029 3.81718e-21)
(12.9435 -5.06703 1.02021e-21)
(12.9659 -5.27906 3.9014e-21)
(13.0003 -5.49848 5.78082e-21)
(13.0499 -5.72937 0)
(13.1107 -5.96755 -3.99193e-21)
(13.187 -6.20642 -5.37857e-21)
(13.2902 -6.45055 0)
(13.4076 -6.70229 1.9827e-20)
(13.5442 -6.95465 -6.8861e-21)
(13.7089 -7.20137 0)
(13.8957 -7.4379 2.18647e-21)
(14.1209 -7.67857 2.89973e-22)
(14.3458 -7.89252 2.44987e-20)
(14.614 -8.0996 0)
(14.8892 -8.27536 -7.03805e-20)
(6.72538 -16.7838 -5.98626e-19)
(8.18388 -15.8507 -3.44066e-20)
(9.51277 -14.8631 3.21745e-20)
(10.8574 -14.1237 -7.46342e-19)
(12.0892 -13.5063 7.34746e-19)
(13.1631 -12.9609 -6.64842e-19)
(14.0968 -12.4861 -1.02146e-20)
(14.9167 -12.0852 6.00821e-19)
(15.6375 -11.7472 -4.49033e-20)
(16.271 -11.458 -5.89475e-19)
(16.8315 -11.2078 5.93451e-19)
(17.3308 -10.9886 6.02496e-19)
(17.777 -10.79 -4.57401e-19)
(18.1762 -10.6032 0)
(18.5371 -10.4261 5.60597e-20)
(18.8627 -10.2523 0)
(19.159 -10.0806 -5.90951e-20)
(19.429 -9.90879 -5.66736e-20)
(19.6767 -9.7363 0)
(19.9037 -9.56184 -5.25387e-20)
(20.1135 -9.38624 -3.98593e-21)
(20.3078 -9.20949 4.55938e-20)
(20.4884 -9.03193 0)
(20.6565 -8.85381 -8.71395e-20)
(20.8134 -8.67565 2.64227e-19)
(20.96 -8.49751 -2.59946e-19)
(21.0974 -8.32013 0)
(21.226 -8.14347 3.36603e-19)
(21.3464 -7.96763 -3.32806e-19)
(21.4594 -7.79273 7.97481e-20)
(21.5652 -7.61892 0)
(21.6644 -7.44628 0)
(21.7575 -7.27475 1.61707e-19)
(21.8447 -7.10452 -5.45558e-21)
(21.9266 -6.93544 -1.54362e-19)
(22.0034 -6.76757 0)
(22.0756 -6.601 3.11334e-19)
(22.1435 -6.43564 -6.19189e-19)
(22.2075 -6.27146 1.55588e-19)
(22.268 -6.10847 -1.50448e-19)
(22.3255 -5.94651 -3.05297e-19)
(22.3808 -5.7855 0)
(22.434 -5.62402 2.92846e-19)
(11.7968 -13.0429 -9.60316e-20)
(12.7089 -13.3664 0)
(13.5326 -13.5467 -2.7466e-19)
(14.2959 -13.5927 2.45677e-19)
(14.998 -13.5252 2.15268e-20)
(15.6316 -13.3709 -5.18376e-20)
(16.2023 -13.1559 2.40214e-20)
(16.7145 -12.8994 -3.61026e-19)
(17.1747 -12.6162 -6.86591e-20)
(17.589 -12.3182 4.07147e-19)
(17.9637 -12.0141 -2.86302e-20)
(18.3035 -11.7104 -4.71019e-19)
(18.6127 -11.4115 -1.11121e-19)
(18.8956 -11.1201 3.94229e-19)
(19.1554 -10.8381 -5.00328e-21)
(19.3952 -10.5665 4.6019e-20)
(19.6169 -10.3055 0)
(19.8225 -10.0554 0)
(20.0138 -9.81523 0)
(20.192 -9.58474 0)
(20.3584 -9.3632 -4.43956e-20)
(20.514 -9.14982 -8.39912e-20)
(20.6594 -8.94381 -7.97706e-20)
(20.7954 -8.7445 -2.37612e-19)
(20.9228 -8.55114 6.31134e-19)
(21.0423 -8.36311 -5.46232e-19)
(21.1545 -8.17973 6.90997e-19)
(21.2599 -8.00052 -3.79264e-19)
(21.359 -7.82509 -3.02391e-19)
(21.4524 -7.65298 5.97304e-19)
(21.5405 -7.48394 3.95914e-22)
(21.6237 -7.31769 3.58377e-22)
(21.7025 -7.15395 -5.94493e-19)
(21.7771 -6.99263 7.20199e-20)
(21.8478 -6.83354 1.51256e-19)
(21.9149 -6.67651 0)
(21.9787 -6.52136 0)
(22.0394 -6.36797 -2.93029e-19)
(22.0974 -6.21621 2.96556e-19)
(22.1529 -6.06593 3.54202e-21)
(22.2063 -5.91694 0)
(22.2581 -5.76924 1.47511e-19)
(22.3074 -5.62136 1.40615e-19)
(12.4899 -11.9878 9.47124e-21)
(13.1057 -12.1918 0)
(13.7386 -12.2974 0)
(14.3684 -12.3204 1.86062e-19)
(14.9794 -12.2745 -1.70258e-19)
(15.5603 -12.174 3.24007e-19)
(16.1041 -12.0313 -3.96532e-19)
(16.6075 -11.8565 -2.25691e-20)
(17.07 -11.6588 4.09031e-19)
(17.4932 -11.4457 -3.52786e-19)
(17.8787 -11.2234 0)
(18.2299 -10.9956 0)
(18.5496 -10.7663 -3.0934e-19)
(18.8404 -10.5376 3.59835e-20)
(19.1055 -10.3116 2.53753e-19)
(19.3479 -10.0893 -4.34234e-20)
(19.5697 -9.87146 0)
(19.7733 -9.65885 0)
(19.9606 -9.45144 -3.59163e-19)
(20.1334 -9.24943 3.12434e-19)
(20.2936 -9.05262 3.7689e-20)
(20.4424 -8.86091 1.91405e-19)
(20.5808 -8.67405 -7.29234e-20)
(20.7099 -8.49173 -7.24605e-20)
(20.8308 -8.31388 0)
(20.9441 -8.13995 -2.89867e-19)
(21.051 -7.96983 2.14279e-19)
(21.1518 -7.80321 -6.99718e-20)
(21.247 -7.63995 -3.53955e-19)
(21.3374 -7.47977 -1.41999e-19)
(21.4231 -7.32259 2.81672e-19)
(21.5043 -7.16824 0)
(21.5816 -7.01647 -2.82154e-19)
(21.6552 -6.86716 3.53474e-19)
(21.7252 -6.7201 2.1325e-19)
(21.7917 -6.57517 -2.13286e-19)
(21.8552 -6.43217 -2.84545e-19)
(21.916 -6.2909 8.55112e-19)
(21.9743 -6.15125 -1.44081e-19)
(22.0303 -6.0131 1.44124e-19)
(22.0844 -5.87627 0)
(22.1373 -5.74118 2.84582e-19)
(22.1874 -5.60609 -2.78484e-19)
(13.5369 -10.7886 6.29622e-20)
(14.0329 -10.9805 -8.30721e-20)
(14.5425 -11.1098 8.31542e-20)
(15.0516 -11.179 -1.11258e-19)
(15.549 -11.1935 -3.12424e-20)
(16.0267 -11.1601 6.9576e-20)
(16.4794 -11.0867 -1.07774e-19)
(16.9043 -10.9805 2.56973e-19)
(17.2998 -10.8488 -3.38271e-19)
(17.6666 -10.6975 3.06479e-19)
(18.0051 -10.5317 4.35092e-20)
(18.317 -10.3559 -1.5306e-19)
(18.6043 -10.1735 -3.81266e-20)
(18.8689 -9.9872 1.16247e-19)
(19.1129 -9.79933 -1.12222e-19)
(19.3379 -9.61139 1.5331e-19)
(19.5456 -9.42486 -1.49115e-19)
(19.7379 -9.24051 0)
(19.9158 -9.05905 3.75771e-20)
(20.0812 -8.88085 -1.45512e-19)
(20.2349 -8.70617 1.05729e-19)
(20.378 -8.53508 6.95329e-20)
(20.5113 -8.36747 1.40244e-19)
(20.6363 -8.20349 -2.06136e-19)
(20.7533 -8.04277 1.36668e-19)
(20.8634 -7.88547 6.92507e-20)
(20.9672 -7.73128 -6.67366e-20)
(21.0651 -7.58012 6.64434e-20)
(21.1577 -7.43191 1.34384e-19)
(21.2456 -7.28646 2.02212e-19)
(21.329 -7.14369 6.66851e-20)
(21.4079 -7.0035 -1.33826e-19)
(21.483 -6.86564 0)
(21.5543 -6.72992 -1.35033e-19)
(21.6222 -6.5962 1.35107e-19)
(21.687 -6.46436 6.70823e-20)
(21.749 -6.33422 0)
(21.8085 -6.20564 -1.38669e-19)
(21.8656 -6.07849 -1.39093e-19)
(21.9208 -5.95265 -1.38157e-19)
(21.9742 -5.82793 -2.15269e-22)
(22.0265 -5.70475 2.73772e-19)
(22.0751 -5.5789 -1.34061e-19)
(14.0336 -10.0892 1.92915e-20)
(14.4582 -10.2574 7.41559e-20)
(14.897 -10.3771 -7.14108e-20)
(15.3395 -10.4483 -2.7903e-20)
(15.7771 -10.4742 6.4954e-22)
(16.2027 -10.4592 9.98134e-20)
(16.611 -10.4096 -1.29573e-19)
(16.9988 -10.3305 1.76864e-19)
(17.3642 -10.2277 -1.02467e-19)
(17.7061 -10.1063 -3.53088e-20)
(18.0247 -9.97046 -7.26646e-20)
(18.3207 -9.82414 3.58173e-20)
(18.5949 -9.67036 1.33646e-21)
(18.849 -9.51171 3.57288e-20)
(19.0845 -9.35034 0)
(19.3022 -9.18764 -1.09313e-19)
(19.504 -9.02497 3.18665e-19)
(19.6909 -8.86327 -1.04797e-19)
(19.8639 -8.70338 0)
(20.0244 -8.54562 1.38134e-19)
(20.1736 -8.39014 -6.81012e-20)
(20.3123 -8.2371 -6.82294e-20)
(20.4421 -8.08663 0)
(20.5637 -7.93864 0)
(20.678 -7.79346 6.47317e-20)
(20.7854 -7.65093 0)
(20.8867 -7.51095 1.95518e-19)
(20.9827 -7.37343 -1.94006e-19)
(21.0736 -7.2385 -1.94203e-19)
(21.1596 -7.10617 1.28375e-19)
(21.2411 -6.97622 -6.50898e-20)
(21.3184 -6.84854 -1.29282e-19)
(21.3916 -6.72291 1.29182e-19)
(21.4614 -6.59918 0)
(21.528 -6.47728 -1.96826e-19)
(21.5916 -6.35708 6.60734e-20)
(21.6525 -6.23849 0)
(21.711 -6.12132 0)
(21.7674 -6.00552 6.74989e-20)
(21.8219 -5.89107 -2.68075e-19)
(21.8746 -5.77792 6.74978e-20)
(21.9258 -5.66671 -1.35026e-19)
(21.972 -5.55086 1.30654e-19)
(14.4596 -9.51226 0)
(14.8409 -9.66516 7.60659e-23)
(15.2339 -9.77754 2.42886e-20)
(15.6313 -9.8493 0)
(16.0255 -9.88264 -1.16964e-19)
(16.4108 -9.88095 2.39802e-19)
(16.7828 -9.84844 -9.06108e-20)
(17.1381 -9.78932 0)
(17.475 -9.70855 3.29207e-20)
(17.7924 -9.60991 1.05796e-21)
(18.0897 -9.49735 2.08214e-19)
(18.3672 -9.37398 -2.76751e-19)
(18.6255 -9.24256 1.37276e-19)
(18.8661 -9.10562 1.04551e-19)
(19.0896 -8.96496 -1.01916e-19)
(19.297 -8.82195 -3.46778e-20)
(19.4896 -8.67831 -3.43927e-20)
(19.6683 -8.53484 -3.40764e-20)
(19.834 -8.39225 6.81854e-20)
(19.9878 -8.2507 -6.35366e-20)
(20.1309 -8.11055 -1.29233e-19)
(20.2646 -7.97195 -1.28712e-19)
(20.3901 -7.83516 -1.28909e-19)
(20.5083 -7.70033 1.26733e-19)
(20.6195 -7.56802 -1.90858e-19)
(20.724 -7.438 6.29779e-20)
(20.8228 -7.30981 -1.25576e-19)
(20.9165 -7.18392 2.49542e-19)
(21.0053 -7.06061 -1.24179e-19)
(21.0891 -6.93981 1.86573e-19)
(21.1682 -6.82121 -1.86159e-19)
(21.243 -6.7045 0)
(21.3142 -6.5896 6.22062e-20)
(21.3822 -6.47639 0)
(21.4471 -6.36495 0)
(21.5092 -6.25518 6.42741e-20)
(21.5687 -6.1469 0)
(21.626 -6.03992 0)
(21.6813 -5.93435 -1.2918e-19)
(21.735 -5.83016 1.30369e-19)
(21.7873 -5.72752 6.59363e-20)
(21.8381 -5.62731 -1.31287e-19)
(21.8856 -5.52553 2.59987e-19)
(14.7662 -9.07193 6.05012e-20)
(15.1171 -9.21331 -1.95052e-20)
(15.4781 -9.31937 -2.28877e-23)
(15.8442 -9.38973 5.32212e-20)
(16.2084 -9.42622 -2.51421e-20)
(16.5657 -9.43166 -2.86399e-20)
(16.912 -9.40891 6.12958e-20)
(17.2448 -9.36166 -1.24262e-19)
(17.5616 -9.2947 -3.50724e-20)
(17.8607 -9.21109 9.64653e-20)
(18.1418 -9.11379 -3.49803e-20)
(18.4055 -9.00602 3.16635e-20)
(18.6517 -8.89009 3.35862e-20)
(18.8818 -8.76814 0)
(19.0956 -8.64225 3.3412e-20)
(19.2948 -8.51357 1.29721e-21)
(19.48 -8.38403 -3.56926e-23)
(19.6513 -8.25471 0)
(19.8099 -8.12541 -6.36213e-20)
(19.958 -7.99616 1.9218e-19)
(20.0965 -7.86763 6.4678e-20)
(20.2264 -7.74038 -6.24226e-20)
(20.3486 -7.61433 6.17621e-20)
(20.4646 -7.49007 -1.23397e-19)
(20.5727 -7.36897 -5.24234e-22)
(20.6738 -7.24905 1.83878e-19)
(20.7704 -7.13024 -1.20968e-19)
(20.8622 -7.01444 6.08486e-20)
(20.9484 -6.90146 -6.03774e-20)
(21.0293 -6.79059 -1.21795e-19)
(21.1057 -6.68142 1.216e-19)
(21.1785 -6.57379 0)
(21.2477 -6.46788 -3.20103e-22)
(21.3141 -6.36361 -6.1217e-20)
(21.3774 -6.26126 0)
(21.4378 -6.16057 -6.22227e-20)
(21.4956 -6.06131 6.24319e-20)
(21.5515 -5.96317 0)
(21.6057 -5.8665 1.26798e-19)
(21.6581 -5.771 -6.38312e-20)
(21.7093 -5.67686 1.27914e-19)
(21.7582 -5.58407 1.33617e-22)
(21.8065 -5.49626 -6.39057e-20)
(15.0119 -8.71234 -5.50801e-20)
(15.3401 -8.84643 0)
(15.6764 -8.94893 -2.29454e-20)
(16.0198 -9.01682 0)
(16.3622 -9.05471 -5.26854e-20)
(16.6991 -9.06427 2.61529e-20)
(17.0262 -9.04767 2.70249e-20)
(17.342 -9.00891 6.09954e-20)
(17.6423 -8.95305 -1.22112e-19)
(17.9257 -8.88044 6.10141e-20)
(18.1935 -8.79447 -6.36775e-20)
(18.4451 -8.69831 6.45447e-20)
(18.6804 -8.59366 -6.29678e-20)
(18.9015 -8.48296 -6.36177e-20)
(19.106 -8.36873 6.35442e-20)
(19.2981 -8.25079 0)
(19.4756 -8.13348 -1.26788e-19)
(19.6396 -8.01525 -6.27109e-20)
(19.7918 -7.89578 7.98992e-23)
(19.9356 -7.77561 -6.26313e-20)
(20.0704 -7.65686 1.22475e-19)
(20.1971 -7.53866 0)
(20.3165 -7.42103 6.02045e-20)
(20.4312 -7.30602 -1.19665e-19)
(20.5338 -7.19544 1.19747e-19)
(20.6317 -7.08285 -5.93549e-20)
(20.7275 -6.97197 7.204e-22)
(20.8166 -6.86572 -2.94244e-22)
(20.8996 -6.76101 5.88776e-20)
(20.9779 -6.6575 0)
(21.0523 -6.5556 0)
(21.1235 -6.4555 -3.70913e-22)
(21.1908 -6.35741 1.1919e-19)
(21.2557 -6.26078 -1.1977e-19)
(21.3173 -6.16648 -2.58065e-22)
(21.3761 -6.07367 1.8614e-22)
(21.4321 -5.98221 -6.12013e-20)
(21.4869 -5.89161 1.23084e-19)
(21.5396 -5.80291 -1.24184e-19)
(21.5907 -5.7151 1.24393e-19)
(21.6405 -5.62853 -6.25399e-20)
(21.6884 -5.54359 6.27624e-20)
(21.736 -5.46708 -6.20406e-20)
(15.1968 -8.42929 7.19905e-20)
(15.5156 -8.5534 3.97263e-20)
(15.843 -8.64463 -4.49221e-20)
(16.1773 -8.69902 9.43415e-20)
(16.501 -8.73897 5.24342e-20)
(16.8185 -8.75446 -1.12147e-19)
(17.1281 -8.74545 1.71107e-19)
(17.4298 -8.71595 1.11299e-21)
(17.7151 -8.6706 -5.97271e-20)
(17.9881 -8.60117 -1.53308e-21)
(18.2479 -8.52148 6.05341e-20)
(18.4897 -8.43398 -6.16432e-20)
(18.7151 -8.33741 6.18398e-20)
(18.9286 -8.23609 9.19971e-22)
(19.1226 -8.1318 3.31483e-22)
(19.3109 -8.02207 -1.24314e-19)
(19.4802 -7.91453 1.85125e-19)
(19.6412 -7.80032 8.36882e-22)
(19.7881 -7.6891 6.15491e-20)
(19.9292 -7.57775 1.21594e-19)
(20.0594 -7.46868 -6.04661e-20)
(20.1837 -7.35702 5.95845e-20)
(20.3004 -7.24665 -1.18722e-19)
(20.4146 -7.14152 5.69388e-20)
(20.5071 -7.03985 5.93011e-20)
(20.6071 -6.93074 0)
(20.7051 -6.82708 5.69291e-20)
(20.7915 -6.72589 -1.1415e-19)
(20.8708 -6.62505 -4.25544e-22)
(20.9448 -6.52914 1.20181e-19)
(21.015 -6.4365 5.96374e-20)
(21.0825 -6.34587 -2.3887e-19)
(21.1457 -6.25542 1.18334e-19)
(21.2091 -6.16552 5.12803e-22)
(21.2665 -6.07961 2.29628e-22)
(21.3236 -5.99355 3.971e-22)
(21.3776 -5.90912 0)
(21.4309 -5.8256 6.04774e-20)
(21.481 -5.74474 -6.13808e-20)
(21.5293 -5.66408 6.18615e-20)
(21.5753 -5.58509 1.01692e-22)
(21.6197 -5.50809 4.91727e-23)
(21.6645 -5.43866 -5.94138e-20)
(23.4246 3.23156 1.40785e-19)
(23.418 3.22619 7.32768e-20)
(23.4101 3.22116 -1.48019e-19)
(23.4009 3.21512 -4.1e-19)
(23.3901 3.20825 -2.99437e-19)
(23.3776 3.20054 1.20971e-18)
(23.3631 3.19195 -6.09642e-19)
(23.3464 3.18245 6.12489e-19)
(23.3272 3.17201 -6.19275e-19)
(23.3049 3.16058 -6.23479e-19)
(23.2793 3.1481 1.26294e-18)
(23.2498 3.13449 -6.40738e-19)
(23.2158 3.11965 0)
(23.1764 3.10346 -2.0688e-20)
(23.1309 3.08578 6.50719e-19)
(23.0781 3.06643 -6.88834e-19)
(23.017 3.04518 6.80143e-19)
(22.9459 3.02177 -7.45894e-19)
(22.8634 2.99593 -2.33055e-20)
(22.7677 2.96733 4.79933e-20)
(22.6568 2.93574 -8.08285e-19)
(22.5292 2.9009 1.61844e-18)
(22.3832 2.86265 -8.36647e-19)
(22.217 2.8208 2.51575e-23)
(22.029 2.77516 -1.40983e-20)
(21.8173 2.72558 0)
(21.5801 2.6719 1.52604e-20)
(21.3155 2.61399 0)
(21.0214 2.55168 0)
(20.6956 2.4848 -1.77777e-20)
(20.3355 2.4132 0)
(19.9384 2.33667 -1.27549e-18)
(19.5006 2.2548 1.36291e-18)
(19.0173 2.16723 -2.30851e-20)
(18.4824 2.07341 1.57747e-18)
(17.8878 1.9725 -1.76027e-18)
(17.2215 1.8634 -9.82553e-19)
(16.4654 1.74438 1.12182e-18)
(15.5904 1.61255 -2.09577e-20)
(14.5429 1.46112 1.60025e-18)
(13.2016 1.27252 -1.00125e-18)
(11.2246 0.999209 -1.35528e-18)
(7.59464 0.681863 0)
(23.421 3.24687 -7.41035e-20)
(23.4142 3.24347 0)
(23.4064 3.24041 3.84073e-19)
(23.3974 3.23652 3.80914e-20)
(23.3872 3.23198 -3.11604e-19)
(23.3756 3.22676 3.91374e-20)
(23.3623 3.22085 0)
(23.3473 3.21422 0)
(23.3302 3.20684 5.97727e-19)
(23.3108 3.19868 -1.28842e-18)
(23.2887 3.18969 6.11303e-19)
(23.2636 3.17982 -4.12639e-20)
(23.235 3.169 6.6865e-19)
(23.2024 3.15714 -7.03154e-19)
(23.165 3.14414 2.16413e-20)
(23.122 3.12987 -6.86466e-19)
(23.0726 3.11417 7.27898e-19)
(23.0156 3.09683 7.45137e-19)
(22.9495 3.07763 -7.93034e-19)
(22.8728 3.05629 -2.45971e-20)
(22.7838 3.03252 0)
(22.6806 3.00607 2.6444e-20)
(22.5613 2.97667 -8.72406e-19)
(22.4241 2.9441 9.20792e-19)
(22.2668 2.9081 9.52191e-19)
(22.0874 2.86843 -1.95399e-18)
(21.8834 2.82481 2.02177e-18)
(21.6524 2.777 -4.22735e-21)
(21.3916 2.72472 -4.58889e-21)
(21.0981 2.66766 -1.18047e-18)
(20.7685 2.60555 0)
(20.3989 2.53806 2.04659e-20)
(19.9849 2.46475 -1.41557e-18)
(19.5207 2.38511 7.93378e-19)
(18.999 2.29849 8.3235e-19)
(18.4103 2.20399 2.8557e-20)
(17.7409 2.10026 0)
(16.9705 1.98502 3.58136e-20)
(16.0654 1.85406 1.35509e-18)
(14.96 1.69737 -1.58876e-18)
(13.5051 1.48994 0)
(11.3596 1.16672 -3.88111e-20)
(8.28327 0.896114 0)
(23.4193 3.26093 -5.55799e-23)
(23.4125 3.25947 0)
(23.4048 3.25794 2.76647e-19)
(23.3962 3.25578 -6.36575e-19)
(23.3864 3.25309 3.20111e-19)
(23.3755 3.24987 2.40668e-19)
(23.3631 3.24608 -4.10332e-20)
(23.3493 3.24172 -3.25188e-19)
(23.3337 3.23676 8.18007e-20)
(23.3161 3.23115 0)
(23.2963 3.22485 -5.14359e-23)
(23.274 3.21783 4.21946e-20)
(23.2487 3.21003 -6.84825e-19)
(23.2201 3.20138 2.35706e-20)
(23.1876 3.19179 7.11909e-19)
(23.1506 3.18118 7.2562e-19)
(23.1082 3.16941 -7.45338e-19)
(23.0596 3.15634 0)
(23.0036 3.14179 8.0994e-19)
(22.9389 3.12554 -7.87132e-19)
(22.8638 3.10734 -8.10925e-19)
(22.7765 3.08692 8.14753e-19)
(22.6753 3.06403 0)
(22.558 3.03841 2.91339e-20)
(22.4226 3.00981 0)
(22.2666 2.97793 0)
(22.0874 2.94249 1.6419e-20)
(21.8823 2.90316 -1.09721e-18)
(21.6481 2.85961 4.52866e-21)
(21.3812 2.81147 4.94117e-21)
(21.0778 2.75836 1.30542e-18)
(20.7332 2.69984 -6.79469e-19)
(20.3421 2.63541 2.59822e-20)
(19.8981 2.56449 1.58674e-18)
(19.3928 2.48623 -8.47675e-19)
(18.8155 2.3995 -9.50791e-19)
(18.1509 2.30259 9.92168e-19)
(17.3759 2.19253 -1.17895e-18)
(16.4509 2.06341 1.27246e-18)
(15.2961 1.90122 7.66389e-19)
(13.7323 1.67413 -9.29457e-19)
(11.4509 1.32783 6.39694e-19)
(8.76032 1.0983 7.84911e-20)
(23.4188 3.27487 0)
(23.4121 3.27437 0)
(23.4046 3.27406 -1.35687e-23)
(23.3962 3.27327 0)
(23.3869 3.27209 0)
(23.3765 3.27049 8.23238e-20)
(23.3649 3.26845 4.13336e-20)
(23.352 3.26596 -4.15917e-20)
(23.3375 3.26299 -4.18418e-20)
(23.3212 3.25951 -2.11212e-20)
(23.3031 3.25547 2.12909e-20)
(23.2827 3.25084 0)
(23.2598 3.24558 7.22133e-19)
(23.2339 3.23962 -2.4074e-20)
(23.2048 3.23291 -7.27744e-19)
(23.1717 3.22535 -7.41607e-19)
(23.134 3.21686 7.61692e-19)
(23.091 3.2073 0)
(23.0417 3.19653 -2.51489e-20)
(22.9849 3.18435 -2.5897e-20)
(22.9192 3.17053 -5.35834e-20)
(22.843 3.15483 -8.57899e-19)
(22.7545 3.13697 1.83915e-18)
(22.6515 3.11668 -1.93856e-18)
(22.532 3.09371 3.57786e-21)
(22.3934 3.06776 1.00181e-18)
(22.2331 3.0385 -5.05159e-20)
(22.048 3.00556 0)
(21.8346 2.96856 3.69003e-20)
(21.5891 2.92705 -1.93942e-20)
(21.307 2.8806 -2.04402e-20)
(20.9834 2.82867 6.90973e-19)
(20.612 2.77066 -7.85054e-19)
(20.1857 2.70585 -2.46921e-20)
(19.6952 2.63328 -2.66577e-20)
(19.1284 2.55158 2.90059e-20)
(18.4686 2.45865 3.18629e-20)
(17.6899 2.35076 0)
(16.7463 2.22016 -6.84091e-19)
(15.5419 2.04809 2.5392e-21)
(13.8681 1.79496 1.70693e-21)
(11.4907 1.43375 1.55163e-18)
(9.08227 1.23165 -5.23572e-19)
(23.4193 3.28725 0)
(23.4129 3.28784 4.14652e-20)
(23.4057 3.28865 4.16655e-20)
(23.3978 3.28901 0)
(23.389 3.28904 -3.35504e-19)
(23.3792 3.28873 -8.3653e-20)
(23.3684 3.28809 3.80888e-19)
(23.3565 3.2871 4.2486e-20)
(23.3431 3.28573 -3.41946e-19)
(23.3283 3.28396 3.67073e-19)
(23.3117 3.28175 4.35968e-20)
(23.2932 3.27906 -3.30628e-19)
(23.2726 3.27585 3.36352e-19)
(23.2493 3.27208 -3.86779e-19)
(23.2232 3.2677 9.186e-22)
(23.1937 3.26265 4.03879e-19)
(23.1603 3.25684 -2.43346e-20)
(23.1222 3.25018 0)
(23.0787 3.24254 2.56507e-20)
(23.0286 3.23375 0)
(22.9708 3.22359 2.73454e-20)
(22.9037 3.21181 0)
(22.8256 3.19812 0)
(22.7345 3.18224 -4.87723e-19)
(22.6282 3.16391 1.01558e-18)
(22.5043 3.14284 -4.96559e-19)
(22.3598 3.11871 -1.16078e-22)
(22.1916 3.0911 -3.60512e-20)
(21.9959 3.05956 -3.76099e-20)
(21.7687 3.02352 5.93522e-20)
(21.5052 2.98243 -6.64574e-19)
(21.1997 2.93574 4.71706e-20)
(20.8459 2.8828 7.72271e-19)
(20.4356 2.82279 7.95783e-19)
(19.9589 2.75451 2.28475e-20)
(19.4022 2.6763 -9.29999e-19)
(18.747 2.58561 0)
(17.9644 2.47773 0)
(17.0017 2.34309 3.95379e-20)
(15.7461 2.15822 -6.81025e-19)
(13.9663 1.87648 8.48099e-19)
(11.536 1.50739 3.07194e-22)
(9.33358 1.3285 -5.81972e-20)
(23.421 3.29907 8.84992e-23)
(23.4147 3.30022 4.25333e-20)
(23.4078 3.30185 0)
(23.4003 3.30309 2.13992e-20)
(23.3921 3.30405 -1.49999e-19)
(23.383 3.30475 4.32824e-20)
(23.373 3.30519 1.29709e-19)
(23.362 3.30539 0)
(23.3497 3.3053 0)
(23.3361 3.30489 -3.51999e-19)