/*--------------------------------*- C++ -*----------------------------------*\
| =========                 |                                                 |
| \\      /  F ield         | OpenFOAM: The Open Source CFD Toolbox           |
|  \\    /   O peration     | Version:  2.3.0                                 |
|   \\  /    A nd           | Web:      www.OpenFOAM.org                      |
|    \\/     M anipulation  |                                                 |
\*---------------------------------------------------------------------------*/
FoamFile
{
    version     2.0;
    format      ascii;
    class       volScalarField;
    location    "300";
    object      nuTilda;
}
// * * * * * * * * * * * * * * * * * * * * * * * * * * * * * * * * * * * * * //

dimensions      [0 2 -1 0 0 0 0];

internalField   nonuniform List<scalar> 
7991
(
0.0670369
0.0619764
0.0572376
0.0528793
0.0489552
0.0455084
0.0425651
0.0401248
0.0381515
0.0365698
0.0352722
0.0341341
0.0330298
0.0318422
0.0304715
0.0729601
0.0693844
0.0661874
0.0634009
0.061035
0.0590801
0.0575099
0.0562853
0.0553598
0.054685
0.054214
0.0539049
0.0537219
0.053636
0.0536249
0.0782754
0.0757224
0.073515
0.0716436
0.070088
0.0688198
0.0678052
0.0670088
0.0663964
0.0659365
0.0656019
0.065369
0.0652187
0.0651355
0.0651069
0.0828061
0.0809557
0.0793806
0.0780586
0.0769642
0.0760697
0.0753481
0.0747734
0.0743225
0.0739754
0.073715
0.0735274
0.0734008
0.0733261
0.0732956
0.0866037
0.0852294
0.0840625
0.0830824
0.0822664
0.081593
0.081042
0.0805957
0.0802385
0.0799574
0.0797415
0.0795817
0.0794708
0.0794029
0.0793731
0.0897863
0.0887273
0.087831
0.0870736
0.0864367
0.0859041
0.0854615
0.0850969
0.0847997
0.0845614
0.0843748
0.084234
0.0841343
0.0840718
0.0840432
0.0924287
0.0916047
0.0908984
0.0902938
0.0897783
0.0893408
0.0889716
0.0886624
0.0884064
0.0881979
0.088032
0.087905
0.0878137
0.0877554
0.0877281
0.0946475
0.0939985
0.0934271
0.09293
0.0924999
0.0921295
0.0918122
0.0915427
0.0913164
0.0911296
0.0909791
0.0908625
0.0907777
0.0907229
0.0906967
0.0965594
0.0960143
0.0955359
0.0951159
0.0947478
0.0944263
0.0941473
0.0939071
0.0937031
0.0935327
0.093394
0.0932855
0.0932059
0.093154
0.0931288
0.0981724
0.0977153
0.0973089
0.0969473
0.096626
0.0963415
0.0960914
0.0958737
0.0956868
0.0955293
0.0954
0.095298
0.0952226
0.0951731
0.0951488
0.0995515
0.0991624
0.0988124
0.0984964
0.0982115
0.0979556
0.0977278
0.0975276
0.0973541
0.0972069
0.0970853
0.0969887
0.0969167
0.0968692
0.0968458
0.100732
0.100402
0.100098
0.0998179
0.0995621
0.0993286
0.0991181
0.0989316
0.0987688
0.09863
0.0985151
0.0984231
0.0983537
0.0983079
0.0982854
0.101756
0.101474
0.101205
0.100954
0.100722
0.100506
0.100309
0.100133
0.0999788
0.0998467
0.0997381
0.0996512
0.0995821
0.0995382
0.0995165
0.10265
0.10241
0.102165
0.101938
0.101726
0.101522
0.101335
0.101172
0.101022
0.100894
0.100791
0.100713
0.100639
0.100597
0.100575
0.030485
0.0318785
0.0330681
0.0341675
0.0352988
0.0365911
0.0381709
0.0401462
0.0425913
0.0455409
0.048994
0.0529241
0.057288
0.0620324
0.0670985
0.0536239
0.0536335
0.0537182
0.0539006
0.05421
0.0546823
0.0553597
0.056289
0.0575185
0.0590945
0.0610558
0.0634287
0.0662225
0.0694273
0.0730119
0.0651072
0.0651366
0.0652207
0.065372
0.0656062
0.0659425
0.0664043
0.067019
0.0678183
0.0688362
0.0701083
0.0716682
0.0735449
0.0757585
0.0783191
0.0732961
0.0733276
0.0734034
0.0735312
0.0737202
0.0739821
0.0743308
0.0747835
0.0753604
0.0760845
0.0769818
0.0780797
0.0794059
0.0809864
0.0828442
0.0793736
0.0794044
0.0794734
0.0795853
0.0797463
0.0799635
0.080246
0.0806048
0.0810529
0.0816058
0.0822816
0.0831003
0.084084
0.0852554
0.0866367
0.0840436
0.0840731
0.0841366
0.0842373
0.084379
0.0845667
0.0848062
0.0851047
0.0854709
0.0859151
0.0864497
0.0870889
0.0878491
0.0887489
0.0898126
0.0877285
0.0877566
0.0878156
0.0879077
0.0880356
0.0882024
0.088412
0.0886691
0.0889795
0.0893501
0.0897893
0.0903069
0.090914
0.091623
0.0924492
0.090697
0.0907238
0.0907792
0.0908647
0.090982
0.0911333
0.091321
0.0915482
0.0918188
0.0921373
0.0925092
0.0929412
0.0934408
0.0940155
0.0946689
0.0931291
0.0931546
0.093207
0.0932872
0.0933963
0.0935356
0.0937067
0.0939116
0.0941526
0.0944326
0.0947553
0.0951252
0.0955477
0.0960297
0.0965797
0.095149
0.0951734
0.0952233
0.0952991
0.0954015
0.0955314
0.0956897
0.0958773
0.0960957
0.0963464
0.0966318
0.0969545
0.0973184
0.0977286
0.0981919
0.0968459
0.0968693
0.0969169
0.096989
0.0970861
0.0972085
0.0973565
0.0975305
0.0977311
0.0979591
0.0982154
0.0985014
0.0988193
0.0991725
0.0995665
0.0982855
0.098308
0.0983533
0.0984222
0.098515
0.0986313
0.0987711
0.0989342
0.0991207
0.0993307
0.0995641
0.0998206
0.100102
0.100409
0.100744
0.0995172
0.0995387
0.0995814
0.0996473
0.0997369
0.0998481
0.0999816
0.100136
0.10031
0.100507
0.100722
0.100954
0.101206
0.101478
0.101765
0.100578
0.100599
0.100638
0.1007
0.100788
0.100895
0.101025
0.101172
0.101336
0.101524
0.101725
0.101938
0.102166
0.102409
0.10266
0.0137117
0.0108298
0.00852517
0.00674611
0.0055686
0.0047268
0.00406071
0.00349223
0.0029825
0.00251172
0.00207061
0.00165678
0.00127237
0.000919277
0.000660673
0.0137749
0.0110957
0.0089306
0.00724473
0.00604013
0.00515749
0.0044717
0.00390094
0.00339778
0.00293589
0.00250146
0.00208865
0.00169593
0.00132315
0.00101897
0.0138635
0.011387
0.00935646
0.00776417
0.00654277
0.00561309
0.00488814
0.0042941
0.00377945
0.00331189
0.00287279
0.00245253
0.00204554
0.0016483
0.00131484
0.0139712
0.011679
0.00977279
0.00825772
0.00703699
0.00606811
0.00529712
0.00466608
0.00412606
0.00364162
0.00318986
0.00275719
0.00233395
0.00191338
0.00155568
0.0140854
0.0119606
0.0101714
0.0087164
0.00750586
0.00650931
0.00569437
0.00502028
0.00444577
0.00393603
0.00346546
0.00301684
0.00257652
0.00213437
0.00175456
0.0142154
0.0122298
0.0105478
0.00914147
0.00794391
0.00692896
0.006076
0.00535841
0.00474471
0.00420385
0.00370972
0.00324236
0.00278438
0.00232208
0.00192167
0.0143201
0.0124807
0.0108965
0.00953452
0.0083505
0.00732321
0.00643861
0.00568021
0.00502603
0.00445069
0.0039296
0.0034413
0.00296518
0.00248385
0.0020642
0.0144517
0.0127171
0.0112165
0.00989649
0.00872647
0.00769075
0.00677996
0.00598468
0.00529101
0.00467989
0.00412975
0.00361893
0.00312432
0.00262485
0.00218721
0.0145294
0.0129319
0.0115087
0.0102287
0.00907301
0.00803158
0.00709899
0.00627094
0.00554001
0.00489334
0.00431323
0.00377893
0.00326561
0.00274881
0.00229437
0.0146379
0.0131292
0.0117744
0.0105326
0.0093916
0.00834653
0.00739563
0.00653862
0.00577329
0.00509228
0.00448219
0.00392405
0.00339204
0.0028586
0.00238842
0.0147109
0.013308
0.0120159
0.0108098
0.00968368
0.00863659
0.00767021
0.00678762
0.00599082
0.00527731
0.0046379
0.004056
0.00350554
0.00295626
0.00247142
0.0148079
0.0134734
0.0122354
0.0110625
0.009951
0.00890335
0.00792424
0.00701938
0.00619407
0.00545011
0.00478277
0.0041777
0.00360881
0.00304392
0.00254517
0.0148749
0.013624
0.0124347
0.0112919
0.0101937
0.00914447
0.00815165
0.00722632
0.00637622
0.00560512
0.00490991
0.004283
0.00369934
0.00312204
0.00261056
0.0149692
0.0137895
0.0126372
0.0115163
0.0104447
0.00941702
0.00843257
0.00747753
0.00658808
0.0057824
0.00507162
0.00441447
0.00379486
0.00319345
0.00267121
0.000662025
0.000917232
0.00126675
0.00164635
0.00205336
0.00248539
0.00294495
0.00344185
0.00399776
0.00465715
0.00551192
0.00674115
0.00854817
0.0108746
0.0137783
0.00101968
0.00131781
0.00168392
0.00206961
0.00247405
0.00289856
0.00334947
0.00384218
0.00440649
0.00509598
0.00599828
0.00723336
0.00895876
0.0111436
0.0138348
0.00131502
0.00163986
0.00202773
0.00242571
0.00283649
0.00326557
0.00372372
0.00423197
0.00482625
0.00556159
0.00651144
0.00775745
0.0093888
0.011437
0.0139281
0.00155542
0.00190216
0.00231106
0.00272377
0.00314645
0.00358904
0.00406671
0.00460491
0.00524158
0.00602652
0.00701549
0.00826036
0.00980892
0.0117323
0.0140389
0.00175395
0.00212069
0.00254927
0.00297804
0.00341682
0.0038798
0.00438594
0.00496284
0.00564645
0.00647733
0.00749398
0.0087272
0.0102069
0.0120153
0.0141466
0.00192079
0.00230625
0.00275345
0.00319933
0.00365754
0.00414615
0.0046866
0.00530625
0.00603608
0.00690604
0.00794031
0.00915669
0.0105785
0.0122862
0.0142905
0.00206311
0.00246617
0.00293121
0.00339507
0.00387531
0.00439314
0.00497106
0.00563404
0.0064065
0.0073083
0.00835308
0.00955165
0.0109246
0.0125405
0.0144016
0.00218596
0.00260561
0.00308787
0.0035704
0.00407449
0.00462365
0.00523999
0.00594467
0.00675504
0.00768248
0.00873346
0.00991505
0.0112454
0.0127782
0.01453
0.00229303
0.00272826
0.00322721
0.00372883
0.00425786
0.00483917
0.00549334
0.00623686
0.00708041
0.00802865
0.00908339
0.0102493
0.0115413
0.0129989
0.0146366
0.00238697
0.00283691
0.00335205
0.00387295
0.00442733
0.00504064
0.005731
0.00651003
0.00738248
0.00834796
0.00940505
0.0105563
0.0118126
0.0132009
0.0147331
0.00247009
0.00293383
0.00346452
0.00400454
0.00458413
0.00522855
0.00595295
0.00676413
0.00766181
0.0086418
0.00970031
0.0108376
0.0120599
0.0133833
0.0148137
0.00254307
0.00301996
0.00356608
0.00412519
0.00472954
0.00540362
0.00615939
0.00699923
0.00791909
0.00891164
0.00997088
0.0110947
0.0122847
0.0135505
0.0149055
0.00261203
0.00310113
0.00365989
0.00423572
0.00486278
0.0055649
0.00635033
0.00721857
0.00815834
0.00916068
0.0102198
0.0113296
0.0124897
0.0137037
0.0149809
0.00265335
0.00315353
0.00373477
0.00433614
0.00499369
0.00572299
0.00653669
0.00740537
0.00835036
0.00937157
0.0104218
0.011531
0.0126598
0.0138202
0.0150026
0.00128823
0.00387665
0.00672987
0.00980273
0.0130978
0.016621
0.0203895
0.0244294
0.0287712
0.0334409
0.0384531
0.043805
0.049475
0.0554248
0.0616041
1.89357e-05
0.000431723
0.0017223
0.00384996
0.00634132
0.00931437
0.0127793
0.01674
0.0211952
0.0261368
0.0315465
0.037393
0.0436294
0.0501929
0.0570061
0
0.000233469
0.00108699
0.00254521
0.00436741
0.00668762
0.00955062
0.0129921
0.017037
0.0216954
0.0269588
0.032797
0.0391559
0.0459581
0.0531069
4.48281e-05
0.000209566
0.00109265
0.00216526
0.00361985
0.00552506
0.00794254
0.0109318
0.0145451
0.018821
0.0237777
0.0294075
0.0356711
0.0424968
0.0497833
0.000116266
0.000519018
0.00105226
0.00194833
0.00319386
0.00484243
0.00696003
0.00961655
0.0128801
0.01681
0.0214491
0.0268151
0.0328928
0.0396282
0.0469278
0.000356638
0.000623169
0.000984274
0.0017741
0.00288121
0.00435517
0.0062611
0.00867159
0.0116619
0.0153037
0.0196571
0.0247612
0.0306239
0.0372124
0.0444451
0.00040558
0.000602439
0.000970171
0.00163164
0.00263196
0.00397465
0.00572013
0.00794038
0.0107131
0.0141165
0.0182218
0.0230841
0.028731
0.0351512
0.0422853
0.000398787
0.000570347
0.000958756
0.00151577
0.00242914
0.00366671
0.00528356
0.00735
0.00994408
0.0131471
0.0170371
0.0216803
0.0271184
0.0333535
0.040319
0.000390783
0.000551981
0.000933872
0.0014193
0.00226201
0.00341275
0.00492277
0.00686072
0.00930407
0.0123354
0.0160371
0.020483
0.025727
0.0317907
0.0386605
0.000385118
0.000541737
0.00090652
0.00134152
0.00212243
0.00319995
0.00461928
0.00644747
0.0087611
0.0116432
0.0151786
0.019447
0.0245127
0.0304138
0.0371546
0.000380597
0.000536125
0.00088962
0.00130144
0.00200674
0.00301926
0.00436018
0.00609308
0.0082934
0.011044
0.0144315
0.0185397
0.023441
0.0291845
0.0357804
0.000376875
0.000533725
0.000883453
0.00128421
0.00191079
0.00286412
0.00413616
0.00578532
0.00788552
0.0105192
0.0137738
0.0177363
0.0224843
0.0280734
0.0345152
0.000373679
0.000532711
0.000881601
0.00127168
0.00182967
0.0027295
0.00394038
0.00551516
0.00752607
0.0100549
0.0131894
0.0170188
0.0216255
0.0270755
0.0334138
0.000370714
0.000531556
0.000879344
0.00125759
0.00175996
0.00261138
0.00376758
0.00527578
0.00720642
0.00964045
0.0126659
0.0163734
0.0208498
0.0261692
0.0323828
0.000367849
0.000529901
0.000876134
0.00124456
0.00171027
0.00250796
0.0036139
0.00506196
0.00691996
0.00926785
0.0121935
0.0157889
0.0201435
0.0253346
0.0314056
0.000365151
0.000528356
0.000874116
0.00123778
0.00168632
0.00241878
0.00347656
0.00486968
0.00666149
0.00893065
0.0117647
0.0152561
0.0194961
0.0245645
0.0305125
0.000362704
0.000527387
0.000874233
0.0012365
0.00167469
0.00234178
0.00335329
0.00469578
0.00642691
0.00862368
0.0113731
0.0147678
0.0189012
0.0238586
0.0297139
0.000360493
0.000526862
0.000875593
0.00123716
0.00166509
0.00227417
0.00324209
0.0045377
0.00621288
0.00834282
0.0110138
0.0143187
0.0183526
0.0232056
0.0289549
0.000358435
0.000526363
0.000876817
0.00123703
0.00165393
0.00221441
0.00314119
0.0043933
0.0060167
0.00808469
0.0106827
0.0139039
0.0178445
0.022597
0.0282379
0.000356453
0.000525608
0.000877191
0.00123556
0.00164256
0.00216758
0.00304985
0.00426088
0.00583614
0.00784649
0.0103765
0.0135192
0.0173716
0.0220278
0.0275654
0.000354532
0.000524653
0.000877058
0.00123419
0.00163495
0.00214003
0.00296842
0.00413921
0.00566934
0.00762588
0.0100922
0.0131612
0.0169302
0.0214945
0.0269359
0.0003527
0.000523734
0.000877167
0.00123429
0.00163226
0.00212588
0.00289636
0.00402726
0.0055148
0.00742089
0.00982751
0.0128269
0.0165169
0.0209937
0.0263398
0.000350986
0.000523008
0.000877893
0.00123598
0.00163269
0.00211669
0.00283209
0.00392406
0.00537121
0.00722981
0.00958011
0.0125136
0.0161276
0.020517
0.0257562
0.000349386
0.000522455
0.000879069
0.00123844
0.00163392
0.00210782
0.00277401
0.0038286
0.00523742
0.00705119
0.00934828
0.0122195
0.0157621
0.0200752
0.025262
0.000347875
0.000521948
0.000880263
0.00124072
0.00163442
0.0020978
0.00272174
0.00374005
0.00511245
0.0068838
0.00913051
0.0119425
0.015417
0.0196521
0.0247287
0.000346422
0.000521363
0.000881112
0.00124229
0.00163384
0.00208755
0.00267872
0.00365811
0.00499546
0.00672655
0.00892546
0.0116812
0.0150904
0.0192508
0.0242488
0.000345008
0.00052066
0.000881532
0.00124322
0.001633
0.00207961
0.00264964
0.00358318
0.00488582
0.0065785
0.00873191
0.0114338
0.0147803
0.0188687
0.0237872
0.000343633
0.000519888
0.000881719
0.00124406
0.00163301
0.00207553
0.00263269
0.00351533
0.00478304
0.00643885
0.00854888
0.0111996
0.0144868
0.0185113
0.023383
0.000342309
0.000519135
0.000881945
0.00124526
0.00163439
0.00207477
0.00262229
0.00345385
0.00468665
0.00630693
0.00837552
0.0109774
0.0142086
0.0181718
0.0229742
0.000341044
0.000518461
0.000882377
0.00124701
0.00163691
0.00207584
0.00261407
0.00339765
0.00459612
0.00618213
0.00821115
0.0107667
0.0139449
0.0178502
0.0225922
0.000339841
0.00051787
0.000883005
0.00124912
0.00163997
0.0020773
0.0026058
0.00334584
0.00451095
0.00606394
0.00805511
0.0105663
0.0136932
0.0175382
0.0221944
0.000338691
0.000517326
0.000883703
0.00125129
0.00164293
0.00207823
0.00259672
0.00329836
0.00443067
0.00595186
0.00790677
0.0103755
0.0134534
0.0172438
0.0218584
0.000337583
0.000516778
0.000884312
0.00125322
0.00164539
0.00207834
0.00258728
0.00325718
0.00435515
0.00584545
0.00776558
0.0101937
0.0132243
0.0169607
0.0215045
0.000336507
0.00051619
0.000884724
0.00125476
0.00164726
0.00207798
0.00257898
0.00322566
0.00428466
0.00574438
0.00763101
0.01002
0.0130048
0.0166871
0.021166
0.000335455
0.000515553
0.000884923
0.00125594
0.00164878
0.00207787
0.00257329
0.00320459
0.00421948
0.00564839
0.00750261
0.00985393
0.012795
0.0164294
0.0208732
0.000334428
0.000514886
0.000884979
0.00125695
0.00165035
0.00207866
0.00257062
0.00319121
0.00415953
0.00555725
0.00737996
0.00969496
0.0125936
0.0161775
0.0205443
0.000333428
0.000514222
0.000885
0.00125798
0.00165226
0.00208056
0.00257037
0.00318198
0.00410427
0.0054707
0.00726272
0.00954264
0.0124006
0.0159397
0.0202804
0.00033246
0.000513588
0.000885073
0.00125917
0.00165462
0.00208338
0.00257153
0.00317433
0.00405298
0.00538844
0.00715058
0.00939673
0.0122161
0.0157139
0.0200143
0.000331526
0.000512997
0.000885236
0.00126055
0.00165733
0.00208674
0.00257317
0.00316683
0.00400507
0.00531019
0.00704326
0.0092569
0.0120391
0.0154948
0.0197369
0.000330626
0.000512445
0.000885473
0.00126205
0.00166021
0.00209021
0.00257463
0.00315885
0.00396037
0.00523567
0.0069405
0.00912277
0.0118691
0.0152841
0.019484
0.000329756
0.000511915
0.000885731
0.00126356
0.00166302
0.00209345
0.00257554
0.0031504
0.00391956
0.00516471
0.00684206
0.00899404
0.0117058
0.0150822
0.0192401
0.000328911
0.00051139
0.000885951
0.00126496
0.0016656
0.00209627
0.0025759
0.00314206
0.00388448
0.00509737
0.00674769
0.00887028
0.0115481
0.0148829
0.0189739
0.000328087
0.000510855
0.000886086
0.00126617
0.00166787
0.00209866
0.00257601
0.00313487
0.00385713
0.00503389
0.0066572
0.00875114
0.0113958
0.014692
0.0187508
0.000327281
0.000510301
0.000886115
0.00126717
0.00166983
0.00210079
0.00257636
0.00312975
0.00383773
0.00497446
0.00657042
0.00863632
0.0112486
0.0145064
0.0185148
0.000326491
0.000509732
0.000886049
0.00126799
0.0016716
0.0021029
0.00257737
0.00312702
0.00382455
0.00491908
0.00648722
0.00852557
0.0111062
0.0143265
0.0182908
0.000325716
0.000509156
0.000885923
0.00126872
0.00167333
0.00210524
0.00257926
0.0031264
0.00381527
0.00486742
0.00640743
0.0084186
0.0109681
0.0141508
0.0180674
0.00032496
0.000508585
0.000885779
0.00126944
0.00167513
0.00210791
0.002582
0.00312728
0.00380799
0.00481904
0.00633088
0.00831531
0.0108346
0.0139828
0.017868
0.000324222
0.000508031
0.000885654
0.00127021
0.00167708
0.00211094
0.00258541
0.00312901
0.00380144
0.00477348
0.00625734
0.00821534
0.0107043
0.0138139
0.0176295
0.000323505
0.0005075
0.000885567
0.00127105
0.00167918
0.00211426
0.0025892
0.00313103
0.00379488
0.0047304
0.00618663
0.00811863
0.0105786
0.0136573
0.0174759
0.000322808
0.000506991
0.000885521
0.00127196
0.0016814
0.00211772
0.0025931
0.00313292
0.00378797
0.0046897
0.00611858
0.00802503
0.0104566
0.013501
0.0172497
0.00032213
0.000506502
0.000885503
0.0012729
0.00168365
0.00212119
0.00259688
0.00313446
0.00378068
0.00465175
0.00605307
0.00793434
0.0103377
0.0133476
0.0170555
0.000321471
0.000506025
0.00088549
0.00127383
0.00168585
0.00212452
0.00260039
0.00313556
0.00377326
0.00461755
0.00599009
0.00784642
0.0102221
0.0131996
0.016875
0.000320827
0.000505553
0.000885459
0.00127471
0.00168793
0.00212765
0.00260357
0.00313632
0.00376627
0.00458849
0.00592975
0.00776113
0.0101095
0.0130533
0.0166762
0.000320198
0.00050508
0.00088539
0.00127549
0.00168984
0.00213051
0.00260644
0.003137
0.00376041
0.00456552
0.00587221
0.00767829
0.00999928
0.0129088
0.0164877
0.000319581
0.000504603
0.000885272
0.00127616
0.00169157
0.00213314
0.00260912
0.00313789
0.00375618
0.00454841
0.0058176
0.0075979
0.0098922
0.0127724
0.0163399
0.000318976
0.000504121
0.000885104
0.00127672
0.00169314
0.00213559
0.00261178
0.00313929
0.00375377
0.00453599
0.0057659
0.00751991
0.0097878
0.0126368
0.0161506
0.000318383
0.000503635
0.000884894
0.0012772
0.00169459
0.00213797
0.00261456
0.00314133
0.00375301
0.00452674
0.00571696
0.00744433
0.00968632
0.0125067
0.0160005
0.000317801
0.00050315
0.000884657
0.00127762
0.00169598
0.00214035
0.00261757
0.00314404
0.00375357
0.00451938
0.00567054
0.0073711
0.00958754
0.0123789
0.0158316
0.000317232
0.00050267
0.000884409
0.00127802
0.00169736
0.00214281
0.00262085
0.00314734
0.00375499
0.00451293
0.00562634
0.00730015
0.00949136
0.0122546
0.0156788
0.000316676
0.0005022
0.000884168
0.00127842
0.00169877
0.00214538
0.00262437
0.00315107
0.0037569
0.00450675
0.00558413
0.00723141
0.00939796
0.0121352
0.0155383
0.000316134
0.000501741
0.000883942
0.00127884
0.00170023
0.00214805
0.0026281
0.00315506
0.00375895
0.00450047
0.00554374
0.00716484
0.00930729
0.0120191
0.0153931
0.000315607
0.000501295
0.000883736
0.0012793
0.00170174
0.00215081
0.00263194
0.00315913
0.00376091
0.0044939
0.00550518
0.0071004
0.00921936
0.0119068
0.0152569
0.000315095
0.000500862
0.00088355
0.00127978
0.00170328
0.0021536
0.0026358
0.00316314
0.00376261
0.00448701
0.00546866
0.00703806
0.00913401
0.0117973
0.0151187
0.000314599
0.000500439
0.000883377
0.00128026
0.00170482
0.00215638
0.00263959
0.00316697
0.00376397
0.00447992
0.00543474
0.00697782
0.00905124
0.0116915
0.0149923
0.000314118
0.000500026
0.000883209
0.00128074
0.00170634
0.00215909
0.00264325
0.00317056
0.00376502
0.00447292
0.00540429
0.00691979
0.00897105
0.0115891
0.0148663
0.000313654
0.000499618
0.000883039
0.0012812
0.00170779
0.00216169
0.00264673
0.0031739
0.00376587
0.00446643
0.00537821
0.00686409
0.00889329
0.0114889
0.0147374
0.000313207
0.000499213
0.000882859
0.00128162
0.00170917
0.00216415
0.00265001
0.00317702
0.00376669
0.00446092
0.005357
0.00681088
0.00881785
0.011391
0.0146121
0.00031278
0.000498809
0.000882663
0.00128198
0.00171045
0.00216648
0.00265311
0.00318001
0.0037677
0.00445674
0.0053405
0.00676025
0.0087447
0.0112957
0.0144922
0.000312372
0.000498407
0.000882463
0.00128232
0.00171166
0.00216869
0.0026561
0.00318299
0.00376913
0.00445407
0.00532799
0.00671223
0.00867377
0.0112025
0.0143729
0.000312006
0.000497994
0.000882223
0.00128257
0.00171276
0.00217078
0.00265901
0.00318606
0.00377109
0.00445287
0.00531853
0.0066668
0.00860524
0.0111127
0.014263
0.000311635
0.000497609
0.000882089
0.00128292
0.00171392
0.00217291
0.002662
0.0031894
0.00377374
0.00445305
0.00531129
0.00662384
0.00853891
0.0110243
0.0141453
0.000311464
0.000497124
0.000881735
0.00128308
0.001715
0.00217512
0.00266524
0.00319323
0.00377727
0.00445456
0.00530566
0.00658368
0.00847561
0.0109412
0.0140534
0.00031089
0.000496871
0.00088177
0.00128308
0.00171537
0.00217622
0.00266722
0.00319588
0.00377988
0.00445552
0.00529981
0.0065437
0.00841276
0.0108565
0.0139258
0.000312712
0.000497478
0.000885034
0.00129027
0.00172587
0.0021892
0.00268192
0.00321151
0.00379542
0.00446896
0.00530542
0.00652065
0.00836548
0.010786
0.0138499
0.00029533
0.000474082
0.000841207
0.00123509
0.00166604
0.00212916
0.00262417
0.00315684
0.00374286
0.00441536
0.00524361
0.0064174
0.0082454
0.0106636
0.0137156
0.00128541
0.003867
0.00671312
0.00977924
0.013071
0.0165943
0.0203672
0.0244162
0.0287708
0.0334556
0.0384831
0.0438487
0.0495299
0.0554879
0.061672
1.88943e-05
0.000430249
0.00171613
0.0038404
0.00633012
0.0093034
0.0127709
0.0167371
0.0212012
0.0261547
0.0315783
0.037439
0.0436882
0.0502623
0.0570843
0
0.000235149
0.00109394
0.00255202
0.00437489
0.00669715
0.00956321
0.0130091
0.0170602
0.0217268
0.0270005
0.03285
0.0392202
0.0460323
0.0531873
4.73969e-05
0.000221575
0.00109899
0.00217646
0.00363355
0.00554186
0.00796333
0.0109576
0.014577
0.0188603
0.023826
0.0294657
0.0357397
0.042575
0.0498693
0.000116452
0.000519814
0.00105515
0.00195526
0.00320536
0.00485844
0.00698081
0.00964293
0.0129131
0.0168508
0.0214988
0.0268748
0.0329629
0.0397082
0.0470158
0.000357719
0.000617657
0.000984526
0.00177738
0.00288856
0.00436797
0.00627981
0.0086965
0.0116938
0.0153437
0.0197062
0.0248203
0.0306935
0.0372922
0.0445328
0.000407764
0.000593188
0.000951055
0.00163133
0.00263627
0.00398398
0.00573614
0.00796337
0.0107435
0.0141551
0.0182696
0.023142
0.0287995
0.03523
0.0423729
0.000400967
0.000562542
0.000939494
0.00151322
0.00243123
0.0036733
0.0052962
0.00737056
0.00997256
0.013184
0.0170832
0.0217364
0.0271851
0.0334302
0.0404032
0.000393129
0.000546757
0.000919421
0.00141614
0.00226258
0.0034173
0.00493285
0.00687843
0.00933035
0.0123704
0.0160814
0.0205372
0.0257916
0.0318654
0.0387442
0.000387657
0.000538265
0.000895267
0.0013344
0.00212169
0.00320291
0.00462724
0.00646231
0.0087849
0.0116761
0.0152209
0.0194992
0.0245754
0.0304871
0.0372393
0.00038306
0.000532638
0.000876238
0.00127997
0.00200358
0.00302077
0.00436636
0.00610563
0.00831454
0.0110747
0.0144718
0.0185901
0.023502
0.0292569
0.035866
0.00037915
0.000529832
0.000868381
0.00125881
0.00190557
0.0028643
0.0041408
0.00579585
0.00790394
0.0105476
0.0138122
0.0177849
0.0225438
0.028145
0.0346009
0.000375864
0.000529045
0.000867376
0.00124904
0.00182342
0.00272856
0.00394365
0.00552394
0.00754228
0.0100809
0.0132258
0.0170658
0.0216838
0.0271464
0.0334996
0.000372937
0.00052869
0.000867446
0.00123908
0.00175287
0.00260961
0.00376971
0.00528305
0.00722071
0.00966399
0.0127003
0.0164188
0.0209069
0.0262393
0.0324678
0.000370125
0.000527722
0.000865775
0.00122669
0.00169319
0.00250446
0.00361494
0.0050679
0.00693253
0.00928918
0.0122259
0.0158328
0.0201994
0.0254036
0.031489
0.000367393
0.000526308
0.000863514
0.00121711
0.00165705
0.00241258
0.00347643
0.00487442
0.00667256
0.00895013
0.0117951
0.0152983
0.0195506
0.024632
0.0305932
0.000364848
0.000525179
0.000862882
0.00121395
0.00164222
0.00233335
0.00335201
0.00469942
0.00643664
0.00864153
0.0114014
0.0148084
0.0189542
0.0239245
0.0297926
0.000362554
0.000524637
0.000864219
0.0012151
0.0016349
0.00226454
0.0032398
0.00454032
0.0062214
0.00835914
0.0110401
0.0143575
0.0184041
0.0232702
0.0290338
0.000360469
0.000524419
0.000866358
0.00121706
0.00162747
0.00220362
0.00313809
0.00439502
0.00602412
0.00809962
0.0107074
0.0139409
0.0178945
0.0226605
0.0283162
0.000358505
0.000524101
0.000868007
0.00121768
0.00161788
0.00214966
0.00304541
0.00426175
0.00584254
0.00786017
0.0103997
0.0135545
0.0174202
0.0220902
0.027643
0.000356597
0.00052347
0.000868675
0.00121687
0.00160828
0.00210891
0.00296137
0.00413909
0.00567481
0.00763842
0.010114
0.0131947
0.0169772
0.0215554
0.0270097
0.00035474
0.000522636
0.000868861
0.00121628
0.00160263
0.00208676
0.00288645
0.00402604
0.00551936
0.00743236
0.00984794
0.0128587
0.0165623
0.0210527
0.0264116
0.00035297
0.000521854
0.000869339
0.00121722
0.00160172
0.00207646
0.00282009
0.00392175
0.00537489
0.00724028
0.00959929
0.0125438
0.0161713
0.0205745
0.0258279
0.000351315
0.000521273
0.000870452
0.00121969
0.00160363
0.00207004
0.00276079
0.00382535
0.00524027
0.00706071
0.0093663
0.0122482
0.0158042
0.0201315
0.0253331
0.000349771
0.000520863
0.000872002
0.00122286
0.00160611
0.00206339
0.002707
0.00373597
0.00511452
0.00689243
0.00914744
0.01197
0.0154575
0.0197071
0.0247983
0.000348311
0.00052049
0.000873548
0.00122579
0.00160771
0.00205525
0.00265821
0.00365282
0.00499677
0.00673434
0.00894136
0.0117073
0.0151292
0.0193043
0.0243168
0.000346905
0.000520027
0.000874717
0.00122793
0.00160805
0.00204641
0.00261732
0.00357561
0.00488628
0.00658548
0.00874685
0.0114588
0.0148177
0.0189207
0.0238538
0.000345533
0.000519429
0.000875408
0.00122933
0.00160789
0.00203941
0.00258958
0.00350476
0.00478249
0.00644505
0.0085629
0.0112234
0.0145228
0.0185617
0.0234475
0.000344194
0.000518742
0.000875804
0.00123051
0.0016084
0.00203608
0.0025742
0.00344051
0.00468499
0.00631232
0.00838866
0.0110002
0.0142433
0.0182206
0.0230369
0.0003429
0.000518058
0.000876194
0.001232
0.00161023
0.00203618
0.00256581
0.00338233
0.00459339
0.00618674
0.00822345
0.0107884
0.0139783
0.0178974
0.0226537
0.000341662
0.000517446
0.000876778
0.00123403
0.00161328
0.00203831
0.00255981
0.00332921
0.00450726
0.00606779
0.00806659
0.0105871
0.0137254
0.0175839
0.0222548
0.000340484
0.000516922
0.00087758
0.00123648
0.00161698
0.00204098
0.00255377
0.00328018
0.00442612
0.00595498
0.00791747
0.0103954
0.0134844
0.0172878
0.0219161
0.000339361
0.000516455
0.000878491
0.00123907
0.00162069
0.0020432
0.00254675
0.00323482
0.00434954
0.00584787
0.00777553
0.0102126
0.0132542
0.0170032
0.0215609
0.000338281
0.000515995
0.000879346
0.00124146
0.00162393
0.00204451
0.00253885
0.00319418
0.00427726
0.00574605
0.00764023
0.010038
0.0130335
0.0167282
0.0212201
0.000337233
0.000515497
0.000880013
0.00124346
0.0016265
0.00204504
0.00253125
0.00316147
0.00420942
0.00564917
0.0075111
0.0098711
0.0128226
0.0164691
0.0209262
0.000336208
0.000514944
0.000880444
0.00124504
0.00162856
0.00204544
0.00252565
0.00313911
0.00414642
0.00555699
0.00738772
0.00971129
0.0126201
0.0162158
0.020595
0.000335205
0.000514344
0.000880681
0.00124633
0.00163047
0.00204648
0.00252297
0.0031256
0.00408839
0.00546932
0.00726972
0.00955814
0.012426
0.0159765
0.0203285
0.000334225
0.00051373
0.000880829
0.00124756
0.00163259
0.00204856
0.00252301
0.00311742
0.004035
0.00538597
0.00715681
0.00941142
0.0122405
0.0157498
0.0200644
0.000333273
0.000513133
0.000880994
0.00124889
0.00163514
0.00205169
0.00252487
0.00311155
0.0039856
0.00530669
0.00704873
0.00927079
0.0120626
0.0155296
0.0197846
0.000332354
0.000512576
0.000881241
0.00125042
0.0016381
0.00205553
0.00252755
0.00310616
0.00393954
0.00523124
0.00694524
0.00913592
0.0118919
0.0153194
0.0195415
0.000331468
0.000512061
0.000881579
0.00125212
0.00164134
0.00205968
0.00253028
0.00310034
0.00389636
0.00515935
0.0068461
0.00900657
0.0117284
0.0151187
0.0193018
0.000330613
0.000511579
0.000881972
0.00125389
0.00164463
0.00206374
0.00253255
0.00309379
0.00385611
0.0050908
0.00675109
0.00888236
0.0115708
0.0149215
0.0190426
0.000329786
0.00051111
0.000882359
0.00125561
0.00164776
0.00206743
0.00253416
0.00308674
0.0038198
0.0050255
0.00665996
0.00876293
0.0114189
0.0147323
0.0188209
0.00032898
0.000510636
0.000882683
0.00125717
0.0016506
0.00207064
0.0025352
0.00307995
0.00378955
0.00496357
0.00657252
0.00864802
0.0112726
0.0145501
0.0185976
0.000328194
0.000510145
0.000882903
0.00125852
0.00165308
0.00207341
0.00253606
0.00307452
0.0037671
0.0049053
0.00648861
0.00853732
0.011131
0.0143718
0.0183668
0.000327422
0.000509633
0.000883009
0.00125965
0.00165527
0.00207596
0.00253725
0.00307124
0.00375209
0.00485088
0.00640812
0.00843057
0.0109941
0.0141986
0.0181488
0.000326665
0.000509104
0.000883023
0.00126061
0.00165728
0.00207854
0.00253916
0.00307029
0.00374252
0.00480021
0.00633088
0.00832739
0.0108607
0.014027
0.0179207
0.000325924
0.000508571
0.000882982
0.0012615
0.00165928
0.00208136
0.00254195
0.00307128
0.00373614
0.00475296
0.00625677
0.00822766
0.0107318
0.0138653
0.0177433
0.0003252
0.000508044
0.000882931
0.00126238
0.00166137
0.00208454
0.00254555
0.00307358
0.00373124
0.00470868
0.00618558
0.00813109
0.010606
0.0137021
0.0175079
0.000324494
0.000507536
0.000882905
0.00126332
0.00166362
0.00208807
0.00254975
0.00307656
0.00372673
0.00466692
0.00611712
0.00803759
0.0104845
0.0135515
0.0173712
0.000323809
0.000507051
0.000882921
0.00126434
0.00166602
0.00209185
0.00255428
0.0030797
0.003722
0.00462735
0.00605125
0.00794722
0.0103676
0.0134082
0.0171996
0.000323143
0.000506588
0.000882979
0.00126543
0.00166853
0.00209577
0.00255887
0.00308264
0.00371678
0.0045899
0.00598788
0.00786
0.0102549
0.0132671
0.0170059
0.000322497