/*--------------------------------*- C++ -*----------------------------------*\
| =========                 |                                                 |
| \\      /  F ield         | OpenFOAM: The Open Source CFD Toolbox           |
|  \\    /   O peration     | Version:  2.3.0                                 |
|   \\  /    A nd           | Web:      www.OpenFOAM.org                      |
|    \\/     M anipulation  |                                                 |
\*---------------------------------------------------------------------------*/
FoamFile
{
    version     2.0;
    format      ascii;
    class       volScalarField;
    location    "300";
    object      p;
}
// * * * * * * * * * * * * * * * * * * * * * * * * * * * * * * * * * * * * * //

dimensions      [0 2 -2 0 0 0 0];

internalField   nonuniform List<scalar> 
7991
(
-0.00123709
0.0115683
0.0592168
0.153343
0.29531
0.478736
0.693718
0.930601
1.18282
1.44778
1.72509
2.0183
2.35687
2.86203
3.50566
0.233312
0.251063
0.270366
0.293586
0.326868
0.377073
0.450489
0.551373
0.681277
0.839269
1.02241
1.22666
1.4477
1.68261
1.92959
0.466116
0.543012
0.638045
0.74899
0.873829
1.00842
1.14829
1.28952
1.42911
1.56489
1.69538
1.81954
1.93651
2.04568
2.14723
0.6123
0.682115
0.760437
0.842736
0.929109
1.01906
1.11195
1.20696
1.30322
1.3998
1.4958
1.59037
1.68273
1.77225
1.85882
0.728893
0.7987
0.87808
0.960239
1.0444
1.12942
1.21427
1.29806
1.38016
1.46007
1.53746
1.61207
1.68373
1.75229
1.81779
0.808314
0.869141
0.937565
1.00693
1.07665
1.14623
1.21535
1.28368
1.351
1.41708
1.48175
1.54483
1.60617
1.66562
1.72314
0.86346
0.919014
0.98043
1.04236
1.10413
1.16545
1.22613
1.28601
1.34495
1.40282
1.45952
1.51493
1.56893
1.62141
1.67228
0.898937
0.952799
1.00725
1.06175
1.116
1.16983
1.2232
1.27604
1.32828
1.37984
1.43063
1.48055
1.52947
1.57726
1.62381
0.929279
0.978304
1.02628
1.07465
1.12304
1.17127
1.21927
1.26701
1.31441
1.3614
1.4079
1.45378
1.49893
1.54319
1.58645
0.946592
0.994907
1.03839
1.08205
1.12583
1.16964
1.21343
1.25717
1.30081
1.34426
1.38745
1.43027
1.47256
1.51416
1.55492
0.963433
1.00741
1.04682
1.0865
1.12649
1.16672
1.20711
1.24764
1.28834
1.32898
1.36954
1.4099
1.44992
1.48944
1.5283
0.976136
1.01546
1.05175
1.08825
1.12558
1.16298
1.20029
1.23799
1.27639
1.31475
1.35309
1.39133
1.42954
1.46734
1.5047
0.986918
1.0233
1.05686
1.09043
1.12537
1.16043
1.19556
1.23143
1.26774
1.30389
1.34075
1.37824
1.41566
1.45288
1.48865
1.00435
1.03305
1.06866
1.09877
1.12406
1.15731
1.19584
1.23098
1.26435
1.29742
1.3339
1.37222
1.40714
1.44515
1.48306
4.29676
4.41767
4.30549
4.31219
4.35242
4.37692
4.37821
4.35989
4.32315
4.26573
4.18269
4.06832
3.91881
3.73623
3.53879
2.19437
2.47408
2.7403
2.9885
3.21246
3.40418
3.55589
3.6618
3.71874
3.72678
3.68949
3.61349
3.50746
3.38091
3.24729
2.24336
2.33685
2.42848
2.51856
2.60626
2.69039
2.76957
2.84218
2.90618
2.95902
2.99745
3.01769
3.01625
2.99229
2.95333
1.94395
2.02975
2.11666
2.20396
2.29041
2.37448
2.45441
2.52823
2.59385
2.64913
2.69204
2.72074
2.73399
2.73226
2.71979
1.88114
1.94383
2.00646
2.06886
2.13058
2.19106
2.24966
2.30562
2.35802
2.40574
2.44744
2.4815
2.50626
2.52106
2.52703
1.7793
1.83507
1.89074
1.94605
2.00064
2.05409
2.10589
2.15551
2.20229
2.2455
2.2843
2.31767
2.3446
2.36521
2.38415
1.72188
1.77088
1.81944
1.8674
1.91449
1.96043
2.00491
2.04762
2.08815
2.12607
2.16083
2.19178
2.21821
2.23991
2.25733
1.66932
1.7142
1.75851
1.80208
1.8447
1.88612
1.92613
1.96446
2.00087
2.03505
2.06668
2.09534
2.12056
2.14206
2.1608
1.62876
1.67038
1.71132
1.75141
1.79046
1.82828
1.86468
1.89948
1.93249
1.96354
1.9924
2.01882
2.04239
2.06279
2.0832
1.59479
1.63391
1.67229
1.70973
1.74611
1.7812
1.81484
1.84693
1.87731
1.90586
1.93244
1.95689
1.97896
1.99829
2.01684
1.56627
1.60341
1.63976
1.67502
1.70932
1.7423
1.7738
1.80377
1.83204
1.85858
1.88328
1.90604
1.92673
1.94496
1.96179
1.54133
1.57694
1.61181
1.64515
1.678
1.70959
1.7395
1.76791
1.79446
1.8195
1.84278
1.86426
1.88346
1.90038
1.91498
1.5236
1.55656
1.58979
1.62185
1.65374
1.68342
1.71067
1.73741
1.76225
1.78579
1.80788
1.8283
1.84628
1.86255
1.87695
1.51425
1.54292
1.57302
1.60373
1.63742
1.66149
1.68525
1.71051
1.73346
1.75491
1.77467
1.79008
1.80834
1.82691
1.84055
-0.831061
-0.824231
-0.76245
-0.638487
-0.465189
-0.26785
-0.0771279
0.0799307
0.187367
0.240839
0.244938
0.205624
0.127508
0.000897628
-0.00165573
-0.790553
-0.82752
-0.872097
-0.934418
-1.02134
-1.12831
-1.24403
-1.35595
-1.45362
-1.53131
-1.58806
-1.62823
-1.6536
-1.68731
-1.68793
-0.791752
-0.869056
-0.963893
-1.07053
-1.17903
-1.27697
-1.35609
-1.41416
-1.45341
-1.47856
-1.49516
-1.51032
-1.5241
-1.53812
-1.5403
-0.735409
-0.780947
-0.821854
-0.854374
-0.877654
-0.892336
-0.900574
-0.905002
-0.907776
-0.910644
-0.915055
-0.923934
-0.937034
-0.948413
-0.950939
-0.651845
-0.670283
-0.683217
-0.692083
-0.698887
-0.704757
-0.709987
-0.714439
-0.718021
-0.721176
-0.724893
-0.731338
-0.741531
-0.749553
-0.749381
-0.587733
-0.602857
-0.617033
-0.63091
-0.643951
-0.655562
-0.665225
-0.672767
-0.67845
-0.683105
-0.688053
-0.695183
-0.7056
-0.713709
-0.712697
-0.544083
-0.553641
-0.565856
-0.578116
-0.589299
-0.599313
-0.608246
-0.616267
-0.623643
-0.63088
-0.638899
-0.648957
-0.661615
-0.671435
-0.670596
-0.496481
-0.501004
-0.508257
-0.516172
-0.524298
-0.533065
-0.542628
-0.552972
-0.564
-0.575723
-0.588515
-0.603019
-0.61917
-0.631521
-0.631314
-0.454305
-0.450382
-0.453811
-0.458926
-0.46583
-0.475177
-0.487143
-0.501634
-0.51833
-0.536861
-0.5572
-0.579207
-0.601594
-0.618367
-0.619671
-0.405146
-0.402802
-0.403823
-0.406304
-0.411357
-0.420209
-0.433584
-0.451876
-0.474632
-0.501283
-0.531654
-0.565778
-0.600987
-0.628756
-0.636028
-0.371553
-0.361187
-0.357772
-0.355935
-0.35727
-0.363902
-0.37788
-0.400741
-0.431726
-0.46851
-0.512916
-0.56549
-0.620139
-0.662335
-0.677424
-0.331408
-0.320526
-0.312831
-0.305087
-0.298492
-0.296837
-0.302834
-0.325122
-0.361051
-0.401655
-0.447824
-0.520973
-0.62463
-0.710767
-0.752139
-0.303936
-0.285282
-0.276834
-0.263636
-0.251082
-0.245152
-0.247589
-0.277372
-0.340951
-0.391923
-0.45713
-0.546694
-0.707058
-0.804556
-0.841272
-0.26512
-0.238065
-0.232793
-0.214325
-0.171923
-0.133416
-0.0617853
-0.0676711
-0.156177
-0.176126
-0.114181
-0.145118
-0.610456
-0.900299
-0.929749
0.00494861
0.0153919
0.149651
0.235145
0.282511
0.286865
0.242006
0.143354
-0.00425364
-0.183767
-0.366862
-0.522768
-0.625467
-0.663237
-0.64455
-1.68462
-1.67934
-1.64067
-1.61039
-1.56395
-1.49925
-1.41175
-1.30247
-1.17736
-1.04722
-0.925141
-0.823064
-0.744657
-0.682574
-0.625254
-1.53678
-1.52816
-1.50796
-1.48843
-1.46673
-1.44248
-1.40834
-1.35869
-1.28879
-1.19662
-1.08488
-0.962411
-0.841449
-0.731781
-0.637421
-0.947693
-0.938742
-0.92123
-0.902343
-0.887123
-0.875537
-0.864546
-0.852689
-0.838202
-0.818924
-0.792253
-0.756012
-0.709461
-0.653647
-0.591657
-0.746299
-0.740174
-0.726148
-0.71027
-0.697698
-0.687124
-0.676301
-0.664261
-0.650579
-0.635341
-0.618622
-0.599993
-0.578217
-0.551437
-0.518181
-0.709698
-0.704442
-0.690325
-0.674194
-0.660944
-0.649198
-0.63702
-0.623116
-0.606681
-0.587445
-0.565547
-0.54146
-0.51576
-0.489067
-0.461204
-0.667667
-0.662253
-0.646413
-0.628011
-0.611815
-0.597018
-0.582331
-0.566863
-0.550121
-0.531808
-0.511717
-0.489766
-0.466059
-0.4416
-0.419057
-0.628665
-0.622977
-0.604875
-0.583109
-0.562487
-0.542885
-0.523653
-0.504464
-0.485305
-0.466243
-0.447288
-0.428378
-0.409271
-0.390266
-0.373781
-0.617075
-0.610026
-0.587604
-0.559786
-0.531925
-0.504929
-0.478897
-0.45395
-0.430435
-0.408583
-0.388534
-0.370325
-0.353636
-0.338243
-0.326261
-0.635614
-0.625119
-0.592869
-0.552641
-0.512443
-0.474473
-0.439369
-0.407735
-0.379421
-0.354696
-0.333746
-0.316341
-0.301897
-0.289761
-0.281413
-0.67656
-0.656057
-0.604096
-0.546157
-0.491188
-0.439605
-0.394823
-0.355995
-0.323115
-0.296776
-0.276588
-0.262088
-0.251567
-0.24409
-0.241101
-0.782736
-0.74348
-0.637135
-0.543078
-0.463796
-0.393865
-0.339182
-0.299413
-0.262856
-0.235318
-0.21812
-0.207869
-0.202827
-0.20103
-0.201915
-0.894006
-0.791161
-0.56549
-0.490336
-0.42568
-0.325492
-0.279575
-0.23223
-0.182346
-0.162365
-0.150149
-0.151592
-0.152643
-0.159209
-0.166395
-1.38886
-1.19264
-0.577284
-0.525158
-0.378275
-0.21898
-0.176734
-0.191624
-0.127803
-0.103654
-0.105926
-0.107807
-0.115463
-0.129785
-0.148159
-8.78446
-8.13694
-7.54954
-6.92592
-6.2487
-5.50951
-4.72788
-3.93033
-3.15004
-2.42386
-1.78664
-1.2629
-0.860341
-0.568848
-0.372473
-0.255882
-1.17409
-1.31989
-1.36118
-1.4361
-1.52028
-1.58148
-1.60669
-1.58616
-1.51095
-1.37826
-1.19575
-0.982007
-0.761765
-0.566936
-0.812913
-1.18435
-1.02694
-0.99549
-1.02516
-1.05157
-1.0637
-1.06618
-1.05894
-1.03851
-0.999935
-0.937652
-0.847682
-0.730739
-0.603793
-2.16746
-2.17155
-1.91856
-1.85076
-1.79279
-1.71234
-1.61572
-1.50908
-1.39309
-1.26911
-1.14019
-1.00972
-0.879904
-0.750558
-0.628199
-2.07369
-1.78655
-1.62743
-1.60727
-1.5647
-1.50713
-1.44257
-1.37117
-1.2906
-1.19993
-1.0993
-0.989833
-0.873886
-0.754017
-0.638209
-1.1617
-0.866018
-0.87598
-0.898478
-0.898099
-0.899524
-0.902906
-0.902956
-0.896112
-0.880107
-0.852659
-0.811621
-0.75572
-0.684688
-0.603766
-0.609428
-0.518734
-0.571144
-0.576223
-0.581524
-0.596799
-0.61647
-0.635551
-0.651586
-0.662369
-0.665353
-0.657864
-0.63742
-0.601704
-0.55113
-0.558993
-0.55428
-0.571219
-0.559252
-0.558526
-0.563178
-0.570486
-0.578519
-0.585916
-0.590972
-0.591814
-0.586432
-0.572736
-0.548425
-0.510927
-0.582878
-0.589623
-0.585251
-0.574749
-0.571173
-0.567842
-0.566325
-0.566042
-0.565833
-0.564359
-0.56032
-0.552294
-0.538723
-0.518002
-0.487404
-0.584282
-0.585282
-0.575946
-0.567942
-0.562042
-0.555655
-0.550944
-0.547396
-0.544067
-0.539973
-0.534143
-0.525464
-0.51267
-0.494511
-0.46811
-0.580251
-0.576921
-0.567197
-0.558317
-0.55052
-0.543386
-0.537259
-0.531828
-0.526533
-0.520677
-0.513498
-0.504123
-0.491522
-0.474655
-0.450943
-0.572147
-0.567248
-0.557769
-0.547904
-0.539836
-0.533018
-0.526313
-0.519945
-0.513598
-0.506697
-0.4986
-0.488608
-0.475917
-0.459747
-0.438164
-0.557716
-0.552765
-0.543868
-0.534277
-0.527023
-0.5208
-0.514092
-0.507606
-0.501087
-0.494014
-0.485813
-0.475884
-0.463561
-0.448238
-0.428354
-0.541262
-0.53683
-0.528694
-0.519936
-0.513363
-0.507443
-0.500969
-0.494713
-0.488383
-0.481515
-0.473597
-0.464073
-0.452327
-0.437782
-0.41894
-0.527601
-0.523667
-0.516109
-0.507858
-0.501068
-0.494915
-0.488755
-0.48276
-0.476633
-0.469994
-0.462385
-0.453286
-0.442104
-0.428276
-0.41045
-0.516883
-0.513193
-0.505907
-0.497708
-0.490273
-0.483839
-0.478059
-0.472252
-0.466282
-0.459853
-0.45255
-0.443897
-0.433361
-0.420451
-0.404003
-0.506807
-0.503212
-0.496108
-0.487944
-0.480289
-0.47399
-0.468578
-0.462881
-0.457047
-0.450824
-0.443822
-0.435602
-0.425683
-0.413634
-0.398333
-0.496023
-0.492564
-0.485757
-0.47789
-0.470577
-0.464736
-0.459648
-0.454085
-0.448441
-0.442462
-0.435771
-0.427957
-0.41856
-0.407165
-0.392695
-0.485206
-0.481992
-0.475616
-0.468256
-0.461515
-0.456078
-0.451167
-0.445788
-0.440387
-0.434682
-0.428318
-0.420912
-0.412021
-0.401241
-0.387566
-0.475782
-0.472853
-0.466918
-0.460062
-0.453745
-0.448282
-0.443289
-0.43816
-0.433029
-0.427606
-0.421577
-0.414584
-0.406207
-0.396064
-0.383264
-0.468395
-0.46569
-0.460087
-0.45356
-0.447362
-0.441521
-0.436329
-0.431488
-0.426574
-0.421384
-0.415646
-0.409024
-0.401117
-0.391566
-0.3796
-0.462416
-0.459841
-0.454451
-0.448082
-0.441853
-0.435706
-0.430465
-0.425879
-0.421079
-0.416042
-0.410521
-0.404189
-0.396662
-0.387578
-0.376272
-0.456858
-0.454362
-0.449139
-0.44289
-0.436688
-0.430543
-0.42547
-0.421087
-0.416355
-0.411442
-0.406098
-0.400007
-0.3928
-0.384104
-0.373264
-0.45139
-0.44898
-0.443947
-0.437878
-0.431844
-0.425943
-0.421139
-0.4169
-0.412235
-0.407443
-0.402266
-0.396398
-0.389493
-0.381183
-0.370574
-0.44604
-0.443752
-0.438953
-0.433151
-0.427403
-0.421852
-0.417272
-0.413116
-0.408562
-0.403929
-0.398944
-0.393326
-0.386753
-0.378935
-0.369028
-0.441422
-0.439281
-0.434736
-0.429239
-0.423798
-0.418527
-0.413943
-0.409728
-0.405329
-0.400865
-0.396074
-0.390695
-0.384415
-0.376972
-0.36745
-0.437805
-0.435803
-0.43149
-0.426269
-0.421065
-0.415921
-0.411113
-0.406764
-0.402567
-0.398267
-0.393656
-0.388497
-0.382485
-0.375378
-0.366367
-0.435191
-0.433296
-0.429165
-0.424146
-0.419067
-0.41392
-0.408856
-0.40442
-0.400417
-0.396224
-0.391751
-0.386772
-0.380983
-0.374139
-0.3654
-0.43319
-0.431368
-0.427375
-0.422489
-0.417469
-0.412295
-0.407114
-0.402716
-0.398871
-0.394741
-0.390376
-0.385548
-0.379959
-0.373378
-0.365057
-0.431488
-0.429718
-0.425842
-0.421064
-0.416099
-0.410951
-0.405821
-0.401557
-0.397827
-0.39374
-0.389466
-0.38476
-0.379331
-0.372947
-0.364825
-0.429928
-0.428211
-0.424453
-0.419794
-0.414923
-0.409879
-0.404919
-0.400827
-0.397185
-0.393149
-0.388975
-0.384405
-0.379173
-0.373087
-0.365849
-0.428487
-0.426834
-0.423209
-0.418698
-0.413976
-0.409105
-0.404369
-0.400425
-0.396836
-0.392874
-0.388805
-0.384367
-0.379307
-0.373393
-0.366519
-0.42742
-0.425843
-0.422361
-0.418023
-0.413483
-0.408808
-0.404272
-0.400355
-0.39674
-0.39287
-0.388902
-0.384576
-0.379647
-0.373811
-0.36733
-0.426868
-0.425371
-0.422035
-0.41788
-0.413528
-0.409038
-0.404634
-0.400609
-0.396911
-0.393175
-0.389313
-0.385096
-0.380297
-0.374517
-0.367834
-0.42706
-0.425638
-0.422434
-0.418444
-0.41425
-0.409884
-0.40552
-0.401305
-0.397518
-0.393928
-0.390156
-0.386039
-0.381369
-0.375741
-0.368905
-0.427854
-0.426493
-0.423402
-0.419551
-0.415476
-0.411184
-0.406817
-0.402463
-0.398662
-0.395229
-0.391551
-0.387578
-0.383119
-0.377891
-0.371952
-0.42925
-0.427936
-0.424938
-0.421191
-0.417194
-0.412934
-0.408547
-0.404131
-0.400372
-0.397047
-0.393415
-0.389521
-0.38514
-0.379953
-0.373792
-0.430994
-0.429717
-0.426799
-0.423138
-0.419203
-0.414977
-0.410602
-0.406224
-0.402556
-0.39931
-0.395706
-0.39187
-0.387545
-0.382416
-0.37687
-0.433133
-0.431888
-0.429045
-0.425464
-0.42159
-0.417411
-0.413088
-0.40881
-0.405254
-0.40207
-0.398509
-0.394764
-0.390578
-0.385611
-0.380552
-0.435578
-0.434367
-0.431601
-0.428104
-0.424308
-0.420208
-0.415979
-0.411844
-0.408396
-0.405256
-0.401736
-0.398053
-0.393942
-0.388979
-0.383564
-0.438422
-0.43725
-0.434564
-0.431161
-0.427459
-0.423462
-0.419351
-0.415357
-0.411967
-0.408827
-0.405349
-0.401712
-0.397665
-0.392814
-0.387298
-0.44176
-0.440629
-0.438028
-0.434728
-0.431135
-0.427257
-0.423274
-0.419402
-0.415995
-0.412821
-0.409427
-0.405885
-0.401985
-0.397464
-0.392826
-0.445678
-0.44459
-0.442073
-0.438879
-0.4354
-0.431642
-0.427771
-0.423972
-0.420458
-0.417203
-0.413886
-0.41038
-0.406484
-0.401865
-0.396924
-0.45026
-0.449213
-0.446776
-0.443681
-0.440307
-0.436649
-0.432853
-0.429067
-0.425394
-0.422042
-0.418789
-0.415282
-0.411368
-0.406665
-0.402112
-0.455493
-0.454482
-0.452116
-0.449113
-0.445829
-0.442249
-0.438495
-0.43469
-0.430876
-0.427464
-0.424268
-0.420748
-0.41683
-0.412012
-0.406917
-0.461439
-0.460459
-0.458156
-0.455229
-0.452018
-0.448491
-0.444752
-0.440912
-0.437008
-0.433582
-0.430432
-0.426895
-0.422984
-0.418164
-0.412766
-0.468027
-0.467073
-0.464825
-0.461965
-0.458811
-0.455324
-0.451593
-0.447733
-0.443803
-0.440403
-0.43729
-0.433741
-0.429838
-0.425055
-0.419175
-0.475249
-0.474316
-0.47212
-0.469318
-0.466214
-0.462762
-0.459046
-0.455193
-0.451299
-0.447968
-0.444915
-0.441429
-0.437669
-0.433268
-0.428122
-0.483032
-0.48212
-0.479972
-0.477225
-0.474168
-0.470754
-0.467065
-0.463243
-0.459413
-0.456148
-0.453118
-0.449631
-0.445849
-0.441391
-0.435391
-0.49136
-0.490469
-0.488371
-0.485678
-0.482672
-0.479304
-0.47566
-0.471891
-0.468147
-0.464946
-0.461938
-0.458492
-0.454795
-0.45066
-0.446587
-0.500287
-0.499419
-0.49737
-0.494736
-0.491785
-0.488473
-0.484885
-0.48118
-0.477515
-0.474332
-0.47128
-0.467781
-0.46395
-0.459355
-0.453549
-0.509924
-0.50908
-0.507083
-0.50451
-0.501619
-0.498371
-0.494848
-0.491209
-0.487606
-0.48438
-0.481228
-0.477634
-0.473616
-0.468699
-0.462679
-0.520439
-0.519622
-0.517679
-0.515172
-0.512351
-0.50918
-0.505738
-0.50218
-0.49864
-0.495356
-0.492143
-0.488596
-0.48465
-0.479948
-0.47455
-0.532033
-0.531242
-0.529352
-0.526913
-0.524165
-0.521072
-0.517711
-0.514224
-0.510727
-0.507351
-0.504081
-0.500608
-0.496716
-0.492094
-0.486922
-0.544707
-0.543941
-0.542102
-0.539728
-0.53705
-0.534031
-0.530738
-0.527294
-0.52379
-0.520265
-0.516872
-0.51334
-0.509231
-0.504157
-0.49819
-0.558677
-0.557933
-0.556141
-0.553823
-0.551204
-0.548238
-0.544986
-0.541548
-0.537999
-0.534328
-0.530842
-0.527307
-0.523167
-0.518157
-0.514203
-0.573912
-0.573188
-0.571438
-0.569174
-0.56661
-0.563694
-0.560473
-0.557026
-0.55342
-0.549616
-0.546026
-0.542391
-0.538038
-0.532409
-0.52655
-0.59068
-0.589973
-0.588261
-0.586041
-0.583517
-0.580624
-0.577405
-0.573913
-0.570217
-0.566274
-0.562547
-0.558731
-0.554112
-0.548187
-0.542486
-0.609007
-0.608314
-0.606637
-0.604455
-0.601964
-0.599091
-0.595865
-0.592326
-0.588541
-0.584475
-0.5806
-0.576545
-0.57156
-0.565067
-0.557839
-0.629187
-0.628508
-0.626863
-0.624716
-0.62225
-0.619383
-0.616138
-0.61254
-0.608658
-0.604467
-0.600415
-0.596058
-0.590615
-0.583519
-0.575518
-0.651401
-0.650735
-0.649123
-0.647009
-0.644569
-0.641711
-0.638451
-0.634805
-0.63084
-0.626542
-0.622317
-0.617674
-0.611834
-0.604263
-0.596062
-0.675961
-0.675309
-0.673732
-0.671654
-0.669239
-0.666391
-0.663116
-0.659424
-0.655375
-0.650956
-0.646511
-0.641503
-0.63514
-0.626771
-0.617325
-0.703294
-0.702658
-0.701116
-0.699071
-0.696677
-0.693832
-0.690533
-0.686779
-0.682619
-0.678032
-0.67328
-0.667793
-0.660789
-0.65155
-0.641089
-0.733776
-0.733159
-0.731655
-0.72965
-0.72728
-0.724445
-0.721121
-0.717301
-0.713005
-0.708191
-0.703015
-0.696893
-0.689052
-0.678669
-0.666437
-0.768311
-0.767714
-0.766247
-0.764277
-0.761923
-0.759075
-0.755694
-0.751752
-0.747238
-0.742069
-0.736271
-0.729261
-0.720261
-0.708339
-0.6941
-0.807609
-0.807032
-0.805604
-0.803668
-0.801323
-0.798452
-0.794988
-0.790877
-0.786053
-0.780372
-0.7737
-0.765473
-0.754878
-0.740797
-0.723938
-0.853304
-0.852748
-0.851359
-0.849448
-0.84709
-0.844148
-0.840522
-0.836114
-0.830788
-0.824314
-0.81638
-0.806445
-0.793636
-0.776567
-0.756477
-0.906503
-0.905969
-0.904613
-0.902716
-0.900321
-0.897266
-0.8934
-0.888563
-0.88252
-0.874923
-0.865262
-0.853001
-0.837193
-0.816133
-0.791846
-0.971695
-0.971178
-0.969856
-0.967942
-0.965426
-0.962097
-0.957726
-0.952053
-0.944704
-0.935176
-0.92275
-0.906875
-0.886561
-0.859853
-0.829488
-1.04732
-1.04681
-1.04548
-1.0435
-1.04081
-1.03713
-1.03212
-1.02538
-1.01633
-1.00423
-0.988102
-0.967264
-0.940665
-0.906202
-0.866948
-1.1567
-1.1562
-1.1549
-1.1527
-1.14937
-1.14443
-1.13733
-1.12737
-1.11368
-1.09526
-1.07096
-1.04023
-1.00241
-0.955897
-0.904483
-1.2585
-1.25796
-1.25641
-1.25387
-1.25011
-1.24445
-1.23609
-1.22395
-1.2067
-1.18281
-1.15074
-1.10987
-1.05997
-1.00041
-0.934553
-1.54146
-1.54125
-1.53936
-1.53473
-1.52562
-1.51059
-1.48787
-1.45557
-1.41205
-1.35645
-1.28917
-1.21272
-1.13058
-1.04559
-0.96262
-1.52547
-1.52402
-1.52455
-1.51865
-1.50843
-1.49334
-1.4718
-1.44169
-1.40095
-1.34809
-1.28294
-1.20768
-1.12587
-1.04084
-0.957233
-3.01319
-3.09002
-3.03
-2.94772
-2.84416
-2.70931
-2.53641
-2.32619
-2.0863
-1.83163
-1.58254
-1.36083
-1.18113
-1.04354
-0.940317
15.6533
14.9951
14.1596
13.3477
12.4763
11.5152
10.4849
9.41893
8.35488
7.33407
6.39757
5.57756
4.88943
4.32882
3.88972
6.73994
5.90599
5.94422
6.05939
6.10546
6.1059
6.07754
6.00804
5.8806
5.68353
5.41372
5.07952
4.70121
4.30594
3.93355
4.60321
4.29085
4.50914
4.5738
4.58072
4.58732
4.59543
4.59298
4.57328
4.53112
4.45963
4.35047
4.19675
3.9963
3.76662
3.98896
3.98384
4.20343
4.22444
4.23205
4.24705
4.2581
4.25514
4.23419
4.19204
4.12609
4.03457
3.91607
3.76813
3.59705
3.36073
3.64185
3.77928
3.78225
3.80419
3.83253
3.85737
3.87488
3.88216
3.874
3.84455
3.78888
3.70411
3.5888
3.44821
3.44569
3.74621
3.73414
3.71301
3.71305
3.70847
3.69775
3.68364
3.66617
3.64297
3.61046
3.56412
3.499
3.41023
3.29735
3.6051
3.70058
3.64645
3.64091
3.63423
3.61543
3.58907
3.55842
3.52367
3.48419
3.4389
3.38597
3.32261
3.24479
3.14811
3.38564
3.39271
3.37472
3.38597
3.38451
3.37556
3.36134
3.34249
3.31857
3.28897
3.25274
3.20845
3.15435
3.08837
3.00643
3.10131
3.09605
3.10054
3.11088
3.11292
3.11332
3.11011
3.10289
3.09146
3.07531
3.05333
3.02396
2.98538
2.93627
2.87635
2.87621
2.87584
2.88509
2.89223
2.89649
2.90067
2.90179
2.89966
2.89423
2.88511
2.87143
2.85186
2.82469
2.78832
2.74306
2.69186
2.6952
2.70441
2.71193
2.71814
2.72348
2.72648
2.72703
2.72496
2.71986
2.711
2.6973
2.67722
2.64901
2.61348
2.5315
2.53632
2.54548
2.55457
2.56171
2.56713
2.57122
2.57353
2.57377
2.57158
2.56634
2.55712
2.54255
2.52083
2.4934
2.39396
2.39905
2.40799
2.41746
2.42429
2.4294
2.43401
2.43725
2.43883
2.4385
2.43581
2.42999
2.41995
2.4041
2.38455
2.27519
2.2799
2.28821
2.297
2.30305
2.30786
2.31262
2.31622
2.31846
2.31917
2.318
2.31435
2.30731
2.2953
2.2796
2.16811
2.17225
2.17984
2.18785
2.19363
2.19851
2.20326
2.20697
2.20955
2.21087
2.21064
2.20833
2.20318
2.19372
2.18067
2.06812
2.07186
2.07901
2.08676
2.09312
2.09846
2.10309
2.10689
2.10977
2.1116
2.11214
2.11098
2.10754
2.10075
2.09215
1.97506
1.97864
1.98563
1.99346
2.00048
2.00611
2.01057
2.0145
2.01768
2.01995
2.02114
2.02093
2.01882
2.01385
2.00794
1.88989
1.89341
1.90024
1.90803
1.91516
1.92064
1.9249
1.92896
1.93233
1.9349
1.93652
1.93693
1.93568
1.93174
1.92683
1.81229
1.81566
1.82219
1.82965
1.83639
1.84146
1.84556
1.84967
1.85312
1.85585
1.85777
1.85865
1.85813
1.8553
1.85203
1.74057
1.74368
1.74978
1.75675
1.76295
1.76774
1.7718
1.77589
1.77934
1.78216
1.7843
1.78556
1.78567
1.78382
1.78198
1.67264
1.67547
1.68116
1.68767
1.69354
1.69848
1.70275
1.70673
1.71014
1.71301
1.7153
1.71686
1.71747
1.71641
1.7156
1.60743
1.61006
1.61545
1.62169
1.62752
1.63292
1.63745
1.64128
1.64467
1.64761
1.65001
1.65179
1.65278
1.65231
1.65207
1.54517
1.54769
1.55291
1.55903
1.56495
1.57068
1.5753
1.57897
1.58241
1.58542
1.58794
1.58989
1.59115
1.5911
1.5911
1.48636
1.48881
1.49389
1.49992
1.50584
1.51159
1.51608
1.51965
1.52315
1.52622
1.52883
1.53093
1.5324
1.53275
1.53345
1.43105
1.43342
1.43832
1.44419
1.44996
1.45548
1.45975
1.46324
1.46677
1.46988
1.47257
1.47481
1.47651
1.47721
1.47945
1.37873
1.38098
1.38566
1.39128
1.39678
1.40197
1.40604
1.4095
1.41303
1.41614
1.41889
1.42124
1.42317
1.42419
1.42701
1.32855
1.33065
1.33508
1.3404
1.3456
1.35052
1.35459
1.35813
1.36159
1.36465
1.36739
1.36977
1.37178
1.37287
1.37578
1.27976
1.28172
1.28592
1.29097
1.29594
1.30073
1.30504
1.30875
1.31209
1.3151
1.31782
1.32024
1.32236
1.32365
1.32706
1.23216
1.23401
1.23803
1.24288
1.24773
1.25254
1.25714
1.26099
1.2642
1.2672
1.26994
1.27241
1.27468
1.27618
1.27976
1.18583
1.18762
1.19151
1.19623
1.20104
1.20591
1.21069
1.21456
1.21767
1.22069
1.22346
1.22597
1.22831
1.22994
1.23322
1.141
1.14274
1.14652
1.15116
1.15593
1.16081
1.16559
1.16938
1.17242
1.17547
1.17823
1.18073
1.18302
1.18448
1.18651
1.09774
1.09943
1.10311
1.10765
1.11235
1.11717
1.12183
1.12548
1.12848
1.13156
1.13434
1.13688
1.13928
1.14103
1.14218
1.05598
1.05762
1.06118
1.06559
1.07018
1.07487
1.07934
1.08287
1.08586
1.08897
1.0918
1.09445
1.09702
1.09928
1.10056
1.01544
1.01701
1.02043
1.02469
1.02911
1.03362
1.03789
1.04137
1.04439
1.04748
1.05031
1.05297
1.05557
1.05807
1.05819
0.975669
0.977156
0.980442
0.984523
0.988764
0.99308
0.997205
1.00076
1.00387
1.00687
1.00963
1.01222
1.01469
1.01729
1.01724
0.936454
0.937865
0.941017
0.944928
0.949001
0.953174
0.957236
0.960971
0.964197
0.967095
0.969811
0.97239
0.97483
0.977563
0.978812
0.89769
0.899037
0.902074
0.905843
0.909791
0.913886
0.917961
0.921895
0.925204
0.928002
0.930703
0.933281
0.935714
0.938386
0.939327
0.859396
0.860693
0.863637
0.867297
0.871162
0.875226
0.87934
0.883397
0.886716
0.88943
0.892127
0.894679
0.897067
0.8996
0.900367
0.821621
0.822882
0.825748
0.829326
0.833139
0.837192
0.841333
0.845421
0.848703
0.851377
0.854108
0.856694
0.859167
0.861863
0.862464
0.784406
0.785638
0.788436
0.791946
0.795714
0.79975
0.803885
0.807932
0.811153
0.813821
0.816604
0.819246
0.821817
0.824796
0.82537
0.747756
0.748959
0.751688
0.755128
0.758841
0.762831
0.766913
0.770863
0.774007
0.776675
0.779494
0.78217
0.784772
0.787861
0.788772
0.711543
0.712714
0.715371
0.718732
0.722373
0.726289
0.730284
0.734114
0.737195
0.739876
0.742713
0.74541
0.74802
0.751081
0.752093
0.675692
0.676825
0.679403
0.682673
0.68622
0.690036
0.693919
0.697629
0.700698
0.703425
0.706268
0.708996
0.711676
0.71484
0.715609
0.640002
0.641093
0.64359
0.64676
0.650202
0.653905
0.657676
0.661298
0.664442
0.667264
0.6701
0.672868
0.675645
0.679066
0.680196
0.604319
0.605368
0.607784
0.610851
0.614184
0.617774
0.621448
0.625023
0.628307
0.631234
0.63402
0.636786
0.639555
0.643026
0.644569
0.568524
0.569533
0.571872
0.574841
0.578071
0.581564
0.58517
0.588739
0.592177
0.595182
0.597891
0.600633
0.603332
0.606608
0.608242
0.532561
0.533534
0.535806
0.538689
0.541834
0.545257
0.548832
0.552431
0.556004
0.559063
0.56173
0.564512
0.567269
0.570592
0.572379
0.496426
0.49737
0.499583
0.502393
0.505474
0.508851
0.512422
0.516067
0.519733
0.522827
0.525504
0.528383
0.531292
0.534874
0.537143
0.460041
0.460961
0.463122
0.465873
0.468905
0.472254
0.475831
0.479513
0.483221
0.486323
0.48903
0.492007
0.495046
0.498841
0.501366
0.423349
0.424249
0.426363
0.429061
0.432051
0.435375
0.438951
0.442642
0.446342
0.449428
0.452165
0.45522
0.45837
0.462596
0.466685
0.386268
0.387149
0.389217
0.391865
0.394814
0.398108
0.401665
0.405337
0.408986
0.41203
0.414773
0.417848
0.420925
0.424722
0.431016
0.348765
0.349626
0.351647
0.354245
0.35715
0.360406
0.363928
0.36756
0.371144
0.374157
0.376933
0.380075
0.383283
0.386815
0.394231
0.310758
0.311598
0.313572
0.316117
0.318971
0.322179
0.325654
0.329235
0.332755
0.335768
0.338602
0.341805
0.345175
0.348485
0.355542
0.272125
0.272942
0.274866
0.277354
0.280153
0.283305
0.286722
0.290249
0.293723
0.296794
0.299746
0.303056
0.30672
0.310446
0.318369
0.232681
0.233474
0.235348
0.237775
0.240511
0.243599
0.246953
0.250425
0.25387
0.257048
0.260135
0.263507
0.267309
0.271076
0.278888
0.192232
0.192999
0.194822
0.197185
0.199856
0.202876
0.206165
0.209589
0.21303
0.216356
0.219587
0.223001
0.226939
0.230834
0.238065
0.150605
0.151348
0.153121
0.155423
0.15803
0.160986
0.164223
0.167628
0.171108
0.174626
0.178037
0.181562
0.185751
0.190119
0.197721
0.107614
0.108333
0.110059
0.112303
0.114853
0.117758
0.120964
0.124383
0.127947
0.131684
0.135311
0.139042
0.143616
0.148681
0.157092
0.0629871
0.0636849
0.0653676
0.0675588
0.0700586
0.0729252
0.0761189
0.079575
0.0832463
0.0871902
0.0910273
0.0949971
0.0999622
0.105649
0.114745
0.0164179
0.017096
0.0187377
0.020881
0.0233387
0.0261774
0.0293732
0.0328822
0.0366683
0.040795
0.044834
0.0490749
0.054457
0.0607894
0.0710363
-0.0324202
-0.03176
-0.0301566
-0.028056
-0.0256322
-0.0228098
-0.0195978
-0.0160224
-0.0121128
-0.00781073
-0.00354893
0.00102649
0.00689883
0.0138894
0.0255797
-0.0838871
-0.0832434
-0.0816763
-0.0796135
-0.0772156
-0.0743983
-0.0711563
-0.0675005
-0.0634529
-0.058961
-0.054427
-0.049427
-0.042941
-0.0352097
-0.0217795
-0.13844
-0.137812
-0.13628
-0.134251
-0.131871
-0.129048
-0.12576
-0.122004
-0.117791
-0.113067
-0.108176
-0.102621
-0.0953382
-0.0867141
-0.071388
-0.196664
-0.196051
-0.194554
-0.192555
-0.190186
-0.187344
-0.183991
-0.180107
-0.175683
-0.17065
-0.165271
-0.158972
-0.150612
-0.140722
-0.123629
-0.259365
-0.258769
-0.257307
-0.255335
-0.252968
-0.250089
-0.246642
-0.242582
-0.237869
-0.232398
-0.226322
-0.218983
-0.209114
-0.197169
-0.177087
-0.327561
-0.326982
-0.325555
-0.323607
-0.32123
-0.318292
-0.314714
-0.310414
-0.305309
-0.299237
-0.292212
-0.283507
-0.271759
-0.257359
-0.234203
-0.402889
-0.402329
-0.400939
-0.399008
-0.396602
-0.393568
-0.389788
-0.385138
-0.379467
-0.37253
-0.364174
-0.353608
-0.339389
-0.321779
-0.294678
-0.486781
-0.486239
-0.484882
-0.482955
-0.480494
-0.477311
-0.473243
-0.468094
-0.461621
-0.453452
-0.443214
-0.430053
-0.412423
-0.390386
-0.35781
-0.583824
-0.5833
-0.581977
-0.580026
-0.577427
-0.573938
-0.569315
-0.563257
-0.555376
-0.545127
-0.531875
-0.51472
-0.492055
-0.463763
-0.423938
-0.692948
-0.692438
-0.691112
-0.689089
-0.686297
-0.682417
-0.677095
-0.66987
-0.660141
-0.647097
-0.629754
-0.607108
-0.577462
-0.540485
-0.48836
-0.837839
-0.837339
-0.836046
-0.833797
-0.83033
-0.825144
-0.817643
-0.807068
-0.792495
-0.772815
-0.746815
-0.713681
-0.672185
-0.62313
-0.557715
-0.978503
-0.977991
-0.976454
-0.973864
-0.969933
-0.963947
-0.955027
-0.942024
-0.923505
-0.897813
-0.863264
-0.819073
-0.764452
-0.701875
-0.624239
-1.30385
-1.3036
-1.30166
-1.29687
-1.28743
-1.2718
-1.24813
-1.21438
-1.16879
-1.11032
-1.03921
-0.957881
-0.869095
-0.778454
-0.683454
-1.33918
-1.33789
-1.33851
-1.33245
-1.32174
-1.30568
-1.2825
-1.24986
-1.2055
-1.14774
-1.0762
-0.993129
-0.901329
-0.806032
-0.710695
-2.88627
-2.96271
-2.90215
-2.81898
-2.7135
-2.57529
-2.39741
-2.18051
-1.93241
-1.66842
-1.40938
-1.17787
-0.987435
-0.837364
-0.718704
0.329681
1.22612
-0.371413
-0.0661456
0.101001
-0.539652
0.126711
1.93176
0.549962
0.329543
0.12029
1.24488
0.479901
-0.0994951
0.0173022
1.47387
-0.156167
-2.17566
-0.301324
0.268807
1.18243
0.502838
1.54658
0.82484
0.758438
2.35767
1.85788
0.00360684
1.17475
-0.161451
-6.70713
0.361217
-0.550531
-0.260431
1.72291
1.42807
0.461376
-0.877315
0.911471
1.92987
0.882378
-0.343989
0.714876
1.0237
0.749776
0.218156
0.735091
0.605763
-0.387848
1.77856
0.999511
0.15428
0.0160025
2.69898
0.877017
3.4945
0.675714
-0.768616
0.69142
0.742475
1.68614
-1.15975
0.280535
-0.236344
1.47797
1.37844
0.140735
4.75323
0.414346
1.99478
1.19703
0.530727
0.328437
-0.357524
1.02083
0.361934
0.469706
1.04986
-0.323887
1.76108
1.4138
0.681417
0.698151
-0.193693
3.47639
0.098233
0.85686
0.459093
-0.337902
2.17085
0.462775
0.486215
-0.123931
1.07543
0.0703456
0.999683
0.51766
1.52553
0.0764769
0.686959
1.90547
1.2057
1.1441
0.416833
-0.306159
-0.147568
0.916631