/*--------------------------------*- C++ -*----------------------------------*\
| =========                 |                                                 |
| \\      /  F ield         | OpenFOAM: The Open Source CFD Toolbox           |
|  \\    /   O peration     | Version:  2.3.0                                 |
|   \\  /    A nd           | Web:      www.OpenFOAM.org                      |
|    \\/     M anipulation  |                                                 |
\*---------------------------------------------------------------------------*/
FoamFile
{
    version     2.0;
    format      ascii;
    class       volScalarField;
    location    "5000";
    object      nut;
}
// * * * * * * * * * * * * * * * * * * * * * * * * * * * * * * * * * * * * * //

dimensions      [0 2 -1 0 0 0 0];

internalField   nonuniform List<scalar> 
37234
(
0.0679269
0.0663735
0.0648178
0.0632604
0.061702
0.0601429
0.0585841
0.0570259
0.0554693
0.0539148
0.0523632
0.050815
0.0492708
0.0477309
0.046196
0.0446666
0.0431431
0.0416259
0.0401156
0.0386121
0.0371168
0.0356296
0.0341512
0.0326827
0.0312252
0.0297793
0.0283457
0.0269265
0.0255228
0.0241365
0.0227693
0.0214242
0.0201037
0.0188125
0.0175553
0.0163396
0.0151739
0.0140688
0.0130313
0.0120617
0.0111008
0.00984259
0.00823068
0.0691709
0.0677983
0.0664248
0.0650506
0.0636757
0.0623005
0.0609252
0.0595503
0.0581762
0.0568034
0.0554323
0.0540633
0.0526966
0.0513327
0.0499718
0.0486145
0.0472611
0.0459118
0.0445667
0.043227
0.0418927
0.0405645
0.039243
0.0379288
0.0366244
0.0353306
0.034049
0.0327813
0.0315314
0.0303011
0.0290956
0.027918
0.026776
0.0256762
0.0246279
0.0236428
0.0227352
0.0219212
0.0212172
0.0206432
0.0202167
0.0199511
0.01986
0.0703204
0.0691013
0.067883
0.0666641
0.0654442
0.0642235
0.063002
0.0617797
0.0605574
0.0593349
0.0581126
0.0568907
0.0556698
0.0544498
0.0532309
0.0520136
0.0507983
0.0495851
0.0483747
0.0471672
0.0459636
0.0447643
0.0435698
0.0423814
0.0412003
0.0400288
0.0388694
0.0377237
0.0365955
0.0354887
0.0344074
0.0333574
0.0323451
0.0313782
0.0304662
0.0296185
0.0288481
0.0281681
0.0275909
0.0271304
0.0267989
0.0266046
0.0265535
0.0713709
0.0702898
0.0692057
0.0681197
0.067032
0.0659425
0.0648509
0.0637573
0.0626621
0.0615653
0.0604672
0.0593679
0.0582676
0.0571665
0.0560647
0.0549626
0.0538605
0.0527588
0.051658
0.050559
0.0494616
0.0483671
0.0472763
0.0461896
0.045109
0.0440364
0.0429736
0.0419244
0.0408914
0.0398793
0.0388923
0.0379361
0.0370177
0.0361439
0.0353239
0.0345667
0.0338824
0.033282
0.0327768
0.0323774
0.032093
0.0319299
0.0318921
0.0723428
0.0713741
0.0704041
0.069432
0.0684573
0.0674797
0.0664985
0.0655137
0.0645254
0.0635341
0.06254
0.0615428
0.0605428
0.0595404
0.0585356
0.0575286
0.0565196
0.0555091
0.0544979
0.0534869
0.0524766
0.0514672
0.0504603
0.0494567
0.0484572
0.047464
0.0464795
0.0455059
0.0445474
0.0436081
0.042693
0.0418074
0.0409578
0.0401512
0.0393958
0.0387003
0.0380733
0.037525
0.0370649
0.0367027
0.0364457
0.0363003
0.036269
0.073226
0.0723589
0.071488
0.0706138
0.0697361
0.0688542
0.0679673
0.0670747
0.0661766
0.065274
0.0643674
0.063456
0.0625398
0.0616194
0.0606953
0.0597673
0.0588353
0.0579
0.0569621
0.0560228
0.055083
0.0541436
0.0532052
0.0522689
0.0513361
0.0504079
0.0494866
0.0485746
0.0476751
0.046793
0.0459332
0.0451017
0.0443046
0.0435488
0.042841
0.0421897
0.0416034
0.0410912
0.0406624
0.0403246
0.0400853
0.0399498
0.0399216
0.0740346
0.0732531
0.0724672
0.071677
0.0708827
0.0700828
0.0692773
0.0684636
0.0676424
0.0668141
0.0659805
0.0651418
0.0642965
0.0634444
0.0625874
0.0617255
0.0608584
0.0599857
0.059108
0.0582273
0.0573452
0.0564625
0.0555805
0.0546993
0.0538209
0.0529465
0.052078
0.0512171
0.0503661
0.0495294
0.048713
0.0479234
0.0471675
0.0464512
0.0457804
0.0451627
0.044607
0.0441212
0.0437137
0.0433931
0.0431659
0.0430376
0.0430113
0.0747671
0.0740637
0.0733513
0.0726325
0.071911
0.0711799
0.070447
0.0697002
0.0689461
0.0681794
0.0674064
0.0666289
0.0658459
0.06505
0.0642486
0.063442
0.06263
0.0618109
0.0609836
0.0601507
0.0593152
0.058479
0.0576429
0.0568072
0.0559735
0.0551432
0.0543183
0.0535021
0.0526927
0.0518932
0.0511113
0.050354
0.0496306
0.0489464
0.048306
0.0477148
0.0471831
0.0467171
0.0463262
0.0460167
0.0457984
0.0456765
0.0456528
0.0754415
0.0747998
0.0741489
0.0734881
0.0728369
0.0721547
0.0714935
0.0707983
0.0701095
0.0693922
0.0686682
0.0679325
0.0672091
0.0664615
0.0657061
0.064943
0.0641756
0.0634028
0.0626198
0.0618244
0.0610253
0.0602236
0.0594225
0.0586232
0.0578256
0.0570326
0.0562403
0.0554622
0.0546965
0.0539295
0.0531786
0.0524438
0.0517458
0.0510892
0.0504795
0.0499084
0.0493995
0.0489499
0.0485758
0.0482734
0.0480626
0.047948
0.0479322
0.00880902
0.0108891
0.0120824
0.0132005
0.0143835
0.0156437
0.0169668
0.0183351
0.0197363
0.0211619
0.0226056
0.0240631
0.0255317
0.0270091
0.0284938
0.0299847
0.0314815
0.0329829
0.0344888
0.0359994
0.0375135
0.0390312
0.0405526
0.0420771
0.0436045
0.045135
0.0466679
0.0482032
0.0497406
0.0512796
0.05282
0.0543616
0.055904
0.0574467
0.0589892
0.0605311
0.062072
0.0636115
0.0651491
0.0666839
0.0682154
0.069743
0.0712668
0.0199497
0.02023
0.0206983
0.02134
0.0221317
0.0230501
0.0240705
0.0251718
0.0263375
0.0275527
0.028806
0.0300893
0.0313954
0.0327188
0.0340552
0.0354022
0.0367568
0.038117
0.0394821
0.0408507
0.0422214
0.0435942
0.0449681
0.0463428
0.0477186
0.0490944
0.0504706
0.0518466
0.0532224
0.0545976
0.055972
0.0573459
0.0587188
0.0600906
0.0614612
0.0628303
0.0641976
0.0655632
0.0669269
0.0682882
0.069647
0.0710033
0.0723581
0.0266443
0.0268779
0.0272591
0.0277807
0.0284303
0.0291927
0.0300519
0.0309929
0.0320016
0.0330652
0.0341727
0.0353153
0.0364857
0.0376777
0.0388863
0.0401076
0.0413381
0.0425753
0.0438171
0.0450621
0.0463089
0.0475566
0.048804
0.0500512
0.0512976
0.0525427
0.053786
0.0550274
0.0562668
0.0575038
0.0587386
0.0599711
0.0612012
0.0624288
0.0636539
0.0648766
0.0660968
0.0673145
0.0685299
0.0697426
0.0709531
0.0721618
0.073372
0.031978
0.0321889
0.0325264
0.0329851
0.0335567
0.0342295
0.0349924
0.0358327
0.0367386
0.0376988
0.0387033
0.0397437
0.0408127
0.0419043
0.0430136
0.044136
0.0452673
0.0464049
0.0475468
0.0486907
0.0498355
0.05098
0.0521235
0.0532652
0.0544046
0.0555409
0.0566739
0.0578034
0.0589291
0.0600508
0.0611684
0.0622823
0.0633924
0.0644987
0.065601
0.0666999
0.0677952
0.068887
0.0699754
0.0710604
0.0721423
0.0732218
0.0743028
0.0363504
0.0365465
0.0368573
0.0372776
0.0378004
0.0384167
0.0391165
0.0398887
0.040723
0.0416096
0.042539
0.0435034
0.0444963
0.0455114
0.046543
0.047587
0.0486391
0.0496965
0.0507572
0.0518187
0.0528798
0.05394
0.054998
0.0560528
0.0571039
0.0581503
0.0591918
0.060228
0.061259
0.0622844
0.063304
0.0643185
0.0653277
0.0663317
0.0673304
0.0683245
0.0693137
0.070298
0.0712778
0.072253
0.0732236
0.0741892
0.0751504
0.04
0.0401851
0.0404766
0.0408701
0.0413596
0.0419369
0.0425926
0.0433161
0.0440982
0.0449301
0.0458034
0.04671
0.0476439
0.0485991
0.0495701
0.0505517
0.0515398
0.0525319
0.0535261
0.0545203
0.0555132
0.0565042
0.0574919
0.0584753
0.0594536
0.0604253
0.0613905
0.0623491
0.0633008
0.0642454
0.065183
0.0661139
0.0670382
0.0679559
0.0688672
0.0697721
0.0706708
0.0715634
0.0724501
0.0733312
0.0742061
0.0750746
0.0759377
0.0430865
0.0432632
0.04354
0.043914
0.0443788
0.0449275
0.0455502
0.0462374
0.0469802
0.0477701
0.0485995
0.0494611
0.0503486
0.0512569
0.0521799
0.0531103
0.0540457
0.054984
0.0559228
0.0568612
0.0577978
0.0587322
0.0596627
0.0605873
0.0615044
0.0624133
0.0633149
0.0642086
0.0650933
0.0659696
0.0668384
0.0676993
0.0685517
0.0693959
0.0702332
0.0710627
0.071884
0.0726981
0.0735052
0.0743054
0.0750981
0.0758819
0.0766575
0.0457238
0.0458936
0.0461581
0.0465184
0.0469623
0.0474897
0.0480875
0.0487463
0.0494581
0.0502146
0.0510087
0.0518345
0.0526859
0.0535573
0.0544434
0.0553274
0.0562188
0.057112
0.0580042
0.0588962
0.0597871
0.0606755
0.0615599
0.0624343
0.0632991
0.0641536
0.065004
0.0658425
0.0666695
0.0674884
0.0683003
0.0691018
0.069893
0.0706737
0.0714496
0.0722139
0.0729687
0.0737156
0.0744548
0.0751854
0.0759078
0.0766181
0.0773196
0.0479965
0.0481633
0.0484132
0.0487696
0.0491887
0.0497
0.0502747
0.0509098
0.0515951
0.0523244
0.0530907
0.0538896
0.0547151
0.055556
0.056413
0.0572407
0.0581028
0.0589537
0.0598075
0.0606634
0.0615186
0.062371
0.0632198
0.0640465
0.0648704
0.0656748
0.0664875
0.0672725
0.0680516
0.068824
0.0695913
0.0703395
0.0710815
0.0718057
0.0725341
0.073238
0.073937
0.0746295
0.0753129
0.0759813
0.0766433
0.0772898
0.0779302
0.0270776
0.0262245
0.0253659
0.0245029
0.023637
0.0227691
0.0219008
0.0210332
0.0201678
0.019306
0.0184491
0.0175985
0.0167558
0.0159223
0.0150995
0.0142887
0.0134916
0.0127094
0.0119434
0.0111951
0.0104655
0.00975579
0.00906701
0.00840005
0.00775566
0.00713454
0.00653705
0.0059637
0.00541481
0.00489042
0.00439069
0.00391558
0.003465
0.00303876
0.00263655
0.00225801
0.00190261
0.00156981
0.00125914
0.000970177
0.000702703
0.000454965
0.000250574
0.0270839
0.0262966
0.0255039
0.0247067
0.023906
0.0231027
0.0222977
0.021492
0.0206864
0.019882
0.0190799
0.0182808
0.0174861
0.0166966
0.0159134
0.0151377
0.0143705
0.0136131
0.0128665
0.0121318
0.0114103
0.0107029
0.0100107
0.00933475
0.00867601
0.00803536
0.00741362
0.00681144
0.0062296
0.0056686
0.00512891
0.00461088
0.00411487
0.00364108
0.00318962
0.00276056
0.00235393
0.00196964
0.00160769
0.00126794
0.000949496
0.000647268
0.000418521
0.0270913
0.0263681
0.0256386
0.0249041
0.0241652
0.0234227
0.0226773
0.0219295
0.0211799
0.0204292
0.0196782
0.0189273
0.0181775
0.0174294
0.0166837
0.0159415
0.0152034
0.0144705
0.0137435
0.0130236
0.0123117
0.0116088
0.010916
0.0102343
0.00956467
0.00890818
0.00826582
0.00763851
0.00702722
0.0064327
0.00585577
0.00529713
0.00475747
0.00423738
0.00373736
0.003258
0.00279985
0.00236335
0.001949
0.001557
0.00118547
0.000826944
0.000566342
0.0271012
0.0264351
0.0257629
0.0250849
0.0244019
0.0237142
0.0230222
0.0223261
0.0216266
0.0209238
0.0202183
0.0195106
0.018801
0.0180901
0.0173785
0.0166668
0.0159556
0.0152456
0.0145375
0.0138323
0.0131307
0.0124338
0.0117422
0.0110573
0.0103799
0.00971115
0.0090521
0.0084037
0.00776715
0.00714341
0.00653358
0.00593853
0.00535935
0.0047969
0.00425213
0.00372605
0.0032196
0.00273382
0.00226973
0.00182756
0.00140456
0.000992079
0.000698566
0.0271131
0.0264977
0.0258766
0.0252494
0.0246162
0.0239773
0.0233327
0.0226827
0.0220274
0.0213671
0.020702
0.0200324
0.0193585
0.0186808
0.0179995
0.0173152
0.0166283
0.0159393
0.0152488
0.0145575
0.0138661
0.0131756
0.0124865
0.0118001
0.0111171
0.0104388
0.00976608
0.00910012
0.00844216
0.00779326
0.0071547
0.00652765
0.00591335
0.00531301
0.0047279
0.00415935
0.00360876
0.00307763
0.00256729
0.00207816
0.00160617
0.0011387
0.000816176
0.0271249
0.0265558
0.0259805
0.0253986
0.0248099
0.0242145
0.0236121
0.0230029
0.022387
0.0217643
0.0211349
0.020499
0.0198568
0.0192083
0.0185541
0.0178943
0.0172292
0.0165592
0.0158847
0.0152064
0.0145248
0.0138406
0.0131545
0.0124676
0.0117806
0.0110947
0.0104109
0.00973025
0.00905405
0.00838352
0.00771993
0.00706478
0.00641946
0.00578545
0.00516422
0.00455753
0.00396699
0.00339445
0.00284176
0.00230914
0.00179172
0.00127932
0.000922517
0.0271353
0.026609
0.0260752
0.0255338
0.0249847
0.024428
0.0238634
0.0232907
0.0227098
0.0221207
0.0215232
0.0209171
0.0203027
0.0196802
0.0190498
0.0184118
0.0177665
0.0171139
0.0164543
0.0157881
0.0151157
0.0144376
0.0137548
0.0130679
0.0123781
0.0116861
0.0109931
0.0103001
0.00960831
0.00891901
0.00823354
0.00755362
0.00688079
0.00621665
0.00556317
0.00492208
0.00429544
0.00368552
0.00309424
0.00252186
0.00196316
0.00141103
0.00101999
0.0271455
0.0266579
0.0261613
0.0256557
0.0251416
0.0246195
0.0240889
0.0235489
0.0229996
0.0224411
0.0218727
0.0212933
0.0207037
0.0201038
0.0194942
0.0188753
0.0182483
0.0176126
0.0169667
0.0163127
0.0156501
0.0149783
0.0142985
0.0136122
0.0129204
0.0122238
0.0115235
0.0108203
0.0101158
0.00941082
0.00870564
0.00800285
0.00730496
0.00661364
0.00593053
0.00525786
0.00459808
0.00395318
0.00332537
0.00271531
0.00211737
0.00152782
0.00110594
0.0271587
0.0267033
0.0262394
0.0257648
0.0252801
0.0247885
0.02429
0.0237799
0.0232586
0.022729
0.0221907
0.0216352
0.0210685
0.0204878
0.0198957
0.0192919
0.0186803
0.0180659
0.0174325
0.0167916
0.0161429
0.0154801
0.0148034
0.0141178
0.0134255
0.012726
0.0120221
0.0113127
0.0105989
0.00988848
0.00916894
0.00844267
0.00772289
0.00700825
0.00630015
0.00560028
0.00491176
0.0042413
0.00358092
0.00293153
0.00229626
0.00167091
0.00120037
0.000326257
0.000511985
0.000751599
0.00098066
0.00119972
0.00140924
0.00161015
0.00180345
0.00199039
0.00217227
0.00235051
0.00252666
0.00270231
0.0028794
0.00306005
0.00324714
0.00344443
0.00365739
0.0038939
0.00416428
0.0044762
0.00482878
0.00521766
0.00563943
0.00609218
0.00657491
0.00708737
0.00762961
0.00820204
0.00880523
0.00943986
0.0101064
0.0108052
0.011537
0.0123024
0.0131025
0.0139382
0.0148105
0.0157202
0.0166684
0.0176561
0.0186843
0.019754
0.00046506
0.000675175
0.000922671
0.001163
0.00139213
0.00161006
0.00181796
0.0020173
0.00220979
0.0023972
0.00258137
0.00276434
0.0029484
0.00313631
0.00333142
0.00353806
0.00376173
0.00400949
0.00428974
0.00460899
0.00496434
0.00535138
0.00576705
0.00620944
0.00667749
0.00717087
0.00768947
0.00823352
0.00880337
0.00939948
0.0100222
0.0106717
0.0113485
0.0120532
0.0127864
0.013549
0.0143417
0.0151652
0.0160205
0.0169081
0.0178292
0.0187841
0.0197726
0.000594655
0.000816248
0.00107262
0.00132389
0.00156304
0.00178952
0.00200478
0.00221081
0.00240988
0.0026043
0.00279656
0.0029895
0.00318633
0.00339094
0.00360783
0.00384224
0.00410019
0.00438839
0.00471344
0.00507335
0.00546213
0.00587608
0.00631316
0.00677229
0.00725291
0.00775481
0.00827799
0.00882268
0.00938903
0.00997732
0.0105876
0.0112202
0.0118754
0.0125537
0.0132555
0.0139818
0.014733
0.0155096
0.0163123
0.0171418
0.0179985
0.0188832
0.0197962
0.000710477
0.000936808
0.00120126
0.00146226
0.00171046
0.00194496
0.00216749
0.00238062
0.00258716
0.00279016
0.00299292
0.00319922
0.00341326
0.0036398
0.0038838
0.00415039
0.00444483
0.00477291
0.00513622
0.00552748
0.00594183
0.00637666
0.00683062
0.00730304
0.00779351
0.00830183
0.00882807
0.00937226
0.00993438
0.0105144
0.0111124
0.0117286
0.0123633
0.0130169
0.0136897
0.0143821
0.0150948
0.0158279
0.0165822
0.0173579
0.0181557
0.0189764
0.0198206
0.000812697
0.00104062
0.00131209
0.0015816
0.00183791
0.00207985
0.00230954
0.00253009
0.00274504
0.00295822
0.00317387
0.00339665
0.0036315
0.00388339
0.00415691
0.00445629
0.00478589
0.00515007
0.00554351
0.00595933
0.006394
0.00684567
0.00731342
0.00779664
0.00829499
0.00880824
0.00933638
0.00987916
0.0104365
0.0110082
0.0115944
0.0121951
0.0128106
0.0134412
0.0140871
0.0147485
0.0154257
0.0161192
0.0168293
0.0175562
0.018301
0.0190649
0.019852
0.000902986
0.00113086
0.00140837
0.00168535
0.00194895
0.00219786
0.00243458
0.00266295
0.00288721
0.00311212
0.00334279
0.00358449
0.00384237
0.00412101
0.00442409
0.00475475
0.00511681
0.00551093
0.00592852
0.00636432
0.00681576
0.00728149
0.0077607
0.00825287
0.00875762
0.00927467
0.00980379
0.0103446
0.0108969
0.0114605
0.0120355
0.0126218
0.0132196
0.0138289
0.01445
0.0150829
0.0157279
0.0163852
0.0170551
0.017738
0.0184344
0.0191455
0.0198712
0.0009827
0.00120949
0.00149238
0.00177604
0.00204627
0.00230174
0.00254554
0.00278216
0.0030167
0.00325472
0.0035019
0.00376395
0.00404568
0.00435082
0.00468186
0.0050412
0.00543247
0.00585084
0.00628826
0.00674085
0.00720654
0.00768431
0.00817329
0.0086731
0.00918324
0.00970331
0.0102328
0.0107713
0.0113186
0.0118745
0.012439
0.013012
0.0135934
0.0141832
0.0147813
0.0153883
0.0160039
0.0166283
0.0172615
0.0179041
0.0185565
0.0192189
0.0198911
0.00105529
0.00128137
0.00156802
0.00185696
0.00213297
0.00239467
0.00264542
0.00289035
0.00313545
0.00338698
0.00365138
0.00393439
0.00423994
0.00457034
0.00492712
0.00531247
0.00572891
0.00616802
0.006623
0.00709004
0.00756789
0.00805608
0.00855372
0.00906037
0.0095755
0.0100981
0.0106275
0.0111636
0.0117058
0.0122543
0.012809
0.0133698
0.0139358
0.014507
0.0150843
0.0156682
0.0162574
0.0168512
0.0174504
0.0180558
0.0186675
0.0192856
0.0199101
0.00111119
0.00132983
0.00162377
0.00192125
0.00220451
0.00247234
0.00273006
0.00298507
0.00324322
0.00351272
0.00380037
0.00410732
0.00443469
0.00478755
0.00516773
0.00557819
0.00602021
0.00648159
0.00695024
0.00742261
0.00790981
0.00840735
0.00891306
0.0094274
0.00994873
0.0104714
0.0109995
0.0115318
0.0120673
0.012608
0.0131541
0.0137035
0.0142531
0.0148046
0.0153624
0.0159293
0.0164941
0.0170571
0.0176228
0.0181929
0.0187673
0.0193447
0.0199236
0.000606045
0.00214642
0.00385307
0.00548078
0.00698643
0.00837496
0.00967179
0.0109433
0.012278
0.0136778
0.0151207
0.0165918
0.0180822
0.0195873
0.0211056
0.0226368
0.0241803
0.0257358
0.0273021
0.0288785
0.0304647
0.0320602
0.0336641
0.0352756
0.0368947
0.0385206
0.040153
0.0417914
0.0434356
0.0450849
0.0467389
0.0483971
0.0500589
0.0517238
0.0533914
0.0550607
0.056731
0.0584013
0.0600714
0.0617401
0.0634069
0.0650718
0.0667359
0.000369823
0.0018814
0.00313083
0.00431533
0.0054942
0.0066699
0.00784247
0.00902491
0.0102352
0.0114706
0.0127104
0.0139437
0.015251
0.0166821
0.0181914
0.0197478
0.0213352
0.0229454
0.0245733
0.0262162
0.027872
0.0295389
0.0312155
0.0329008
0.0345938
0.0362937
0.0379997
0.0397111
0.0414274
0.0431477
0.0448718
0.0465991
0.0483288
0.0500602
0.051793
0.0535263
0.055259
0.0569909
0.0587211
0.0604485
0.0621728
0.0638933
0.0656101
0.000270727
0.0013871
0.0029344
0.00429584
0.00545025
0.00650172
0.00751352
0.00852252
0.00954823
0.0105979
0.0116701
0.0127662
0.0139013
0.0150829
0.0163203
0.0177091
0.0192127
0.0207875
0.0224087
0.0240625
0.0257409
0.0274382
0.0291514
0.0308778
0.0326151
0.0343618
0.0361165
0.0378779
0.0396449
0.0414166
0.0431925
0.0449715
0.0467528
0.0485357
0.0503194
0.0521029
0.0538856
0.0556668
0.0574454
0.0592205
0.0609914
0.0627572
0.0645165
0.000244345
0.00126407
0.00270062
0.00420779
0.00550864
0.00663356
0.00764071
0.00858024
0.00949099
0.010401
0.0113289
0.0122863
0.0132797
0.0143136
0.0153961
0.0165463
0.0177823
0.0191857
0.0207097
0.0223109
0.0239636
0.0256533
0.0273708
0.02911
0.0308669
0.0326382
0.0344215
0.0362148
0.0380163
0.0398248
0.0416389
0.0434573
0.0452791
0.0471032
0.0489284
0.0507539
0.0525788
0.054402
0.0562224
0.0580391
0.0598511
0.0616572
0.0634553
0.000214351
0.0011368
0.00242576
0.00393551
0.0053764
0.00663772
0.00774105
0.00872556
0.00962983
0.010489
0.0113333
0.0121863
0.0130648
0.0139802
0.0149408
0.0159534
0.0170285
0.0181893
0.0194855
0.020945
0.0225129
0.0241526
0.025842
0.0275681
0.0293223
0.0310989
0.0328936
0.0347033
0.0365254
0.0383578
0.0401985
0.0420457
0.0438981
0.0457544
0.0476132
0.0494733
0.0513335
0.0531925
0.0550491
0.0569024
0.0587509
0.0605932
0.0624274
0.000195623
0.00105838
0.00225761
0.00369887
0.00517918
0.00653314
0.00773328
0.00879825
0.00975504
0.0106326
0.0114599
0.0122646
0.0130708
0.0138977
0.0147601
0.0156681
0.0166302
0.0176552
0.018761
0.0199828
0.021388
0.0229249
0.0245497
0.0262353
0.0279656
0.0297296
0.0315204
0.0333328
0.035163
0.0370078
0.0388645
0.040731
0.0426055
0.0444859
0.0463708
0.0482587
0.0501479
0.052037
0.0539248
0.0558098
0.0576905
0.0595654
0.0614317
0.000177653
0.000988286
0.00210756
0.00346736
0.00494307
0.00635736
0.00763803
0.00878262
0.00980823
0.0107362
0.0115897
0.0123933
0.0131717
0.0139479
0.0147416
0.0155687
0.016441
0.0173675
0.0183573
0.0194251
0.0206068
0.0219738
0.0234878
0.0251016
0.0267848
0.0285186
0.0302909
0.0320934
0.0339205
0.0357676
0.0376312
0.0395086
0.0413971
0.0432944
0.0451987
0.0471079
0.0490202
0.0509343
0.0528484
0.0547607
0.0566698
0.0585746
0.0604752
0.000162886
0.000932091
0.00198737
0.00327393
0.00471161
0.00615019
0.0074883
0.00870017
0.00979179
0.0107781
0.0116766
0.0125071
0.013291
0.0140503
0.0148065
0.0155788
0.0163831
0.0172321
0.0181355
0.0191029
0.0201497
0.0213118
0.0226596
0.0241626
0.0257721
0.0274563
0.0291953
0.0309761
0.0327899
0.0346302
0.0364926
0.0383732
0.0402686
0.0421763
0.0440937
0.0460186
0.047949
0.0498829
0.0518185
0.0537539
0.0556876
0.0576182
0.0595445
0.000149596
0.000883148
0.00188298
0.00310388
0.00449152
0.00592955
0.00730504
0.00857077
0.00972072
0.0107633
0.0117119
0.0125819
0.0133905
0.0141571
0.0149018
0.0156444
0.0164033
0.0171941
0.0180297
0.0189204
0.0198764
0.0209142
0.022072
0.0234194
0.0249234
0.0265361
0.0282259
0.0299728
0.0317633
0.0335888
0.0354425
0.0373194
0.0392157
0.0411278
0.0430528
0.0449884
0.0469318
0.0488811
0.0508339
0.0527885
0.054743
0.0566957
0.0586448
0.000137771
0.000840684
0.00179255
0.00295576
0.00429
0.00570899
0.00710357
0.00840978
0.00960887
0.0107026
0.0117001
0.0126132
0.0134561
0.0142444
0.014996
0.0157294
0.0164632
0.0172147
0.0179991
0.018829
0.0197151
0.0206685
0.0217075
0.0228757
0.0242385
0.0257541
0.0273769
0.0290769
0.0308346
0.032637
0.0344751
0.0363424
0.0382337
0.040145
0.0420729
0.0440143
0.0459665
0.0479269
0.0498931
0.0518631
0.0538351
0.0558079
0.0577819
0.000127105
0.000803002
0.00171261
0.00282464
0.00410702
0.00549576
0.0068941
0.00822839
0.00946747
0.0106059
0.0116487
0.0126047
0.0134851
0.0143028
0.0150728
0.0158116
0.0165367
0.0172656
0.0180145
0.0187981
0.0196286
0.0205168
0.0214752
0.0225255
0.0237198
0.0251095
0.026645
0.0282837
0.0299979
0.0317692
0.033585
0.0354368
0.0373183
0.0392242
0.0411505
0.0430936
0.0450505
0.0470182
0.0489944
0.0509765
0.0529625
0.0549505
0.0569382
0.000117457
0.00076944
0.00164126
0.00270758
0.00394116
0.00529395
0.0066842
0.00803509
0.00930544
0.0104821
0.0115656
0.0125621
0.0134802
0.0143304
0.0151254
0.0158792
0.0166077
0.0173274
0.0180547
0.0188052
0.0195925
0.0204288
0.0213252
0.0222957
0.0233676
0.0246038
0.0260286
0.0275898
0.0292489
0.0309804
0.0327674
0.0345985
0.0364652
0.0383615
0.0402822
0.0422233
0.0441814
0.0461533
0.048136
0.050127
0.0521239
0.0541244
0.0561263
0.000108679
0.000739191
0.00157709
0.00260221
0.0037906
0.00510519
0.00647863
0.00783638
0.00912966
0.0103381
0.0114574
0.0124911
0.0134454
0.014329
0.015152
0.0159267
0.0166669
0.0173876
0.0181047
0.0188337
0.0195893
0.0203845
0.0212311
0.022141
0.0231307
0.0242358
0.0255271
0.0269928
0.0285841
0.0302668
0.0320183
0.0338232
0.0356708
0.0375535
0.039465
0.0414009
0.043357
0.0453298
0.0473161
0.049313
0.0513181
0.0533284
0.0553417
0.000100709
0.000711764
0.00151891
0.00250665
0.00365347
0.00492965
0.00628043
0.00763678
0.00894556
0.0101795
0.01133
0.012397
0.0133853
0.0143014
0.0151537
0.0159525
0.0167096
0.0174388
0.0181544
0.0188717
0.0196055
0.0203695
0.0211763
0.0220375
0.0229661
0.0239836
0.0251384
0.0264912
0.0280012
0.0296254
0.0313341
0.0331074
0.0349315
0.0367967
0.0386959
0.0406234
0.0425747
0.0445456
0.0465328
0.0485333
0.0505437
0.0525615
0.0545835
9.34207e-05
0.000686733
0.00146589
0.00241957
0.00352807
0.00476682
0.00609133
0.00743967
0.00875704
0.0100109
0.0111877
0.0122846
0.013304
0.014251
0.0151324
0.0159567
0.0167342
0.0174768
0.0181976
0.0189111
0.0196315
0.020373
0.0211486
0.0219705
0.0228507
0.0238045
0.024861
0.0260848
0.0274988
0.0290537
0.030712
0.0324479
0.034244
0.0360883
0.037972
0.0398884
0.0418322
0.0437988
0.0457846
0.0477861
0.0497998
0.0518227
0.0538507
8.67283e-05
0.000663758
0.0014173
0.00233976
0.00341284
0.0046158
0.00591217
0.00724742
0.00856747
0.0098359
0.0110346
0.0121577
0.0132054
0.0141812
0.0150907
0.0159409
0.0167405
0.0174998
0.0182307
0.0189463
0.0196603
0.0203868
0.021139
0.0219294
0.0227701
0.0236742
0.0246611
0.0257717
0.0270756
0.02855
0.0301494
0.031842
0.0336057
0.0354255
0.0372908
0.0391935
0.0411273
0.0430875
0.0450698
0.0470702
0.0490854
0.0511115
0.0531435
8.10401e-05
0.000642547
0.00137251
0.00226627
0.00330657
0.00447556
0.00574299
0.0070615
0.00837927
0.00965739
0.0108738
0.0120195
0.0130926
0.0140952
0.0150314
0.015907
0.0167293
0.0175074
0.0182516
0.0189739
0.0196872
0.0204049
0.0211403
0.0219063
0.0227149
0.0235785
0.0245124
0.0255432
0.0267302
0.0281126
0.0296447
0.0312877
0.0330142
0.034806
0.0366499
0.0385362
0.0404581
0.0424098
0.0443866
0.0463845
0.0483999
0.0504308
0.0524796
7.63782e-05
0.000622927
0.00133111
0.00219829
0.00320826
0.00434524
0.0055837
0.00688286
0.00819435
0.00947776
0.0107079
0.0118729
0.0129686
0.0139956
0.0149568
0.0158569
0.016702
0.0174999
0.0182596
0.018992
0.0197089
0.0204231
0.0211475
0.0218949
0.0226778
0.0235083
0.0243996
0.0253712
0.0264616
0.027741
0.0291966
0.030783
0.0324676
0.0342275
0.0360471
0.0379149
0.0398227
0.0417641
0.0437336
0.0457271
0.047741
0.049772
0.0518156
7.20678e-05
0.000604815
0.00129282
0.00213529
0.00311705
0.00422382
0.00543393
0.00671208
0.00801394
0.00929875
0.0105392
0.0117202
0.0128358
0.0138849
0.0148693
0.0157928
0.0166601
0.0174782
0.0182548
0.0189996
0.0197235
0.0204382
0.0211564
0.0218907
0.0226534
0.0234567
0.0243131
0.0252383
0.0262591
0.0274333
0.0288035
0.0303266
0.031964
0.0336883
0.0354806
0.0373275
0.0392192
0.0411484
0.0431091
0.0450968
0.0471077
0.0491394
0.0511938
6.80502e-05
0.000587831
0.00125716
0.00207674
0.00303213
0.00411041
0.00529287
0.00654914
0.00783864
0.00912175
0.0103691
0.0115632
0.0126961
0.0137651
0.014771
0.0157163
0.0166053
0.0174434
0.0182376
0.0189965
0.0197298
0.0204485
0.0211644
0.02189
0.0226375
0.0234188
0.0242463
0.0251338
0.0261013
0.0271887
0.0284649
0.0299172
0.0315019
0.0331866
0.0349487
0.0367723
0.0386461
0.0405613
0.0425117
0.0444919
0.0464976
0.0485247
0.0505659
6.42889e-05
0.000571972
0.00122379
0.00202199
0.00295277
0.00400428
0.00516019
0.00639401
0.00766929
0.00894784
0.0101991
0.0114036
0.0125514
0.0136382
0.0146637
0.0156295
0.016539
0.0173968
0.0182089
0.0189827
0.0197272
0.0204525
0.0211695
0.0218901
0.0226264
0.0233904
0.0241941
0.0250503
0.0259756
0.0269986
0.028179
0.0295538
0.0310803
0.0327212
0.0344499
0.0362479
0.0381015
0.0400014
0.0419399
0.0439111
0.0459101
0.0479323
0.0499735
6.08154e-05
0.000557165
0.00119262
0.00197082
0.0028785
0.00390476
0.00503514
0.00624657
0.00750619
0.00877783
0.0100303
0.0112428
0.012403
0.0135056
0.0145489
0.0155338
0.0164627
0.0173395
0.0181694
0.0189588
0.0197158
0.0204494
0.0211701
0.0218891
0.0226179
0.0233685
0.0241528
0.0249829
0.0258736
0.0268466
0.027945
0.0292354
0.0306979
0.0322908
0.033983
0.0357527
0.0375846
0.0394673
0.0413925
0.0433534
0.0453444
0.0473604
0.0493955
5.76093e-05
0.000543294
0.00116339
0.00192276
0.0028088
0.00381128
0.00491723
0.00610643
0.00734953
0.00861216
0.00986369
0.0110816
0.0122523
0.0133687
0.0144281
0.0154305
0.0163778
0.0172728
0.0181201
0.0189254
0.0196956
0.0204391
0.0211656
0.0218854
0.0226099
0.0233506
0.0241192
0.0249277
0.0257894
0.0267224
0.0277583
0.0289611
0.0303541
0.0318943
0.0335465
0.0352857
0.0370938
0.0389579
0.0408683
0.0428177
0.0447999
0.0468097
0.0488421
5.46016e-05
0.000530278
0.00113598
0.00187763
0.00274326
0.00372323
0.0048059
0.00597326
0.00719907
0.00845138
0.00969993
0.0109212
0.0121002
0.0132286
0.0143025
0.0153211
0.0162854
0.0171978
0.0180621
0.0188831
0.019667
0.0204215
0.0211553
0.0218782
0.022601
0.0233347
0.0240911
0.0248816
0.0257191
0.0266191
0.0276062
0.0287295
0.0300477
0.0315309
0.0331399
0.0348458
0.036628
0.0384719
0.0403663
0.0423033
0.0442762
0.0462799
0.0483113
5.18151e-05
0.000517973
0.00111016
0.00183517
0.00268162
0.00364024
0.00470056
0.00584669
0.00705482
0.00829558
0.00953935
0.0107621
0.0119477
0.0130862
0.0141731
0.0152065
0.0161868
0.0171157
0.0179962
0.0188327
0.0196306
0.0203967
0.021139
0.0218667
0.0225899
0.0233194
0.0240664
0.0248424
0.0256594
0.0265318
0.0274794
0.0285391
0.0297782
0.0311998
0.0327619
0.034432
0.0361865
0.0380084
0.0398858
0.0418093
0.0437719
0.0457682
0.0477947
4.92046e-05
0.000506402
0.00108576
0.00179507
0.00262332
0.00356181
0.00460089
0.00572626
0.0069167
0.00814494
0.00938246
0.0106051
0.0117954
0.0129426
0.0140409
0.0150878
0.0160828
0.0170272
0.0179234
0.018775
0.0195868
0.020365
0.0211167
0.0218506
0.0225761
0.0233035
0.0240437
0.024808
0.025608
0.026457
0.0273721
0.0283822
0.0295443
0.0309002
0.032412
0.0340434
0.0357679
0.0375666
0.0394256
0.0413346
0.0432857
0.0452728
0.04729
4.67727e-05
0.000495481
0.00106273
0.00175721
0.00256823
0.0034876
0.00450639
0.00561175
0.00678448
0.00799956
0.00922954
0.0104505
0.011644
0.0127984
0.0139067
0.0149657
0.0159743
0.0169333
0.0178444
0.0187106
0.0195363
0.0203267
0.0210886
0.0218297
0.0225589
0.0232862
0.0240219
0.024777
0.0255628
0.0263919
0.0272797
0.0282495
0.0293454
0.0306315
0.0320893
0.0336793
0.0353719
0.0371457
0.0389848
0.0408781
0.0428169
0.0447939
0.0468033
4.45197e-05
0.000485157
0.00104092
0.0017213
0.00251605
0.00341725
0.00441667
0.00550269
0.00665798
0.00785926
0.00908086
0.0102986
0.011494
0.0126541
0.0137712
0.0148411
0.0158623
0.0168348
0.01776
0.0186404
0.0194795
0.0202823
0.0210547
0.0218039
0.0225381
0.0232668
0.0239998
0.024748
0.0255223
0.0263347
0.0271992
0.0281357
0.0291787
0.030393
0.0317932
0.0333391
0.0349976
0.0367447
0.0385628
0.0404395
0.0423647
0.044331
0.0463322
4.24003e-05
0.000475415
0.00102032
0.00168731
0.0024666
0.00335053
0.00433142
0.00539872
0.0065367
0.00772405
0.00893633
0.0101499
0.0113457
0.0125102
0.0136347
0.0147145
0.0157472
0.0167324
0.0176709
0.0185648
0.0194172
0.0202322
0.0210154
0.0217732
0.0225135
0.0232448
0.023977
0.0247201
0.0254851
0.0262834
0.0271282
0.0280367
0.0290371
0.0301837
0.0315232
0.0330221
0.0346443
0.036363
0.0381589
0.0400177
0.0419287
0.0438836
0.0458749
4.04337e-05
0.000466115
0.00100071
0.00165503
0.00241958
0.00328707
0.00425032
0.00529957
0.00642053
0.00759375
0.00879603
0.0100044
0.0111995
0.0123672
0.0134981
0.0145866
0.0156298
0.0166267
0.0175778
0.0184846
0.0193497
0.0201769
0.0209709
0.0217378
0.0224849
0.0232201
0.0239527
0.0246926
0.0254502
0.0262367
0.0270646
0.0279493
0.0289144
0.0300029
0.0312787
0.0327278
0.0343113
0.0360001
0.0377724
0.0396124
0.0415084
0.0434514
0.0454345
3.8578e-05
0.000457361
0.000982073
0.00162434
0.00237485
0.00322665
0.00417297
0.00520481
0.00630922
0.00746821
0.00865998
0.00986229
0.0110558
0.0122255
0.0133617
0.0144578
0.0155105
0.0165183
0.0174812
0.0184003
0.0192777
0.0201168
0.0209217
0.021698
0.0224523
0.0231923
0.0239266