/*--------------------------------*- C++ -*----------------------------------*\
| =========                 |                                                 |
| \\      /  F ield         | OpenFOAM: The Open Source CFD Toolbox           |
|  \\    /   O peration     | Version:  2.3.0                                 |
|   \\  /    A nd           | Web:      www.OpenFOAM.org                      |
|    \\/     M anipulation  |                                                 |
\*---------------------------------------------------------------------------*/
FoamFile
{
    version     2.0;
    format      ascii;
    class       volScalarField;
    location    "10000";
    object      nut;
}
// * * * * * * * * * * * * * * * * * * * * * * * * * * * * * * * * * * * * * //

dimensions      [0 2 -1 0 0 0 0];

internalField   nonuniform List<scalar> 
123406
(
0.0192029
0.0183196
0.0174692
0.0166497
0.0158602
0.0150997
0.0143679
0.0136632
0.0129854
0.0123331
0.0117066
0.0111049
0.0105266
0.00997187
0.00944016
0.00893041
0.00844211
0.00797408
0.0075263
0.00709754
0.00668596
0.00629128
0.00591216
0.00554762
0.00519584
0.00485557
0.00452617
0.00420628
0.00389415
0.00359041
0.00329361
0.00300638
0.002729
0.00246346
0.00221154
0.00197655
0.00176325
0.00157422
0.00141469
0.00129037
0.00120757
0.00116819
0.00118661
0.0201868
0.0193816
0.018603
0.0178501
0.0171235
0.0164207
0.0157413
0.0150838
0.0144476
0.0138318
0.0132371
0.0126612
0.0121039
0.0115654
0.0110446
0.0105409
0.0100544
0.00958527
0.00913232
0.00869525
0.00827428
0.00786985
0.00748076
0.00710726
0.00674906
0.00640652
0.00607829
0.00576635
0.00546715
0.00518317
0.00491305
0.0046572
0.0044177
0.00419563
0.00399312
0.00381335
0.00366026
0.00353781
0.00345052
0.00339873
0.00338639
0.00342157
0.00352439
0.0211645
0.0204129
0.0196893
0.0189916
0.0183185
0.0176669
0.0170349
0.0164207
0.0158249
0.0152472
0.014686
0.0141411
0.0136118
0.0130979
0.0125977
0.0121126
0.0116408
0.0111828
0.0107391
0.0103083
0.00989122
0.00948809
0.00909856
0.00872298
0.00836125
0.00801562
0.00768609
0.0073728
0.00707885
0.00680351
0.00654691
0.00630919
0.00608847
0.00588699
0.00570303
0.00553995
0.00540282
0.00530426
0.00527063
0.00529826
0.00537634
0.00550511
0.00568368
0.022111
0.021423
0.0207575
0.020111
0.0194822
0.01887
0.0182738
0.0176938
0.01713
0.0165817
0.0160493
0.0155318
0.0150283
0.0145382
0.0140607
0.0135949
0.01314
0.0126976
0.0122673
0.0118483
0.0114418
0.011046
0.0106634
0.0102919
0.00993381
0.00958757
0.00925545
0.00893814
0.00863823
0.00835892
0.00810481
0.00787756
0.00767906
0.00750837
0.00736655
0.00725524
0.0071783
0.0071405
0.0071463
0.00719614
0.00729088
0.0074311
0.00761476
0.0229988
0.02238
0.0217727
0.0211786
0.0205973
0.0200289
0.0194728
0.0189298
0.0183991
0.0178808
0.0173745
0.0168799
0.016397
0.0159253
0.0154636
0.0150132
0.0145728
0.0141435
0.0137249
0.0133171
0.0129207
0.0125365
0.0121638
0.0118045
0.0114589
0.011127
0.01081
0.0105093
0.0102286
0.00996764
0.0097279
0.00951375
0.00932647
0.00916658
0.00903655
0.00893835
0.00887475
0.00884874
0.00886275
0.0089175
0.00901453
0.00915481
0.00933685
0.0238364
0.0232737
0.022719
0.0221735
0.0216376
0.0211107
0.0205936
0.020086
0.0195881
0.0191003
0.0186217
0.0181526
0.0176931
0.0172423
0.016801
0.0163681
0.0159446
0.0155305
0.0151257
0.0147313
0.0143463
0.0139733
0.0136115
0.0132629
0.0129268
0.0126039
0.0122956
0.0120034
0.0117295
0.0114747
0.0112416
0.0110317
0.0108478
0.0106918
0.0105651
0.0104697
0.010409
0.0103848
0.0103995
0.0104544
0.0105511
0.0106903
0.0108709
0.0246126
0.0240995
0.0235919
0.0230899
0.022595
0.0221065
0.0216246
0.0211497
0.020682
0.0202218
0.0197691
0.0193238
0.0188858
0.0184552
0.0180325
0.017617
0.0172094
0.0168095
0.0164177
0.0160344
0.0156607
0.0152964
0.0149436
0.0146025
0.0142734
0.0139574
0.0136558
0.013369
0.0130983
0.0128462
0.0126146
0.0124065
0.0122228
0.0120672
0.0119398
0.011844
0.011783
0.0117581
0.0117716
0.0118252
0.0119202
0.0120585
0.0122387
0.025324
0.0248578
0.0243932
0.0239282
0.0234708
0.0230159
0.0225658
0.0221222
0.0216793
0.021244
0.0208137
0.0203899
0.0199715
0.0195596
0.0191521
0.0187512
0.0183598
0.017973
0.0175904
0.0172184
0.0168542
0.0164981
0.0161498
0.015814
0.0154908
0.0151806
0.0148839
0.0146032
0.0143333
0.0140846
0.0138499
0.0136425
0.0134596
0.0133006
0.0131727
0.0130755
0.0130128
0.0129862
0.0129972
0.013049
0.0131425
0.0132795
0.0134593
0.0259756
0.0255531
0.0251319
0.0246901
0.0242668
0.0238427
0.0234164
0.0230079
0.0225828
0.0221719
0.0217599
0.0213534
0.0209511
0.0205578
0.0201654
0.0197718
0.0193924
0.019025
0.0186462
0.0182838
0.0179265
0.0175829
0.0172339
0.0169046
0.0165822
0.0162793
0.01598
0.0157169
0.0154374
0.0152041
0.0149588
0.01475
0.0145724
0.014405
0.014281
0.0141776
0.0141143
0.0140882
0.0140931
0.0141431
0.0142341
0.01437
0.014552
0.00138047
0.00186242
0.0022538
0.00267224
0.00312253
0.00360101
0.00410326
0.00462492
0.00516408
0.00571862
0.00628731
0.00686952
0.00746457
0.00807263
0.0086934
0.00932667
0.00997258
0.0106314
0.0113032
0.0119883
0.012687
0.0133992
0.0141255
0.0148661
0.0156215
0.0163917
0.017177
0.0179776
0.0187934
0.019625
0.0204727
0.0213363
0.0222166
0.0231136
0.0240273
0.0249581
0.0259061
0.0268713
0.027854
0.0288542
0.0298718
0.0309067
0.0319591
0.00375066
0.00404957
0.004391
0.00477309
0.00519348
0.005647
0.0061299
0.00663819
0.00716813
0.00771786
0.00828433
0.00886551
0.00946114
0.0100692
0.0106887
0.0113203
0.0119623
0.0126147
0.013278
0.0139518
0.0146359
0.0153306
0.0160354
0.0167512
0.0174778
0.0182149
0.0189632
0.019723
0.0204945
0.0212775
0.0220726
0.0228803
0.0237005
0.0245333
0.025379
0.0262381
0.0271105
0.0279963
0.028896
0.0298096
0.0307368
0.0316782
0.0326332
0.00591022
0.00618309
0.00650126
0.00686089
0.00725961
0.00769283
0.00815706
0.00864897
0.00916458
0.00970118
0.0102556
0.0108261
0.0114105
0.0120073
0.0126159
0.0132348
0.013863
0.0145005
0.0151468
0.0158022
0.0164655
0.0171363
0.0178156
0.0185033
0.0191989
0.0199024
0.0206142
0.0213348
0.0220634
0.022801
0.0235474
0.0243029
0.0250678
0.0258421
0.0266262
0.0274202
0.0282244
0.0290387
0.0298636
0.0306994
0.0315457
0.0324032
0.0332712
0.00783868
0.00810536
0.0084145
0.00876396
0.00915119
0.00957244
0.0100246
0.0105046
0.0110082
0.0115332
0.0120764
0.0126352
0.0132083
0.0137934
0.0143896
0.0149951
0.0156092
0.0162314
0.0168611
0.0174977
0.0181404
0.0187897
0.019445
0.0201062
0.0207733
0.0214458
0.0221242
0.0228087
0.0234988
0.0241948
0.0248969
0.0256059
0.0263213
0.0270433
0.027772
0.0285077
0.0292508
0.0300012
0.0307592
0.0315252
0.0322992
0.0330816
0.0338723
0.00955892
0.00982239
0.0101274
0.0104715
0.0108523
0.0112668
0.0117115
0.0121835
0.0126786
0.0131945
0.0137284
0.0142779
0.0148408
0.0154155
0.0160001
0.0165934
0.0171947
0.0178032
0.0184175
0.0190371
0.0196621
0.0202916
0.0209249
0.0215624
0.0222041
0.0228489
0.0234975
0.0241496
0.024805
0.0254641
0.0261271
0.0267942
0.0274657
0.0281411
0.0288207
0.0295049
0.0301936
0.0308871
0.0315856
0.0322891
0.0329982
0.0337128
0.0344327
0.0110924
0.0113546
0.0116574
0.011999
0.0123763
0.0127865
0.0132263
0.013692
0.0141807
0.0146899
0.0152165
0.0157581
0.0163125
0.0168778
0.0174528
0.0180357
0.0186254
0.0192216
0.019823
0.0204281
0.0210368
0.021649
0.0222634
0.0228799
0.0234989
0.0241196
0.0247417
0.0253651
0.02599
0.0266166
0.0272449
0.027875
0.0285076
0.0291422
0.0297783
0.0304167
0.0310572
0.0317
0.0323457
0.0329937
0.0336443
0.0342974
0.0349514
0.01246
0.0127219
0.0130236
0.0133646
0.0137407
0.0141486
0.0145849
0.015046
0.0155293
0.0160325
0.0165526
0.017088
0.0176357
0.0181931
0.0187593
0.0193328
0.0199127
0.0204985
0.0210886
0.021682
0.0222772
0.0228735
0.023471
0.0240695
0.024669
0.0252684
0.0258673
0.0264654
0.0270627
0.0276599
0.0282577
0.0288563
0.0294549
0.0300535
0.0306513
0.0312488
0.0318464
0.0324444
0.0330434
0.0336426
0.034241
0.0348402
0.0354399
0.0136804
0.0139435
0.0142456
0.0145866
0.0149626
0.0153701
0.0158039
0.0162618
0.0167391
0.0172363
0.0177513
0.0182821
0.0188244
0.0193741
0.0199316
0.0204968
0.0210691
0.0216465
0.0222279
0.0228117
0.0233946
0.0239766
0.0245591
0.0251423
0.0257265
0.026306
0.0268844
0.0274596
0.0280316
0.0286028
0.0291742
0.0297461
0.0303151
0.0308813
0.0314459
0.0320069
0.032566
0.0331252
0.0336832
0.0342394
0.0347906
0.0353419
0.035891
0.0147705
0.0150374
0.0153388
0.0156805
0.0160566
0.0164672
0.016899
0.0173537
0.0178212
0.0183138
0.0188254
0.0193538
0.0198913
0.0204317
0.0209812
0.0215396
0.0221066
0.0226782
0.0232531
0.0238303
0.0243994
0.0249675
0.0255379
0.0261085
0.0266842
0.0272386
0.027803
0.0283548
0.0289031
0.0294526
0.0300032
0.030554
0.0310959
0.031632
0.0321689
0.0326946
0.0332193
0.033747
0.0342694
0.0347897
0.0352933
0.0358048
0.03631
0.0333707
0.0318836
0.030434
0.0290199
0.0276417
0.0263006
0.0249964
0.0237292
0.0225
0.0213078
0.0201528
0.0190345
0.0179532
0.0169084
0.0158994
0.0149259
0.0139874
0.0130828
0.0122123
0.0113754
0.0105706
0.00979809
0.00905698
0.00834653
0.00766642
0.00701598
0.00639485
0.00580247
0.00523843
0.00470233
0.00419381
0.00371276
0.00325901
0.00283255
0.00243367
0.00206248
0.00171984
0.00140636
0.00112313
0.000873497
0.000677863
0.00048579
0.000253591
0.0341342
0.0327616
0.0314213
0.0301096
0.0288264
0.0275723
0.0263471
0.0251511
0.0239848
0.0228478
0.0217398
0.0206607
0.0196111
0.0185904
0.0175987
0.0166357
0.0157005
0.014793
0.0139135
0.0130609
0.0122354
0.0114368
0.0106643
0.0099182
0.00919801
0.00850338
0.00783462
0.00719161
0.00657414
0.00598213
0.00541609
0.00487624
0.00436289
0.00387681
0.00341878
0.00299
0.00259201
0.00222887
0.00191673
0.0016094
0.00129375
0.000949882
0.000536749
0.0348735
0.0336151
0.0323775
0.0311612
0.0299668
0.0287954
0.0276461
0.0265193
0.0254149
0.0243334
0.023274
0.0222371
0.0212227
0.0202309
0.0192621
0.0183157
0.0173914
0.0164893
0.0156095
0.0147515
0.0139157
0.0131014
0.0123086
0.0115381
0.010789
0.010062
0.00935737
0.00867521
0.00801595
0.0073802
0.00676849
0.00618174
0.00562116
0.00508823
0.00458467
0.00411466
0.00368859
0.00327227
0.00285114
0.00241282
0.00194202
0.00141225
0.000801594
0.0356035
0.0344441
0.0332998
0.032171
0.0310594
0.0299641
0.0288856
0.0278239
0.0267794
0.0257506
0.0247389
0.0237433
0.0227642
0.0218028
0.0208584
0.0199313
0.0190211
0.0181288
0.0172537
0.016396
0.0155556
0.0147325
0.013927
0.0131398
0.0123704
0.0116193
0.0108874
0.0101755
0.00948469
0.00881596
0.00816993
0.00754878
0.00695421
0.0063903
0.00586223
0.00535019
0.00483803
0.00431558
0.00377132
0.00319288
0.00256242
0.00185118
0.00105564
0.0363135
0.035244
0.0341845
0.0331359
0.0320994
0.031074
0.0300612
0.0290613
0.0280721
0.0270942
0.0261275
0.0251711
0.0242265
0.0232948
0.0223756
0.0214684
0.0205745
0.0196941
0.0188268
0.0179721
0.0171314
0.0163047
0.0154918
0.0146936
0.0139102
0.0131416
0.0123898
0.0116558
0.0109412
0.0102474
0.00957696
0.00893296
0.00831751
0.00772078
0.00713052
0.00653664
0.00592879
0.00529768
0.00463283
0.00391954
0.00313903
0.00226222
0.00129935
0.0370008
0.0360107
0.0350277
0.0340521
0.0330832
0.0321222
0.0311704
0.0302266
0.0292903
0.0283608
0.0274366
0.0265174
0.0256051
0.0247012
0.0238055
0.0229188
0.0220414
0.0211737
0.0203155
0.0194667
0.0186292
0.0178024
0.0169863
0.016182
0.0153893
0.0146091
0.0138431
0.0130924
0.0123592
0.0116471
0.0109585
0.0102897
0.00963254
0.00897681
0.00831431
0.0076371
0.00693653
0.00620344
0.00542548
0.00458806
0.00367066
0.00264431
0.00153252
0.0376515
0.0367385
0.0358268
0.0349171
0.0340099
0.0331072
0.0322099
0.0313177
0.0304315
0.0295485
0.0286655
0.0277812
0.0268984
0.0260195
0.0251458
0.0242781
0.0234173
0.0225633
0.0217153
0.0208737
0.0200402
0.0192149
0.0183989
0.0175928
0.016796
0.0160094
0.0152331
0.0144694
0.01372
0.0129862
0.0122666
0.0115576
0.01085
0.0101338
0.00940126
0.00864536
0.00785897
0.00703115
0.00614966
0.00519882
0.00415763
0.00299751
0.00175339
0.038274
0.0374283
0.0365811
0.0357308
0.0348788
0.0340282
0.0331792
0.0323339
0.0314941
0.0306575
0.0298156
0.0289639
0.0281074
0.027251
0.026396
0.0255453
0.0247009
0.0238612
0.0230246
0.0221901
0.0213606
0.0205379
0.0197238
0.0189188
0.0181226
0.0173332
0.0165485
0.0157707
0.0149972
0.0142279
0.0134671
0.0127179
0.0119644
0.0111916
0.0103933
0.00956563
0.0086993
0.00778392
0.00680757
0.00575477
0.00460317
0.00332457
0.00196197
0.0388651
0.0380795
0.0372927
0.0364941
0.0356897
0.0348853
0.0340807
0.0332742
0.0324751
0.0316863
0.0308909
0.0300719
0.0292361
0.0283972
0.0275579
0.0267189
0.02589
0.025066
0.0242441
0.0234168
0.0225901
0.0217692
0.0209572
0.0201539
0.019361
0.0185702
0.017774
0.0169766
0.0161792
0.0153616
0.0145463
0.0137631
0.0129826
0.0121584
0.011299
0.0104035
0.00946267
0.00846757
0.0074049
0.00625574
0.00500875
0.00363453
0.00217692
9.92349e-05
0.000183964
0.000266831
0.000363505
0.000480747
0.000624221
0.00078716
0.000965917
0.0011599
0.00136891
0.00159288
0.00183196
0.00208629
0.0023561
0.00264159
0.00294303
0.00326076
0.00359506
0.00394623
0.00431467
0.00470071
0.0051046
0.00552672
0.00596738
0.00642681
0.00690529
0.00740294
0.00791997
0.00845643
0.00901222
0.00958732
0.0101814
0.010794
0.0114246
0.0120724
0.0127362
0.0134147
0.014106
0.0148081
0.0155181
0.016233
0.0169485
0.01766
0.000230514
0.000266966
0.000375281
0.000509224
0.000665732
0.000843545
0.00104194
0.00125599
0.0014851
0.00172889
0.00198715
0.00225977
0.00254661
0.00284775
0.00316317
0.00349292
0.00383712
0.00419587
0.00456931
0.00495759
0.00536084
0.00577923
0.00621282
0.00666182
0.00712623
0.00760618
0.00810166
0.00861267
0.00913911
0.00968078
0.0102374
0.0108087
0.011394
0.0119927
0.012604
0.0132268
0.0138598
0.0145012
0.0151492
0.0158013
0.0164548
0.017106
0.0177496
0.000354294
0.000361958
0.000504096
0.000675592
0.000868107
0.0010807
0.00131337
0.00156137
0.00182398
0.00210071
0.00239118
0.00269505
0.00301209
0.00334209
0.00368491
0.00404039
0.00440848
0.00478918
0.00518231
0.00558792
0.00600599
0.00643644
0.00687928
0.00733442
0.00780184
0.00828143
0.00877303
0.0092765
0.0097916
0.010318
0.0108554
0.0114033
0.011961
0.012528
0.0131032
0.0136858
0.0142744
0.0148676
0.0154637
0.0160605
0.0166558
0.017247
0.0178324
0.000477313
0.000466701
0.000643385
0.000848941
0.00107393
0.00132074
0.00158544
0.00186497
0.00215853
0.00246547
0.00278525
0.00311742
0.00346155
0.00381732
0.00418441
0.0045625
0.00495144
0.00535096
0.00576085
0.00618095
0.0066111
0.00705111
0.00750083
0.00796002
0.00842848
0.00890601
0.00939238
0.00988725
0.0103903
0.0109012
0.0114193
0.0119444
0.0124756
0.0130122
0.0135535
0.0140985
0.014646
0.0151947
0.0157432
0.0162895
0.0168318
0.0173675
0.017893
0.000602142
0.00057767
0.000786021
0.00102247
0.00127808
0.00155602
0.00185027
0.00215875
0.00248057
0.00281496
0.00316125
0.00351885
0.00388723
0.00426584
0.00465431
0.00505224
0.0054592
0.00587494
0.00629902
0.00673118
0.00717116
0.00761863
0.00807328
0.00853479
0.00900285
0.00947717
0.00995738
0.0104431
0.0109338
0.0114293
0.0119288
0.0124319
0.012938
0.0134463
0.0139561
0.0144663
0.0149762
0.0154844
0.0159897
0.0164904
0.016985
0.0174715
0.0179482
0.000728768
0.00069103
0.000927348
0.00119207
0.00147631
0.00178225
0.00210354
0.00243845
0.002786
0.00314528
0.00351546
0.00389589
0.00428588
0.00468482
0.00509218
0.00550744
0.00593015
0.00635981
0.00679601
0.00723828
0.00768623
0.00813944
0.00859754
0.00906009
0.00952675
0.00999704
0.0104705
0.0109467
0.0114252
0.0119055
0.0123871
0.0128695
0.0133521
0.013834
0.0143146
0.0147931
0.0152686
0.0157402
0.0162065
0.0166664
0.0171183
0.0175605
0.0179905
0.000855217
0.000803457
0.00106415
0.00135456
0.00166561
0.00199702
0.0023429
0.00270182
0.0030727
0.00345447
0.00384622
0.00424713
0.00465647
0.00507352
0.00549766
0.00592828
0.00636481
0.00680678
0.00725348
0.0077043
0.00815871
0.00861627
0.00907661
0.00953937
0.0100039
0.0104696
0.0109358
0.0114022
0.0118685
0.0123341
0.0127986
0.0132615
0.0137221
0.0141796
0.0146332
0.0150825
0.0155271
0.0159658
0.0163974
0.0168207
0.0172347
0.0176382
0.0180302
0.000978452
0.000915189
0.00119674
0.00150945
0.00184488
0.00219889
0.00256713
0.00294795
0.00333996
0.00374212
0.00415346
0.00457298
0.00499985
0.00543328
0.00587256
0.00631717
0.00676651
0.00722003
0.00767628
0.00813423
0.00859347
0.00905363
0.0095154
0.00997818
0.0104401
0.0109001
0.0113579
0.011814
0.0122679
0.012719
0.0131671
0.0136118
0.0140523
0.0144872
0.0149151
0.0153376
0.015755
0.0161647
0.0165654
0.0169562
0.0173367
0.017706
0.0180632
0.00110899
0.00100863
0.00130252
0.00163944
0.00200069
0.00238006
0.00277206
0.00317394
0.00358745
0.00401038
0.00444013
0.00487685
0.00532014
0.0057687
0.00622202
0.00668049
0.00714292
0.00761045
0.00807501
0.00853733
0.00899847
0.00945706
0.00992168
0.0103863
0.0108437
0.011295
0.0117418
0.0121868
0.0126279
0.0130639
0.0134962
0.013925
0.0143476
0.0147613
0.0151607
0.0155596
0.0159563
0.0163408
0.0167136
0.0170754
0.0174264
0.0177656
0.0180929
1.17611e-06
7.3739e-05
0.000268314
0.000490064
0.000757293
0.00101041
0.00125912
0.00150912
0.001761
0.00201429
0.00226888
0.00252426
0.0027833
0.00304698
0.00331778
0.00359624
0.0038842
0.00418207
0.00449059
0.00481032
0.00514284
0.00548889
0.00585022
0.00622858
0.00662511
0.00704138
0.00747895
0.00793911
0.00842368
0.00893356
0.00947001
0.0100339
0.010626
0.0112473
0.0118979
0.0125794
0.0132921
0.0140365
0.0148133
0.0156234
0.016467
0.0173447
0.0182518
2.41533e-07
1.46364e-05
0.000111032
0.000249598
0.000411467
0.000603492
0.000830307
0.00109569
0.00137954
0.00166743
0.00195938
0.00225459
0.00255003
0.00284503
0.00313971
0.00343386
0.00372764
0.00402304
0.00432146
0.00462468
0.0049343
0.00525238
0.00558072
0.0059214
0.0062768
0.00664906
0.00704056
0.00745416
0.00789146
0.00835503
0.00884676
0.0093685
0.00992179
0.0105074
0.0111267
0.0117813
0.0124712
0.0131968
0.0139591
0.014758
0.0155945
0.0164684
0.0173798
8.63107e-08
1.0124e-05
8.20435e-05
0.000192247
0.000318303
0.000463519
0.00063434
0.000835247
0.00106675
0.00133
0.00162728
0.00195368
0.00228277
0.00261108
0.00293791
0.00326238
0.00358514
0.00390646
0.00422667
0.00454614
0.00486607
0.00518744
0.00551143
0.00584039
0.00617622
0.00652141
0.00687898
0.007252
0.00764367
0.00805741
0.00849641
0.00896415
0.00946314
0.00999604
0.0105653
0.0111728
0.0118196
0.0125072
0.0132359
0.0140066
0.0148201
0.0156769
0.0165815
1.06397e-07
7.84009e-06
6.51527e-05
0.000163623
0.000275316
0.000400757
0.000546094
0.000715831
0.000912744
0.00113841
0.00139439
0.00168253
0.00200447
0.00235191
0.00270429
0.00305704
0.00340817
0.00375734
0.00410446
0.00444976
0.0047935
0.00513556
0.0054767
0.00581759
0.00615932
0.0065035
0.00685216
0.00720791
0.00757386
0.00795367
0.00835128
0.0087709
0.00921685
0.0096933
0.0102044
0.0107535
0.0113436
0.0119774
0.0126567
0.0133829
0.0141575
0.0149804
0.0158536
8.56321e-08
7.78672e-06
6.14408e-05
0.000146424
0.000249236
0.000363817
0.000494703
0.000646
0.000820951
0.00102171
0.00124969
0.0015066
0.00179445
0.00211439
0.00246805
0.00283868
0.00321279
0.00358633
0.00395831
0.00432833
0.00469627
0.00506219
0.00542619
0.00578794
0.00614801
0.00650686
0.00686535
0.00722479
0.00758728
0.00795551
0.00833277
0.00872306
0.00913101
0.0095615
0.01002
0.0105119
0.0110418
0.0116145
0.0122336
0.0129026
0.0136235
0.0143989
0.0152318
8.50252e-08
7.25853e-06
5.67512e-05
0.00013574
0.000231345
0.000338214
0.000459372
0.00059853
0.00075857
0.000942181
0.00115076
0.001386
0.00164943
0.00194299
0.00226861
0.00262811
0.00301216
0.0034039
0.0037968
0.00418862
0.00457916
0.00496785
0.00535412
0.00573814
0.00611983
0.00649887
0.0068754
0.0072499
0.00762328
0.00799681
0.00837276
0.0087537
0.00914346
0.00954644
0.00996814
0.0104147
0.0108918
0.0114059
0.0119633
0.012569
0.0132278
0.0139449
0.0147266
8.10732e-08
7.28044e-06
5.58068e-05
0.000130197
0.000218547
0.000319575
0.00043378
0.000564253
0.000713717
0.000884581
0.00107892
0.0012979
0.00154331
0.00181666
0.00212011
0.00245555
0.00282464
0.00322175
0.003629
0.004039
0.00444924
0.00485798
0.00526481
0.00566988
0.00607262
0.00647265
0.00686971
0.00726342
0.00765413
0.00804223
0.00842857
0.00881476
0.00920295
0.00959654
0.00999969
0.0104178
0.0108571
0.0113244
0.0118269
0.0123723
0.0129679
0.0136206
0.0143385
8.02261e-08
7.213e-06
5.46618e-05
0.000126336
0.000209126
0.000305436
0.000414222
0.000538081
0.00067948
0.00084073
0.00102397
0.00123058
0.00146187
0.00171957
0.00200566
0.00232176
0.00267022
0.0030529
0.00346335
0.00388574
0.00431162
0.004738
0.0051635
0.00558754
0.00600978
0.00642981
0.00684699
0.00726068
0.00767094
0.00807726
0.00847996
0.00887942
0.00927679
0.00967413
0.0100739
0.0104802
0.0108983
0.0113344
0.0117963
0.0122917
0.0128298
0.0134197
0.0140711
7.93209e-08
7.26004e-06
5.43505e-05
0.000124078
0.000202452
0.000294485
0.000398907
0.000517541
0.000652687
0.00080642
0.000980903
0.00117751
0.00139767
0.00164301
0.00191491
0.00221553
0.0025468
0.00291087
0.00330957
0.00373469
0.0041712
0.00461214
0.00505394
0.00549532
0.00593535
0.00637362
0.00680955
0.00724272
0.00767254
0.00809806
0.00851915
0.00893583
0.00934806
0.00975697
0.0101637
0.0105709
0.0109823
0.0114029
0.0118393
0.012299
0.0127913
0.013327
0.0139175
7.93063e-08
7.32033e-06
5.42201e-05
0.000122577
0.000197847
0.000285875
0.000386603
0.000501023
0.00063107
0.000778808
0.000946091
0.0011347
0.00134584
0.00158075
0.00184125
0.00212919
0.00244634
0.00279478
0.00317675
0.00359283
0.00403326
0.0044845
0.00493975
0.00539626
0.0058523
0.00630735
0.00676068
0.00721216
0.00766047
0.00810474
0.00854475
0.00897977
0.00940954
0.00983417
0.0102539
0.0106702
0.0110855
0.011503
0.0119277
0.0123661
0.0128268
0.0133203
0.0138591
7.9767e-08
7.4189e-06
5.4332e-05
0.000121701
0.000194679
0.00027903
0.000376604
0.00048749
0.000613398
0.00075612
0.000917433
0.00109943
0.00130299
0.00152923
0.00178024
0.00205748
0.00236281
0.00269828
0.00306558
0.00346738
0.00390273
0.00435859
0.00482408
0.00529317
0.00576354
0.00623387
0.00670331
0.00717133
0.00763704
0.00809924
0.00855743
0.00901086
0.0094589
0.00990113
0.0103372
0.0107673
0.0111929
0.0116161
0.0120398
0.0124695
0.012912
0.0133764
0.0138747
8.04544e-08
7.52199e-06
5.45161e-05
0.000121147
0.000192416
0.000273534
0.000368371
0.000476312
0.000598755
0.000737365
0.00089388
0.00107015
0.00126727
0.00148652
0.00172922
0.00199724
0.00229254
0.00261674
0.00297185
0.00336036
0.00378405
0.00423809
0.00470919
0.0051884
0.00567141
0.00615547
0.00663941
0.00712284
0.00760459
0.00808347
0.00855901
0.00903029
0.00949629
0.00995652
0.0104102
0.0108567
0.0112966
0.011731
0.0121614
0.0125918
0.0130272
0.0134748
0.0139443
8.1329e-08
7.63887e-06
5.47768e-05
0.000120813
0.000190737
0.000269102
0.000361544
0.000466952
0.000586447
0.000721536
0.000873982
0.00104529
0.00123704
0.00145035
0.00168621
0.0019465
0.00223294
0.00254726
0.00289187
0.00326886
0.00367997
0.00412588
0.00459792
0.00508418
0.0055776
0.00607384
0.00657103
0.00706855
0.00756517
0.00805957
0.00855137
0.00903951
0.00952293
0.0100009
0.0104723
0.0109364
0.0113925
0.0118413
0.0122836
0.0127213
0.013158
0.013599
0.0140518
8.2328e-08
7.75853e-06
5.5096e-05
0.000120662
0.000189496
0.000265598
0.000355858
0.000459091
0.000576035
0.000708179
0.000857064
0.00102427
0.0012114
0.00141938
0.00164951
0.00190315
0.00218207
0.00248807
0.0028234
0.00319009
0.00358972
0.00402495
0.00449303
0.00498253
0.00548384
0.00599051
0.00649962
0.00701011
0.00752035
0.00802929
0.00853632
0.00904036
0.00954029
0.0100353
0.0105242
0.0110059
0.0114793
0.0119442
0.012401
0.0128505
0.0132944
0.0137366
0.0141826
8.33459e-08
7.89706e-06
5.54647e-05
0.00012066
0.000188605
0.00026286
0.00035111
0.000452393
0.000567153
0.000696716
0.00084248
0.00100617
0.00118927
0.00139265
0.00161777
0.00186576
0.00213822
0.00243692
0.00276416
0.00312181
0.0035115
0.00393621
0.00439646
0.00488514
0.00539159
0.00590674
0.00642643
0.00694867
0.00747178
0.00799412
0.00851532
0.00903427
0.00954986
0.0100612
0.010567
0.0110658
0.0115565
0.0120385
0.0125113
0.012975
0.0134303
0.0138795
0.0143259
8.45189e-08
8.03541e-06
5.58438e-05
0.000120729
0.000187959
0.00026071
0.000347084
0.000446648
0.000559543
0.000686911
0.000830092
0.00099076
0.00117033
0.00136955
0.0015902
0.00183332
0.00210008
0.0023925
0.00271258
0.0030621
0.00344313
0.0038582
0.00430904
0.00479374
0.00530206
0.00582374
0.00635254
0.00688537
0.00742009
0.00795527
0.0084898
0.00902272
0.00955304
0.0100799
0.0106017
0.0111172
0.011625
0.0121239
0.0126136
0.013093
0.0135622
0.0140221
0.0144745
8.56474e-08
8.17126e-06
5.62269e-05
0.000120866
0.000187487
0.000259009
0.000343669
0.0004417
0.000552952
0.000678401
0.000819356
0.000977407
0.00115383
0.00134963
0.00156633
0.0018049
0.00206666
0.00235356
0.00266736
0.00300972
0.00338292
0.00378939
0.00423131
0.00470923
0.00521651
0.00574234
0.00627889
0.00682097
0.00736644
0.0079135
0.00846065
0.00900678
0.00955105
0.0100924
0.0106296
0.011161
0.0116853
0.0122011
0.0127076
0.0132035
0.0136881
0.0141612
0.0146235
8.6632e-08
8.31549e-06
5.66247e-05
0.000121042
0.000187163
0.000257636
0.000340726
0.000437418
0.000547194
0.000670978
0.000809982
0.000965594
0.0011393
0.00133215
0.00154526
0.00177973
0.00203722
0.00231935
0.00262746
0.00296356
0.00333002
0.00372886
0.00416235
0.0046325
0.00513592
0.00566362
0.00620618
0.00675657
0.00731165
0.00786973
0.00842875
0.00898741
0.00954472
0.0101
0.0106517
0.0111984
0.0117384
0.0122708
0.0127939
0.0133063
0.0138069
0.0142951
0.0147704
8.74887e-08
8.452e-06
5.69957e-05
0.000121225
0.000186904
0.000256529
0.000338188
0.000433654
0.000542134
0.000664413
0.000801653
0.000955108
0.00112636
0.00131666
0.0015266
0.00175756
0.00201132
0.0022891
0.00259199
0.00292258
0.00328305
0.0036751
0.00410103
0.00456335
0.00506124
0.00558848
0.00613505
0.00669245
0.00725645
0.00782463
0.00839486
0.00896516
0.00953498
0.0101033
0.0106689
0.01123
0.0117854
0.0123336
0.012873
0.0134017
0.0139189
0.0144232
0.014915
8.83622e-08
8.59034e-06
5.73529e-05
0.000121412
0.000186718
0.000255589
0.000335984
0.00043035
0.000537689
0.000658612
0.000794326
0.000945944
0.00111507
0.00130296
0.00151014
0.00173807
0.00198834
0.00226212
0.00256066
0.00288628
0.00324123
0.00362704
0.00404622
0.0045012
0.00499259
0.00551732
0.00606608
0.00662911
0.00720103
0.00777868
0.00835918
0.00894067
0.00952228
0.0101032
0.0106818
0.0112569
0.0118267
0.0123901
0.0129452
0.0134902
0.0140236
0.0145442
0.0150511
8.9135e-08
8.72423e-06
5.77014e-05
0.000121619
0.000186575
0.000254807
0.000334045
0.000427416
0.000533714
0.000653455
0.00078778
0.00093777
0.00110495
0.0012907
0.00149545
0.00172061
0.00196775
0.00223802
0.00253255
0.00285374
0.00320371
0.003584
0.00399699
0.0044452
0.00492995
0.00545057
0.00599971
0.006567
0.00714571
0.00773192
0.00832222
0.0089143
0.00950722
0.0100999
0.0106912
0.0112795
0.0118632
0.0124412
0.0130114
0.0135721
0.0141215
0.0146579
0.0151794
8.99718e-08
8.86104e-06
5.80552e-05
0.000121816
0.000186474
0.000254138
0.000332321
0.000424798
0.000530157
0.000648854
0.000781895
0.000930408
0.00109588
0.00127965
0.00148226
0.00170489
0.0019492
0.0022163
0.00250729
0.00282443
0.00316987
0.00354511
0.00395255
0.00439466
0.00487287
0.00538836
0.00593625
0.00650623
0.00709079
0.00768478
0.00828424
0.00888632
0.00948996
0.0100942
0.0106974
0.0112983
0.0118954
0.0124873
0.0130722
0.013648
0.0142131
0.0147655
0.0153032
9.07032e-08
8.99405e-06
5.83574e-05
0.000122001
0.000186372
0.000253531
0.00033079
0.000422423
0.00052695
0.000644674
0.000776583
0.000923821
0.00108771
0.00126963
0.00147032
0.00169078
0.0019324
0.00219656
0.00248448
0.00279796
0.00313914
0.00350991
0.00391218
0.00434866
0.00482083
0.00533073
0.00587595
0.00644733
0.00703655
0.00763741
0.00824529
0.00885692
0.00947085
0.0100859
0.0107009
0.0113139
0.0119237
0.0125288
0.0131279
0.0137186
0.014299
0.0148671
0.0154211
9.15741e-08
9.11957e-06
5.86404e-05
0.000122149
0.000186277
0.000252985
0.000329394
0.000420296
0.000524036
0.000640906
0.000771767
0.000917897
0.0010804
0.00126052
0.00145952
0.00167804
0.00191719
0.0021786
0.00246369
0.00277392
0.00311119
0.00347769
0.00387542
0.00430664
0.00477333
0.00527767
0.00581894
0.00639037
0.00698314
0.00759017
0.00820558
0.00882625
0.00944998
0.0100756
0.0107015
0.0113264
0.0119484
0.0125665
0.0131791
0.013784
0.0143793
0.0149626
0.015532
9.24915e-08
9.24055e-06
5.89088e-05
0.000122296
0.000186192
0.000252498
0.000328158
0.000418334
0.000521354
0.000637408
0.000767295
0.000912302
0.00107351
0.00125212
0.00144949
0.00166622
0.00190323
0.00216206
0.00244444
0.00275173
0.00308559
0.00344828
0.0038417
0.00426806
0.00472983
0.00522863
0.00576524
0.00633556
0.00693109
0.00754282
0.00816521
0.00879435
0.00942747
0.0100632
0.0106999
0.011336
0.01197
0.0126004
0.0132261
0.0138449
0.0144543
0.0150526
0.0156371
9.35095e-08
9.36328e-06
5.91668e-05
0.000122439
0.000186105
0.000252044
0.000327006
0.000416523
0.000518884
0.000634161
0.00076317
0.000907135
0.00106709
0.00124443
0.0014402
0.0016551
0.00189015
0.00214674
0.00242664
0.00273132
0.00306201
0.0034212
0.00381073
0.00423239
0.0046893
0.00518292
0.00571479
0.00628309
0.00687972
0.00749555
0.00812423
0.00876124
0.00940336
0.0100489
0.0106959
0.0113429
0.0119883
0.0126308
0.0132693
0.0139013
0.0145248
0.0151377
0.015738
9.45114e-08
9.48315e-06
5.93971e-05
0.000122549
0.000186028
0.000251615
0.000325945
0.000414834
0.000516568
0.000631138
0.000759372
0.000902319
0.0010612
0.0012374
0.00143162
0.00164474
0.00187795
0.00213249
0.00241002
0.00271208
0.00303993
0.00339579
0.00378159
0.00419931
0.00465162
0.00514038
0.00566742
0.00623261
0.00682928
0.0074483
0.00808268
0.00872703
0.00937774
0.0100325
0.0106896
0.0113472
0.0120038
0.012658
0.0133087
0.0139537
0.0145908
0.015218
0.015833
9.57299e-08
9.59637e-06
5.96083e-05
0.000122653
0.000185936
0.000251221
0.000324944
0.000413248
0.000514386
0.000628336
0.00075586
0.00089791
0.00105571
0.00123067
0.0014234
0.00163499
0.00186648
0.00211912
0.00239448
0.00269408
0.00301929
0.00337213
0.00375445
0.00416827
0.00461645
0.00510056
0.00562285
0.00618427
0.00678005
0.00740136
0.00804065
0.00869171
0.00935044
0.0100143
0.0106811
0.0113488
0.0120162
0.012682
0.0133444
0.0140019
0.0146524
0.0152935
0.0159238
9.6924e-08
9.70914e-06
5.981e-05
0.000122746
0.000185858
0.000250841
0.000324026
0.000411732
0.000512309
0.000625608
0.000752367
0.000893569
0.00105043
0.00122413