/*--------------------------------*- C++ -*----------------------------------*\
| =========                 |                                                 |
| \\      /  F ield         | OpenFOAM: The Open Source CFD Toolbox           |
|  \\    /   O peration     | Version:  2.3.0                                 |
|   \\  /    A nd           | Web:      www.OpenFOAM.org                      |
|    \\/     M anipulation  |                                                 |
\*---------------------------------------------------------------------------*/
FoamFile
{
    version     2.0;
    format      ascii;
    class       volVectorField;
    location    "10000";
    object      U;
}
// * * * * * * * * * * * * * * * * * * * * * * * * * * * * * * * * * * * * * //

dimensions      [0 1 -1 0 0 0 0];

internalField   nonuniform List<vector> 
123406
(
(15.9333 21.2354 3.84495e-22)
(15.6568 21.4084 5.00591e-22)
(15.3755 21.5681 0)
(15.0841 21.7161 1.98175e-23)
(14.7825 21.8501 0)
(14.4698 21.9681 -2.23742e-22)
(14.1457 22.0682 2.76159e-20)
(13.8094 22.1483 -6.09389e-20)
(13.4607 22.2064 3.20882e-20)
(13.099 22.2399 4.26602e-20)
(12.7243 22.2468 -4.38898e-20)
(12.3364 22.225 -5.42325e-20)
(11.9344 22.1721 5.82423e-20)
(11.5186 22.086 -7.07205e-20)
(11.0894 21.9646 7.10287e-20)
(10.6462 21.8067 -2.20153e-21)
(10.1893 21.6111 0)
(9.71876 21.3757 0)
(9.23534 21.1016 -1.89495e-21)
(8.73947 20.788 1.18381e-19)
(8.23093 20.4345 -2.56585e-19)
(7.71089 20.0449 2.77767e-19)
(7.17953 19.6187 8.03031e-21)
(6.63816 19.1605 -1.61862e-19)
(6.08734 18.6741 8.67309e-22)
(5.52611 18.1626 0)
(4.95698 17.6346 0)
(4.37946 17.0975 0)
(3.79012 16.5537 2.59563e-19)
(3.18917 16.0195 -2.78521e-19)
(2.56955 15.4977 3.11227e-19)
(1.92569 15.0159 -6.6679e-19)
(1.24243 14.583 7.23661e-19)
(0.500548 14.2155 -5.84423e-19)
(-0.324479 13.9373 2.09418e-19)
(-1.26848 13.7643 -7.31337e-22)
(-2.36685 13.7255 2.77138e-21)
(-3.66055 13.8297 2.21067e-21)
(-5.20585 14.0535 -8.81937e-20)
(-7.06021 14.362 1.27915e-20)
(-9.2394 14.912 3.66187e-20)
(-11.6987 16.005 3.41412e-20)
(-14.2918 17.0288 -2.26483e-21)
(15.7424 21.2069 -1.51849e-21)
(15.4934 21.3775 3.38012e-22)
(15.2407 21.547 2.54769e-21)
(14.9819 21.7112 -2.59163e-21)
(14.7163 21.8699 0)
(14.4433 22.0225 -2.18576e-22)
(14.1623 22.1684 6.67069e-22)
(13.873 22.3068 -5.63624e-22)
(13.5748 22.4376 -5.43514e-22)
(13.2677 22.5598 6.56355e-22)
(12.9511 22.673 1.59584e-22)
(12.6246 22.7768 -1.07319e-20)
(12.2875 22.8709 -2.14053e-21)
(11.9397 22.955 2.64002e-20)
(11.5808 23.0285 2.11361e-21)
(11.2101 23.091 -1.61477e-20)
(10.8271 23.1428 -2.13036e-20)
(10.4313 23.1844 2.18208e-20)
(10.0219 23.2148 2.6285e-20)
(9.59804 23.2355 -5.50286e-20)
(9.15903 23.247 -1.63971e-21)
(8.70414 23.2507 6.67748e-20)
(8.23176 23.2472 -7.30875e-20)
(7.74074 23.2377 -1.22846e-21)
(7.22921 23.2259 3.95876e-20)
(6.69425 23.2134 0)
(6.13405 23.2 0)
(5.5457 23.1963 -4.51024e-20)
(4.92327 23.195 4.68868e-20)
(4.26372 23.2049 -1.043e-21)
(3.56153 23.2259 -9.95034e-23)
(2.81201 23.2598 0)
(2.0083 23.3071 1.17959e-20)
(1.14455 23.3581 -1.71989e-20)
(0.218786 23.4034 3.99637e-21)
(-0.769067 23.4298 1.37598e-21)
(-1.81735 23.415 -3.82859e-22)
(-2.92189 23.3332 0)
(-4.06111 23.1506 8.14035e-23)
(-5.18623 22.8065 2.81529e-21)
(-6.21248 22.2687 -5.33586e-20)
(-7.04185 21.5136 5.23352e-20)
(-7.61516 20.4929 -3.11121e-21)
(15.5624 21.1142 -7.75009e-22)
(15.325 21.2756 -3.38155e-21)
(15.0872 21.4393 -3.01726e-21)
(14.8444 21.5983 7.51179e-21)
(14.5956 21.7548 -9.96672e-22)
(14.3401 21.9081 -5.30095e-22)
(14.0773 22.0583 9.04614e-21)
(13.8067 22.2052 -9.70249e-21)
(13.5278 22.3488 -8.54625e-21)
(13.2403 22.4889 7.73527e-21)
(12.9439 22.6252 -1.37367e-20)
(12.6381 22.758 1.46172e-20)
(12.3225 22.887 -1.23989e-20)
(11.9965 23.0124 1.21255e-20)
(11.6597 23.1342 0)
(11.3119 23.2523 -3.90318e-22)
(10.9519 23.3666 -7.30079e-23)
(10.579 23.4776 8.16034e-21)
(10.1927 23.585 -7.79309e-21)
(9.79176 23.6888 -8.55706e-21)
(9.37592 23.7891 -8.98773e-22)
(8.94351 23.8864 8.67377e-21)
(8.4932 23.9805 -1.10595e-20)
(8.02396 24.0709 -1.81893e-21)
(7.53392 24.1576 -2.49705e-21)
(7.02126 24.2404 1.59823e-20)
(6.48476 24.318 2.58914e-20)
(5.92156 24.3893 -1.021e-20)
(5.33045 24.4522 -3.77101e-20)
(4.70902 24.5033 2.12107e-20)
(4.05443 24.5396 8.61529e-22)
(3.3657 24.5551 -4.13072e-20)
(2.64085 24.543 4.2774e-20)
(1.88008 24.4948 4.12829e-22)
(1.08428 24.3984 2.11108e-21)
(0.258186 24.2414 9.92324e-22)
(-0.590647 24.0094 -6.1197e-20)
(-1.44513 23.683 6.23972e-20)
(-2.27614 23.2392 0)
(-3.04873 22.6653 -2.41309e-21)
(-3.72349 21.9593 1.49681e-21)
(-4.26479 21.1335 0)
(-4.66005 20.2262 -2.44603e-21)
(15.3934 21.0126 -1.08467e-21)
(15.1768 21.1528 1.45589e-21)
(14.9552 21.3016 9.90455e-21)
(14.7294 21.4478 -1.21952e-21)
(14.4983 21.5933 -1.84335e-20)
(14.2615 21.7371 2.95549e-20)
(14.0182 21.8792 -1.80662e-20)
(13.7681 22.0194 -1.40399e-21)
(13.5107 22.1577 -1.39988e-21)
(13.2456 22.2941 8.39285e-22)
(12.9722 22.4284 -8.16336e-22)
(12.6903 22.5603 -1.80655e-20)
(12.3988 22.6898 4.28027e-22)
(12.0976 22.817 1.83438e-20)
(11.786 22.9415 0)
(11.4633 23.0635 -1.87626e-20)
(11.1291 23.1827 2.02086e-20)
(10.7823 23.2988 0)
(10.4225 23.4116 -2.09494e-20)
(10.0486 23.5208 -3.04113e-22)
(9.65974 23.6257 2.35372e-20)
(9.25452 23.726 0)
(8.83229 23.821 -1.0878e-21)
(8.39155 23.9098 0)
(7.93146 23.991 3.34195e-20)
(7.45032 24.0634 -3.37554e-20)
(6.94743 24.1251 -1.95453e-21)
(6.42135 24.1736 0)
(5.87143 24.2058 5.40299e-22)
(5.2966 24.2185 0)
(4.69613 24.2067 6.66426e-20)
(4.07076 24.1655 -7.08937e-20)
(3.42329 24.0877 9.07647e-20)
(2.75564 23.9663 -9.53389e-20)
(2.07196 23.7926 -3.45569e-21)
(1.37894 23.5576 -1.71192e-21)
(0.686581 23.2516 -2.59234e-21)
(0.00848773 22.8664 -9.23379e-20)
(-0.639506 22.3986 9.01371e-20)
(-1.2403 21.8498 0)
(-1.77566 21.2281 0)
(-2.22947 20.5491 0)
(-2.59155 19.8354 -2.83015e-22)
(15.2537 20.8835 1.78694e-21)
(15.0469 21.0143 -3.2251e-21)
(14.8387 21.1499 0)
(14.627 21.2823 1.79117e-21)
(14.4108 21.4143 0)
(14.1894 21.545 0)
(13.9617 21.6743 -1.80014e-21)
(13.7274 21.8025 2.69725e-20)
(13.4862 21.9294 -2.42792e-20)
(13.2377 22.055 -2.67404e-20)
(12.9819 22.179 5.10259e-20)
(12.7178 22.301 -2.71299e-20)
(12.4445 22.4209 9.58203e-22)
(12.1618 22.5385 0)
(11.869 22.6539 0)
(11.5656 22.7667 0)
(11.2513 22.8769 -7.71788e-22)
(10.9253 22.9835 3.01924e-20)
(10.5868 23.0865 1.25759e-21)
(10.2353 23.1853 -3.47094e-20)
(9.86951 23.2789 0)
(9.48877 23.3665 -3.91334e-20)
(9.09201 23.4476 8.46849e-20)
(8.67853 23.5205 -8.85359e-20)
(8.24794 23.5843 4.83384e-20)
(7.79879 23.6372 0)
(7.33079 23.6771 3.52964e-21)
(6.84293 23.7014 6.74232e-20)
(6.33531 23.7068 -6.9741e-20)
(5.80727 23.6905 0)
(5.25855 23.6488 4.15403e-21)
(4.6914 23.5764 1.03999e-19)
(4.10757 23.468 -1.03796e-19)
(3.50911 23.3182 6.73358e-20)
(2.90126 23.1215 -6.34258e-20)
(2.29004 22.8722 8.27894e-20)
(1.6837 22.5653 -7.96062e-20)
(1.09254 22.1968 0)
(0.529066 21.7659 -3.16847e-22)
(0.00534688 21.2756 0)
(-0.465888 20.7323 -3.33846e-20)
(-0.87422 20.1466 3.33094e-20)
(-1.21329 19.5322 9.24136e-21)
(15.1256 20.7662 -3.55607e-21)
(14.9331 20.8805 3.69391e-21)
(14.7391 21.0003 2.07484e-21)
(14.5412 21.118 3.15296e-22)
(14.3386 21.2362 -1.44864e-20)
(14.1318 21.3539 -1.11359e-21)
(13.9191 21.4703 3.3105e-20)
(13.6997 21.5858 -1.67818e-20)
(13.4735 21.7006 0)
(13.2402 21.8145 3.31588e-20)
(13.0005 21.9274 -3.14684e-20)
(12.7534 22.0383 9.26993e-22)
(12.4977 22.1471 -3.4968e-20)
(12.2325 22.2537 3.55159e-20)
(11.9576 22.3577 0)
(11.6723 22.4595 0)
(11.3763 22.5584 0)
(11.0691 22.6537 4.13181e-20)
(10.75 22.7453 -4.20737e-20)
(10.419 22.8325 -4.30501e-20)
(10.0753 22.9141 -1.05136e-24)
(9.7172 22.9886 4.7883e-20)
(9.34362 23.0556 4.98291e-20)
(8.95435 23.114 -5.63587e-20)
(8.5491 23.1626 5.96374e-20)
(8.12685 23.1998 3.29141e-21)
(7.68733 23.2235 -7.02998e-20)
(7.23024 23.2314 -2.1627e-21)
(6.75564 23.2205 -4.30024e-22)
(6.26314 23.188 3.0714e-21)
(5.75405 23.1306 -6.2638e-21)
(5.22995 23.0451 -3.21675e-21)
(4.69293 22.9259 6.8049e-20)
(4.14559 22.769 -7.22502e-20)
(3.59213 22.5708 0)
(3.03796 22.3268 8.43606e-20)
(2.48982 22.0328 -3.48464e-20)
(1.95592 21.687 -4.23379e-20)
(1.44549 21.2893 1.05003e-20)
(0.968321 20.8428 2.37012e-20)
(0.533995 20.352 -3.17002e-20)
(0.15102 19.8251 4.54852e-21)
(-0.175137 19.2719 -1.38804e-20)
(15.0144 20.6511 1.10101e-21)
(14.8373 20.7517 0)
(14.6562 20.8567 -2.05803e-21)
(14.4705 20.9604 -8.97254e-22)
(14.2787 21.0659 -1.8846e-20)
(14.085 21.172 1.88581e-20)
(13.8859 21.2761 1.81088e-20)
(13.6798 21.3799 -1.70681e-20)
(13.4673 21.483 0)
(13.2464 21.586 0)
(13.0203 21.6887 2.03287e-20)
(12.7873 21.7895 -1.91824e-20)
(12.5466 21.8884 0)
(12.2972 21.985 -4.20753e-20)
(12.0384 22.0786 8.34096e-20)
(11.7683 22.1698 -8.61979e-20)
(11.4879 22.2587 4.56493e-20)
(11.1976 22.3439 -4.55292e-20)
(10.8951 22.4252 4.95577e-20)
(10.58 22.5031 -1.69941e-21)
(10.2551 22.5756 -1.55009e-21)
(9.91754 22.6401 5.964e-20)
(9.56509 22.696 -1.1879e-19)
(9.19601 22.7434 1.30388e-19)
(8.81225 22.7811 -6.72992e-20)
(8.41313 22.8067 -2.44601e-21)
(7.99819 22.8187 0)
(7.56681 22.8154 0)
(7.11967 22.7943 -4.52611e-20)
(6.65634 22.7524 -5.91031e-21)
(6.17802 22.6863 5.72265e-20)
(5.68461 22.5947 0)
(5.18268 22.4728 -3.96316e-21)
(4.67286 22.315 -3.69288e-22)
(4.15619 22.1207 5.1688e-21)
(3.64051 21.8857 5.64481e-21)
(3.13254 21.6066 -5.54449e-20)
(2.63765 21.2812 4.42402e-20)
(2.16323 20.9101 -6.93477e-21)
(1.71721 20.4959 -1.64106e-20)
(1.3079 20.0427 4.03615e-20)
(0.943083 19.5558 4.36967e-21)
(0.626503 19.0437 1.85275e-20)
(14.9185 20.5336 -1.14457e-21)
(14.7544 20.6255 3.54948e-21)
(14.5863 20.7207 -3.55847e-21)
(14.414 20.8117 -1.09563e-20)
(14.2293 20.9056 8.51498e-21)
(14.0473 21.0028 0)
(13.8622 21.0959 0)
(13.6664 21.1889 -2.03627e-20)
(13.468 21.2822 2.03827e-20)
(13.2569 21.3747 0)
(13.0421 21.4688 -2.62419e-21)
(12.8209 21.5606 0)
(12.5928 21.651 0)
(12.3562 21.7396 0)
(12.1123 21.825 -2.35959e-20)
(11.8561 21.9066 2.38787e-20)
(11.5873 21.9868 -3.08117e-21)
(11.3116 22.0639 -1.53423e-21)
(11.0256 22.1356 -1.60123e-21)
(10.722 22.205 -1.60099e-22)
(10.4106 22.2719 -3.21863e-20)
(10.0902 22.3302 6.10974e-20)
(9.75859 22.3784 -3.06112e-20)
(9.40634 22.4173 0)
(9.04012 22.4477 0)
(8.65929 22.4656 -3.62774e-20)
(8.26547 22.4693 4.23834e-20)
(7.85454 22.458 -3.00013e-21)
(7.43185 22.4297 0)
(6.99124 22.3822 -5.59223e-20)
(6.54191 22.3096 5.75711e-20)
(6.06882 22.2143 0)
(5.592 22.0938 -4.46058e-21)
(5.11305 21.9368 4.5986e-21)
(4.62343 21.7467 -5.2915e-20)
(4.13672 21.5214 3.23913e-20)
(3.65775 21.2563 -4.41348e-20)
(3.19302 20.9484 4.45284e-20)
(2.74635 20.5974 0)
(2.32305 20.2079 -1.53147e-20)
(1.93233 19.7829 8.76443e-21)
(1.58181 19.3259 -2.55028e-20)
(1.27271 18.8427 -9.09051e-21)
(14.8206 20.4261 0)
(14.6722 20.5093 1.31382e-21)
(14.5175 20.5969 5.47592e-21)
(14.3678 20.6751 -5.49572e-21)
(14.1911 20.7561 1.31816e-21)
(14.0202 20.8487 1.36058e-21)
(13.8537 20.9322 0)
(13.6626 21.0131 2.2117e-20)
(13.4794 21.1 -2.20205e-20)
(13.2757 21.1821 0)
(13.074 21.27 2.45909e-20)
(12.867 21.3537 -4.51127e-20)
(12.6537 21.4352 2.3662e-20)
(12.4275 21.5174 2.46291e-20)
(12.1978 21.5981 5.24283e-22)
(11.9601 21.6715 -2.38616e-20)
(11.7039 21.7439 -2.531e-20)
(11.4352 21.8167 2.68766e-20)
(11.168 21.881 1.95152e-21)
(10.8735 21.939 1.85486e-21)
(10.5779 22.0014 1.92638e-21)
(10.2687 22.0579 3.53852e-20)
(9.95671 22.1027 -7.18745e-20)
(9.6189 22.1324 3.72571e-20)
(9.27584 22.1573 0)
(8.90982 22.172 -2.52934e-21)
(8.53273 22.1716 0)
(8.12257 22.1567 2.96944e-21)
(7.72087 22.1207 5.74831e-20)
(7.28141 22.0734 -1.14192e-19)
(6.86516 21.9932 6.02288e-20)
(6.41047 21.8897 4.41861e-21)
(5.94655 21.7768 4.39855e-21)
(5.49367 21.6201 -3.97831e-20)
(5.01518 21.4337 5.21916e-20)
(4.54985 21.2153 5.62917e-21)
(4.09167 20.9629 -6.03447e-21)
(3.64218 20.6722 6.44412e-21)
(3.21343 20.335 7.1488e-21)
(2.80704 19.9643 7.59833e-21)
(2.43128 19.5609 0)
(2.09277 19.128 8.71756e-21)
(1.78259 18.6691 0)
(-16.1622 15.9065 -3.92047e-20)
(-14.8553 14.8361 1.93745e-19)
(-13.5917 13.7545 -3.29791e-19)
(-12.4259 12.9769 5.85862e-19)
(-11.3524 12.3596 -3.88193e-19)
(-10.366 11.8632 0)
(-9.46024 11.4556 -4.1464e-21)
(-8.62909 11.1129 -8.79622e-19)
(-7.86442 10.8225 -3.48712e-20)
(-7.16017 10.5727 8.10835e-19)
(-6.50992 10.3538 -8.19402e-19)
(-5.9072 10.1591 7.72949e-19)
(-5.34711 9.98435 7.645e-19)
(-4.82472 9.82673 -7.27596e-19)
(-4.33582 9.68196 -2.57786e-22)
(-3.87677 9.54794 0)
(-3.44422 9.42292 -6.66802e-19)
(-3.03505 9.3055 6.41862e-19)
(-2.64677 9.19465 -4.98822e-21)
(-2.27703 9.08908 -6.14247e-19)
(-1.92374 8.98834 5.91968e-19)
(-1.58544 8.89144 -9.51789e-21)
(-1.26043 8.79799 9.09931e-21)
(-0.947355 8.70768 0)
(-0.64504 8.62006 5.7158e-19)
(-0.352503 8.53436 -5.53435e-19)
(-0.0689835 8.4507 0)
(0.206226 8.36871 -8.63474e-21)
(0.47381 8.28765 0)
(0.734488 8.20784 5.42799e-19)
(0.988783 8.12904 -5.47288e-19)
(1.2371 8.05077 -5.4604e-19)
(1.47988 7.97322 -6.90402e-22)
(1.71753 7.89607 5.42252e-19)
(1.95027 7.81902 0)
(2.17833 7.74226 1.6329e-20)
(2.40196 7.66571 5.2184e-19)
(2.6214 7.58901 -1.0385e-18)
(2.83683 7.51247 2.57561e-19)
(3.04851 7.43614 2.22661e-19)
(3.25664 7.35992 0)
(3.46172 7.28334 9.22997e-20)
(3.66582 7.19914 -8.89154e-20)
(-7.84512 19.2239 -1.58131e-21)
(-7.82585 17.9722 -2.86324e-21)
(-7.62417 16.8759 -2.04478e-19)
(-7.31539 15.917 4.18717e-19)
(-6.93949 15.0811 -2.07448e-19)
(-6.52718 14.3537 -4.41717e-19)
(-6.09653 13.7211 4.22703e-19)
(-5.66109 13.1698 -4.29413e-19)
(-5.22914 12.688 4.12619e-19)
(-4.80532 12.2655 -4.06159e-19)
(-4.39374 11.8927 3.99553e-19)
(-3.99607 11.562 0)
(-3.6122 11.2672 0)
(-3.24305 11.0023 5.51946e-21)
(-2.88832 10.7626 -5.39685e-21)
(-2.54671 10.5449 -5.19427e-21)
(-2.21824 10.3448 -6.61196e-19)
(-1.90204 10.1604 6.38172e-19)
(-1.597 9.98964 4.82493e-21)
(-1.30244 9.83051 -6.1265e-19)
(-1.01758 9.68101 6.00663e-19)
(-0.741772 9.53995 0)
(-0.474503 9.40626 -8.84517e-21)
(-0.214958 9.27932 -5.58477e-19)
(0.0374395 9.15807 1.09794e-18)
(0.282979 9.04158 -5.40476e-19)
(0.522312 8.92957 -5.42545e-19)
(0.755917 8.82158 -5.69063e-22)
(0.98425 8.71683 1.03958e-18)
(1.20745 8.61503 -5.04096e-19)
(1.42601 8.51586 1.6186e-20)
(1.64021 8.41903 -5.15911e-19)
(1.8502 8.32433 4.82651e-19)
(2.05617 8.23126 -5.3042e-19)
(2.2583 8.1397 1.04347e-18)
(2.45682 8.04975 -5.29255e-19)
(2.65185 7.96102 -2.40223e-19)
(2.84358 7.87338 2.23541e-19)
(3.03225 7.7871 0)
(3.21806 7.70188 0)
(3.40114 7.61753 -1.24445e-19)
(3.5815 7.53417 1.53106e-19)
(3.75881 7.45141 0)
(-4.9175 19.2973 0)
(-5.05139 18.3871 8.2629e-20)
(-5.07157 17.5202 -8.36156e-20)
(-4.99683 16.7101 -5.71564e-21)
(-4.84703 15.9644 0)
(-4.64156 15.285 -3.85474e-19)
(-4.39593 14.6698 3.65606e-19)
(-4.12251 14.1148 -1.19852e-20)
(-3.83158 13.6148 -3.78254e-19)
(-3.53064 13.1641 3.57194e-19)
(-3.2254 12.757 0)
(-2.91962 12.3889 3.54938e-19)
(-2.61674 12.0543 -3.40786e-19)
(-2.31846 11.7491 6.63107e-19)
(-2.02592 11.4704 -6.47467e-19)
(-1.7403 11.2142 5.06097e-21)
(-1.46213 10.9774 -1.06094e-22)
(-1.1913 10.7581 -6.14948e-19)
(-0.927768 10.5543 5.86278e-19)
(-0.671267 10.3643 8.9561e-21)
(-0.421939 10.1859 -5.64432e-19)
(-0.17952 10.0178 1.0947e-18)
(0.0566342 9.85923 -5.31362e-19)
(0.286883 9.70926 5.32458e-19)
(0.511387 9.56666 -1.05501e-18)
(0.730423 9.43039 -9.63256e-21)
(0.944454 9.30007 5.25815e-19)
(1.15381 9.17525 0)
(1.35856 9.05476 5.10661e-19)
(1.55909 8.93855 -5.06771e-19)
(1.75557 8.82608 -7.74111e-21)
(1.94816 8.71708 7.72327e-21)
(2.13708 8.61106 3.10205e-20)
(2.32246 8.50765 -4.80413e-19)
(2.50442 8.40674 4.80065e-19)
(2.68305 8.30808 -2.48069e-19)
(2.85855 8.21161 -1.56642e-20)
(3.03108 8.11705 2.47753e-19)
(3.2009 8.02456 -2.62263e-19)
(3.36822 7.93375 2.45393e-19)
(3.53318 7.8444 0)
(3.69589 7.75638 -1.49233e-20)
(3.85645 7.67339 2.89397e-20)
(-2.86042 19.107 0)
(-3.03905 18.3755 5.02453e-21)
(-3.13302 17.6546 0)
(-3.151 16.9594 1.10681e-20)
(-3.10421 16.2995 -1.91261e-19)
(-3.00504 15.6811 3.61599e-19)
(-2.86437 15.1065 -1.75283e-19)
(-2.69174 14.5759 1.14587e-20)
(-2.49634 14.0876 -5.65766e-21)
(-2.28435 13.6393 5.6098e-21)
(-2.06156 13.2282 -3.50102e-19)
(-1.83231 12.8508 3.36372e-19)
(-1.5995 12.5041 5.22859e-21)
(-1.36595 12.185 5.1459e-21)
(-1.13326 11.8909 3.1707e-19)
(-0.902973 11.6187 -3.10637e-19)
(-0.675915 11.3665 -4.76751e-21)
(-0.452444 11.132 9.29023e-21)
(-0.23301 10.9134 8.97703e-21)
(-0.0177752 10.7091 -8.85136e-21)
(0.192982 10.5171 -5.61582e-19)
(0.399608 10.3366 5.46727e-19)
(0.601911 10.1663 -5.38429e-19)
(0.800133 10.0051 5.18523e-19)
(0.994478 9.85224 7.14533e-23)
(1.18491 9.70639 5.13016e-19)
(1.37172 9.56725 -5.05367e-19)
(1.55512 9.43394 0)
(1.73503 9.30588 0)
(1.91157 9.18243 0)
(2.08493 9.06335 7.59829e-21)
(2.25534 8.9483 -7.5741e-21)
(2.42279 8.83669 -1.51267e-20)
(2.58725 8.72818 -1.51274e-20)
(2.74877 8.62241 0)
(2.90741 8.51953 0)
(3.06338 8.41926 -2.26564e-19)
(3.21694 8.32162 1.50265e-20)
(3.36827 8.22625 2.40898e-19)
(3.51745 8.13305 -1.49364e-20)
(3.6646 8.04184 -1.48224e-20)
(3.80979 7.95265 1.47286e-20)
(3.95289 7.87403 0)
(-1.48143 18.9015 4.03765e-20)
(-1.67903 18.2631 -3.97772e-20)
(-1.80802 17.6275 0)
(-1.8735 17.0064 -1.09531e-20)
(-1.88253 16.4081 5.57364e-21)
(-1.84304 15.8389 5.63882e-21)
(-1.76368 15.3023 -5.63515e-21)
(-1.65188 14.7996 1.76472e-19)
(-1.51572 14.3309 1.95643e-19)
(-1.36052 13.8957 -7.06983e-19)
(-1.19131 13.4923 3.41204e-19)
(-1.01209 13.1188 -3.45669e-19)
(-0.826196 12.7727 3.22513e-19)
(-0.636127 12.452 0)
(-0.444172 12.1544 3.20852e-19)
(-0.251719 11.8779 3.12013e-21)
(-0.0596767 11.6207 -3.06042e-19)
(0.131265 11.3809 0)
(0.320229 11.1568 2.84148e-19)
(0.506882 10.9465 -2.84173e-19)
(0.691072 10.7489 8.48906e-21)
(0.872392 10.5629 2.56893e-19)
(1.05065 10.3871 -2.50635e-19)
(1.22614 10.2208 0)
(1.39902 10.063 -2.43068e-19)
(1.56892 9.91256 5.01583e-19)
(1.73599 9.76901 -4.87816e-19)
(1.90011 9.63147 2.33677e-19)
(2.06126 9.49946 -7.45741e-21)
(2.21958 9.37258 0)
(2.37521 9.25038 0)
(2.52819 9.13236 0)
(2.67856 9.01806 0)
(2.82616 8.90705 0)
(2.97089 8.79917 0)
(3.11286 8.69448 0)
(3.25236 8.59296 2.2116e-19)
(3.38979 8.4944 -3.53782e-19)
(3.52531 8.39819 1.3254e-19)
(3.65864 8.30432 1.47168e-20)
(3.78988 8.21259 1.46239e-20)
(3.919 8.1231 0)
(4.04471 8.04638 1.39018e-20)
(-0.441784 18.7023 0)
(-0.648277 18.1241 0)
(-0.795717 17.5454 1.06702e-20)
(-0.886886 16.9757 5.4165e-21)
(-0.927609 16.4227 0)
(-0.923696 15.8915 1.11321e-20)
(-0.88182 15.386 1.75181e-19)
(-0.809244 14.9074 -3.65591e-19)
(-0.712447 14.4574 1.78769e-19)
(-0.595946 14.0366 5.417e-21)
(-0.464425 13.6437 -5.32429e-21)
(-0.321262 13.2775 1.0434e-20)
(-0.169685 12.9364 3.27762e-19)
(-0.0126124 12.6184 -3.15543e-19)
(0.1482 12.3222 0)
(0.311198 12.0462 0)
(0.475281 11.7887 1.83663e-20)
(0.640087 11.5481 2.87359e-19)
(0.804793 11.3227 -2.95648e-19)
(0.96838 11.1107 8.55179e-21)
(1.13037 10.9111 0)
(1.2906 10.7231 5.6851e-23)
(1.44885 10.5455 -5.59968e-23)
(1.60537 10.3776 -7.81473e-21)
(1.76025 10.2181 0)
(1.91277 10.0661 -5.14175e-23)
(2.0629 9.92083 0)
(2.21049 9.78181 7.44745e-21)
(2.35551 9.64852 7.3773e-21)
(2.49806 9.52075 -2.33869e-19)
(2.63841 9.39766 2.32174e-19)
(2.77643 9.27881 -2.31756e-19)
(2.91209 9.16376 2.37995e-19)
(3.04511 9.05219 0)
(3.17508 8.94386 7.19411e-21)
(3.30218 8.83919 0)
(3.42718 8.73822 0)
(3.55068 8.64028 -7.20713e-21)
(3.67262 8.54468 0)
(3.79222 8.45129 0)
(3.90981 8.36025 -5.73202e-20)
(4.02619 8.27142 5.67727e-20)
(4.14225 8.19056 -3.96632e-23)
(0.361051 18.5158 4.0063e-20)
(0.149771 17.9798 -8.25359e-21)
(-0.00872602 17.4416 -4.08403e-20)
(-0.11519 16.9094 1.07283e-20)
(-0.175722 16.3901 8.82661e-20)
(-0.194413 15.8896 -9.67833e-20)
(-0.176762 15.4091 1.09269e-20)
(-0.129859 14.9509 1.08717e-20)
(-0.0612613 14.5173 -1.84663e-19)
(0.0271591 14.11 1.67799e-19)
(0.130753 13.7281 1.68096e-19)
(0.247629 13.3708 -1.61928e-19)
(0.373935 13.036 1.60727e-19)
(0.505847 12.7226 -7.77149e-21)
(0.642511 12.4301 -2.94654e-19)
(0.782605 12.1568 1.56824e-19)
(0.925376 11.9015 -1.80773e-20)
(1.07045 11.6625 0)
(1.21654 11.4378 1.72138e-20)
(1.36234 11.2261 -2.69603e-19)
(1.50704 11.0265 2.70152e-19)
(1.65024 10.8385 8.06523e-21)
(1.79265 10.6615 -2.60555e-19)
(1.93484 10.4941 2.62394e-19)
(2.07574 10.3343 2.43779e-19)
(2.21405 10.1821 -2.46772e-19)
(2.35036 10.0368 2.36946e-19)
(2.48428 9.89768 -2.26385e-19)
(2.61581 9.76468 2.32015e-19)
(2.74539 9.63743 -2.29747e-19)
(2.87351 9.51497 0)
(2.99948 9.3965 2.27867e-19)
(3.12292 9.28186 -1.20315e-19)
(3.24348 9.1707 -1.20356e-19)
(3.36037 9.06288 -7.10347e-21)
(3.47422 8.9595 1.06337e-19)
(3.58686 8.86046 -1.13369e-19)
(3.69887 8.76433 7.1103e-21)
(3.80945 8.67022 0)
(3.91688 8.57825 0)
(4.02199 8.48971 -7.03007e-21)
(4.12561 8.40439 3.49551e-20)
(4.22783 8.32757 -5.513e-20)
(1.00618 18.3439 -9.96562e-21)
(0.791889 17.8409 -1.12949e-20)
(0.625854 17.3323 2.97731e-20)
(0.509248 16.8279 -2.0822e-20)
(0.433397 16.3334 0)
(0.398916 15.8595 0)
(0.400801 15.3998 -9.67718e-20)
(0.430722 14.9584 -8.76772e-20)
(0.476035 14.5385 1.656e-19)
(0.542687 14.1437 0)
(0.624203 13.7722 0)
(0.721571 13.424 -1.70638e-19)
(0.829186 13.0955 1.55134e-19)
(0.940926 12.7872 9.56676e-21)
(1.05926 12.4999 -4.60674e-23)
(1.18191 12.2305 -1.55378e-19)
(1.30852 11.9784 1.50375e-19)
(1.43856 11.7417 0)
(1.57033 11.5188 -1.69194e-20)
(1.70167 11.3078 -1.40987e-19)
(1.832 11.1092 1.20952e-19)
(1.96117 10.9227 7.89179e-21)
(2.09072 10.7478 7.73913e-21)
(2.22161 10.5817 1.14672e-19)
(2.35005 10.421 4.76719e-22)
(2.47576 10.2696 -2.36502e-19)
(2.60104 10.1252 1.0924e-19)
(2.72444 9.98724 -7.22456e-21)
(2.84555 9.85604 7.10511e-21)
(2.96523 9.73055 0)
(3.08403 9.60931 -1.12639e-19)
(3.19965 9.49133 1.11888e-19)
(3.31239 9.37757 1.11813e-19)
(3.42179 9.26744 -2.09101e-19)
(3.5266 9.16061 1.11389e-19)
(3.62913 9.06004 1.3917e-20)
(3.73246 8.96421 6.94741e-21)
(3.83568 8.87038 0)
(3.93683 8.77793 4.88493e-20)
(4.03252 8.68717 -5.57054e-20)
(4.12633 8.60162 2.6821e-23)
(4.2186 8.51765 -2.95361e-23)
(4.30902 8.44319 0)
(1.50557 18.1817 -2.91576e-20)
(1.29555 17.7145 7.1422e-20)
(1.13727 17.2239 -8.07097e-20)
(1.0132 16.7411 4.83159e-20)
(0.922662 16.2575 1.00244e-20)
(0.872495 15.817 0)
(0.868712 15.3694 1.01107e-20)
(0.889548 14.9472 -7.36199e-20)
(0.916413 14.536 8.23769e-20)
(0.973876 14.1532 0)
(1.04216 13.7913 1.00907e-20)
(1.12963 13.4531 9.8465e-21)
(1.22509 13.1321 1.52766e-19)
(1.31832 12.8295 1.72008e-21)
(1.42232 12.5494 -2.9417e-19)
(1.53059 12.2822 1.4334e-19)
(1.64404 12.0318 0)
(1.76243 11.7974 8.55649e-21)
(1.88281 11.5763 8.3384e-21)
(2.00209 11.3662 -1.22319e-19)
(2.11959 11.1707 7.401e-21)
(2.23518 10.9852 2.48257e-19)
(2.35417 10.8114 -1.33012e-19)
(2.47856 10.6463 7.48383e-21)
(2.59928 10.4825 0)
(2.71701 10.3388 1.15756e-19)
(2.83671 10.195 -1.04669e-19)
(2.94961 10.0612 1.21175e-19)
(3.05849 9.93183 -1.21253e-19)
(3.16753 9.80745 0)
(3.27698 9.68591 6.98215e-21)
(3.38159 9.56677 0)
(3.48511 9.45489 1.11595e-19)
(3.58559 9.34721 -1.15117e-19)
(3.68038 9.24185 0)
(3.77247 9.14749 -7.04522e-21)
(3.8664 9.05441 -7.15575e-21)
(3.95997 8.9609 0)
(4.05142 8.87028 6.23424e-20)
(4.13431 8.77908 -5.49874e-20)
(4.22052 8.70033 -1.36082e-20)
(4.30518 8.61608 2.00144e-20)
(4.38968 8.54349 0)
(-2.50819 -2.9652 1.2206e-19)
(-2.30462 -2.99902 -6.41819e-20)
(-2.10043 -3.03226 0)
(-1.89684 -3.06398 -6.81685e-20)
(-1.69438 -3.0942 6.97392e-20)
(-1.49344 -3.1229 -3.54734e-20)
(-1.29419 -3.15005 1.10103e-21)
(-1.09676 -3.17564 -1.08081e-19)
(-0.901345 -3.19961 0)
(-0.70802 -3.22191 3.74367e-20)
(-0.516972 -3.2424 0)
(-0.328303 -3.26112 1.9379e-20)
(-0.142189 -3.27803 -1.97724e-20)
(0.0412669 -3.29315 7.9461e-20)
(0.222047 -3.3065 4.0184e-20)
(0.400046 -3.31805 -4.22994e-20)
(0.575262 -3.32784 1.29572e-19)
(0.747696 -3.33588 -4.50729e-20)
(0.91729 -3.34217 -1.17711e-21)
(1.084 -3.34677 -4.84253e-20)
(1.2479 -3.34968 7.52771e-20)
(1.40894 -3.35094 -7.94064e-20)
(1.5671 -3.35059 2.80059e-20)
(1.72243 -3.34869 2.94928e-20)
(1.87489 -3.34531 0)
(2.02447 -3.34051 -4.99934e-20)
(2.17121 -3.33439 -5.26925e-20)
(2.31509 -3.32704 -3.74731e-20)
(2.45608 -3.31853 0)
(2.59419 -3.30896 9.06875e-20)
(2.72938 -3.29838 -4.93421e-20)
(2.8616 -3.28686 -2.79533e-20)
(2.99081 -3.27437 -1.81885e-19)
(3.11698 -3.26077 1.36377e-19)
(3.24018 -3.24574 3.87607e-20)
(3.36083 -3.22844 3.95814e-19)
(3.4804 -3.20734 -4.07125e-19)
(3.60356 -3.17945 5.97772e-20)
(3.74485 -3.14051 0)
(3.95098 -3.08601 0)
(4.38551 -3.02665 1.56363e-18)
(5.63477 -3.12032 -4.41171e-18)
(10.3202 -4.12067 2.30864e-18)
(-2.45121 -2.97859 0)
(-2.26235 -3.01005 -6.39493e-20)
(-2.07443 -3.04177 0)
(-1.88693 -3.0721 0)
(-1.70018 -3.10125 6.87028e-20)
(-1.51438 -3.12931 3.45958e-20)
(-1.32969 -3.15634 -1.75532e-19)
(-1.14613 -3.18239 8.85271e-20)
(-0.963755 -3.20744 -1.78814e-20)
(-0.782524 -3.23141 -3.62396e-20)
(-0.60252 -3.25421 -4.14264e-20)
(-0.423883 -3.27575 1.38979e-20)
(-0.246736 -3.29602 -2.82583e-20)
(-0.0711624 -3.31506 -5.8098e-20)
(0.102799 -3.33287 3.96359e-20)
(0.275151 -3.3495 0)
(0.445918 -3.3649 0)
(0.615138 -3.37905 0)
(0.782791 -3.39198 4.42179e-20)
(0.94894 -3.4036 0)
(1.11361 -3.4139 0)
(1.2768 -3.42285 4.84018e-23)
(1.4386 -3.43036 5.28935e-20)
(1.599 -3.43642 2.80444e-20)
(1.75804 -3.44097 0)
(1.91582 -3.44394 3.12166e-20)
(2.07238 -3.44528 2.49917e-20)
(2.22787 -3.44489 -2.50562e-20)
(2.38247 -3.44261 -4.15594e-20)
(2.53644 -3.43823 -4.18131e-20)
(2.69021 -3.43144 2.27784e-20)
(2.84438 -3.42179 5.06271e-20)
(3.00003 -3.40858 8.32332e-20)
(3.15908 -3.3908 0)
(3.32508 -3.36701 -1.70436e-19)
(3.50493 -3.33518 1.15419e-19)
(3.71275 -3.29296 0)
(3.97815 -3.23779 2.92892e-19)
(4.36509 -3.17098 -4.48727e-19)
(5.01887 -3.11238 0)
(6.28593 -3.15639 -4.45326e-19)
(9.0217 -3.63871 6.17282e-19)
(15.3691 -5.42342 1.13691e-19)
(-2.39289 -2.9853 -5.82249e-20)
(-2.21584 -3.01515 6.34781e-20)
(-2.03942 -3.04601 0)
(-1.86307 -3.07597 -6.6289e-20)
(-1.68706 -3.10499 -6.67961e-20)
(-1.51163 -3.1331 -3.39386e-20)
(-1.33687 -3.16042 6.808e-20)
(-1.16281 -3.18705 3.47532e-20)
(-0.989287 -3.21306 0)
(-0.816251 -3.23835 0)
(-0.643548 -3.26277 4.00042e-20)
(-0.471383 -3.28611 -4.53754e-21)
(-0.299946 -3.30829 1.84277e-20)
(-0.129319 -3.32934 1.84468e-20)
(0.0403818 -3.3493 -1.8852e-20)
(0.209251 -3.36825 -1.96749e-20)
(0.377358 -3.38617 0)
(0.544771 -3.40303 0)
(0.711595 -3.41878 0)
(0.877924 -3.43338 2.23189e-20)
(1.04382 -3.44675 -2.32771e-20)
(1.20949 -3.45881 0)
(1.37501 -3.46943 2.36607e-22)
(1.54054 -3.47849 -5.34399e-20)
(1.70627 -3.4858 1.41715e-20)
(1.87244 -3.49119 1.52073e-20)
(2.03934 -3.49446 3.22475e-20)
(2.20744 -3.49534 6.84635e-20)
(2.37743 -3.49348 -5.33617e-22)
(2.55029 -3.48842 3.99141e-20)
(2.72744 -3.47948 0)
(2.9112 -3.46575 -4.63609e-20)
(3.10504 -3.44594 1.02392e-19)
(3.31466 -3.41835 -4.27221e-22)
(3.5496 -3.38102 -1.23006e-19)
(3.8263 -3.33174 0)
(4.17363 -3.26922 0)
(4.64515 -3.19553 4.13531e-20)
(5.34394 -3.12318 -4.58154e-20)
(6.47288 -3.09815 0)
(8.43286 -3.26003 -5.97957e-20)
(12.0521 -3.98059 4.19003e-21)
(18.3909 -5.93525 2.89691e-19)
(-2.33473 -2.98144 5.89406e-20)
(-2.16987 -3.01012 -1.24857e-19)
(-2.00491 -3.03963 3.19597e-20)
(-1.83939 -3.06813 6.46874e-20)
(-1.67372 -3.09573 0)
(-1.50817 -3.12247 0)
(-1.34293 -3.1485 5.03614e-20)
(-1.17799 -3.17399 -1.6806e-20)
(-1.01326 -3.19914 3.42788e-20)
(-0.848181 -3.22403 3.57236e-20)
(-0.682605 -3.24839 -1.09196e-21)
(-0.51649 -3.27185 -4.43885e-20)
(-0.350137 -3.29419 9.1865e-24)
(-0.183893 -3.31536 4.59522e-20)
(-0.0177555 -3.3355 0)
(0.148272 -3.35473 3.84602e-20)
(0.314425 -3.37309 0)
(0.480841 -3.39052 0)
(0.64769 -3.40694 -2.09176e-20)
(0.815141 -3.42227 2.17271e-20)
(0.983415 -3.43641 2.26984e-20)
(1.15274 -3.44924 2.35693e-20)
(1.32347 -3.46057 -2.48666e-20)
(1.49589 -3.47013 -1.28851e-20)
(1.67041 -3.47764 1.37061e-20)
(1.84746 -3.48274 -3.60939e-20)
(2.02767 -3.48503 -1.91008e-20)
(2.21186 -3.4841 -3.67857e-20)
(2.40134 -3.4794 2.61773e-20)
(2.59793 -3.47031 -4.70303e-20)
(2.80448 -3.45604 4.05604e-20)
(3.02517 -3.43546 -2.20717e-20)
(3.26643 -3.40709 -4.71864e-20)
(3.53785 -3.36903 0)
(3.85426 -3.31943 0)
(4.23961 -3.25738 0)
(4.73483 -3.18415 -6.5207e-20)
(5.41055 -3.10768 -6.87654e-20)
(6.39139 -3.0522 2.0344e-19)
(7.89731 -3.08408 0)
(10.3192 -3.3641 -3.60527e-19)
(14.3257 -4.24651 4.36391e-19)
(20.3152 -6.20033 4.35905e-20)
(-2.27961 -2.97358 3.00377e-20)
(-2.12448 -3.00008 0)
(-1.96928 -3.02704 -3.13102e-20)
(-1.81336 -3.05366 0)
(-1.65667 -3.0796 -6.46482e-20)
(-1.49958 -3.10466 1.63063e-20)
(-1.34245 -3.12893 -3.2763e-20)
(-1.18536 -3.15263 -1.66546e-20)
(-1.02814 -3.17617 -3.33314e-20)
(-0.870273 -3.19988 -3.47305e-20)
(-0.710843 -3.22362 1.06873e-21)
(-0.549596 -3.24675 -2.04627e-22)
(-0.387058 -3.26862 0)
(-0.223743 -3.28912 -4.47004e-20)
(-0.0599834 -3.3084 9.15817e-21)
(0.104312 -3.32672 -3.7339e-20)
(0.269347 -3.34424 1.93742e-20)
(0.435597 -3.36092 1.98404e-20)
(0.60332 -3.37659 0)
(0.77268 -3.39112 -2.12023e-20)
(0.943901 -3.40437 1.04039e-22)
(1.11746 -3.41626 4.60294e-20)
(1.29386 -3.42661 1.18999e-20)
(1.47377 -3.43505 -3.77968e-20)
(1.65784 -3.44115 0)
(1.84686 -3.44438 0)
(2.04167 -3.44407 0)
(2.24351 -3.43963 3.16239e-20)
(2.45422 -3.43041 -3.36861e-20)
(2.67646 -3.41563 3.58072e-20)
(2.91395 -3.39461 -1.90312e-20)
(3.17269 -3.36666 1.02792e-19)
(3.46198 -3.33069 -8.80136e-20)
(3.79461 -3.2849 2.65531e-22)
(4.18985 -3.22791 1.01559e-19)
(4.67791 -3.16018 -2.20582e-19)
(5.30754 -3.08619 1.19489e-19)
(6.15903 -3.01945 -2.59162e-21)
(7.36441 -2.9938 -1.45604e-19)
(9.14139 -3.08726 0)
(11.8463 -3.46797 1.49958e-19)
(15.9795 -4.45367 -1.62268e-19)
(21.5952 -6.36444 0)
(-2.22249 -2.95882 1.24928e-22)
(-2.07836 -2.98324 -3.04248e-20)
(-1.93296 -3.00882 0)
(-1.78596 -3.0339 0)
(-1.63723 -3.05838 3.16434e-20)
(-1.48753 -3.08177 -4.80556e-20)
(-1.33737 -3.10417 4.84453e-20)
(-1.1869 -3.12581 -1.41155e-22)
(-1.03635 -3.14705 0)
(-0.885271 -3.16877 3.31329e-20)
(-0.731874 -3.19142 2.09105e-21)
(-0.57495 -3.21408 2.74898e-20)
(-0.41521 -3.23542 4.31257e-21)
(-0.253784 -3.25501 3.52452e-20)
(-0.0912149 -3.27301 -3.6008e-20)
(0.0721068 -3.28972 9.18016e-21)
(0.236562 -3.30564 -9.2441e-21)
(0.403062 -3.32092 0)
(0.5722 -3.33526 -6.02317e-20)