/*--------------------------------*- C++ -*----------------------------------*\
| =========                 |                                                 |
| \\      /  F ield         | OpenFOAM: The Open Source CFD Toolbox           |
|  \\    /   O peration     | Version:  2.3.0                                 |
|   \\  /    A nd           | Web:      www.OpenFOAM.org                      |
|    \\/     M anipulation  |                                                 |
\*---------------------------------------------------------------------------*/
FoamFile
{
    version     2.0;
    format      ascii;
    class       volScalarField;
    location    "5000";
    object      nut;
}
// * * * * * * * * * * * * * * * * * * * * * * * * * * * * * * * * * * * * * //

dimensions      [0 2 -1 0 0 0 0];

internalField   nonuniform List<scalar> 
39559
(
0.0473962
0.0457939
0.0442162
0.0426618
0.0411315
0.0396267
0.0381488
0.0366989
0.035279
0.0338922
0.0325422
0.0312302
0.029959
0.0287296
0.0275416
0.0263834
0.0252458
0.0241265
0.0230302
0.0219596
0.0209169
0.0199051
0.0189242
0.0179746
0.0170552
0.0161648
0.0153005
0.0144597
0.0136406
0.0128414
0.0120628
0.0113044
0.0105666
0.00984932
0.00915118
0.00846928
0.00780177
0.00714805
0.00651045
0.0058956
0.00531555
0.00480525
0.00452343
0.0494336
0.0480272
0.046639
0.045269
0.0439172
0.0425844
0.0412712
0.039978
0.0387052
0.0374539
0.0362245
0.035018
0.0338352
0.0326752
0.031538
0.0304225
0.0293276
0.0282525
0.0271978
0.0261645
0.0251537
0.0241681
0.0232083
0.022276
0.0213733
0.0205018
0.0196625
0.0188546
0.0180733
0.0173157
0.0165807
0.0158717
0.0151952
0.0145643
0.0139937
0.0134988
0.0130866
0.0127626
0.0125347
0.0124141
0.012415
0.012548
0.0128267
0.0512825
0.0500449
0.048819
0.0476066
0.0464084
0.0452246
0.0440559
0.0429021
0.0417634
0.0406404
0.0395332
0.0384424
0.0373681
0.0363117
0.0352718
0.0342489
0.0332433
0.0322542
0.0312832
0.0303298
0.0293952
0.0284802
0.0275865
0.026715
0.0258677
0.0250459
0.0242515
0.0234866
0.0227529
0.0220529
0.0213889
0.0207662
0.0201889
0.019664
0.0191996
0.0188028
0.018483
0.0182478
0.0181064
0.0180663
0.0181359
0.0183205
0.0186206
0.0529628
0.0518655
0.0507775
0.0496996
0.0486327
0.0475766
0.0465316
0.0454977
0.044475
0.0434637
0.0424631
0.0414749
0.040499
0.0395355
0.0385859
0.0376498
0.0367272
0.0358189
0.0349249
0.0340458
0.0331827
0.0323355
0.0315058
0.0306952
0.0299062
0.02914
0.028398
0.0276847
0.0270008
0.0263509
0.0257377
0.0251662
0.024642
0.0241695
0.0237562
0.0234093
0.0231352
0.022942
0.0228378
0.0228283
0.0229201
0.023116
0.0234173
0.0544817
0.0535056
0.0525356
0.0515727
0.0506175
0.0496701
0.0487305
0.0477988
0.0468752
0.0459593
0.0450507
0.04415
0.0432574
0.0423744
0.0415013
0.0406387
0.0397867
0.0389468
0.0381186
0.0373028
0.0365001
0.0357108
0.034936
0.0341777
0.0334379
0.0327178
0.0320211
0.0313499
0.0307073
0.0300965
0.029522
0.0289878
0.0284994
0.0280624
0.0276826
0.0273662
0.0271207
0.0269533
0.0268702
0.0268779
0.0269811
0.0271816
0.0274809
0.0558541
0.0549821
0.0541137
0.0532492
0.0523895
0.0515345
0.0506842
0.0498393
0.0489996
0.0481652
0.0473357
0.0465098
0.0456885
0.0448727
0.0440638
0.0432625
0.0424698
0.0416862
0.0409123
0.0401494
0.0393973
0.0386575
0.0379296
0.0372153
0.0365166
0.0358357
0.0351752
0.0345382
0.0339285
0.0333487
0.0328042
0.0322991
0.0318378
0.0314264
0.0310704
0.0307757
0.0305493
0.0303983
0.0303288
0.0303465
0.0304552
0.0306575
0.0309547
0.0570928
0.0563111
0.0555299
0.0547499
0.053972
0.0531959
0.0524218
0.05165
0.0508813
0.0501159
0.0493536
0.0485938
0.0478341
0.0470751
0.0463195
0.0455695
0.0448261
0.0440896
0.0433603
0.0426398
0.0419303
0.0412319
0.0405442
0.0398679
0.039204
0.0385559
0.0379263
0.0373178
0.0367337
0.0361793
0.0356582
0.0351754
0.0347354
0.0343434
0.0340058
0.0337277
0.0335155
0.033376
0.0333155
0.033339
0.0334509
0.0336532
0.0339478
0.058211
0.0575077
0.0568016
0.056094
0.0553861
0.0546779
0.0539689
0.0532591
0.0525491
0.0518412
0.0511361
0.0504335
0.04973
0.0490206
0.0483091
0.047602
0.0469
0.0462031
0.0455106
0.0448242
0.044148
0.0434832
0.0428311
0.0421886
0.0415552
0.0409349
0.0403318
0.0397479
0.0391857
0.0386502
0.0381481
0.0376836
0.03726
0.0368831
0.0365601
0.0362956
0.0360948
0.0359638
0.0359094
0.0359379
0.0360522
0.0362535
0.0365448
0.0592256
0.0585842
0.0579399
0.0572921
0.0566428
0.055992
0.0553389
0.0546825
0.0540218
0.0533592
0.0526985
0.052042
0.0513908
0.0507329
0.0500549
0.0493835
0.0487134
0.0480508
0.0473924
0.0467346
0.0460831
0.0454428
0.0448174
0.0442087
0.0436033
0.0430071
0.0424268
0.0418678
0.0413266
0.040805
0.0403181
0.0398699
0.0394622
0.0390971
0.0387869
0.0385348
0.0383466
0.0382228
0.0381723
0.0382063
0.0383271
0.0385254
0.0388127
0.00535824
0.00693979
0.00803085
0.00914331
0.0103299
0.0115849
0.0128939
0.014244
0.0156256
0.0170324
0.0184602
0.0199063
0.021368
0.0228447
0.024335
0.0258375
0.0273524
0.0288788
0.030416
0.0319636
0.0335216
0.0350897
0.0366675
0.0382546
0.0398507
0.0414555
0.0430685
0.0446894
0.0463179
0.0479534
0.0495954
0.0512433
0.0528963
0.054554
0.0562159
0.0578811
0.0595487
0.0612178
0.0628872
0.0645561
0.0662232
0.067887
0.0695514
0.0132652
0.0138624
0.0145982
0.0154598
0.0164322
0.0174978
0.0186407
0.0198467
0.0211033
0.0224001
0.0237297
0.0250849
0.0264608
0.0278536
0.0292605
0.0306784
0.0321057
0.0335416
0.0349848
0.0364339
0.0378883
0.0393478
0.0408121
0.0422802
0.0437522
0.045228
0.0467066
0.0481882
0.0496726
0.0511592
0.0526482
0.0541392
0.0556318
0.0571257
0.0586207
0.0601164
0.0616123
0.0631077
0.0646023
0.0660953
0.067586
0.0690738
0.0705622
0.0190361
0.0195707
0.0202256
0.0209936
0.0218625
0.0228207
0.0238561
0.0249564
0.0261106
0.0273085
0.0285427
0.0298058
0.0310916
0.0323955
0.0337138
0.0350435
0.0363813
0.0377258
0.0390755
0.0404286
0.0417845
0.0431422
0.0445011
0.0458604
0.0472201
0.0485798
0.0499388
0.0512971
0.0526547
0.0540111
0.0553664
0.0567208
0.058074
0.0594261
0.0607767
0.0621258
0.0634731
0.0648185
0.0661613
0.0675017
0.068839
0.070173
0.071507
0.0238217
0.0243323
0.0249499
0.0256684
0.0264795
0.0273741
0.0283418
0.0293716
0.0304538
0.0315796
0.0327412
0.0339316
0.0351448
0.0363755
0.0376196
0.038874
0.0401351
0.041401
0.0426699
0.0439402
0.0452109
0.0464806
0.0477487
0.0490142
0.050277
0.0515367
0.0527928
0.0540452
0.0552938
0.0565386
0.0577792
0.0590164
0.06025
0.0614803
0.062707
0.0639301
0.0651495
0.0663652
0.0675769
0.0687845
0.0699881
0.0711876
0.0723865
0.0278776
0.0283731
0.0289677
0.0296558
0.0304295
0.0312808
0.0322012
0.0331806
0.0342098
0.0352809
0.0363864
0.0375192
0.0386736
0.0398446
0.0410273
0.0422188
0.0434158
0.0446157
0.0458164
0.0470165
0.0482145
0.0494092
0.0505999
0.0517856
0.0529659
0.0541407
0.0553089
0.0564708
0.0576261
0.0587753
0.0599183
0.0610552
0.0621867
0.063313
0.0644337
0.0655487
0.0666581
0.0677617
0.0688598
0.0699524
0.0710394
0.0721211
0.073201
0.0313455
0.0318302
0.0324083
0.0330744
0.0338213
0.0346416
0.0355269
0.0364687
0.0374576
0.038486
0.0395473
0.0406345
0.0417412
0.0428631
0.0439957
0.0451356
0.0462793
0.0474239
0.0485673
0.0497081
0.0508449
0.0519765
0.0531018
0.0542198
0.0553301
0.056433
0.0575267
0.0586109
0.0596864
0.060754
0.0618138
0.0628656
0.0639099
0.0649472
0.0659773
0.0669996
0.0680142
0.0690212
0.0700209
0.0710135
0.0719993
0.0729777
0.0739511
0.0343342
0.0348106
0.0353758
0.036025
0.0367515
0.037548
0.0384067
0.0393187
0.0402756
0.04127
0.0422954
0.0433457
0.044414
0.0454955
0.0465865
0.0476835
0.0487824
0.0498801
0.0509751
0.0520664
0.0531517
0.0542297
0.0552991
0.0563599
0.0574117
0.0584537
0.0594832
0.0605
0.0615067
0.0625051
0.0634941
0.0644732
0.0654433
0.066405
0.0673573
0.0683003
0.0692331
0.0701561
0.0710703
0.0719766
0.0728741
0.0737624
0.0746422
0.0369267
0.0373966
0.0379503
0.0385864
0.0392972
0.0400748
0.0409121
0.0418007
0.0427297
0.0436957
0.0446927
0.0457134
0.0467494
0.0477965
0.0488528
0.0499149
0.0509757
0.0520333
0.0530875
0.0541377
0.0551792
0.056211
0.0572322
0.0582448
0.0592483
0.0602401
0.0612105
0.0621668
0.0631155
0.0640576
0.064985
0.0659008
0.0668083
0.067707
0.0685913
0.0694667
0.0703282
0.0711776
0.0720178
0.0728493
0.0736712
0.0744806
0.0752788
0.0391916
0.0396566
0.0401958
0.0408224
0.0415204
0.0422825
0.0431036
0.0439737
0.0448736
0.0458156
0.0467909
0.0477873
0.0487922
0.0498094
0.0508382
0.0518727
0.0528972
0.0539187
0.0549403
0.0559591
0.0569602
0.0579541
0.0589324
0.0599089
0.0608733
0.0618254
0.0627286
0.0636349
0.0645371
0.0654361
0.0663026
0.0671664
0.0680238
0.068873
0.0696916
0.0705121
0.0713074
0.0720929
0.0728713
0.0736408
0.0743993
0.0751414
0.0758687
0.0813435
0.0783345
0.0753712
0.0724488
0.0695675
0.0667276
0.0639307
0.0611773
0.0584696
0.0558088
0.0531963
0.0506344
0.0481237
0.0456667
0.043264
0.0409171
0.0386268
0.0363949
0.0342217
0.0321082
0.0300538
0.0280611
0.0261298
0.0242588
0.0224501
0.0207027
0.019016
0.017393
0.0158306
0.0143311
0.0128955
0.0115232
0.0102155
0.00897373
0.00780116
0.00669873
0.00567009
0.00471992
0.0038531
0.00308593
0.00248899
0.00188876
0.00118762
0.0830449
0.0803288
0.0776441
0.0749875
0.0723581
0.0697571
0.0671842
0.0646405
0.0621278
0.0596455
0.0571961
0.0547803
0.0523996
0.0500559
0.0477493
0.0454814
0.0432532
0.0410662
0.0389205
0.0368175
0.034758
0.0327439
0.0307746
0.0288529
0.0269786
0.0251525
0.0233776
0.021653
0.0199812
0.0183643
0.0168033
0.0153006
0.0138598
0.0124845
0.0111791
0.00994908
0.00880198
0.00775921
0.00684615
0.00592585
0.00495568
0.00388718
0.00263264
0.0847312
0.0822781
0.0798457
0.0774301
0.0750316
0.0726498
0.0702846
0.0679372
0.0656078
0.0632966
0.0610051
0.0587339
0.0564848
0.0542575
0.0520539
0.0498752
0.0477227
0.0455969
0.0434996
0.041431
0.0393932
0.0373864
0.035413
0.0334741
0.0315714
0.0297066
0.0278821
0.0260987
0.0243604
0.0226698
0.02103
0.0194453
0.0179219
0.0164656
0.0150865
0.0138058
0.012614
0.0114309
0.0102164
0.00893333
0.00754191
0.00599599
0.00422692
0.0863868
0.0841699
0.0819644
0.0797673
0.0775782
0.0753965
0.073222
0.0710549
0.0688959
0.0667446
0.064602
0.0624691
0.0603458
0.0582333
0.0561336
0.0540468
0.051974
0.0499163
0.0478759
0.0458528
0.0438487
0.0418656
0.0399054
0.0379688
0.0360588
0.0341779
0.0323279
0.0305139
0.0287376
0.0270037
0.0253175
0.023687
0.022121
0.0206319
0.0192097
0.0178133
0.0164055
0.0149561
0.013432
0.0118014
0.010029
0.00806871
0.00586439
0.087997
0.0859922
0.0839912
0.0819909
0.0799909
0.0779902
0.0759886
0.0739864
0.0719834
0.0699797
0.0679756
0.0659714
0.0639671
0.0619644
0.0599641
0.0579676
0.0559748
0.0539881
0.0520079
0.0500363
0.0480735
0.0461228
0.044186
0.0422644
0.0403614
0.0384787
0.0366226
0.0347944
0.0329994
0.0312451
0.029538
0.0278842
0.0262784
0.0247024
0.023132
0.0215418
0.019907
0.0182005
0.0163937
0.0144562
0.0123515
0.0100352
0.00745911
0.0895508
0.087736
0.085918
0.0840945
0.0822641
0.0804266
0.0785811
0.076728
0.0748669
0.0729975
0.0711203
0.0692352
0.0673423
0.0654423
0.0635364
0.0616252
0.0597107
0.0577936
0.0558751
0.053956
0.0520389
0.0501257
0.0482185
0.0463204
0.0444327
0.0425607
0.0407069
0.0388771
0.0370761
0.0353062
0.033567
0.0318519
0.0301487
0.0284402
0.0267069
0.0249287
0.0230834
0.0211468
0.0190903
0.0168829
0.0144879
0.0118625
0.00896145
0.0910403
0.089394
0.087739
0.086073
0.0843949
0.0827035
0.0809984
0.0792789
0.0775458
0.0757985
0.0740373
0.0722615
0.0704709
0.0686653
0.0668468
0.0650161
0.0631756
0.0613267
0.059469
0.0576028
0.0557311
0.0538562
0.0519815
0.0501095
0.0482425
0.0463829
0.0445339
0.0426983
0.0408755
0.0390665
0.0372654
0.0354646
0.0336518
0.0318114
0.0299265
0.0279785
0.0259466
0.0238072
0.0215309
0.0190867
0.0164376
0.0135405
0.010352
0.0924608
0.0909616
0.0894499
0.0879242
0.0863814
0.0848212
0.0832413
0.0816403
0.0800219
0.0783847
0.0767282
0.0750512
0.0733541
0.0716346
0.0698966
0.0681389
0.0663649
0.064581
0.0627841
0.0609697
0.059137
0.0572992
0.0554501
0.0536019
0.051751
0.0498975
0.0480423
0.0461904
0.0443307
0.0424673
0.0405973
0.0387109
0.0367938
0.0348325
0.0328126
0.0307139
0.028518
0.0262012
0.0237359
0.0210829
0.0182112
0.0150758
0.011631
0.0938146
0.0924362
0.0910474
0.0896469
0.0882216
0.0867786
0.0853133
0.0838133
0.0822958
0.0807549
0.0791945
0.077605
0.0759957
0.0743476
0.0726837
0.0709903
0.0692713
0.0675435
0.0658107
0.0640568
0.0622434
0.060447
0.0586046
0.0567674
0.0549253
0.0530765
0.0511949
0.0493471
0.047439
0.0455126
0.0435751
0.0416175
0.0396032
0.0375344
0.0353935
0.0331611
0.0308183
0.0283491
0.025733
0.0228917
0.0198222
0.0164881
0.0128152
0.000566444
0.00057297
0.000802108
0.0010171
0.00121857
0.00140985
0.00159391
0.00177423
0.00195575
0.00214495
0.00235124
0.00258683
0.0028619
0.00317623
0.00352657
0.00390844
0.00431974
0.00475907
0.00522625
0.00572109
0.00624404
0.0067955
0.00737625
0.00798671
0.00862774
0.00929973
0.0100034
0.0107396
0.0115089
0.0123124
0.0131508
0.014025
0.014936
0.0158845
0.0168717
0.0178983
0.0189652
0.0200735
0.0212231
0.0224151
0.02365
0.0249287
0.026252
0.00126923
0.000806381
0.000984372
0.00120472
0.0014142
0.00161469
0.00181141
0.00201087
0.00222126
0.00245169
0.00271154
0.00300941
0.00334926
0.00372223
0.00412391
0.00455179
0.00500451
0.00548161
0.00598296
0.00650868
0.00705868
0.00763348
0.00823353
0.00885937
0.00951096
0.010189
0.0108939
0.0116262
0.0123866
0.0131757
0.0139944
0.0148433
0.0157231
0.0166344
0.0175779
0.0185545
0.019565
0.0206098
0.0216895
0.0228047
0.0239561
0.025144
0.0263657
0.00228305
0.0011402
0.00115459
0.00137567
0.00159538
0.00181034
0.00202834
0.0022588
0.00251103
0.00279283
0.00310974
0.0034663
0.0038608
0.00428267
0.0047286
0.00519697
0.00568699
0.00619824
0.00673056
0.00728389
0.00785845
0.0084541
0.00907139
0.0097103
0.0103708
0.0110533
0.0117583
0.0124861
0.013237
0.0140118
0.0148108
0.0156345
0.0164837
0.0173587
0.0182601
0.0191884
0.0201442
0.021128
0.0221403
0.0231818
0.0242535
0.0253577
0.0265013
0.00344281
0.00160501
0.00131819
0.00152806
0.00176084
0.00199615
0.00224358
0.00251308
0.00281239
0.00314563
0.00351499
0.00392387
0.00436397
0.00482721
0.00531125
0.00581499
0.00633766
0.00687906
0.00743855
0.00801627
0.00861193
0.00922561
0.00985718
0.0105068
0.0111742
0.0118598
0.0125637
0.0132862
0.0140275
0.0147881
0.0155682
0.0163683
0.0171886
0.0180297
0.0188916
0.019775
0.0206803
0.0216078
0.0225583
0.0235323
0.0245308
0.0255554
0.0266061
0.00463047
0.00218195
0.00148791
0.00166582
0.00191478
0.0021756
0.00245751
0.00276929
0.00311519
0.00349604
0.00391251
0.00436621
0.00484516
0.00534443
0.00586197
0.00639691
0.00694841
0.00751616
0.00809964
0.00869851
0.00931271
0.00994174
0.0105854
0.0112438
0.0119166
0.0126039
0.0133061
0.0140229
0.0147549
0.0155019
0.0162642
0.0170418
0.0178353
0.018645
0.0194707
0.020313
0.0211722
0.0220484
0.0229424
0.0238546
0.0247857
0.0257356
0.0267026
0.00577974
0.0028245
0.00167344
0.00179269
0.00206004
0.00235
0.0026689
0.00302245
0.00341166
0.00383523
0.00429407
0.00478581
0.00529891
0.00582997
0.00637735
0.00694004
0.00751728
0.00810837
0.00871303
0.00933047
0.00996048
0.0106027
0.0112569
0.0119225
0.0125995
0.013288
0.0139879
0.0146992
0.0154218
0.0161559
0.0169015
0.0176586
0.0184274
0.019208
0.0200007
0.0208054
0.0216225
0.022452
0.0232946
0.0241505
0.0250197
0.0259021
0.026798
0.00685959
0.00348566
0.00187651
0.00191255
0.00219969
0.00252057
0.00287609
0.00326881
0.00369696
0.00415817
0.00465521
0.00517983
0.00572324
0.00628261
0.00685634
0.00744372
0.00804401
0.00865611
0.00927949
0.00991352
0.0105576
0.0112114
0.0118744
0.0125464
0.013227
0.0139162
0.0146138
0.0153197
0.0160337
0.0167556
0.0174855
0.0182233
0.0189692
0.0197233
0.0204856
0.021256
0.0220346
0.0228216
0.0236171
0.0244215
0.0252344
0.0260556
0.026885
0.00786055
0.00413582
0.00210317
0.00202188
0.00232724
0.00267837
0.0030685
0.00349794
0.00396182
0.00445841
0.00499054
0.00554545
0.00611652
0.00670147
0.00729974
0.00791095
0.00853363
0.00916551
0.00980585
0.0104546
0.0111115
0.0117759
0.0124471
0.0131246
0.013808
0.0144973
0.0151926
0.0158935
0.0165992
0.0173091
0.018023
0.0187421
0.0194669
0.0201969
0.0209314
0.02167
0.0224125
0.0231597
0.0239121
0.0246694
0.0254315
0.0261975
0.0269675
0.00878821
0.00471222
0.00226512
0.00214802
0.00248085
0.00286893
0.00330437
0.00376653
0.00426343
0.00479509
0.00535549
0.00592985
0.00651704
0.00712369
0.00775316
0.00839616
0.0090411
0.00968359
0.010332
0.0109903
0.011657
0.01233
0.0130057
0.0136852
0.0143686
0.0150556
0.0157475
0.0164427
0.0171383
0.0178314
0.0185238
0.019223
0.0199295
0.0206383
0.0213471
0.0220536
0.0227599
0.0234692
0.0241817
0.0248969
0.0256135
0.0263308
0.0270507
0.000162194
0.000671627
0.00146028
0.00227284
0.00306763
0.00384409
0.0046071
0.00536269
0.00611936
0.00687841
0.00764157
0.00841135
0.00919012
0.00998043
0.010785
0.0116058
0.0124448
0.0133046
0.0141878
0.0150976
0.0160366
0.0170075
0.0180123
0.019052
0.0201262
0.0212337
0.0223724
0.023539
0.0247312
0.0259489
0.0271941
0.0284642
0.0297646
0.0311263
0.0325526
0.0340304
0.0355497
0.0371068
0.0387001
0.040327
0.0419843
0.0436701
0.0453825
7.47156e-05
0.000392928
0.000892127
0.00154598
0.00233576
0.00310439
0.00386098
0.00460641
0.00533064
0.00603982
0.00674112
0.00744131
0.00814593
0.00885864
0.00958286
0.010322
0.0110795
0.0118586
0.0126626
0.0134951
0.0143596
0.0152593
0.0161975
0.0171764
0.0181976
0.0192614
0.0203672
0.0215126
0.022695
0.0239119
0.0251614
0.026442
0.0277565
0.0291165
0.0305264
0.031979
0.0334673
0.035012
0.036618
0.0382717
0.0399658
0.041697
0.0434616
4.99481e-06
0.000229726
0.000558231
0.000993705
0.00154798
0.00221491
0.00299512
0.00387113
0.00471917
0.00553212
0.00631401
0.00706913
0.00780179
0.00851764
0.00922234
0.00992138
0.0106204
0.0113251
0.0120416
0.0127759
0.0135344
0.0143231
0.0151479
0.0160143
0.0169267
0.0178884
0.0189017
0.019967
0.0210833
0.0222483
0.0234597
0.0247155
0.0260152
0.0273615
0.0287562
0.0301973
0.0316814
0.0332125
0.0347893
0.0364065
0.0380847
0.0398232
0.0416094
6.29597e-06
0.00019939
0.000475633
0.000829835
0.00127741
0.00182019
0.0024616
0.00320576
0.00405543
0.00493235
0.00579356
0.00663085
0.00744395
0.00823385
0.00900159
0.00974853
0.010477
0.0111906
0.0118937
0.0125921
0.0132925
0.0140026
0.014731
0.0154861
0.0162768
0.0171108
0.0179953
0.0189355
0.019935
0.0209953
0.0221165
0.0232975
0.0245371
0.0258348
0.0271899
0.028601
0.0300654
0.0315814
0.0331461
0.0347558
0.0364136
0.0381175
0.0398773
4.09061e-06
0.000179569
0.000414181
0.000722104
0.00110718
0.00157588
0.00212895
0.00276981
0.0035024
0.00433059
0.00523467
0.00613891
0.00702253
0.00788261
0.00871963
0.00953409
0.0103263
0.0110965
0.0118458
0.0125757
0.0132894
0.0139914
0.0146881
0.0153874
0.0160989
0.0168329
0.0176002
0.0184112
0.0192753
0.0202002
0.0211913
0.0222525
0.0233856
0.0245906
0.0258672
0.0272141
0.0286281
0.0301061
0.031644
0.0332371
0.0348823
0.0365755
0.0383113
3.88088e-06
0.00016888
0.000378813
0.000657185
0.00100227
0.00142117
0.0019158
0.00248899
0.0031447
0.00388742
0.00472194
0.00563691
0.00656654
0.00748305
0.00837977
0.00925557
0.0101101
0.0109429
0.0117533
0.0125408
0.0133053
0.0140476
0.0147698
0.0154757
0.0161714
0.0168648
0.0175662
0.0182871
0.01904
0.0198378
0.020692
0.021613
0.0226087
0.0236842
0.0248431
0.0260865
0.0274126
0.0288188
0.0303008
0.0318529
0.0334695
0.035144
0.0368672
3.50832e-06
0.000163341
0.000350619
0.000607652
0.000924294
0.00130691
0.00175968
0.00228406
0.0028835
0.00356222
0.00432482
0.00517593
0.00610744
0.00706123
0.00800657
0.00893489
0.0098442
0.0107334
0.0116017
0.0124477
0.0132705
0.0140689
0.0148422
0.0155907
0.0163161
0.0170221
0.0177145
0.018402
0.0190954
0.0198079
0.020554
0.0213484
0.0222056
0.0231371
0.0241535
0.0252614
0.0264643
0.0277627
0.0291538
0.0306331
0.0321941
0.0338299
0.0355369
3.29579e-06
0.000157263
0.000329767
0.000570616
0.000865661
0.00122078
0.00164122
0.00212817
0.00268459
0.0033144
0.00402196
0.00481199
0.00568917
0.006642
0.0076177
0.00858811
0.00954399
0.0104825
0.0114022
0.0123019
0.01318
0.0140347
0.0148643
0.0156673
0.0164427
0.0171906
0.0179128
0.0186132
0.0192984
0.019978
0.0206644
0.0213726
0.0221194
0.0229216
0.0237959
0.0247562
0.0258134
0.0269744
0.0282417
0.029614
0.0310871
0.0326556
0.0343152
3.09638e-06
0.000152423
0.00031309
0.000540749
0.000818769
0.00115243
0.00154655
0.00200364
0.00252591
0.00311681
0.00378041
0.00452121
0.005344
0.00625297
0.00723054
0.0082285
0.00922231
0.0102032
0.0111681
0.0121154
0.0130434
0.0139503
0.0148338
0.0156918
0.016522
0.0173226
0.0180928
0.0188328
0.0195449
0.0202339
0.0209078
0.0215779
0.022259
0.0229685
0.0237259
0.0245506
0.0254607
0.0264708
0.0275915
0.0288281
0.0301821
0.0316519
0.03324
2.95771e-06
0.000148528
0.000300713
0.000516492
0.000780373
0.00109638
0.00146889
0.00190157
0.00239588
0.0029549
0.00358245
0.00428285
0.00506066
0.00592071
0.00686582
0.0078695
0.00888935
0.00990522
0.0109094
0.0118987
0.0128712
0.013825
0.0147579
0.0156674
0.0165509
0.0174059
0.0182296
0.0190204
0.0197775
0.0205019
0.0211971
0.0218694
0.0225291
0.0231904
0.0238712
0.0245919
0.0253748
0.0262413
0.0272096
0.0282942
0.0295045
0.0308448
0.0323171
2.8623e-06
0.000145931
0.000292171
0.000496376
0.000748243
0.00104943
0.00140389
0.00181596
0.00228682
0.00281919
0.00341656
0.00408303
0.00482301
0.00564122
0.00654244
0.00752533
0.00855511
0.00959667
0.0106338
0.0116599
0.0126718
0.0136677
0.0146452
0.0156019
0.0165351
0.0174417
0.0183187
0.019163
0.0199722
0.0207447
0.0214805
0.022182
0.0228542
0.0235067
0.0241526
0.0248101
0.0255007
0.0262487
0.0270781
0.028011
0.0290663
0.0302571
0.0315947
2.80102e-06
0.000144262
0.000286461
0.000479429
0.000720901
0.00100961
0.00134896
0.00174299
0.00219374
0.00270335
0.00327506
0.00391268
0.00462037
0.00540284
0.00626477
0.00721048
0.00823022
0.00928531
0.010348
0.0114055
0.0124524
0.0134857
0.0145033
0.0155028
0.0164814
0.017436
0.0183632
0.0192598
0.0201222
0.0209473
0.021733
0.0224784
0.0231849
0.023857
0.0245029
0.0251358
0.0257736
0.0264389
0.0271575
0.0279562
0.0288613
0.0298949
0.0310721
2.75085e-06
0.000143024
0.000282263
0.000464796
0.000697205
0.000975095
0.00130133
0.00167974
0.00211309
0.00260304
0.00315254
0.00376524
0.00444513
0.00519653
0.00602425
0.00693312
0.00792516
0.00897894
0.010058
0.0111411
0.0122183
0.0132851
0.0143387
0.0153767
0.0163965
0.0173951
0.0183691
0.0193149
0.0202287
0.0211065
0.0219449
0.022741
0.0234936
0.0242033
0.0248737
0.0255128
0.0261334
0.0267535
0.0273968
0.028091
0.0288657
0.0297505
0.0307702
2.71149e-06
0.000142029
0.00027886
0.000452136
0.000676572
0.000945001
0.00125979
0.00162447
0.00204255
0.00251527
0.00304537
0.00363625
0.00429177
0.00501609
0.00581376
0.00668964
0.00764833
0.00868539
0.00976983
0.0108716
0.0119744
0.0130707
0.0141566
0.0152295
0.0162867
0.0173254
0.0183422
0.0193337
0.0202958
0.0212243
0.0221149
0.0229638
0.0237676
0.0245246
0.0252347
0.0259015
0.0265325
0.0271403
0.0277439
0.0283679
0.0290417
0.0297976
0.0306645
2.67625e-06
0.000141153
0.00027594
0.00044115
0.000658499
0.000918548
0.00122329
0.00157595
0.0019804
0.00243786
0.00295079
0.00352239
0.00415639
0.00485674
0.00562792
0.00647461
0.00740162
0.00841174
0.00948953
0.0106017
0.0117247
0.0128465
0.0139614
0.0150657
0.0161568
0.017232
0.0182882
0.0193217
0.0203287
0.0213049
0.0222456
0.0231464
0.0240028
0.0248113
0.0255696
0.0262774
0.0269379
0.0275588
0.0281529
0.0287402
0.0293465
0.0300028
0.0307411
2.64915e-06
0.000140414
0.00027347
0.000431821
0.000642658
0.000895237
0.00119109
0.00153325
0.00192531
0.00236914
0.0028668
0.00342124
0.00403605
0.0047151
0.00546264
0.00628324
0.00718169
0.00816255
0.00922284
0.0103361
0.0114731
0.0126162
0.0137566
0.0148892
0.0160112
0.0171197
0.0182117
0.019284
0.0203325
0.021353
0.022341
0.0232916
0.0241996
0.0250607
0.0258706
0.0266268
0.0273289
0.0279803
0.0285886
0.0291677
0.0297383
0.0303275
0.0309664
2.63306e-06
0.000139945
0.000271514
0.000424095
0.000628635
0.000874446
0.00116232
0.0014951
0.00187617
0.00230782
0.00279182
0.0033309
0.00392851
0.00458849
0.00531482
0.00611204
0.00698482
0.00793803
0.00897416
0.0100794
0.0112234
0.0123829
0.0135453
0.0147035
0.0158534
0.0169923
0.0181172
0.0192249
0.0203116
0.0213734
0.0224054
0.023403
0.0243606
0.0252731
0.0261355
0.0269433
0.0276939
0.028387
0.029026
0.0296191
0.0301811
0.0307333
0.0313016
2.62633e-06
0.000139718
0.00027003
0.000417963
0.000616311
0.000855917
0.00113658
0.00146088
0.00183203
0.00225271
0.00272443
0.00324979
0.00383197
0.00447478
0.00518209
0.00595816
0.00680776
0.0077357
0.00874618
0.00983543
0.0109792
0.0121499
0.0133305
0.0145112
0.0156866
0.0168532
0.0180082
0.0191484
0.0202704
0.0213702
0.0224433
0.0234848
0.0244893
0.0254513
0.0263651
0.0272253
0.0280274
0.0287687
0.0294491
0.0300722
0.030647
0.0311892
0.0317213
2.62327e-06
0.000139665
0.000269005
0.00041326
0.000605446
0.000839375
0.00111353
0.00143015
0.00179233
0.00220312
0.00266375
0.0031767
0.00374504
0.00437225
0.00506234
0.00581938
0.00664792
0.00755281
0.00853873
0.00960721
0.0107437
0.0119201
0.0131148
0.0143149
0.0155131
0.0167052
0.0178878
0.019058
0.0202125
0.0213474
0.0224586
0.023541
0.0245896
0.0255985
0.0265618
0.0274735
0.0283279
0.0291206
0.0298487
0.0305124
0.031116
0.0316693
0.0321889
2.62283e-06
0.000139732
0.000268284
0.000409637
0.000595839
0.00082455
0.00109286
0.00140256
0.00175663
0.0021584
0.00260896
0.00311063
0.00366638
0.00427956
0.004954
0.00569378
0.0065032
0.00738706
0.00835022
0.00939646
0.0105198
0.0116962
0.0129007
0.0141169
0.0153355
0.0165507
0.0177588
0.0189566
0.0201411
0.0213085
0.0224549
0.0235755
0.0246653
0.0257183
0.0267288
0.0276902
0.0285963
0.0294412
0.0302204
0.0309313
0.0315742
0.0321547
0.0326842
2.62668e-06
0.000139888
0.00026781
0.00040681
0.000587298
0.000811208
0.00107421
0.00137776
0.00172458
0.00211795
0.00255934
0.00305073
0.00359503
0.00419544
0.00485566
0.00557969
0.00637174
0.00723648
0.00817881
0.0092032
0.0103094
0.0114804
0.0126904
0.0139195
0.0151557
0.0163919
0.0176233
0.0188468
0.0200589
0.0212566
0.0224356
0.0235918
0.0247199
0.0258146
0.0268696
0.0278785
0.0288344
0.0297312
0.0305626
0.0313241
0.0320134
0.032632
0.0331869
2.63634e-06
0.000140121
0.000267495
0.000404501
0.000579588
0.000799091
0.00105726
0.00135523
0.00169553
0.0020813
0.00251428
0.00299635
0.00353015
0.00411897
0.00476623
0.00547589
0.00625209
0.00709935
0.00802255
0.00902646
0.0101135
0.0112746
0.0124857
0.0137243
0.0149756
0.0162305
0.0174835
0.0187305
0.0199685
0.0211941
0.0224036
0.0235928
0.0247568
0.0258903
0.0269872
0.0280412
0.0290451
0.0299921
0.0308755
0.031689
0.0324283
0.0330916
0.0336811
2.64992e-06
0.000140402
0.000267268
0.00040254
0.000572663
0.000788103
0.00104185
0.00133467
0.00166898
0.00204783
0.00247322
0.00294679
0.00347106
0.00404927
0.00468474
0.00538122
0.00614296
0.00697424
0.00787983
0.00886465
0.00993258
0.0110802
0.0122882
0.0135329
0.0147966
0.0160681
0.0173406
0.0186097
0.0198717
0.0211234
0.0223613
0.0235812
0.0247788
0.0259486
0.0270849
0.0281814
0.029231
0.0302264
0.0311604
0.032026
0.0328169
0.0335288
0.0341595
2.66166e-06
0.000140692
0.000267076
0.000400827
0.000566449
0.000778133
0.00102781
0.00131592
0.00164474
0.00201725
0.00243566
0.00290148
0.00341713
0.00398554
0.00461017
0.00529471
0.00604314
0.00685981
0.00774925
0.0087164
0.00976588
0.0108979
0.0120993
0.0133466
0.01462
0.015906
0.0171963
0.0184856
0.0197701
0.0210462
0.0223106
0.0235594
0.0247883
0.0259922
0.0271655
0.028302
0.0293948
0.0304365
0.0314196
0.0323363
0.0331794
0.033943
0.0346242
2.67355e-06
0.000140991
0.000266935
0.000399359
0.000560946
0.000769105
0.00101506
0.00129881
0.00162259
0.00198925
0.00240127
0.00285997
0.00336767
0.0039272
0.0045419
0.00521541
0.00595163
0.00675476
0.00762937
0.00858035
0.00961241
0.0107282
0.0119198
0.0131665
0.0144468
0.0157451
0.0170515
0.0183596
0.0196649
0.0209639
0.0222532
0.0235291
0.0247874
0.0260233
0.0272314
0.0284056
0.0295393
0.0306251
0.0316552
0.0326217
0.0335165
0.0343329
0.0350661
2.68651e-06
0.000141313
0.00026689
0.000398142
0.000556134
0.00076092
0.00100339
0.00128316
0.00160231
0.00196359
0.00236972
0.00282187
0.00332224
0.00387359
0.00447918
0.00514258
0.00586751
0.00665822
0.00751923
0.0084552
0.0094711
0.0105705
0.0117504
0.0129935
0.0142781
0.0155866
0.0169073
0.0182326
0.0195574
0.0208779
0.0221906
0.0234919
0.0247778
0.0260439
0.0272848
0.0284946
0.0296669
0.0307945
0.0318694
0.0328837
0.0338289
0.0346969
0.0354809
2.7061e-06
0.000141679
0.000266978
0.000397211
0.000552027
0.000753553
0.000992737
0.00126886
0.00158376
0.00194012
0.00234078
0.00278684
0.00328042
0.00382425
0.00442141
0.00507543
0.00579001
0.00656927
0.00741768
0.00833981
0.00934058
0.0104244
0.011591
0.0128281
0.0141145
0.015431
0.0167643
0.0181054
0.0194483
0.020789
0.0221237
0.0234491
0.024761
0.0260555
0.0273273
0.0285707
0.0297795
0.0309466
0.0320644
0.033124
0.0341175
0.0350353
0.035868
2.72905e-06
0.000142098
0.00026714
0.000396457
0.000548459
0.000746846
0.000983
0.00125575
0.00156674
0.00191853
0.00231415
0.00275459
0.00324186
0.00377873
0.00436812
0.00501344
0.00571848
0.00648716
0.00732383
0.0082331
0.00921984
0.0102888
0.0114417
0.0126707
0.0139564
0.0152789
0.0166229
0.0179783
0.0193383
0.0206979
0.0220536
0.0234015
0.0247382
0.0260593
0.0273603
0.0286355
0.0298788
0.0310833
0.0322415
0.0333447
0.0343844
0.0353507
0.0362335
2.74968e-06
0.000142515
0.000267324
0.000395864
0.000545453
0.000740753
0.000974046
0.00124366
0.00155105
0.00189868
0.00228949
0.00272472
0.00320625
0.00373658
0.00431874
0.00495608
0.00565224
0.00641114
0.00723694
0.00813423
0.00910789
0.0101628
0.011302
0.0125213
0.0138042
0.0151305
0.0164837
0.017852
0.0192277
0.0206052
0.0219805
0.02335
0.0247101
0.0260566
0.027385
0.0286902
0.0299661
0.0312061
0.0324027
0.0335474
0.0346316
0.0356456
0.0365797
2.77225e-06
0.000142969
0.000267569
0.000395437
0.000542925
0.000735211
0.000965809
0.00123246
0.00153649
0.00188026
0.00226664
0.00269702
0.00317319
0.00369753
0.004273
0.00490289
0.00559079
0.00634048
0.00715619
0.00804243
0.00900389
0.0100456
0.0111714
0.0123799
0.0136582
0.0149864
0.0163469
0.0177267
0.0191169
0.0205112
0.0219052
0.0232951
0.0246773
0.0260479
0.0274025
0.0287361
0.0300429
0.0313165
0.0325496
0.0337339
0.0348608
0.0359208
0.0369054
2.79325e-06
0.000143419
0.000267834
0.00039513
0.000540823
0.000730151
0.000958215
0.0012221