/*--------------------------------*- C++ -*----------------------------------*\
| =========                 |                                                 |
| \\      /  F ield         | OpenFOAM: The Open Source CFD Toolbox           |
|  \\    /   O peration     | Version:  2.3.0                                 |
|   \\  /    A nd           | Web:      www.OpenFOAM.org                      |
|    \\/     M anipulation  |                                                 |
\*---------------------------------------------------------------------------*/
FoamFile
{
    version     2.0;
    format      ascii;
    class       volScalarField;
    location    "4000";
    object      nut;
}
// * * * * * * * * * * * * * * * * * * * * * * * * * * * * * * * * * * * * * //

dimensions      [0 2 -1 0 0 0 0];

internalField   nonuniform List<scalar> 
6617
(
0.0491015
0.0448564
0.0410028
0.0373419
0.0339976
0.0309419
0.0281476
0.0256026
0.0233026
0.0212452
0.0194643
0.0182929
0.0567925
0.0530234
0.0497017
0.0469265
0.0446977
0.04299
0.0417657
0.0409765
0.0405721
0.0405018
0.0407127
0.041156
0.0641687
0.0614651
0.0591502
0.0572615
0.0557839
0.0546884
0.0539392
0.0534979
0.0533248
0.053379
0.0536246
0.054025
0.0703296
0.0683689
0.0667169
0.065382
0.0643467
0.0635864
0.0630739
0.0627838
0.0626899
0.0627684
0.0629972
0.0633547
0.0754467
0.0739949
0.0727756
0.0717912
0.0710272
0.0704656
0.0700898
0.069883
0.0698298
0.0699164
0.0701293
0.0704547
0.0797053
0.0786015
0.0776722
0.0769181
0.0763289
0.0758933
0.0756018
0.0754451
0.0754141
0.0755012
0.0756986
0.075998
0.0832757
0.0824
0.0816694
0.0810724
0.0806012
0.0802501
0.080015
0.0798914
0.0798747
0.0799608
0.0801455
0.0804236
0.0862475
0.0855513
0.0849651
0.0844802
0.0840926
0.0838007
0.0836049
0.0835052
0.0834997
0.0835855
0.0837601
0.0840207
0.0887574
0.088188
0.0877095
0.0873061
0.0869809
0.0867327
0.0865636
0.0864826
0.0864866
0.0865747
0.0867432
0.0869888
0.0908951
0.0904085
0.0900188
0.0896716
0.0893939
0.0891842
0.0890267
0.0889618
0.0889747
0.0890683
0.0892398
0.0894747
0.0200186
0.02364
0.0261708
0.0288739
0.0320732
0.0358666
0.0402647
0.0452274
0.0506958
0.0565975
0.0628428
0.0692956
0.0417574
0.0425759
0.0437326
0.0452792
0.0472633
0.0497207
0.0526698
0.0561098
0.0600187
0.0643561
0.0690645
0.0740385
0.0545473
0.0552292
0.0561398
0.0573094
0.0587681
0.0605443
0.0626605
0.0651326
0.0679668
0.0711558
0.0746747
0.0784367
0.0638233
0.0644257
0.0652004
0.0661644
0.0673357
0.0687317
0.0703682
0.0722589
0.0744143
0.0768386
0.0795279
0.0824444
0.0708827
0.0714269
0.0721095
0.0729398
0.0739269
0.0750802
0.0764087
0.0779213
0.0796259
0.0815291
0.0836342
0.0859322
0.0763927
0.0768915
0.0775067
0.0782422
0.079102
0.0800895
0.0812083
0.0824626
0.0838569
0.0853955
0.0870811
0.0888992
0.0807911
0.0812532
0.0818165
0.0824815
0.0832484
0.0841162
0.0850844
0.0861534
0.0873249
0.0886006
0.0899825
0.0914577
0.0843649
0.0847964
0.0853183
0.0859288
0.0866257
0.0874041
0.0882592
0.0891902
0.0901964
0.0912757
0.0924224
0.0936156
0.0873113
0.0877175
0.0882057
0.0887725
0.0894148
0.090127
0.0908921
0.0917185
0.0925986
0.0935326
0.0945031
0.0954909
0.0897708
0.0901564
0.0906177
0.0911489
0.0917446
0.0924093
0.0930949
0.0938519
0.0946308
0.0954613
0.0962966
0.0971753
0.0841266
0.0715564
0.060159
0.0499877
0.0410928
0.0334337
0.0269794
0.0218283
0.0182439
0.0150129
0.0117275
0.00813183
0.0947326
0.0842482
0.0746489
0.0661032
0.0586294
0.0519949
0.0458741
0.0400521
0.0344345
0.0288648
0.0231695
0.0171707
0.106758
0.0981351
0.089939
0.0821841
0.0748401
0.0678181
0.0609849
0.0542035
0.0473455
0.040305
0.0329807
0.0252816
0.116896
0.109226
0.101686
0.0942774
0.0869742
0.0797148
0.0724146
0.0649784
0.0573039
0.0492947
0.0408639
0.0319312
0.124883
0.117823
0.110711
0.103544
0.0962934
0.0889045
0.0813085
0.0734242
0.065163
0.0564349
0.047154
0.0372373
0.131179
0.12458
0.117808
0.110849
0.103669
0.0962155
0.0884207
0.0802084
0.0714946
0.0621904
0.0522076
0.0414626
0.136192
0.129978
0.1235
0.116735
0.109639
0.102158
0.0942229
0.0857562
0.0766747
0.0668883
0.0563071
0.044846
0.14022
0.134349
0.12814
0.121556
0.114551
0.107066
0.0990279
0.0903557
0.0809648
0.0707637
0.0596607
0.0475716
0.143471
0.137922
0.131965
0.125557
0.11864
0.11117
0.103057
0.0942155
0.0845573
0.0739907
0.0624204
0.0497677
0.146142
0.140872
0.135148
0.128922
0.122072
0.114637
0.106474
0.0974969
0.0876035
0.0767059
0.0647002
0.0515078
0.00407406
0.0015844
0.00188312
0.00255044
0.00349634
0.00490532
0.00675567
0.00908082
0.0119578
0.0154681
0.0197035
0.0247545
0.0105474
0.00430113
0.00255898
0.00339497
0.00460536
0.00617029
0.00812651
0.0104888
0.0133189
0.016685
0.0206567
0.0252618
0.0169165
0.00818374
0.00372403
0.00437096
0.00579859
0.00752125
0.0095709
0.0119595
0.0147337
0.0179451
0.0216424
0.0258573
0.0222375
0.0119425
0.00529824
0.00540552
0.00700627
0.00887172
0.0109997
0.0134032
0.0161154
0.019176
0.0226374
0.0266154
0.0264702
0.0150702
0.00698799
0.00646935
0.00819829
0.0101815
0.0123723
0.0147811
0.0174331
0.0203631
0.023622
0.0272717
0.0297909
0.0175402
0.00857272
0.00753473
0.00934957
0.011429
0.0136699
0.016079
0.018676
0.0214894
0.0245543
0.0278983
0.0323944
0.0194606
0.00995975
0.00857228
0.0104444
0.0126027
0.0148838
0.017291
0.0198378
0.022543
0.0254251
0.028497
0.0344421
0.020954
0.0111411
0.00956106
0.0114749
0.0136976
0.0160124
0.018416
0.0209152
0.0235188
0.0262337
0.0290695
0.0360408
0.0221183
0.0121624
0.010481
0.0124313
0.0147154
0.01706
0.0194566
0.0219088
0.0244169
0.0269791
0.0295993
0.0371379
0.022663
0.0127215
0.0113633
0.0133936
0.0156661
0.0179781
0.0203629
0.0227875
0.0252113
0.0276421
0.0301251
0.000726751
0.00246547
0.00550997
0.00902224
0.0127038
0.0166146
0.020748
0.0250706
0.0295453
0.0341475
0.0388169
0.0436028
0.000552767
0.00138461
0.00348013
0.0066151
0.00997805
0.0134993
0.0171924
0.0211561
0.0254113
0.0299348
0.0346726
0.039581
0.000292057
0.000831477
0.00212377
0.00419847
0.00726746
0.0115919
0.0158949
0.0201021
0.0242699
0.0284659
0.0327621
0.037261
0.000313349
0.000658459
0.00167674
0.00331146
0.00577688
0.00935956
0.0140692
0.0188977
0.0236778
0.0282546
0.0325479
0.0366971
0.000273619
0.000577185
0.00144899
0.00283459
0.00492473
0.00795715
0.0122614
0.0174596
0.0227424
0.0279445
0.0328164
0.0372121
0.000266679
0.000519594
0.00129551
0.00251982
0.0043685
0.00704434
0.0108389
0.0160379
0.0216609
0.0273507
0.0328828
0.0379387
0.000258032
0.000487817
0.00120322
0.0023278
0.00402759
0.00648092
0.00995599
0.0148117
0.020649
0.026704
0.032749
0.0384773
0.00025624
0.000470603
0.00113614
0.00218998
0.00378378
0.00607824
0.00931944
0.0138425
0.0197501
0.0260849
0.0325271
0.0387963
0.000256063
0.000464641
0.00108705
0.00208935
0.00360496
0.00578533
0.00885912
0.0131393
0.0189565
0.0255068
0.0322775
0.0389967
0.000257094
0.000461858
0.00104735
0.00200815
0.00345857
0.00554833
0.00849299
0.0125913
0.0182259
0.0249357
0.0319916
0.0390963
0.000258386
0.000460463
0.00101381
0.00193862
0.00333229
0.00534219
0.00817273
0.0121104
0.0175372
0.0243333
0.0316287
0.0390633
0.000259946
0.000459982
0.000985945
0.00187998
0.00322451
0.00516389
0.00789187
0.0116834
0.0169087
0.0237037
0.0311907
0.0389182
0.000261722
0.000460194
0.000963206
0.00183166
0.00313487
0.00501409
0.00765301
0.0113151
0.016357
0.0230705
0.0307017
0.0386883
0.000263732
0.000460856
0.000944943
0.00179251
0.0030619
0.0048915
0.00745616
0.0110089
0.0158928
0.0224725
0.0301959
0.0384029
0.000265954
0.000461831
0.000930341
0.00176096
0.00300283
0.00479189
0.00729544
0.0107576
0.0155102
0.0219483
0.0297273
0.0381217
0.000268366
0.000462978
0.000918795
0.00173576
0.00295546
0.00471175
0.00716549
0.0105529
0.0151957
0.0214969
0.0292969
0.0378398
0.000270942
0.000464205
0.000909631
0.00171551
0.00291723
0.00464695
0.0070601
0.0103863
0.0149381
0.0211179
0.0289176
0.0375883
0.000273656
0.00046547
0.000902462
0.0016993
0.00288645
0.00459463
0.00697477
0.010251
0.0147283
0.0208061
0.0285983
0.0373988
0.000276446
0.000466768
0.000896847
0.00168618
0.00286137
0.00455188
0.00690486
0.0101397
0.0145546
0.0205445
0.0283194
0.0372539
0.000279296
0.00046809
0.000892547
0.00167555
0.00284074
0.0045165
0.00684689
0.0100473
0.01441
0.0203231
0.0280632
0.0370843
0.000282184
0.00046947
0.000889412
0.00166705
0.00282376
0.00448691
0.00679802
0.00996933
0.0142885
0.0201386
0.0278481
0.0369595
0.000285096
0.000470932
0.000887368
0.00166056
0.00281009
0.00446229
0.00675647
0.00990231
0.0141838
0.0199793
0.0276539
0.0368428
0.000288018
0.000472519
0.000886338
0.00165602
0.00279964
0.00444229
0.00672121
0.00984376
0.014091
0.0198387
0.0274821
0.0367566
0.000290948
0.000474237
0.000886268
0.00165348
0.00279258
0.00442734
0.00669282
0.00979387
0.0140084
0.0197093
0.0273167
0.0366815
0.000293883
0.000476112
0.000887023
0.00165285
0.00278892
0.00441766
0.00667202
0.00975393
0.0139374
0.0195901
0.0271426
0.0365364
0.000296826
0.000478117
0.000888541
0.00165409
0.00278863
0.00441345
0.00665959
0.00972612
0.0138829
0.0194928
0.0269968
0.0364303
0.000299802
0.000480264
0.00089081
0.00165714
0.00279154
0.00441449
0.00665553
0.00971117
0.0138469
0.0194185
0.0268668
0.0362967
0.000302833
0.000482557
0.000893932
0.00166213
0.00279768
0.0044205
0.00665923
0.00970853
0.0138307
0.0193753
0.0267795
0.0361952
0.000305916
0.000485008
0.000898033
0.00166927
0.00280738
0.00443169
0.00667024
0.00971689
0.0138322
0.0193634
0.0267486
0.0361805
0.000309089
0.000487619
0.000903356
0.00167888
0.002821
0.00444844
0.00668878
0.00973496
0.0138468
0.0193711
0.0267543
0.0362524
0.00031235
0.000490499
0.00091012
0.00169116
0.00283895
0.00447163
0.006716
0.00976363
0.0138729
0.0193896
0.0267649
0.0363089
0.000315678
0.000493581
0.000918242
0.00170611
0.00286155
0.00450188
0.00675331
0.00980565
0.0139148
0.0194238
0.0267899
0.0364159
0.00031906
0.000496843
0.000927837
0.00172387
0.00288889
0.00453942
0.00680127
0.00986301
0.0139773
0.0194808
0.0268148
0.0363857
0.000322542
0.000500178
0.000939006
0.00174453
0.00292114
0.00458451
0.00686048
0.00993667
0.0140645
0.0195788
0.0269216
0.0365327
0.000326113
0.000503563
0.000951786
0.00176819
0.00295848
0.00463761
0.00693143
0.0100265
0.0141728
0.0197049
0.0270715
0.0367846
0.000329664
0.000506908
0.000965879
0.00179454
0.00300063
0.00469843
0.007014
0.0101328
0.0143024
0.0198528
0.0272252
0.0369477
0.000333172
0.00051013
0.00098126
0.00182345
0.00304722
0.00476644
0.00710774
0.0102561
0.0144569
0.0200361
0.0274279
0.0371683
0.00033665
0.000513138
0.000997916
0.0018548
0.00309792
0.00484096
0.00721169
0.010395
0.0146352
0.0202548
0.0276823
0.0374591
0.000340062
0.000515884
0.00101581
0.00188845
0.00315242
0.00492149
0.00732482
0.0105477
0.0148342
0.0205048
0.0279839
0.0378166
0.000343312
0.000518326
0.0010348
0.00192423
0.0032105
0.00500754
0.00744614
0.0107125
0.0150507
0.0207807
0.0283239
0.0382344
0.000346369
0.000520393
0.00105497
0.00196218
0.00327207
0.00509888
0.007575
0.0108878
0.0152825
0.0210785
0.0286932
0.0386597
0.000349232
0.000521979
0.00107629
0.00200227
0.00333707
0.00519527
0.00771114
0.0110732
0.0155278
0.021396
0.029101
0.03921
0.000351863
0.000523059
0.00109889
0.00204462
0.00340561
0.00529688
0.00785473
0.0112686
0.0157854
0.0217254
0.0295075
0.0396785
0.000354155
0.000523793
0.00112265
0.00208893
0.00347732
0.00540345
0.00800553
0.0114742
0.0160568
0.022074
0.029945
0.0402262
0.000356119
0.000523795
0.0011472
0.00213487
0.00355195
0.00551469
0.00816318
0.0116893
0.0163414
0.0224392
0.0303981
0.0407645
0.000357782
0.000523558
0.00117318
0.00218305
0.00362985
0.00563059
0.00832733
0.0119138
0.0166389
0.0228228
0.0308778
0.0413271
0.000359252
0.000523576
0.00120039
0.0022332
0.00371078
0.0057511
0.00849815
0.0121473
0.0169489
0.0232237
0.0313898
0.0420162
0.000360797
0.000525506
0.00122884
0.0022852
0.00379453
0.00587589
0.00867523
0.0123894
0.0172696
0.0236345
0.0318893
0.0425418
0.00036264
0.000530925
0.00125809
0.0023391
0.00388131
0.00600483
0.00885814
0.0126397
0.0176026
0.0240687
0.0324481
0.0432632
0.000364643
0.000540585
0.00128877
0.00239534
0.00397153
0.00613845
0.00904677
0.0128969
0.0179432
0.0245094
0.0330092
0.0439853
0.000366573
0.000552777
0.00132064
0.00245387
0.00406513
0.00627695
0.00924189
0.0131618
0.0182924
0.0249563
0.033562
0.0446236
0.000368033
0.00056613
0.00135386
0.0025146
0.00416211
0.00642058
0.00944427
0.0134362
0.0186531
0.0254183
0.0341419
0.0453507
0.000368918
0.000580025
0.00138825
0.00257763
0.00426298
0.00656946
0.00965371
0.0137198
0.0190244
0.0258905
0.0347242
0.046051
0.000369151
0.000594519
0.00142421
0.00264332
0.00436758
0.00672385
0.00987026
0.0140123
0.0194073
0.0263766
0.0353191
0.0467255
0.000369026
0.0006098
0.00146182
0.0027118
0.00447623
0.00688383
0.0100944
0.0143148
0.0198032
0.0268808
0.0359497
0.0475225
0.000368257
0.000625974
0.00150111
0.00278296
0.00458889
0.0070497
0.0103266
0.014627
0.0202091
0.0273924
0.0365732
0.0482488
0.000366671
0.000642764
0.00154193
0.00285697
0.00470622
0.00722186
0.0105669
0.0149496
0.0206272
0.0279177
0.0372118
0.0489947
0.00036426
0.000660469
0.00158489
0.00293448
0.00482848
0.00740126
0.0108166
0.0152835
0.0210595
0.02846
0.0378709
0.0497691
0.000361051
0.000679222
0.00162992
0.00301543
0.00495589
0.00758774
0.0110757
0.0156295
0.0215062
0.0290178
0.0385452
0.0505565
0.000356865
0.000699021
0.00167715
0.00310039
0.00508919
0.00778232
0.0113457
0.0159888
0.0219678
0.0295918
0.0392347
0.0513528
0.000351451
0.000720114
0.00172737
0.00319023
0.00522965
0.00798636
0.0116276
0.0163626
0.0224459
0.0301831
0.0399414
0.0521678
0.000344832
0.000742762
0.00178084
0.00328576
0.00537868
0.00820107
0.0119233
0.0167536
0.022944
0.030795
0.0406649
0.0529864
0.000336615
0.000767214
0.00183792
0.00338739
0.00553697
0.0084283
0.0122355
0.0171651
0.0234659
0.0314326
0.0414122
0.0538192
0.000325995
0.000793624
0.00189944
0.00349684
0.00570728
0.00867176
0.0125676
0.017601
0.024017
0.0321033
0.0421952
0.0546879
0.00031161
0.000822003
0.00196637
0.00361608
0.00589286
0.00893757
0.0129255
0.018067
0.0246032
0.0328143
0.0430225
0.0556049
0.000291379
0.000852588
0.00203948
0.00374675
0.00609631
0.00922944
0.013319
0.0185731
0.0252348
0.0335757
0.0439041
0.0565737
0.000262314
0.00088566
0.00211977
0.00389077
0.00632114
0.00955269
0.0137566
0.0191355
0.0259263
0.0344005
0.0448528
0.0576199
0.000225646
0.000922561
0.00220925
0.00405128
0.00657225
0.009914
0.0142471
0.0197687
0.0267045
0.0353119
0.0458842
0.0587307
0.000204687
0.000970165
0.00231206
0.00423311
0.00685581
0.0103228
0.0148024
0.0204867
0.0275911
0.0363539
0.0470421
0.0599729
0.000195075
0.00103282
0.00243211
0.00444316
0.00718331
0.0107948
0.0154434
0.0213152
0.0286132
0.0375542
0.0483775
0.0613821
0.000193844
0.00109545
0.00257277
0.00469373
0.00757527
0.0113598
0.0162109
0.0223068
0.0298337
0.0389795
0.0499325
0.0629199
0.00020832
0.00117546
0.00275344
0.00501222
0.00807047
0.0120705
0.0171727
0.023547
0.0313616
0.0407746
0.0519276
0.0649745
0.000228276
0.00128369
0.00300155
0.00544896
0.00874445
0.0130282
0.0184546
0.025183
0.0333625
0.0431206
0.0545538
0.0677517
0.000257658
0.00139874
0.00331055
0.00603629
0.00968655
0.0143906
0.0202841
0.0274975
0.0361435
0.0463209
0.0580737
0.0714202
0.00029778
0.0019442
0.00441234
0.00772044
0.0119342
0.0172054
0.0236624
0.0314171
0.0405594
0.0511276
0.0631184
0.0764984
0.000745906
0.00357039
0.00739944
0.0119394
0.0171401
0.0229048
0.0291438
0.0357912
0.042786
0.0500536
0.0575208
0.0650874
0.000437226
0.00222841
0.00498278
0.00858512
0.0130078
0.0182166
0.0241591
0.0307621
0.0379305
0.0455473
0.0534807
0.0615807
0.000656327
0.00186485
0.00414358
0.00718238
0.0110204
0.0156828
0.0211727
0.0274595
0.0344732
0.0421049
0.0502158
0.0586565
0.000615794
0.00154937
0.00352225
0.0061877
0.00961966
0.0138725
0.0189829
0.0249558
0.0317531
0.0392879
0.0474236
0.0559675
0.000603757
0.00133008
0.00308457
0.00548073
0.00860662
0.0125321
0.0173156
0.0229895
0.0295454
0.0369234
0.0450032
0.0535925
0.000598021
0.00118396
0.0027801
0.00497317
0.00785767
0.0115133
0.0160136
0.0214118
0.0277256
0.0349232
0.0429143
0.0515502
0.000597232
0.00108171
0.00255016
0.00458299
0.00727224
0.0107034
0.0149602
0.0201112
0.026195
0.0332039
0.0410706
0.0496447
0.000599088
0.00100298
0.00236595
0.00426819
0.00679589
0.0100381
0.0140848
0.019016
0.0248859
0.0317081
0.0394374
0.0479535
0.000602187
0.00093955
0.00221424
0.00400776
0.00639937
0.00947995
0.0133439
0.0180787
0.0237513
0.0303917
0.0379722
0.0463806
0.000605385
0.000886982
0.00208634
0.00378789
0.00606296
0.0090035
0.0127066
0.0172654
0.0227569
0.0292243
0.0366591
0.0449807
0.000608575
0.000843206
0.00197922
0.00359885
0.00577266
0.00859039
0.0121508
0.0165513
0.0218761
0.0281801
0.0354697
0.0436741
0.000611715
0.000806276
0.0018873
0.0034339
0.00551854
0.00822751
0.0116603
0.0159175
0.021089
0.0272398
0.0343909
0.0424963
0.000614755
0.000774609
0.00180688
0.00328826
0.0052936
0.00790523
0.0112229
0.0153492
0.0203783
0.0263818
0.0333857
0.0413295
0.000617673
0.000747034
0.00173556
0.00315835
0.00509252
0.00761638
0.0108295
0.0148356
0.0197325
0.0255978
0.0324705
0.0403411
0.000620413
0.000722753
0.00167172
0.00304151
0.00491143
0.00735558
0.0104731
0.0143686
0.0191421
0.0248759
0.0316127
0.0393177
0.000623067
0.000702167
0.00161423
0.00293588
0.00474719
0.00711853
0.0101482
0.0139411
0.0185991
0.0242077
0.030816
0.0384109
0.000626516
0.000691538
0.00156248
0.00284105
0.00459746
0.00690188
0.00985054
0.0135484
0.018099
0.023593
0.0300938
0.0376367
0.000631424
0.000693112
0.00151579
0.00275508
0.00446029
0.00670297
0.00957673
0.0131865
0.0176378
0.0230256
0.0294214
0.0368485
0.000637185
0.000700392
0.00147353
0.00267651
0.00433409
0.00651968
0.00932411
0.0128523
0.0172112
0.0225001
0.0287968
0.0361415
0.000642999
0.000708486
0.00143508
0.00260422
0.00421748
0.00635016
0.00909029
0.0125426
0.0168156
0.0220115
0.0282129
0.0354621
0.000648472
0.000715695
0.00139996
0.00253748
0.0041094
0.00619297
0.00887331
0.012255
0.0164473
0.0215544
0.0276611
0.0348042
0.000653521
0.000721716
0.00136772
0.0024756
0.00400891
0.00604672
0.00867126
0.0119866
0.0161025
0.0211238
0.0271342
0.0341642
0.000658158
0.000726691
0.00133802
0.00241806
0.00391513
0.00591025
0.00848249
0.0117353
0.0157785
0.0207175
0.0266392
0.0335957
0.000662444
0.000730812
0.00131063
0.00236457
0.00382809
0.00578252
0.00830557
0.0114995
0.0154739
0.0203365
0.0261821
0.0330881
0.000666436
0.000734255
0.00128555
0.00231491
0.00374725
0.00566276
0.00813936
0.0112775
0.0151869
0.019976
0.0257396
0.0325252
0.000670196
0.000737396
0.00126445
0.00226874
0.00367179
0.00555022
0.00798294
0.0110684
0.0149166
0.0196382
0.0253378
0.0321258
0.000673903
0.000741345
0.00125248
0.00222594
0.00360104
0.00544427
0.00783554
0.0108714
0.0146618
0.0193192
0.0249478
0.0316098
0.000677717
0.000746904
0.00125143
0.00218636
0.00353458
0.00534437
0.00769647
0.0106855
0.0144216
0.0190186
0.0245853
0.0312227
0.000681724
0.000754319
0.00125747
0.00214986
0.00347202
0.00525007
0.00756511
0.0105097
0.0141939
0.0187315
0.024226
0.0307252
0.00068596
0.000762598
0.00126608
0.00211612
0.00341301
0.00516079
0.00744078
0.0103432
0.0139778
0.0184585
0.0238928
0.0303833
0.000690164
0.000770916
0.00127466
0.00208478
0.0033573
0.00507617
0.00732273
0.010185
0.0137721
0.0181976
0.0235677
0.0299463
0.000694277
0.000778747
0.00128211
0.00205548
0.00330471
0.00499597
0.00721081
0.0100348
0.0135763
0.0179483
0.0232566
0.0295815
0.000698263
0.000785979
0.00128836
0.00202808
0.00325498
0.00492007
0.0071046
0.00989199
0.0133896
0.0177105
0.0229617
0.0292309
0.000702112
0.000792514
0.00129332
0.00200235
0.00320799
0.00484844
0.0070036
0.00975597
0.0132118
0.0174841
0.0226814
0.0288945
0.000705848
0.000798403
0.00129711
0.00197815
0.00316364
0.00478069
0.00690728
0.0096261
0.0130419
0.0172677
0.022413
0.028569
0.000709469
0.000803712
0.00129985
0.00195529
0.00312172
0.00471643
0.00681535
0.00950195
0.0128794
0.0170604
0.022155
0.0282549
0.000712984
0.000808607
0.00130185
0.00193374
0.00308198
0.00465538
0.00672786
0.00938365
0.0127241
0.0168624
0.021912
0.0279844
0.000716412
0.000813095
0.00130318
0.00191349
0.00304423
0.00459718
0.00664427
0.00927047
0.012576
0.0166746
0.0216824
0.0277106
0.000719787
0.000817277
0.001304
0.00189455
0.00300847
0.00454176
0.00656426
0.00916235
0.0124347
0.0164956
0.0214619
0.0274382
0.000723119
0.000821182
0.00130451
0.00187768
0.00297458
0.00448888
0.00648802
0.0090592
0.0122999
0.0163245
0.0212494
0.0271755
0.000726432
0.000824955
0.00130516
0.00186409
0.00294235
0.0044384
0.00641509
0.00896083
0.0121712
0.0161606
0.0210451
0.0269258
0.000729751
0.000828812
0.00130681
0.00185599
0.002912
0.00439046
0.00634561
0.00886672
0.0120482
0.0160034
0.0208467
0.0266711
0.000733012
0.000832699
0.00131
0.00185398
0.00288376
0.00434462
0.006279
0.00877668
0.0119303
0.0158526
0.0206593
0.0264649
0.000736321
0.00083725
0.00131501
0.00185685
0.00285737
0.00430093
0.0062155
0.00869067
0.0118174
0.0157084
0.0204804
0.0262469
0.000740029
0.000842141
0.0013217
0.00186295
0.00283297
0.00425959
0.006155
0.00860875
0.0117101
0.0155718
0.0203143
0.0260641
0.0007437
0.00084758
0.00132978
0.00187072
0.00281032
0.00422034
0.00609767
0.00853056
0.0116077
0.0154414
0.0201505
0.0258349
0.000747469
0.00085304
0.00133854
0.00187901
0.0027895
0.00418318
0.00604327
0.0084561
0.0115102
0.0153177
0.0199998
0.0256866
0.000751255
0.000858848
0.00134748
0.0018871
0.00277003
0.00414808
0.00599194
0.00838559
0.0114177
0.0151995
0.0198488
0.0254536
0.000755396
0.000864519
0.00135633
0.00189483
0.00275193
0.00411515
0.00594344
0.0083185
0.0113298
0.0150868
0.0197077
0.0253154
0.000759455
0.000870341
0.00136516
0.00190209
0.00273519
0.00408418
0.00589743
0.00825468
0.0112459
0.0149798
0.0195767
0.0251647
0.000763652
0.000875817
0.00137345
0.0019088
0.00271951
0.00405482
0.00585403
0.00819425
0.0111664
0.0148785
0.0194519
0.025007
0.000767886
0.000881149
0.00138131
0.00191487
0.00270486
0.00402709
0.00581273
0.00813702
0.0110912
0.0147826
0.0193318
0.0248512
0.000772143
0.000886273
0.00138877
0.00192047
0.00269122
0.00400123
0.00577399
0.00808286
0.0110201
0.0146913
0.0192149
0.0246937
0.000776471
0.000891452
0.00139599
0.00192568
0.00267879
0.00397709
0.00573749
0.00803172
0.0109527
0.0146047
0.0191057
0.0245747
0.000780899
0.000896343
0.00140268
0.00193037
0.00266709
0.00395441
0.00570344
0.0079838
0.0108892
0.014523
0.0190021
0.0244385
0.00078548
0.000901155
0.00140905
0.00193473
0.00265637
0.00393329
0.00567145
0.00793906
0.0108302
0.014447
0.0189073
0.0243341
0.000790163
0.000905917
0.00141523
0.00193892
0.00264672
0.00391405
0.00564207
0.00789744
0.0107751
0.0143758
0.0188169
0.024207
0.000794895
0.000910472
0.00142122
0.00194297
0.00263836
0.00389651
0.00561497
0.00785894
0.0107241
0.0143102
0.0187349
0.0241234
0.000799764
0.000915253
0.00142699
0.0019469
0.00263109
0.00388055
0.00559049
0.00782415
0.0106777
0.0142504
0.0186607
0.0240274
0.000805203
0.000919984
0.00143263
0.0019509
0.0026253
0.00386652
0.00556846
0.00779257
0.010636
0.0141966
0.018591
0.0239273
0.000810723
0.000924856
0.00143847
0.00195522
0.00262136
0.00385444
0.00554908
0.00776465
0.0105989
0.0141488
0.0185323
0.0238768
0.000816465
0.000929619
0.00144422
0.00195989
0.0026193
0.00384427
0.00553243
0.00774042
0.0105666
0.0141068
0.0184758
0.0237676
0.000822533
0.000934523
0.00145009
0.00196505
0.00261932
0.00383618
0.00551895
0.00772069
0.0105399
0.014072
0.0184351
0.0237731
0.000828944
0.000939569
0.0014562
0.00197088
0.00262157
0.0038306
0.00550874
0.00770542
0.0105192
0.0140452
0.0183992
0.023671
0.000835779
0.000944916
0.00146277
0.00197756
0.00262607
0.00382764
0.00550201
0.00769496
0.0105046
0.0140254
0.0183702
0.023646
0.000843122
0.000950368
0.00146956
0.00198498
0.00263248
0.00382745
0.00549942
0.00769004
0.0104966
0.0140135
0.0183505
0.0236045
0.000851076
0.000956119
0.00147676
0.00199317
0.00264069
0.00383042
0.00550128
0.00769137
0.0104968
0.014011
0.0183411
0.0235841
0.000859721
0.000962267
0.00148456
0.00200225
0.00265051
0.00383715
0.00550849
0.00769958
0.0105055
0.014019
0.0183449
0.0235815
0.000869156
0.000968585
0.00149282
0.00201209
0.00266216
0.00384824
0.00552178
0.00771585
0.0105244
0.0140392
0.0183644
0.0236096
0.000879573
0.000975496
0.00150156
0.00202269
0.00267554
0.00386461
0.00554288
0.00774235
0.0105557
0.0140748
0.0184046
0.0236618
0.000891849
0.000982983
0.00151086
0.00203407
0.00269106
0.00388758
0.00557342
0.00778133
0.010603
0.0141298
0.0184666
0.0237191
0.000906077
0.000992124
0.00152223
0.0020478
0.00271129
0.00392117
0.00561826
0.00783792
0.0106712
0.0142093
0.0185587
0.0238416
0.000921819
0.000996597
0.00152989
0.00205862
0.00273112
0.0039598
0.00567309
0.0079101
0.0107608
0.0143157
0.0186771
0.0239248
0.000961039
0.00103324
0.00156284
0.0020972
0.00279741
0.00405821
0.00579382
0.00805005
0.0109157
0.0144801
0.01885
0.0241662
0.000714784
0.00091326
0.00150327
0.00203015
0.00272474
0.00400426
0.00575901
0.00804182
0.0109425
0.0145542
0.0189817
0.0243025
0.119294
0.102395
0.15874
0.256512
0.0786346
0.056657
0.138667
0.0576767
0.136441
0.0928322
0.238176
0.136532
0.182375
0.0806126
0.169805
0.0953411
0.0901889
0.157335
0.136926
0.138769
0.109602
0.136445
0.0923705
0.16463
0.133368
0.206374
0.192661
0.0976776
0.0595472
0.166414
0.116896
0.134572
0.0886134
0.101051
0.137682
0.126859
0.420094
0.131754
0.0929035
0.114026
0.0904733
0.127749
0.0658374
0.135659
0.140751
0.179157
0.136399
0.127087
0.0991803
0.164578
0.136323
0.131677
0.16703
0.082097
0.0483702
0.0774721
0.13776
0.139383
0.140066
0.137541
0.0512889
0.0410387
0.107814
0.193431
0.120268
0.0696681
0.139201
0.129894
0.109718
0.0379131
0.130974
0.127854
0.128279
0.0994991
0.129956
0.104726
0.0457077
0.137084
0.0764561
0.0505377
0.0502708
0.140054
0.137686
0.203907
0.135955
0.126466
0.140091
0.129169
0.140114
0.0688774
0.217502
0.148546
0.0891581
0.138706
0.138621
0.233967
0.139809
0.134037
0.248301
0.138459
0.135458
0.0687089
0.0992663
0.175668
0.1384
0.202306
0.1386
0.0766973
0.11769
0.139222
0.14007
0.139244
0.125073
0.219754
0.202424
0.116038
0.0934296
0.0497485
0.0915451
0.134618
0.103282
0.152496
0.134788
0.0943274
0.1548
0.0665615
0.0680365
0.0957035
0.147913
0.139492
0.139585
0.0613146
0.17144
0.139173
0.136247
0.031401
0.0606779
0.133786
0.0329485
0.137325
0.0397898
0.0890678
0.102456
0.140053
0.139912
0.139875
0.13566
0.122146
0.140054
0.0795839
0.132184
0.0748475
0.111481
0.112046
0.137026
0.15665
0.127115
0.115354
0.18744
0.136352
0.134294
0.122003
0.141769
0.0833353
0.0824056
0.207418
0.139782
0.0346465
0.103031
0.161657
0.18401
0.0204601
0.129926
0.158892
0.138134
0.13169
0.132336
0.0828386
0.137157
0.0839566
0.0994908
0.0670042
0.134521
0.139071
0.0505306
0.0717331
0.137914
0.161058
0.136635
0.137527
0.138133
0.13774
0.252973
0.135182
0.142842
0.216373
0.137539
0.153918
0.0961858
0.0998564
0.152495
0.0303688
0.0435799
0.100793
0.132664
0.126224
0.13935
0.22213
0.137496
0.0294243
0.134225
0.0543901
0.123251
0.0978101
0.062001
0.132804
0.13788
0.136941
0.138812
0.16816
0.223596
0.138478
0.131228
0.0478954
0.139873
0.14726
0.0772431
0.0958106
0.109078
0.0981247
0.0806361
0.0949183
0.135553
0.0474392
0.11192
0.151266
0.0909821
0.0413257
0.0705774
0.129961
0.139998
0.264246
0.138228
0.110339
0.120095
0.0725306
0.051842
0.138853
0.108137
0.124887
0.13979
0.0450149
0.0718986
0.104298
0.179232
0.242084
0.0479318
0.125535
0.200983
0.133804
0.0630492
0.130881
0.108501
0.17975
0.147589
0.139986
0.187976
0.192952
0.131755
0.110559
0.137909
0.117481
0.140013
0.136868
0.125775
0.134154
0.126437
0.101091
0.0967024
0.0996311
0.130838
0.137748
0.13574
0.0640178
0.115755
0.0839131
0.131377
0.135118
0.208713
0.138418
0.132986
0.118595
0.137877
0.0802862
0.125039
0.103147
0.129272
0.0945961
0.139388
0.139178
0.0928513
0.0535955
0.205968
0.074408
0.261281
0.0822473
0.134986
0.138999
0.136143
0.0304005
0.0993842
0.238914
0.0789187
0.152128
0.125647
0.0935316
0.139725
0.0725841
0.0539116
0.0768839
0.131314
0.0986912
0.134115
0.137965
0.160997
0.141201
0.0478363
0.139411
0.128111
0.134169
0.128307
0.137506
0.127059
0.135651
0.139989
0.119497
0.069746
0.042884
0.116025
0.0836888
0.0835978
0.131717
0.109464
0.097062
0.151128
0.128047
0.145241
0.0976168
0.135679
0.129919
0.139502
0.105314
0.0759248
0.130869
0.137057
0.104191
0.121072
0.128334
0.112282
0.129195
0.0946057
0.140029
0.126249
0.232409
0.132301
0.138087
0.138778
0.10403
0.117079
0.138613
0.135124
0.0857668
0.133463
0.13025
0.102187
0.137686
0.126235
0.0810204
0.138627
0.133756
0.134863
0.100298
0.139772
0.0929767
0.108505
0.0598399
0.0352456
0.0608862
0.120322
0.132609
0.138286
0.139883
0.0937173
0.134966
0.221223
0.106881
0.16747
0.0377815
0.0494496
0.13167
0.0494169
0.146269
0.11874
0.130967
0.135226
0.0541618
0.099344
0.0355065
0.195591
0.0967961
0.139232
0.106217
0.123669
0.140053
0.105982
0.113807
0.207463
0.119914
0.134852
0.0984961
0.0888169
0.137537
0.179834
0.0726667
0.187541
0.0454144
0.065178
0.137718
0.0928269
0.132438
0.062667
0.138299
0.0848653
0.138916
0.139039
0.133819
0.137503
0.114743
0.0627747
0.0714152
0.135044
0.118128
0.149769
0.0990677
0.18403
0.136789
0.123778
0.135442
0.136054
0.1538
0.13325
0.138287
0.112986
0.0306593
0.20638
0.123672
0.128337
0.192731
0.14805
0.1495
0.176601
0.137089
0.109758
0.0930438
0.13918
0.207575
0.0620708
0.139714
0.0360728
0.134395
0.0821269
0.131485
0.0725867
0.108181
0.0444783
0.0693236
0.043228
0.121256
0.13596
0.100829
0.0594352
0.138044
0.138534
0.136414
0.0551206
0.0763312
0.126494
0.117834
0.140096
0.1401
0.227535
0.064867
0.109137
0.13643
0.102185
0.172097
0.0651075
0.098933
0.126834
0.0461289
0.130001
0.103546
0.200024
0.140218
0.110464
0.138576
0.125934
0.116303
0.10413
0.142756
0.108863
0.096921
0.210584
0.142586
0.139956
0.103749
0.0451965
0.0564575
0.124687
0.105747
0.139691
0.0925931
0.130441
0.12929
0.12583
0.138357
0.137792
0.138322
0.119064
0.0575839
0.132948
0.133143
0.102436
0.125037
0.135552
0.0631885
0.0752959
0.12855
0.121751
0.118922
0.138123
0.13679
0.221083
0.139862
0.137718
0.116391
0.139873
0.137067
0.121024
0.158715
0.0546618
0.136434
0.130501
0.13778
0.0475995
0.0629144
0.0651418
0.157101
0.146404
0.13644
0.0820525
0.139105
0.0714343
0.120574
0.132674
0.0459711
0.133344
0.199557