/*--------------------------------*- C++ -*----------------------------------*\
| =========                 |                                                 |
| \\      /  F ield         | OpenFOAM: The Open Source CFD Toolbox           |
|  \\    /   O peration     | Version:  2.3.0                                 |
|   \\  /    A nd           | Web:      www.OpenFOAM.org                      |
|    \\/     M anipulation  |                                                 |
\*---------------------------------------------------------------------------*/
FoamFile
{
    version     2.0;
    format      ascii;
    class       surfaceScalarField;
    location    "4000";
    object      phi;
}
// * * * * * * * * * * * * * * * * * * * * * * * * * * * * * * * * * * * * * //

dimensions      [0 3 -1 0 0 0 0];

internalField   nonuniform List<scalar> 
13381
(
-0.0215936
-0.0237021
0.0269934
0.0183026
-0.0242258
-0.019525
0.0221572
-0.0262429
-0.0160724
0.0180894
-0.0276398
-0.0132005
0.0145975
-0.028418
-0.0108029
0.0115811
-0.0286227
-0.00879669
0.00900135
-0.0283385
-0.00712025
0.00683609
-0.0276749
-0.00572447
0.00506082
-0.0267375
-0.00457029
0.0036329
-0.0256143
-0.00362808
0.0025049
-0.0244017
-0.00286935
0.00165672
-0.00225765
-0.0233493
0.00120532
-0.0185414
-0.0211742
0.0160135
-0.0203761
-0.0176903
-0.0216509
-0.0147975
-0.0224509
-0.0124005
-0.0228356
-0.0104181
-0.0228511
-0.00878123
-0.0225367
-0.00743464
-0.0219311
-0.00633003
-0.0210752
-0.00542618
-0.0200088
-0.00469447
-0.018777
-0.00410123
-0.00362768
-0.0174069
-0.0161704
-0.0191083
0.0141045
-0.0175991
-0.0162616
-0.0185039
-0.0138927
-0.0189701
-0.0119343
-0.0190782
-0.01031
-0.018894
-0.00896546
-0.0184738
-0.00785477
-0.0178683
-0.00693558
-0.0171158
-0.00617872
-0.0162539
-0.00555634
-0.0153081
-0.00504701
-0.00463162
-0.0143042
-0.0141434
-0.0173698
0.012405
-0.0153341
-0.0150709
-0.0160655
-0.0131613
-0.0164258
-0.011574
-0.0164807
-0.0102551
-0.0162868
-0.00915937
-0.0158942
-0.00824736
-0.0153421
-0.00748764
-0.014664
-0.00685689
-0.0138885
-0.00633181
-0.0130394
-0.00589613
-0.00553768
-0.0121333
-0.0124255
-0.0158725
0.0109282
-0.0134384
-0.014058
-0.0140542
-0.0125456
-0.0143427
-0.0112855
-0.0143684
-0.0102294
-0.0141817
-0.00934607
-0.0138233
-0.00860576
-0.0133291
-0.00798181
-0.0127265
-0.0074595
-0.0120391
-0.0070192
-0.011286
-0.00664929
-0.00634044
-0.0104832
-0.0109677
-0.014556
0.0096512
-0.011854
-0.0131717
-0.0123908
-0.0120088
-0.0126409
-0.0110354
-0.012659
-0.0102112
-0.0124893
-0.00951583
-0.012168
-0.00892698
-0.0117232
-0.00842662
-0.0111831
-0.00799968
-0.0105653
-0.00763696
-0.00988605
-0.00732853
-0.00706623
-0.00916026
-0.00971996
-0.0133884
0.00855241
-0.0105068
-0.0123848
-0.0109827
-0.0115329
-0.0112065
-0.0108116
-0.0112218
-0.0101959
-0.011069
-0.00966865
-0.0107804
-0.00921558
-0.010383
-0.00882397
-0.00989537
-0.00848736
-0.00933823
-0.00819411
-0.00872533
-0.00794142
-0.00772394
-0.00806763
-0.00864781
-0.0123502
0.0076096
-0.00935335
-0.0116793
-0.00977872
-0.0111075
-0.00997966
-0.0106107
-0.0099943
-0.0101813
-0.00986049
-0.00980247
-0.00960172
-0.00947435
-0.00924206
-0.00918364
-0.00880351
-0.0089259
-0.0082992
-0.00869841
-0.00774326
-0.00849736
-0.00832089
-0.00714631
-0.00771604
-0.0114184
0.00678422
-0.00834833
-0.011047
-0.0087354
-0.0107205
-0.00891851
-0.0104276
-0.00893506
-0.0101647
-0.00881294
-0.00992459
-0.00858113
-0.00970616
-0.00825842
-0.00950634
-0.00786093
-0.00932339
-0.00740408
-0.00915526
-0.0068999
-0.00900154
-0.00886241
-0.00635838
-0.00690496
0.00605858
-0.010572
-0.00747434
-0.0104776
-0.00782397
-0.0103708
-0.00799311
-0.0102584
-0.00800603
-0.0101518
-0.00789855
-0.0100321
-0.00769089
-0.00991383
-0.00740057
-0.00979667
-0.00704068
-0.00968328
-0.00662544
-0.00957051
-0.00616851
-0.00945846
-0.00567695
-0.00935398
-0.0207682
-0.00206267
-0.000518441
-0.0185779
-0.00226204
7.16869e-05
-0.0165336
-0.00257451
0.000530265
-0.0145839
-0.00300609
0.00105638
-0.012742
-0.00357328
0.00173131
-0.0110503
-0.00430317
0.00261152
-0.00957425
-0.00523114
0.00375505
-0.00839244
-0.00640057
0.00521877
-0.00758734
-0.00786557
0.00706047
-0.00723712
-0.00969351
0.00934329
-0.00741465
-0.0119701
0.0121477
-0.0148094
0.0155896
-0.00819485
-0.0159653
-0.00350427
-0.0145276
-0.00369973
-0.0131321
-0.00397007
-0.011811
-0.00432713
-0.01059
-0.00479434
-0.00949936
-0.00539376
-0.00857277
-0.00615773
-0.00784778
-0.00712556
-0.00737168
-0.00834167
-0.00720397
-0.00986122
-0.00742186
-0.0117522
-0.0141066
-0.00812467
-0.0132806
-0.00452781
-0.0122661
-0.00471421
-0.0112763
-0.00495993
-0.010324
-0.0052794
-0.00942781
-0.00569055
-0.00861245
-0.00620912
-0.00790766
-0.00686253
-0.00735573
-0.00767749
-0.00700628
-0.00869111
-0.0069208
-0.0099467
-0.0071726
-0.0115004
-0.0134321
-0.00784709
-0.0112213
-0.00543987
-0.0103441
-0.00559133
-0.00951091
-0.00579314
-0.00873307
-0.00605724
-0.00802526
-0.00639835
-0.00740564
-0.00682875
-0.0068982
-0.00736997
-0.00653238
-0.00804331
-0.00634573
-0.00887776
-0.00638594
-0.00990649
-0.00671521
-0.0111712
-0.0127285
-0.00741879
-0.00967712
-0.00624596
-0.00891224
-0.0063562
-0.00819542
-0.00650997
-0.00753679
-0.00671587
-0.00694984
-0.0069853
-0.00644969
-0.0073289
-0.00605756
-0.00776209
-0.00579846
-0.00830241
-0.00570501
-0.00897121
-0.00581868
-0.00979281
-0.00618998
-0.0107999
-0.0120403
-0.00687817
-0.00843331
-0.0069729
-0.00775013
-0.00703938
-0.00711594
-0.00714416
-0.00654179
-0.00729001
-0.0060396
-0.00748748
-0.00562327
-0.00774523
-0.00531154
-0.00807383
-0.00512842
-0.00848553
-0.00510179
-0.00899783
-0.00526705
-0.00962756
-0.00566722
-0.0103997
-0.0113409
-0.00636659
-0.00741143
-0.00762911
-0.00679532
-0.00765548
-0.00623017
-0.00770931
-0.00572271
-0.00779747
-0.00528446
-0.00792573
-0.00492973
-0.00809996
-0.00467552
-0.00832804
-0.00454185
-0.0086192
-0.00455545
-0.00898423
-0.00474805
-0.00943496
-0.00515813
-0.00998961
-0.0106692
-0.00582982
-0.00654999
-0.00822542
-0.00599463
-0.00821084
-0.00548623
-0.00821771
-0.00503306
-0.00825064
-0.00464731
-0.00831148
-0.00434014
-0.00840714
-0.00412825
-0.00853993
-0.00402984
-0.00871761
-0.00406868
-0.00894539
-0.00427569
-0.00922795
-0.00468362
-0.00958168
-0.0100172
-0.00533566
-0.0058164
-0.0087674
-0.00531243
-0.00871482
-0.00485377
-0.00867637
-0.00444796
-0.00865645
-0.00410478
-0.00865466
-0.00383667
-0.00867525
-0.00365741
-0.00871919
-0.0035837
-0.00879132
-0.00363777
-0.00889132
-0.00384793
-0.00901779
-0.00424518
-0.00918443
-0.00939507
-0.00486732
-0.00518426
-0.0092601
-0.00472781
-0.00917126
-0.00431319
-0.00909099
-0.0039481
-0.00902154
-0.00364165
-0.00896111
-0.0034055
-0.00891139
-0.00325153
-0.00887316
-0.00319826
-0.00884459
-0.00326106
-0.00882852
-0.00346655
-0.00881229
-0.0038439
-0.00880708
-0.00881013
-0.00442884
0.00367869
-0.00157509
0.00158664
-0.00369024
0.00360011
-0.00163467
0.00171325
0.00351345
-0.00143306
0.00151972
0.00342585
-0.0010946
0.0011822
0.00331686
-0.000699585
0.000808571
0.00315259
-0.00029302
0.000457298
0.00289222
0.000107136
0.00015323
0.00249015
0.000502538
-0.000100465
0.00189349
0.000906744
-0.000310087
0.00103496
0.00134699
-0.000488446
-0.000179437
0.00186504
-0.000650643
0.00252467
-0.00190734
-0.00079676
0.00324611
-0.00145747
-0.00336373
0.00306213
-0.0014507
0.00285087
-0.0012218
0.00262332
-0.00086705
0.00237061
-0.000446874
0.00207103
6.56798e-06
0.00169612
0.000482039
0.00121434
0.00098432
0.000593833
0.00152726
-0.00019182
0.00213264
-0.00114424
0.00281746
0.00357394
-0.00219351
0.00272878
-0.00126889
-0.00291736
0.002477
-0.00119891
0.00220158
-0.000946386
0.00191616
-0.000581625
0.00161784
-0.00014855
0.00129195
0.000332451
0.000916984
0.000857009
0.000469898
0.00143141
-7.12671e-05
0.00206842
-0.000720198
0.00278157
-0.0014799
0.00357715
0.00443465
-0.0023406
0.00223243
-0.00104
-0.00246132
0.00195925
-0.00092573
0.0016753
-0.000662438
0.00139324
-0.00029956
0.00110936
0.000135324
0.000810515
0.000631299
0.000478358
0.00118917
9.18323e-05
0.00181793
-0.000368251
0.0025285
-0.00092207
0.00333539
-0.00158316
0.00423824
0.00522101
-0.00236952
0.0018031
-0.000803186
-0.00203991
0.00153975
-0.000662383
0.00127706
-0.000399745
0.00102233
-4.4834e-05
0.000770492
0.000387162
0.000508927
0.000892864
0.000220648
0.00147744
-0.000113105
0.00215169
-0.000514199
0.0029296
-0.0010018
0.00382299
-0.00159976
0.0048362
0.00594652
-0.00232526
0.00144344
-0.000578591
-0.00166803
0.00120835
-0.000427293
0.000978615
-0.000170011
0.00075797
0.000175811
0.000540226
0.000604906
0.000313889
0.0011192
6.31934e-05
0.00172814
-0.000230038
0.00244492
-0.000585975
0.00328553
-0.00102494
0.00426195
-0.00156835
0.00537961
0.00661343
-0.00223527
0.00115706
-0.00037859
-0.00135706
0.000953044
-0.00022328
0.000756506
2.65279e-05
0.000567817
0.000364499
0.000380558
0.000792165
0.000183296
0.00131646
-3.72836e-05
0.00194872
-0.000297785
0.00270542
-0.000616643
0.00360439
-0.00101548
0.00466079
-0.00151235
0.00587648
0.00722753
-0.00212645
0.00092812
-0.000205024
-0.00110169
0.000754581
-4.97416e-05
0.000588684
0.000192425
0.00042924
0.000523943
0.000268252
0.000953153
9.57531e-05
0.00148896
-0.000100975
0.00214545
-0.000334063
0.00293851
-0.000623665
0.00389399
-0.000987873
0.005025
-0.00144176
0.00633037
0.00778841
-0.00200265
0.00074316
-5.89043e-05
-0.000889279
0.000597597
9.58212e-05
0.000459043
0.000330979
0.000326042
0.000656943
0.000189534
0.00108966
3.73424e-05
0.00164115
-0.000140935
0.00232373
-0.000354301
0.00315187
-0.00061845
0.00415814
-0.00094868
0.00535523
-0.00136078
0.00674248
0.00830014
-0.00187251
0.000599265
5.95125e-05
-0.000717682
0.000473954
0.000221132
0.000354503
0.00045043
0.000244352
0.000767094
0.000127759
0.00120625
-5.53468e-06
0.00177445
-0.000173566
0.00249176
-0.000373039
0.00335135
-0.000611285
0.00439639
-0.000923214
0.00566716
-0.00129975
0.00711901
-0.00176854
0.00876892
-0.00263347
0.00375645
-0.00303032
-0.00372477
0.00531395
-0.00422264
-0.0048923
0.00655686
-0.00538933
-0.00591711
0.00768458
-0.00665977
-0.00672955
0.00893359
-0.00812115
-0.00727889
0.0103599
-0.00981053
-0.00752277
0.0120149
-0.011771
-0.00740937
0.0139601
-0.0140735
-0.00688181
0.0162543
-0.0167818
-0.00586829
0.0189712
-0.0199847
-0.00429182
0.0221985
-0.023775
0.0260293
-0.0282655
-0.00205567
-0.00311375
0.00467669
-0.00408718
0.00628737
-0.00512883
0.00759851
-0.00602702
0.00858277
-0.00671073
0.00961729
-0.00714867
0.0107978
-0.00730982
0.012176
-0.00714786
0.0137982
-0.0066151
0.0157215
-0.00564893
0.018005
-0.00416669
0.0207163
0.023947
-0.00208441
-0.0032673
0.0056034
-0.00417238
0.00719245
-0.00508039
0.00850651
-0.00586353
0.00936592
-0.00645251
0.0102063
-0.0068259
0.0111712
-0.00694633
0.0122964
-0.00677751
0.0136294
-0.00626955
0.0152135
-0.00536551
0.017101
-0.00399683
0.0193476
0.0220183
-0.00206812
-0.00324779
0.00648166
-0.00410412
0.00804878
-0.00490615
0.00930855
-0.00559143
0.0100512
-0.0061065
0.0107213
-0.00642606
0.0114908
-0.0065214
0.0123918
-0.00635472
0.0134627
-0.00588348
0.0147423
-0.00504995
0.0162675
-0.00378977
0.0180874
0.0202541
-0.00202551
-0.00313882
0.00729522
-0.00393544
0.0088454
-0.00465578
0.0100289
-0.00526051
0.0106559
-0.00571622
0.0111771
-0.00599457
0.0117691
-0.0060715
0.0124687
-0.00591614
0.0133073
-0.00548143
0.0143076
-0.00471694
0.015503
-0.00356462
0.0169351
0.0186454
-0.00195593
-0.00298653
0.00804648
-0.00371698
0.00957585
-0.00436605
0.010678
-0.00490548
0.0111953
-0.0053072
0.0115788
-0.00555378
0.0120157
-0.0056239
0.0125388
-0.00547669
0.0131601
-0.00507768
0.0139086
-0.00438394
0.0148092
-0.00333462
0.0158858
0.01718
-0.00186925
-0.00281386
0.0087339
-0.00348014
0.0102421
-0.00406164
0.0112595
-0.0045396
0.0116733
-0.00489992
0.0119391
-0.00512378
0.0122396
-0.00518272
0.0125978
-0.00505002
0.0130274
-0.00469072
0.0135493
-0.00405648
0.014175
-0.00310471
0.014934
0.0158429
-0.00176761
-0.00263296
0.00936421
-0.00323936
0.0108485
-0.00376047
0.0117806
-0.00418919
0.012102
-0.00450979
0.0122597
-0.00471035
0.0124401
-0.00476104
0.0126484
-0.0046413
0.0129077
-0.00431311
0.0132211
-0.00374116
0.013603
-0.00287584
0.0140687
0.0146291
-0.00166207
-0.00244747
0.00993918
-0.00299266
0.0113937
-0.00345894
0.0122469
-0.0038425
0.0124856
-0.0041372
0.0125544
-0.00431646
0.0126194
-0.00436621
0.0126982
-0.00425786
0.0127993
-0.00396092
0.0129242
-0.00344265
0.0130848
-0.00265673
0.0132828
0.0135285
-0.00155608
-0.0023015
0.0104721
-0.00279599
0.0118882
-0.00318461
0.0126355
-0.00352047
0.0128215
-0.0037865
0.0128204
-0.00395192
0.0127848
-0.00399622
0.0127425
-0.00389815
0.0127012
-0.00363236
0.0126584
-0.00316305
0.0126155
-0.00244971
0.0125694
0.0125285
-0.00144971
0.00279869
-0.00159342
0.00542604
-0.000970603
0.00816257
-0.000231644
0.0109785
0.000817005
0.0137267
0.0023126
0.0161876
0.0043752
0.0181533
0.00703564
0.0194511
0.0102832
0.0199882
0.0140605
0.0197983
0.0182793
0.0190594
0.0228961
0.0280318
0.018021
-0.000102739
-0.00149064
0.000564267
-0.00163768
0.00183553
-0.00150287
0.00367355
-0.00102101
0.00605153
-6.5366e-05
0.00888751
0.00153923
0.011909
0.00401412
0.0147166
0.00747562
0.016892
0.0118851
0.0181357
0.0170356
0.0183939
0.0226379
0.0285426
0.0178831
-9.97403e-05
-0.00139088
-0.000137333
-0.00160003
2.30742e-05
-0.0016633
0.000559932
-0.00155788
0.00167204
-0.00117749
0.00353613
-0.000324868
0.00618497
0.00136528
0.00938318
0.00427741
0.0126257
0.00864261
0.0152797
0.0143816
0.0168567
0.0210609
0.0281428
0.0172565
-6.4853e-06
-0.00138435
4.61304e-05
-0.00165262
0.000174721
-0.0017919
0.000431311
-0.00181448
0.000908644
-0.00165484
0.00176247
-0.0011787
0.00324921
-0.000121473
0.00557701
0.00194961
0.00864577
0.00557385
0.0119189
0.0111084
0.0146025
0.0183773
0.0266369
0.0161084
-5.3579e-06
-0.001379
1.37054e-05
-0.00167169
7.71382e-05
-0.00185535
0.000214045
-0.0019514
0.000473449
-0.00191425
0.000946546
-0.00165181
0.00180153
-0.000976459
0.0032949
0.00045623
0.00564836
0.0032204
0.00875864
0.00799812
0.0119898
0.0151461
0.0241612
0.0144655
-4.71232e-06
-0.0013743
1.90852e-05
-0.0016955
7.61433e-05
-0.00191241
0.000182027
-0.00205729
0.000364627
-0.00209685
0.000675308
-0.00196249
0.00121356
-0.00151471
0.00215346
-0.00048368
0.00376833
0.00160553
0.00627088
0.00549557
0.00943987
0.0119771
0.0211904
0.0124106
1.53977e-06
-0.00137585
2.45583e-05
-0.00171853
7.15251e-05
-0.00195938
0.000152913
-0.00213869
0.000288757
-0.00223269
0.000512381
-0.00218612
0.000888451
-0.00189078
0.00153742
-0.00113265
0.00266515
0.000477793
0.00455515
0.00360557
0.00733983
0.00919245
0.0179554
0.0105749
4.6979e-06
-0.00138056
3.04485e-05
-0.00174429
7.55631e-05
-0.0020045
0.000148084
-0.00221121
0.000261732
-0.00234634
0.000439713
-0.00236411
0.000725224
-0.0021763
0.00120247
-0.0016099
0.00202068
-0.000340421
0.00342597
0.00220028
0.00568543
0.006933
0.0149995
0.0086413
1.013e-05
-0.00139069
3.75953e-05
-0.00177176
8.1445e-05
-0.00204835
0.000147754
-0.00227753
0.000247676
-0.00244627
0.000398105
-0.00251454
0.000630344
-0.00240854
0.00100465
-0.00198421
0.00163273
-0.0009685
0.00270597
0.00112703
0.00450335
0.00513562
0.0122652
0.00723763
1.42381e-05
-0.00140493
4.27313e-05
-0.00180026
8.54487e-05
-0.00209107
0.000148
-0.00234008
0.000238808
-0.00253708
0.000371389
-0.00264712
0.00056869
-0.00260584
0.000875171
-0.00229069
0.00137459
-0.00146792
0.00221548
0.00028614
0.00363777
0.00371333
0.0100038
0.00589917
1.7128e-05
-0.00142206
4.53971e-05
-0.00182853
8.64229e-05
-0.00213209
0.000144629
-0.00239829
0.000227878
-0.00262032
0.000346715
-0.00276596
0.000518725
-0.00277785
0.000777648
-0.00254961
0.00118645
-0.00187672
0.00185922
-0.000386628
0.00298889
0.00258366
0.0081448
0.00484789
1.88128e-05
-0.00144087
4.55649e-05
-0.00185528
8.38143e-05
-0.00217034
0.000137764
-0.00245224
0.000213615
-0.00269618
0.000320556
-0.0028729
0.000473099
-0.00293039
0.000697471
-0.00277399
0.00104388
-0.00222314
0.00160313
-0.000945877
0.00253741
0.00164938
0.00656356
0.00411865
1.8418e-05
-0.00145929
4.25292e-05
-0.00187939
7.69221e-05
-0.00220473
0.000125002
-0.00250032
0.000192452
-0.00276363
0.000287156
-0.00296761
0.000420856
-0.00306409
0.000615078
-0.00296821
0.000910438
-0.0025185
0.00138166
-0.0014171
0.00216119
0.000869855
0.00525515
0.00346959
1.6397e-05
-0.00147569
3.69173e-05
-0.00189992
6.63239e-05
-0.00223414
0.000107793
-0.00254179
0.000165822
-0.00282166
0.000246993
-0.00304878
0.000360896
-0.003178
0.000523629
-0.00313094
0.000765929
-0.0027608
0.00114341
-0.00179458
0.00175386
0.000259399
0.00429188
0.00271714
1.43162e-05
-0.00149001
3.15413e-05
-0.00191714
5.64732e-05
-0.00225907
9.20359e-05
-0.00257735
0.000142196
-0.00287182
0.000212914
-0.0031195
0.000312239
-0.00327732
0.000454219
-0.00327293
0.000664552
-0.00297113
0.000990173
-0.0021202
0.00151603
-0.000266453
0.0033641
0.0024438
1.19487e-05
-0.00150196
2.57569e-05
-0.00193095
4.64897e-05
-0.00227981
7.6213e-05
-0.00260708
0.000118894
-0.0029145
0.000179459
-0.00318007
0.000265513
-0.00336338
0.000388535
-0.00339595
0.000570472
-0.00315307
0.000852025
-0.00240176
0.00130679
-0.000721219
0.00266789
0.00200301
9.68246e-06
-0.00151164
2.04245e-05
-0.00194169
3.70304e-05
-0.00229641
6.17326e-05
-0.00263178
9.75064e-05
-0.00295027
0.000149478
-0.00323204
0.000224308
-0.00343821
0.000333157
-0.0035048
0.000495772
-0.00331569
0.00074833
-0.00265431
0.00115614
-0.00112903
0.00192136
0.00190266
7.02008e-06
-0.00151866
1.45153e-05
-0.00194919
2.7164e-05
-0.00230906
4.63738e-05
-0.00265099
7.51923e-05
-0.00297909
0.000117612
-0.00327446
0.000180094
-0.00350069
0.000271776
-0.00359648
0.000409878
-0.00345379
0.000626139
-0.00287058
0.000975328
-0.00147822
0.00142463
0.00147206
4.40859e-06
-0.00152307
9.17713e-06
-0.00195396
1.82341e-05
-0.00231812
3.28278e-05
-0.00266558
5.53014e-05
-0.00300156
8.97355e-05
-0.00330889
0.000141537
-0.00355249
0.000219853
-0.0036748
0.000340756
-0.00357469
0.000534789
-0.00306461
0.000859151
-0.00180258
0.000792029
0.00149175
1.55624e-06
-0.00152462
3.85356e-06
-0.00195626
9.50438e-06
-0.00232377
1.95085e-05
-0.00267559
3.59655e-05
-0.00301802
6.19849e-05
-0.00333491
0.000102325
-0.00359283
0.000163666
-0.00373614
0.000258685
-0.00366971
0.000411538
-0.00321746
0.000667234
-0.00205827
0.000390168
0.00106909
-3.87795e-07
-0.00152423
4.44032e-07
-0.00195709
3.7782e-06
-0.0023271
1.07143e-05
-0.00268252
2.31374e-05
-0.00303044
4.39243e-05
-0.0033557
7.73435e-05
-0.00362625
0.000129804
-0.0037886
0.000212737
-0.00375264
0.000348323
-0.00335305
0.000578453
-0.0022884
-3.47056e-05
0.00100333
-1.73343e-06
-0.0015225
-2.39447e-06
-0.00195642
-1.09321e-06
-0.0023284
3.1648e-06
-0.00268678
1.21023e-05
-0.00303938
2.8326e-05
-0.00337192
5.555e-05
-0.00365347
9.95676e-05
-0.00383261
0.000170041
-0.00382312
0.000286154
-0.00346916
0.000484499
-0.00248675
-0.000372153
0.000821947
-2.47395e-06
-0.00152002
-4.1594e-06
-0.00195474
-4.35227e-06
-0.00232821
-2.06251e-06
-0.00268907
4.31186e-06
-0.00304575
1.7134e-05
-0.00338474
4.00094e-05
-0.00367635
7.82191e-05
-0.00387082
0.000141041
-0.00388594
0.000245526
-0.00357365
0.000422762
-0.00266398
-0.000684911
0.00073552
-3.09006e-06
-0.00151693
-5.78054e-06
-0.00195205
-7.28316e-06
-0.0023267
-6.68097e-06
-0.00268967
-2.63492e-06
-0.0030498
7.08733e-06
-0.00339447
2.58284e-05
-0.00369509
5.87624e-05
-0.00390376
0.000114238
-0.00394142
0.000208557
-0.00366796
0.000372193
-0.00282762
-0.000964806
0.000652087
-3.65751e-06
-0.00151327
-7.17299e-06
-0.00194853
-9.69239e-06
-0.00232418
-1.06991e-05
-0.00268866
-8.79276e-06
-0.0030517
-2.04359e-06
-0.00340121
1.26466e-05
-0.00370978
3.9841e-05
-0.00393095
8.74956e-05
-0.00398907
0.000169948
-0.00375042
0.000313939
-0.00297161
-0.00121955
0.000568685
-4.04803e-06
-0.00150922
-8.17746e-06
-0.0019444
-1.17927e-05
-0.00232057
-1.39939e-05
-0.00268646
-1.3893e-05
-0.0030518
-9.60584e-06
-0.0034055
1.4962e-06
-0.00372088
2.36375e-05
-0.00395309
6.38483e-05
-0.00402928
0.000135702
-0.00382227
0.000264771
-0.00310068
-0.00145047
0.000495687
-4.31685e-06
-0.0015049
-8.9878e-06
-0.00193972
-1.3061e-05
-0.00231649
-1.6484e-05
-0.00268304
-1.76079e-05
-0.00305068
-1.5493e-05
-0.00340762
-7.25544e-06
-0.00372912
1.07171e-05
-0.00397107
4.45929e-05
-0.00406316
0.000106734
-0.00388441
0.000221115
-0.00321506
-0.00166464
0.000435287
-4.49288e-06
-0.00150041
-9.50656e-06
-0.00193471
-1.42619e-05
-0.00231174
-1.81738e-05
-0.00267912
-2.06935e-05
-0.00304816
-1.97442e-05
-0.00340856
-1.36925e-05
-0.00373517
9.13516e-07
-0.00398567
2.95962e-05
-0.00409184
8.29335e-05
-0.00393775
0.000182598
-0.00331472
-0.00185353
0.000371495
-4.61974e-06
-0.00149578
-9.7341e-06
-0.00192959
-1.50358e-05
-0.00230643
-1.96843e-05
-0.00267447
-2.28817e-05
-0.00304496
-2.32389e-05
-0.00340821
-1.88953e-05
-0.00373951
-6.7455e-06
-0.00399782
1.81274e-05
-0.00411671
6.522e-05
-0.00398484
0.000153837
-0.00340334
-0.00202855
0.000328862
-4.73917e-06
-0.00149104
-1.0202e-05
-0.00192413
-1.57582e-05
-0.00230087
-2.10281e-05
-0.0026692
-2.50849e-05
-0.0030409
-2.67513e-05
-0.00340654
-2.4024e-05
-0.00374223
-1.44719e-05
-0.00400737
5.85109e-06
-0.00413703
4.41525e-05
-0.00402314
0.000113624
-0.00347281
-0.00213209
0.000217163
-4.71636e-06
-0.00148632
-1.0323e-05
-0.00191852
-1.63642e-05
-0.00229483
-2.20944e-05
-0.00266347
-2.67523e-05
-0.00303624
-2.89659e-05
-0.00340432
-2.69935e-05
-0.00374421
-1.7761e-05
-0.0040166
2.93973e-06
-0.00415773
4.23484e-05
-0.00406255
0.000114867
-0.00354533
-0.0022938
0.000276578
-4.95904e-06
-0.00148136
-1.0984e-05
-0.00191249
-1.74686e-05
-0.00228835
-2.41295e-05
-0.00265681
-2.98378e-05
-0.00303053
-3.3692e-05
-0.00340047
-3.35086e-05
-0.00374439
-2.67066e-05
-0.0040234
-8.78762e-06
-0.00417565
2.79256e-05
-0.00409926
9.66048e-05
-0.003614
-0.00238624
0.000189041
-5.27996e-06
-0.00147608
-1.18256e-05
-0.00190594
-1.94114e-05
-0.00228076
-2.67237e-05
-0.00264949
-3.39345e-05
-0.00302332
-3.94399e-05
-0.00339496
-4.18204e-05
-0.00374201
-3.81051e-05
-0.00402712
-2.41522e-05
-0.0041896
7.82698e-06
-0.00413124
7.28193e-05
-0.003679
-0.00253315
0.000219731
-5.76274e-06
-0.00147031
-1.29588e-05
-0.00189874
-2.10436e-05
-0.00227267
-2.98278e-05
-0.00264071
-3.8452e-05
-0.0030147
-4.60902e-05
-0.00338732
-5.13692e-05
-0.00373673
-5.22426e-05
-0.00402624
-4.55489e-05
-0.00419629
-2.56632e-05
-0.00415112
1.78915e-05
-0.00372255
-0.00260791
9.26528e-05
-5.99037e-06
-0.00146432
-1.36786e-05
-0.00189105
-2.24336e-05
-0.00226391
-3.18174e-05
-0.00263132
-4.14182e-05
-0.00300509
-5.03481e-05
-0.00337839
-5.70508e-05
-0.00373002
-5.98114e-05
-0.00402348
-5.54385e-05
-0.00420066
-3.89732e-05
-0.00416758
-2.22991e-08
-0.0037615
-0.00269317
8.52405e-05
-6.34742e-06
-0.00145797
-1.43823e-05
-0.00188301
-2.3918e-05
-0.00225438
-3.42666e-05
-0.00262097
-4.49684e-05
-0.00299439
-5.51015e-05
-0.00336825
-6.35444e-05
-0.00372158
-6.79276e-05
-0.00401909
-6.52224e-05
-0.00420337
-4.95664e-05
-0.00418324
-9.55213e-06
-0.00380151
-0.00279331
9.05869e-05
-6.71846e-06
-0.00145124
-1.548e-05
-0.00187424
-2.55915e-05
-0.00224426
-3.69192e-05
-0.00260964
-4.89065e-05
-0.0029824
-6.09117e-05
-0.00335625
-7.15849e-05
-0.0037109
-7.9453e-05
-0.00401122
-8.15537e-05
-0.00420126
-7.32565e-05
-0.00419153
-4.66833e-05
-0.00382808
-0.00281987
-2.01208e-05
-7.04826e-06
-0.00144419
-1.61324e-05
-0.00186516
-2.70751e-05
-0.00223332
-3.92341e-05
-0.00259748
-5.22596e-05
-0.00296937
-6.54112e-05
-0.00334309
-7.78211e-05
-0.00369849
-8.7448e-05
-0.0040016
-9.16811e-05
-0.00419703
-8.5534e-05
-0.00419768
-5.8417e-05
-0.0038552
-0.00292411
4.58203e-05
-7.44005e-06
-0.00143674
-1.71657e-05
-0.00185543
-2.86625e-05
-0.00222182
-4.18268e-05
-0.00258431
-5.59572e-05
-0.00295524
-7.08195e-05
-0.00332823
-8.52399e-05
-0.00368407
-9.81118e-05
-0.00398872
-0.000107004
-0.00418813
-0.000108107
-0.00419657
-9.43415e-05
-0.00386896
-0.00294026
-7.81876e-05
-7.70192e-06
-0.00142904
-1.78485e-05
-0.00184528
-3.00902e-05
-0.00220957
-4.38178e-05
-0.00257058
-5.90077e-05
-0.00294005
-7.48299e-05
-0.0033124
-9.07459e-05
-0.00366815
-0.000105116
-0.00397435
-0.000115938
-0.00417731
-0.000119142
-0.00419337
-0.000106474
-0.00388163
-0.00300016
-4.6573e-05
-8.0838e-06
-0.00142095
-1.87313e-05
-0.00183462
-3.14586e-05
-0.00219684
-4.61747e-05
-0.00255586
-6.2241e-05
-0.00292398
-7.95373e-05
-0.00329511
-9.71014e-05
-0.00365058
-0.000114151
-0.0039573
-0.000128743
-0.00416272
-0.000137963
-0.00418415
-0.000135555
-0.00388404
-0.00302043
-0.000115279
-8.44617e-06
-0.0014125
-1.9347e-05
-0.00182372
-3.26474e-05
-0.00218354
-4.78185e-05
-0.00254069
-6.47924e-05
-0.002907
-8.29135e-05
-0.00327698
-0.000101641
-0.00363185
-0.000120044
-0.00393889
-0.000136682
-0.00414608
-0.000149046
-0.00417178
-0.000151989
-0.00388109
-0.00303908
-0.000133333
-8.493e-06
-0.001404
-1.97608e-05
-0.00181245
-3.36245e-05
-0.00216967
-4.94695e-05
-0.00252484
-6.70593e-05
-0.00288941
-8.58881e-05
-0.00325815
-0.000105531
-0.00361221
-0.000124804
-0.00391962
-0.000142632
-0.00412825
-0.000156622
-0.00415779
-0.000162302
-0.00387541
-0.00304821
-0.000153175
-8.66437e-06
-0.00139533
-2.04143e-05
-0.00180069
-3.45664e-05
-0.00215552
-5.09863e-05
-0.00250842
-6.92464e-05
-0.00287115
-8.8937e-05
-0.00323846
-0.000109114
-0.00359203
-0.000129082
-0.00389965
-0.000146715
-0.00411061
-0.000160067
-0.00414443
-0.000164022
-0.00387145
-0.0030655
-0.000146731
-8.98649e-06
-0.00138634
-2.10691e-05
-0.00178861
-3.60518e-05
-0.00214053
-5.32929e-05
-0.00249117
-7.25272e-05
-0.00285191
-9.31799e-05
-0.0032178
-0.000114652
-0.00357056
-0.000135412
-0.00387889
-0.00015386
-0.00409216
-0.000166505
-0.00413179
-0.000168465
-0.00386949
-0.00308944
-0.000144521
-9.46396e-06
-0.00137687
-2.23146e-05
-0.00177575
-3.80211e-05
-0.00212483
-5.64472e-05
-0.00247274
-7.6976e-05
-0.00283138
-9.94755e-05
-0.0031953
-0.000122946
-0.00354708
-0.000146533
-0.0038553
-0.000168346
-0.00407035
-0.000185913
-0.00411422
-0.000193784
-0.00386162
-0.0030929
-0.000190324
-9.94361e-06
-0.00136692
-2.35081e-05
-0.00176218
-4.03074e-05
-0.00210802
-5.98907e-05
-0.00245316
-8.18332e-05
-0.00280944
-0.000105939
-0.00317119
-0.000131697
-0.00352132
-0.000157788
-0.00382921
-0.000182829
-0.00404531
-0.000204292
-0.00409275
-0.000217974
-0.00384793
-0.00310669
-0.000204179
-1.04773e-05
-0.00135644
-2.48029e-05
-0.00174785
-4.24122e-05
-0.00209041
-6.31822e-05
-0.00243239
-8.65991e-05
-0.00278602
-0.000112682
-0.00314511
-0.000140662
-0.00349334
-0.000169969
-0.0037999
-0.000199081
-0.00401619
-0.000226148
-0.00406568
-0.000248565
-0.00382551
-0.00307668
-0.000278573
-1.08191e-05
-0.00134561
-2.57341e-05
-0.00173293
-4.4293e-05
-0.00207185
-6.58767e-05
-0.0024108
-9.06062e-05
-0.00276129
-0.000118006
-0.00311771
-0.000147699
-0.00346365
-0.000178839
-0.00376875
-0.000209996
-0.00398503
-0.000238887
-0.00403679
-0.000260656
-0.00380374
-0.0030823
-0.000255037
-1.12064e-05
-0.0013344
-2.67496e-05
-0.00171739
-4.59651e-05
-0.00205263
-6.86853e-05
-0.00238808
-9.45022e-05
-0.00273547
-0.000123221
-0.00308899
-0.000154663
-0.00343221
-0.000187812
-0.0037356
-0.000221456
-0.00395139
-0.000252618
-0.00400563
-0.0002755
-0.00378086
-0.00308234
-0.000275458
-1.14815e-05
-0.00132292
-2.78264e-05
-0.00170104
-4.77222e-05
-0.00203273
-7.12244e-05
-0.00236457
-9.81534e-05
-0.00270854
-0.000128344
-0.00305879
-0.000161326
-0.00339922
-0.000196816
-0.00370011
-0.000233544
-0.00391466
-0.000269692
-0.00396948
-0.000301596
-0.00374895
-0.00305339
-0.000330546
-1.16938e-05
-0.00131122
-2.83346e-05
-0.00168439
-4.92832e-05
-0.00201178
-7.38091e-05
-0.00234004
-0.000101796
-0.00268055
-0.000133
-0.00302759
-0.000167343
-0.00336488
-0.00020403
-0.00366342
-0.000242205
-0.00387648
-0.000279506
-0.00393217
-0.000310245
-0.00371821
-0.00304892
-0.000314711
-1.23415e-05
-0.00129887
-2.9835e-05
-0.0016669
-5.16276e-05
-0.00198999
-7.73356e-05
-0.00231433
-0.000106683
-0.0026512
-0.000139583
-0.00299468
-0.000175637
-0.00332882
-0.00021474
-0.00362432
-0.00025601
-0.00383521
-0.000298285
-0.0038899
-0.000337762
-0.00367873
-0.00303101
-0.000355668
-1.28231e-05
-0.00128604
-3.11551e-05
-0.00164856
-5.4184e-05
-0.00196696
-8.11715e-05
-0.00228734
-0.000111979
-0.00262039
-0.000146396
-0.00296027
-0.000184478
-0.00329074
-0.000225874
-0.00358292
-0.000270826
-0.00379025
-0.000319319
-0.0038414
-0.000373062
-0.00362499
-0.00294164
-0.000462426
-1.32677e-05
-0.00127277
-3.25842e-05
-0.00162924
-5.66842e-05
-0.00194285
-8.51255e-05
-0.0022589
-0.000117325
-0.00258819
-0.000153277
-0.00292431
-0.000192306
-0.00325171
-0.000233969
-0.00354126
-0.000276924
-0.0037473
-0.000319641
-0.00379868
-0.000357241
-0.00358739
-0.00294754
-0.000351345
-1.45467e-05
-0.00125822
-3.51765e-05
-0.00160861
-6.1171e-05
-0.00191686
-9.15392e-05
-0.00222853
-0.000126297
-0.00255343
-0.000164944
-0.00288566
-0.000207429
-0.00320922
-0.000253007
-0.00349568
-0.000301088
-0.00369922
-0.000350057
-0.00374971
-0.000397382
-0.00354006
-0.00289314
-0.000451772
-1.54923e-05
-0.00124272
-3.78038e-05
-0.00158629
-6.57708e-05
-0.00188889
-9.85915e-05
-0.00219571
-0.00013594
-0.00251608
-0.000177715
-0.00284389
-0.000223714
-0.00316322
-0.00027363
-0.00344576
-0.000327019
-0.00364582
-0.00038338
-0.00369335
-0.000442657
-0.00348078
-0.00283335
-0.000502451
-1.67363e-05
-0.00122598
-4.08097e-05
-0.00156221
-7.07716e-05
-0.00185892
-0.000106137
-0.00216034
-0.000146284
-0.00247593
-0.000191234
-0.00279894
-0.000240611
-0.00311384
-0.000294383
-0.00339198
-0.000351969
-0.00358824
-0.000412972
-0.00363234
-0.000475773
-0.00341798
-0.00277225
-0.000536871
-1.80693e-05
-0.00120791
-4.47784e-05
-0.0015355
-7.6486e-05
-0.00182721
-0.000114463
-0.00212236
-0.000157825
-0.00243257
-0.000206
-0.00275076
-0.000259
-0.00306084
-0.000316168
-0.00333482
-0.000377108
-0.0035273
-0.000440724
-0.00356873
-0.000504809
-0.00335389
-0.00271767
-0.000559381
-2.00103e-05
-0.00118789
-4.77822e-05
-0.00150773
-8.38597e-05
-0.00179113
-0.000124565
-0.00208165
-0.000171549
-0.00238558
-0.000224153
-0.00269815
-0.000281533
-0.00300346
-0.000343257
-0.00327309
-0.000408484
-0.00346207
-0.000476091
-0.00350112
-0.000545156
-0.00328482
-0.00264557
-0.000617254
-2.17798e-05
-0.00116611
-5.31313e-05
-0.00147637
-9.19659e-05