/*--------------------------------*- C++ -*----------------------------------*\
| =========                 |                                                 |
| \\      /  F ield         | OpenFOAM: The Open Source CFD Toolbox           |
|  \\    /   O peration     | Version:  2.3.0                                 |
|   \\  /    A nd           | Web:      www.OpenFOAM.org                      |
|    \\/     M anipulation  |                                                 |
\*---------------------------------------------------------------------------*/
FoamFile
{
    version     2.0;
    format      ascii;
    class       volScalarField;
    location    "10000";
    object      nut;
}
// * * * * * * * * * * * * * * * * * * * * * * * * * * * * * * * * * * * * * //

dimensions      [0 2 -1 0 0 0 0];

internalField   nonuniform List<scalar> 
122273
(
0.0406532
0.0394325
0.0382291
0.0370424
0.0358723
0.03472
0.0335848
0.0324669
0.0313673
0.0302848
0.0292196
0.0281714
0.0271407
0.0261271
0.0251302
0.0241503
0.0231866
0.0222389
0.0213075
0.0203925
0.0194929
0.0186087
0.0177401
0.0168863
0.0160473
0.0152233
0.0144144
0.0136206
0.0128418
0.0120785
0.0113304
0.0105989
0.00988441
0.0091883
0.00851297
0.00786132
0.00723663
0.00664535
0.00609116
0.00557711
0.00508943
0.0045532
0.0036619
0.0414163
0.0403162
0.0392307
0.0381584
0.0371
0.0360557
0.035025
0.0340081
0.0330056
0.0320168
0.0310415
0.0300796
0.0291312
0.0281955
0.0272735
0.0263647
0.0254683
0.0245844
0.0237137
0.0228553
0.0220096
0.0211772
0.0203569
0.0195489
0.0187544
0.0179728
0.0172052
0.0164521
0.0157143
0.0149922
0.0142871
0.0136019
0.0129391
0.0123005
0.0116915
0.0111167
0.0105816
0.0100955
0.00966668
0.00930306
0.00901467
0.00880949
0.00868933
0.0421347
0.0411421
0.0401603
0.0391894
0.0382286
0.0372795
0.0363407
0.0354125
0.0344949
0.0335884
0.0326918
0.0318059
0.0309294
0.0300628
0.0292066
0.0283602
0.0275233
0.0266962
0.0258792
0.025072
0.0242752
0.0234888
0.0227122
0.0219466
0.0211922
0.0204496
0.0197199
0.0190033
0.0183016
0.017616
0.0169484
0.0163012
0.0156773
0.0150803
0.0145154
0.0139851
0.0134961
0.0130553
0.0126688
0.0123413
0.0120807
0.0118894
0.0117679
0.0428071
0.0419102
0.0410211
0.0401391
0.0392649
0.0383988
0.0375402
0.0366895
0.0358471
0.0350117
0.0341838
0.0333636
0.0325501
0.0317437
0.0309446
0.0301523
0.0293669
0.028589
0.0278185
0.0270554
0.0263001
0.0255531
0.0248143
0.0240845
0.0233645
0.0226544
0.0219555
0.0212692
0.0205969
0.0199405
0.019301
0.0186821
0.0180863
0.0175173
0.0169793
0.0164771
0.0160146
0.015598
0.0152317
0.0149221
0.0146726
0.0144861
0.0143633
0.0434374
0.0426238
0.0418155
0.0410117
0.0402136
0.03942
0.0386317
0.0378491
0.0370713
0.036298
0.0355298
0.0347667
0.0340078
0.0332533
0.0325041
0.0317584
0.0310174
0.0302817
0.0295509
0.0288245
0.0281043
0.0273908
0.0266833
0.0259833
0.0252918
0.0246086
0.0239356
0.023274
0.0226249
0.0219903
0.0213727
0.0207748
0.0201989
0.0196491
0.0191293
0.0186435
0.0181969
0.0177932
0.0174387
0.0171368
0.0168925
0.0167063
0.0165809
0.0440242
0.0432838
0.042546
0.0418116
0.0410796
0.0403502
0.0396237
0.0388997
0.0381781
0.037459
0.0367427
0.0360287
0.0353167
0.0346079
0.0339013
0.033196
0.0324929
0.0317928
0.0310954
0.0304009
0.0297106
0.0290249
0.0283436
0.0276684
0.0269999
0.0263392
0.025688
0.0250466
0.0244157
0.0237979
0.0231968
0.0226141
0.0220527
0.0215172
0.0210094
0.0205345
0.020097
0.0197022
0.0193535
0.0190563
0.0188128
0.0186259
0.0184974
0.0445662
0.0438912
0.0432163
0.0425427
0.0418691
0.0411963
0.0405233
0.0398505
0.0391776
0.0385056
0.0378348
0.0371633
0.0364918
0.0358219
0.0351524
0.0344825
0.0338122
0.0331427
0.0324741
0.0318067
0.0311413
0.0304779
0.0298187
0.0291648
0.0285156
0.0278729
0.0272393
0.0266148
0.0259994
0.0253948
0.0248055
0.0242338
0.0236839
0.0231584
0.0226599
0.0221925
0.0217611
0.0213707
0.0210256
0.0207298
0.020487
0.0202989
0.0201675
0.0450665
0.0444496
0.043829
0.0432101
0.0425871
0.0419658
0.0413385
0.0407109
0.04008
0.0394482
0.0388172
0.0381836
0.0375466
0.036909
0.0362718
0.0356349
0.034993
0.0343489
0.0337056
0.0330604
0.0324175
0.0317713
0.0311305
0.030495
0.0298622
0.0292324
0.0286127
0.0280048
0.027405
0.02681
0.0262288
0.0256653
0.0251244
0.0246064
0.0241135
0.0236544
0.0232244
0.0228356
0.0224922
0.0221986
0.0219552
0.0217661
0.0216324
0.0455389
0.0449662
0.0443879
0.0438216
0.043237
0.042667
0.0420753
0.0414908
0.0408965
0.0402937
0.0396966
0.0391005
0.0384932
0.0378799
0.0372654
0.0366598
0.0360455
0.0354196
0.034804
0.0341706
0.0335547
0.03292
0.0322937
0.0316711
0.031058
0.0304359
0.0298277
0.0292323
0.028658
0.0280685
0.0274931
0.0269302
0.0263937
0.025885
0.025394
0.0249497
0.0245153
0.0241281
0.0237846
0.0234932
0.0232477
0.0230611
0.0229252
0.0035336
0.00426481
0.0047935
0.00524396
0.00569016
0.00615679
0.0066494
0.00716693
0.00770582
0.00826322
0.00883875
0.00942717
0.010031
0.0106472
0.0112756
0.0119144
0.0125657
0.0132277
0.0139004
0.0145847
0.0152788
0.0159847
0.0167019
0.0174302
0.0181695
0.0189202
0.0196827
0.0204573
0.0212438
0.022042
0.0228525
0.0236756
0.0245112
0.0253596
0.0262207
0.027095
0.0279829
0.0288845
0.0298
0.0307297
0.0316734
0.0326309
0.033601
0.00864925
0.00868614
0.00880067
0.00899006
0.00924637
0.00956462
0.00993442
0.0103481
0.0107995
0.0112824
0.0117895
0.0123208
0.0128702
0.0134358
0.0140158
0.01461
0.015216
0.015833
0.0164605
0.0170989
0.0177465
0.0184041
0.019071
0.019747
0.0204327
0.0211274
0.0218321
0.0225454
0.0232685
0.024001
0.0247436
0.0254954
0.0262573
0.027029
0.0278112
0.0286042
0.0294079
0.0302227
0.0310492
0.0318873
0.032737
0.0335984
0.0344712
0.0117162
0.011732
0.0118148
0.0119636
0.0121738
0.0124401
0.0127569
0.0131183
0.0135184
0.0139506
0.0144128
0.0148978
0.0154043
0.0159283
0.0164689
0.0170233
0.0175898
0.0181673
0.018756
0.0193529
0.0199597
0.0205746
0.0211971
0.0218278
0.0224662
0.0231121
0.0237652
0.024426
0.0250939
0.0257694
0.0264518
0.0271417
0.0278392
0.0285443
0.0292578
0.0299794
0.0307098
0.0314491
0.0321976
0.0329554
0.0337228
0.0344996
0.0352858
0.0143043
0.0143068
0.0143715
0.0144965
0.0146797
0.0149155
0.0151998
0.0155275
0.0158924
0.0162911
0.0167183
0.0171709
0.0176439
0.0181367
0.0186447
0.0191665
0.0197007
0.0202459
0.0208006
0.0213639
0.0219348
0.0225132
0.0230983
0.0236896
0.0242874
0.0248912
0.0255007
0.0261161
0.0267365
0.0273621
0.0279926
0.0286288
0.0292702
0.0299177
0.030571
0.0312309
0.0318973
0.0325706
0.033251
0.0339387
0.0346336
0.035336
0.0360461
0.0165157
0.0165095
0.0165615
0.0166726
0.0168373
0.0170533
0.0173161
0.0176208
0.017962
0.0183366
0.01874
0.0191674
0.0196167
0.0200832
0.020566
0.0210625
0.0215706
0.0220887
0.0226157
0.0231505
0.0236918
0.0242393
0.0247921
0.0253506
0.0259144
0.0264827
0.0270554
0.0276319
0.0282114
0.0287938
0.0293796
0.0299688
0.0305618
0.0311592
0.0317612
0.0323674
0.0329781
0.0335938
0.0342149
0.0348411
0.0354725
0.0361089
0.0367504
0.0184273
0.0184139
0.018458
0.0185577
0.0187097
0.0189116
0.0191594
0.0194474
0.019772
0.0201291
0.0205142
0.0209232
0.0213525
0.0218002
0.0222629
0.0227382
0.0232249
0.0237214
0.024226
0.0247364
0.0252526
0.0257738
0.0262998
0.0268311
0.027367
0.0279059
0.0284471
0.0289901
0.029534
0.0300786
0.0306254
0.0311743
0.0317259
0.0322808
0.032838
0.0333976
0.0339599
0.0345256
0.0350949
0.0356674
0.036243
0.0368212
0.0374018
0.020093
0.0200745
0.0201119
0.020203
0.0203454
0.0205363
0.0207728
0.0210491
0.021361
0.0217052
0.0220762
0.0224708
0.0228854
0.0233166
0.0237619
0.0242207
0.024691
0.0251697
0.0256547
0.0261449
0.026639
0.027138
0.0276421
0.0281516
0.0286646
0.0291789
0.0296932
0.0302066
0.0307184
0.0312304
0.0317433
0.0322578
0.0327745
0.0332929
0.0338117
0.0343303
0.0348502
0.0353722
0.0358968
0.0364229
0.0369494
0.0374767
0.0380055
0.0215534
0.0215304
0.0215625
0.0216467
0.0217811
0.0219633
0.0221917
0.0224581
0.0227608
0.0230955
0.0234566
0.023839
0.0242406
0.0246576
0.025089
0.0255344
0.0259925
0.0264561
0.0269245
0.0273959
0.0278704
0.0283505
0.0288381
0.0293306
0.0298268
0.0303194
0.0308089
0.0312952
0.0317779
0.0322612
0.0327457
0.0332313
0.0337189
0.0342072
0.0346915
0.0351728
0.0356557
0.0361411
0.0366272
0.0371128
0.0375958
0.0380771
0.0385584
0.02284
0.022813
0.0228399
0.022918
0.0230453
0.023219
0.0234412
0.023698
0.0239946
0.024322
0.024673
0.0250444
0.0254348
0.0258375
0.0262586
0.0266946
0.0271444
0.0275909
0.0280439
0.028497
0.0289547
0.0294229
0.0299001
0.0303809
0.0308626
0.0313283
0.0317972
0.0322588
0.0327145
0.0331774
0.0336376
0.0341015
0.0345663
0.0350281
0.035478
0.0359269
0.0363811
0.0368375
0.0372901
0.0377409
0.0381835
0.0386235
0.0390628
0.00928707
0.00872616
0.00819277
0.0076856
0.00720364
0.00674597
0.0063117
0.00589998
0.00551012
0.00514154
0.00479383
0.00446683
0.00416077
0.0038764
0.0036154
0.00338072
0.00317452
0.00299203
0.00282767
0.00267747
0.00253866
0.00240921
0.00228759
0.00217244
0.00206264
0.00195714
0.00185497
0.00175527
0.00165722
0.00156006
0.00146305
0.00136556
0.00126695
0.00116664
0.0010641
0.000958843
0.0008505
0.000738781
0.000623609
0.000505128
0.000383602
0.00025628
9.02577e-05
0.00925042
0.00873123
0.00823558
0.00776234
0.00731066
0.00687974
0.00646885
0.00607727
0.00570444
0.00534984
0.00501311
0.00469405
0.00439272
0.00410954
0.00384555
0.00360277
0.00338407
0.0031893
0.00301412
0.00285454
0.00270754
0.00257092
0.00244292
0.00232205
0.00220714
0.00209707
0.00199087
0.00188761
0.00178642
0.00168647
0.00158697
0.00148717
0.00138633
0.00128375
0.00117881
0.00107095
0.000959698
0.000844764
0.000726064
0.000603601
0.000476309
0.000337376
0.000187327
0.0092182
0.00873966
0.00828042
0.00783986
0.0074173
0.00701212
0.00662373
0.00625159
0.00589526
0.00555428
0.00522837
0.00491733
0.00462117
0.0043401
0.00407479
0.00382656
0.00359776
0.00339094
0.00320433
0.00303423
0.0028777
0.00273247
0.00259668
0.00246883
0.00234762
0.00223187
0.00212056
0.0020127
0.0019074
0.00180377
0.00170094
0.00159807
0.00149431
0.00138889
0.00128103
0.00117004
0.0010553
0.000936386
0.000813013
0.000684535
0.000547632
0.000391679
0.000249763
0.00918942
0.00874825
0.00832248
0.00791196
0.00751625
0.00713485
0.00676731
0.00641324
0.00607229
0.00574415
0.00542856
0.00512539
0.00483463
0.00455643
0.00429121
0.0040399
0.00380425
0.00358705
0.00338958
0.00320901
0.00304251
0.00288797
0.0027436
0.00260793
0.0024796
0.00235741
0.00224025
0.00212712
0.00201706
0.00190912
0.00180238
0.00169593
0.00158885
0.00148024
0.00136918
0.00125482
0.00113645
0.00101344
0.000885169
0.000750094
0.000602741
0.000433183
0.000294374
0.00916721
0.00875733
0.00836142
0.00797813
0.00760686
0.00724719
0.0068988
0.00656135
0.00623463
0.00591842
0.00561255
0.00531694
0.0050316
0.00475665
0.00449242
0.00423961
0.0039995
0.00377442
0.00356714
0.00337671
0.00320052
0.00303656
0.00288327
0.00273927
0.00260328
0.0024741
0.0023506
0.00223171
0.00211644
0.00200378
0.00189277
0.00178243
0.00167175
0.00155973
0.00144534
0.00132762
0.00120567
0.00107868
0.000945645
0.000804002
0.000646611
0.00046736
0.000329145
0.00914539
0.00876597
0.00839731
0.00803871
0.00768968
0.00734985
0.00701895
0.00669676
0.00638314
0.00607796
0.00578116
0.00549274
0.00521268
0.00494112
0.00467837
0.00442501
0.00418204
0.00395126
0.00373561
0.00353621
0.00335093
0.00317791
0.00301575
0.00286329
0.00271937
0.00258288
0.0024527
0.00232774
0.00220696
0.00208933
0.00197382
0.00185938
0.00174496
0.00162944
0.00151172
0.00139069
0.00126529
0.00113452
0.000996938
0.000849052
0.000682392
0.000495774
0.000357694
0.0091253
0.00877387
0.0084302
0.0080941
0.00776537
0.00744376
0.00712897
0.00682078
0.00651914
0.00622403
0.00593558
0.0056539
0.00537902
0.00511091
0.00484987
0.00459649
0.00435163
0.00411671
0.00389427
0.00368679
0.00349318
0.00331166
0.00314101
0.00298027
0.00282843
0.0026845
0.00254745
0.00241622
0.00228976
0.00216703
0.00204693
0.00192832
0.00181007
0.00169104
0.00157005
0.00144586
0.00131725
0.00118298
0.00104118
0.000887447
0.000712251
0.000519569
0.000381939
0.009107
0.00878101
0.00846024
0.00814458
0.00783439
0.00752994
0.0072305
0.00693552
0.00664479
0.00635869
0.0060774
0.00580174
0.00553246
0.00526848
0.0050094
0.00475609
0.00450989
0.00427196
0.00404423
0.00382945
0.0036277
0.00343787
0.00325901
0.00309036
0.00293109
0.00277999
0.00263614
0.00249847
0.0023658
0.00223744
0.0021126
0.0019901
0.00186834
0.00174575
0.00162109
0.00149349
0.00136166
0.00122416
0.00107876
0.000919711
0.000736794
0.000539528
0.000402984
0.00908951
0.00878726
0.00848774
0.0081902
0.00789596
0.007609
0.00732608
0.00704551
0.00676517
0.00648713
0.00621104
0.00593676
0.00567494
0.0054197
0.00516548
0.00491197
0.00466464
0.00442558
0.00419461
0.00397624
0.00376577
0.00356509
0.00337561
0.00319675
0.00303111
0.00287576
0.00272727
0.00258734
0.00244974
0.00231273
0.00217785
0.0020482
0.00192514
0.00180441
0.00168089
0.00154919
0.00141277
0.00126906
0.00111669
0.00095323
0.000762073
0.000556436
0.0004208
5.93803e-05
0.000164366
0.000243311
0.000318427
0.000392463
0.000469069
0.000551633
0.000643419
0.000747635
0.000865936
0.00099616
0.00113701
0.001288
0.00144897
0.00161992
0.001801
0.00199246
0.00219458
0.00240768
0.00263211
0.00286826
0.00311656
0.00337747
0.00365143
0.00393893
0.0042405
0.0045566
0.00488781
0.00523465
0.00559766
0.00597741
0.00637439
0.00678912
0.00722203
0.00767355
0.00814404
0.00863367
0.0091425
0.00967043
0.0102171
0.0107817
0.0113633
0.0119606
0.000145042
0.000228562
0.000309251
0.000392281
0.000478881
0.000572415
0.00067566
0.000790345
0.000917162
0.00105624
0.00120755
0.00136925
0.00154035
0.00172068
0.00191026
0.00210913
0.0023175
0.00253555
0.00276353
0.0030017
0.00325035
0.00350978
0.00378035
0.00406242
0.00435634
0.00466249
0.00498129
0.00531312
0.0056584
0.00601752
0.00639088
0.00677882
0.00718171
0.0075999
0.00803354
0.00848287
0.00894794
0.00942864
0.00992475
0.0104359
0.0109613
0.0115
0.0120505
0.00021143
0.000285197
0.000372405
0.000467568
0.000570772
0.000684449
0.000809882
0.000947034
0.00109522
0.00125403
0.00142407
0.001605
0.00179498
0.00199355
0.00220066
0.00241633
0.00264064
0.00287367
0.0031156
0.0033666
0.00362687
0.00389661
0.00417604
0.00446541
0.00476501
0.00507508
0.00539588
0.00572771
0.00607082
0.00642549
0.00679197
0.00717048
0.00756122
0.00796434
0.00837995
0.00880805
0.00924864
0.00970149
0.0101663
0.0106426
0.0111298
0.0116271
0.0121336
0.000262528
0.000335993
0.000433078
0.000543003
0.000664589
0.000798802
0.000945316
0.00110295
0.00127053
0.00144765
0.00163502
0.00183333
0.00204058
0.00225589
0.00247907
0.00271005
0.00294886
0.00319551
0.00345006
0.00371262
0.00398325
0.00426209
0.00454926
0.00484495
0.00514927
0.0054624
0.00578449
0.00611568
0.00645617
0.00680604
0.00716544
0.0075345
0.00791326
0.00830178
0.00869999
0.00910785
0.00952521
0.0099518
0.0103873
0.0108312
0.0112828
0.0117415
0.0122057
0.000304336
0.00038278
0.000491897
0.000617841
0.000757996
0.000911728
0.00107752
0.00125357
0.00143874
0.0016327
0.00183625
0.00205046
0.0022735
0.00250409
0.00274192
0.00298683
0.00323877
0.00349771
0.00376362
0.0040365
0.00431638
0.00460327
0.0048972
0.00519825
0.0055065
0.00582198
0.00614472
0.00647479
0.00681228
0.00715721
0.00750957
0.00786936
0.00823656
0.00861108
0.00899284
0.00938163
0.00977728
0.0101794
0.0105878
0.0110018
0.0114208
0.0118438
0.0122695
0.000340223
0.000426582
0.000548892
0.000691129
0.000849145
0.00102089
0.00120407
0.00139682
0.001598
0.00180744
0.00202596
0.00225481
0.00249226
0.00273681
0.00298801
0.00324561
0.0035095
0.00377958
0.00405574
0.00433788
0.00462599
0.00491998
0.00521985
0.00552554
0.00583699
0.00615422
0.00647715
0.00680576
0.00714003
0.0074799
0.00782529
0.00817613
0.00853228
0.0088936
0.00925987
0.00963085
0.0100063
0.0103858
0.0107692
0.0111558
0.0115451
0.0119361
0.0123285
0.000372436
0.000468539
0.00060454
0.000762548
0.000937016
0.00112498
0.00132384
0.00153168
0.0017475
0.00197112
0.00220345
0.0024458
0.00269648
0.00295381
0.00321726
0.00348651
0.00376134
0.00404158
0.00432707
0.00461761
0.00491309
0.00521345
0.00551852
0.00582817
0.00614226
0.00646064
0.00678325
0.00711002
0.00744092
0.00777577
0.00811435
0.00845656
0.00880227
0.00915124
0.00950301
0.00985727
0.0102139
0.0105727
0.0109332
0.011295
0.0116572
0.0120193
0.0123803
0.000400698
0.00050625
0.000654933
0.000827706
0.00101791
0.00122159
0.00143546
0.00165738
0.00188661
0.00212355
0.00236902
0.00262411
0.00288735
0.00315687
0.00343198
0.00371222
0.00399728
0.0042869
0.00458082
0.00487891
0.005181
0.00548695
0.0057966
0.00610947
0.00642521
0.00674378
0.00706515
0.00738961
0.00771705
0.00804678
0.00837856
0.00871249
0.00904874
0.00938649
0.00972444
0.0100625
0.0104016
0.0107414
0.0110815
0.0114208
0.0117586
0.0120947
0.012428
0.000430824
0.000551584
0.000718916
0.000910067
0.00111575
0.0013303
0.00155189
0.00178229
0.00202533
0.00227756
0.00253792
0.00280617
0.00308149
0.00336267
0.00364864
0.00393818
0.0042317
0.00452872
0.00482865
0.00513215
0.00543903
0.00574927
0.00606238
0.0063765
0.00669099
0.00700726
0.00732513
0.00764688
0.00797131
0.0082952
0.00861962
0.00894557
0.00927485
0.0096033
0.00992643
0.0102473
0.0105701
0.0108929
0.0112162
0.0115352
0.0118507
0.0121638
0.0124747
0.000335176
0.00109908
0.00183365
0.00255274
0.00326642
0.00398243
0.00470416
0.00543269
0.00616881
0.00691525
0.00767185
0.00843898
0.00921714
0.0100075
0.0108099
0.0116263
0.0124558
0.0132991
0.014157
0.01503
0.0159183
0.0168226
0.0177426
0.018679
0.0196324
0.0206032
0.0215917
0.0225974
0.0236216
0.0246638
0.0257242
0.0268038
0.027902
0.0290193
0.0301553
0.0313104
0.0324848
0.0336783
0.0348904
0.0361217
0.0373708
0.0386377
0.0399233
4.1638e-07
0.000409878
0.000961559
0.00155264
0.00218172
0.00284021
0.00352186
0.00422362
0.00494373
0.00567976
0.00643184
0.00719895
0.00798137
0.00877894
0.00959115
0.0104182
0.0112605
0.0121181
0.0129915
0.0138808
0.0147869
0.0157088
0.0166478
0.0176037
0.018577
0.019568
0.0205764
0.0216032
0.022648
0.0237109
0.024793
0.0258937
0.0270131
0.0281517
0.029309
0.0304854
0.0316809
0.0328951
0.0341281
0.0353798
0.0366496
0.0379366
0.0392407
4.91082e-06
0.00030681
0.000729489
0.00120917
0.00174042
0.00231353
0.00292228
0.0035625
0.00423001
0.00492234
0.00563764
0.00637494
0.00713349
0.0079119
0.0087092
0.0095253
0.0103597
0.0112132
0.0120845
0.0129742
0.0138814
0.0148075
0.015752
0.0167148
0.0176959
0.018695
0.0197137
0.0207512
0.0218069
0.0228822
0.0239764
0.0250895
0.0262222
0.0273741
0.0285455
0.0297358
0.0309454
0.032174
0.0334212
0.0346874
0.0359716
0.0372732
0.0385921
2.00129e-05
0.000280408
0.000633905
0.00104519
0.00150797
0.00201587
0.00256341
0.00314629
0.00376186
0.00440759
0.00508112
0.00578107
0.00650658
0.00725621
0.00802886
0.00882401
0.00964079
0.0104797
0.011339
0.0122189
0.0131193
0.0140402
0.0149817
0.015943
0.016924
0.0179253
0.018947
0.0199885
0.0210497
0.0221309
0.0232319
0.0243529
0.0254938
0.026655
0.0278356
0.0290362
0.0302565
0.0314957
0.0327546
0.0340319
0.0353277
0.0366412
0.0379725
2.42464e-05
0.000251658
0.000566371
0.00093408
0.00135087
0.00181207
0.00231306
0.00285088
0.00342331
0.00402797
0.00466293
0.00532726
0.00602003
0.00673936
0.00748473
0.00825498
0.00905048
0.0098695
0.010712
0.0115776
0.012466
0.0133766
0.0143099
0.0152645
0.0162408
0.0172388
0.0182586
0.0192995
0.0203615
0.0214446
0.0225486
0.0236737
0.0248195
0.0259861
0.0271732
0.0283809
0.0296084
0.0308563
0.0321238
0.0334103
0.0347158
0.0360398
0.0373821
2.02044e-05
0.00022526
0.000513666
0.000850392
0.00123359
0.00165936
0.00212441
0.00262608
0.00316276
0.00373272
0.00433426
0.00496659
0.00562884
0.0063192
0.00703744
0.00778342
0.00855527
0.00935347
0.010177
0.011026
0.011899
0.0127964
0.0137181
0.0146628
0.0156312
0.0166224
0.0176369
0.0186739
0.0197334
0.0208152
0.0219192
0.0230452
0.0241932
0.0253628
0.0265536
0.0277654
0.0289983
0.030252
0.031526
0.0328203
0.0341339
0.0354673
0.0368218
1.6264e-05
0.000203179
0.000471946
0.000784395
0.00114138
0.0015392
0.00197513
0.00244729
0.00295426
0.0034947
0.00406728
0.00467106
0.00530515
0.00596906
0.00666251
0.00738423
0.00813359
0.00891064
0.00971492
0.0105457
0.0114021
0.0122845
0.0131923
0.0141257
0.0150837
0.0160659
0.0170727
0.0181036
0.0191584
0.0202362
0.021338
0.0224623
0.0236099
0.0247801
0.0259721
0.0271866
0.0284227
0.0296805
0.0309595
0.0322591
0.0335793
0.0349198
0.0362818
1.35501e-05
0.000185116
0.000438183
0.000730824
0.00106635
0.00144131
0.00185319
0.00230057
0.00278244
0.00329748
0.00384455
0.00442273
0.00503224
0.00567228
0.00634196
0.00704114
0.007769
0.00852539
0.00931006
0.0101224
0.0109624
0.0118289
0.0127227
0.013643
0.0145891
0.0155609
0.0165586
0.0175815
0.0186295
0.0197023
0.020799
0.02192
0.0230655
0.0242343
0.0254263
0.0266413
0.0278793
0.0291392
0.030421
0.0317247
0.0330494
0.0343951
0.0357622
1.16569e-05
0.000170246
0.000410366
0.000686395
0.00100393
0.00135941
0.00175092
0.00217741
0.00263738
0.00313012
0.00365488
0.00421077
0.00479794
0.00541591
0.00606393
0.00674195
0.00744943
0.00818621
0.00895193
0.00974682
0.0105698
0.0114207
0.0123
0.0132064
0.0141398
0.0151004
0.0160878
0.0171015
0.0181414
0.0192071
0.0202982
0.0214149
0.0225566
0.0237225
0.0249125
0.0261269
0.0273647
0.0286254
0.029909
0.031215
0.032543
0.0338925
0.0352631
1.06676e-05
0.000163486
0.000386975
0.000648969
0.000950817
0.00128969
0.00166377
0.00207187
0.00251282
0.00298609
0.0034909
0.00402669
0.0045939
0.00519206
0.00582021
0.00647867
0.00716695
0.00788513
0.0086332
0.00941064
0.010217
0.0110524
0.0119166
0.0128094
0.0137298
0.0146785
0.0156548
0.0166585
0.0176897
0.0187476
0.0198319
0.0209426
0.0220792
0.0232411
0.0244284
0.0256407
0.0268772
0.0281375
0.0294215
0.0307285
0.0320585
0.0334102
0.0347843
1.04424e-05
0.000163985
0.000367575
0.000617191
0.000905447
0.0012299
0.00158846
0.00198036
0.00240435
0.00286016
0.0033473
0.00386535
0.00441443
0.00499391
0.00560404
0.00624441
0.00691507
0.00761607
0.0083469
0.00910746
0.00989801
0.0107181
0.0115676
0.0124464
0.0133539
0.0142902
0.0152553
0.0162489
0.0172704
0.0183195
0.0193963
0.0205001
0.0216308
0.0227876
0.0239709
0.0251799
0.0264141
0.0276731
0.0289561
0.0302634
0.0315939
0.0329473
0.034323
1.04588e-05
0.00016552
0.000351084
0.000589857
0.000865791
0.00117734
0.0015223
0.00189975
0.00230877
0.00274906
0.00322029
0.00372227
0.00425452
0.00481731
0.00541062
0.00603443
0.00668849
0.00737287
0.00808744
0.00883244
0.00960781
0.0104127
0.011248
0.012113
0.0130075
0.0139321
0.0148856
0.0158682
0.0168793
0.0179195
0.018988
0.0200848
0.0212086
0.0223601
0.0235383
0.024743
0.0259742
0.0272304
0.028512
0.0298184
0.0311485
0.032502
0.0338784
1.04414e-05
0.000166054
0.000336785
0.000565841
0.000831021
0.00113125
0.00146398
0.0018283
0.00222387
0.00265028
0.00310711
0.003594
0.0041111
0.00465875
0.00523675
0.00584483
0.00648323
0.00715217
0.0078514
0.00858149
0.00934193
0.0101328
0.0109541
0.0118056
0.0126876
0.0135996
0.0145414
0.0155129
0.0165143
0.017545
0.0186048
0.0196933
0.0208105
0.0219556
0.0231282
0.0243282
0.0255553
0.0268087
0.0280878
0.0293922
0.0307212
0.0320744
0.0334499
1.0281e-05
0.000165362
0.000323984
0.000544342
0.000799972
0.00108974
0.00141163
0.00176437
0.00214775
0.00256135
0.0030049
0.00347827
0.00398157
0.00451505
0.0050785
0.00567212
0.00629636
0.00695052
0.00763557
0.00835147
0.00909785
0.0098748
0.0106825
0.0115211
0.0123904
0.0132904
0.0142206
0.0151813
0.0161725
0.0171935
0.0182441
0.0193246
0.0204343
0.0215725
0.022739
0.0239339
0.0251564
0.0264059
0.0276818
0.028984
0.0303113
0.0316631
0.0330389
1.007e-05
0.00016415
0.000312668
0.000525307
0.000772214
0.0010524
0.00136433
0.00170676
0.00207903
0.00248081
0.00291233
0.0033733
0.00386384
0.00438406
0.00493412
0.00551436
0.0061249
0.0067657
0.00743735
0.00813944
0.00887252
0.00963625
0.0104311
0.0112569
0.012114
0.0130021
0.0139209
0.0148706
0.0158515
0.0168627
0.0179042
0.0189762
0.0200777
0.0212088
0.0223695
0.0235584
0.0247758
0.0260212
0.0272939
0.0285929
0.0299178
0.0312679
0.0326416
9.87549e-06
0.000162439
0.000302483
0.000508309
0.000747337
0.00101867
0.00132148
0.00165415
0.0020161
0.00240723
0.00282754
0.0032771
0.0037557
0.00426388
0.00480166
0.00536941
0.005967
0.00659532
0.00725391
0.00794315
0.00866319
0.00941461
0.0101971
0.0110109
0.0118559
0.0127323
0.01364
0.0145791
0.0155492
0.0165507
0.0175831
0.0186461
0.0197397
0.0208637
0.0220173
0.0232002
0.0244124
0.0256532
0.026922
0.0282179
0.0295414
0.0308914
0.0322704
9.61486e-06
0.000160339
0.000292963
0.000492531
0.000724512
0.000987928
0.00128216
0.00160601
0.00195878
0.00234005
0.00274991
0.00318871
0.00365654
0.00415342
0.00467968
0.00523548
0.00582116
0.00643723
0.0070836
0.00776044
0.0084685
0.00920791
0.00997868
0.0107804
0.0116141
0.0124791
0.0133759
0.0143044
0.0152646
0.0162563
0.0172793
0.0183334
0.0194189
0.0205352
0.0216819
0.0228587
0.0240649
0.0253009
0.0265653
0.0278585
0.0291794
0.0305281
0.0319048
9.36806e-06
0.000158202
0.000284285
0.000478285
0.000703812
0.000959884
0.00124632
0.00156198
0.00190597
0.00227803
0.0026784
0.00310735
0.00356487
0.00405113
0.00456651
0.0051113
0.00568583
0.00629038
0.00692526
0.00759065
0.00828726
0.00901496
0.00977378
0.0105644
0.0113869
0.0122409
0.0131271
0.0140451
0.0149953
0.0159774
0.0169911
0.0180367
0.019114
0.0202224
0.0213621
0.0225321
0.0237329
0.0249635
0.0262237
0.027513
0.0288315
0.0301783
0.0315541
9.16146e-06
0.000156143
0.000276597
0.000465355
0.000684788
0.000934273
0.00121324
0.00152121
0.00185721
0.00222098
0.0026126
0.00303208
0.00347984
0.0039563
0.00446143
0.00499592
0.00555962
0.00615327
0.00677721
0.00743184
0.00811732
0.00883368
0.0095817
0.0103613
0.0111728
0.0120164
0.0128921
0.0138001
0.0147403
0.0157129
0.0167176
0.0177544
0.0188232
0.019924
0.0210564
0.0222201
0.0234146
0.0246399
0.0258952
0.0271808
0.028496
0.0298406
0.0312146
8.87476e-06
0.000153884
0.000269584
0.000453313
0.000667189
0.000910441
0.0011826
0.0014834
0.00181176
0.00216767
0.00255102
0.00296182
0.00340075
0.00386761
0.00436328
0.00488793
0.00544174
0.00602517
0.00663867
0.00728269
0.00795752
0.00866357
0.00940093
0.0101699
0.0109709
0.0118043
0.0126699
0.0135676
0.0144982
0.0154614
0.0164571
0.0174853
0.0185457
0.0196388
0.0207642
0.0219209
0.0231091
0.0243289
0.0255796
0.026861
0.0281725
0.0295141
0.0308865
8.69268e-06
0.000152281
0.00026436
0.000442278
0.000651016
0.000888472
0.00115432
0.00144845
0.00176969
0.00211803
0.0024935
0.00289637
0.00332672
0.00378497
0.00427165
0.00478688
0.00533116
0.00590488
0.0065087
0.00714276
0.00780748
0.00850329
0.00923029
0.00998904
0.0107802
0.0116034
0.0124589
0.0133471
0.0142682
0.0152222
0.016209
0.0172285
0.018281
0.0193664
0.0204841
0.0216338
0.022816
0.02403
0.0252756
0.0265521
0.0278595
0.0291971
0.0305662
8.60978e-06
0.000151555
0.000261966
0.000432489
0.000636034
0.000868104
0.00112819
0.00141582
0.00173034
0.00207177
0.00243999
0.00283514
0.00325758
0.00370749
0.00418557
0.00469198
0.00522713
0.00579178
0.00638623
0.00701062
0.00766563
0.0083518
0.00906901
0.00981819
0.0105992
0.0114128
0.0122588
0.0131376
0.0140494
0.0149944
0.0159723
0.0169835
0.0180279
0.0191051
0.0202153
0.0213585
0.0225343
0.0237424
0.0249821
0.0262534
0.0275557
0.0288888
0.0302503
8.53039e-06
0.000151582
0.000261185
0.000423651
0.000622302
0.000849148
0.00110367
0.00138532
0.00169373
0.00202855
0.00238972
0.00277778
0.00319243
0.00363462
0.00410472
0.00460273
0.00512943
0.00568515
0.00627041
0.0068856
0.0075316
0.00820832
0.00891616
0.00965581
0.0104277
0.0112318
0.0120685
0.0129381
0.0138408
0.014777
0.0157462
0.016749
0.0177851
0.0188549
0.0199579
0.0210941
0.0222632
0.0234649
0.0246988
0.0259646
0.0272619
0.0285899
0.0299476
8.51401e-06
0.000152232
0.00026126
0.000415542
0.000609373
0.000831405
0.00108067
0.00135654
0.00165906
0.00198771
0.00234248
0.00272361
0.00313124
0.00356603
0.00402816
0.00451836
0.00503689
0.00558424
0.00616085
0.00676754
0.0074046
0.00807233
0.00877123
0.00950183
0.0102646
0.0110595
0.0118871
0.0127477
0.0136416
0.014569
0.0155299
0.0165242
0.0175526
0.0186147
0.0197103
0.0208393
0.0220015
0.0231973
0.0244254
0.0256857
0.0269778
0.028301
0.0296551
8.5023e-06
0.00015298
0.000261448
0.000408194
0.000597517
0.000814982
0.00105912
0.00132953
0.00162641
0.00194918
0.00229777
0.00267241
0.00307343
0.00350102
0.00395588
0.0044385
0.00494939
0.00548874
0.00605733
0.00665554
0.00728389
0.00794301
0.00863328
0.00935525
0.0101091
0.0108951
0.0117139
0.0125658
0.0134512
0.0143699
0.0153225
0.0163088
0.0173293
0.0183838
0.019472
0.0205938
0.0217497
0.0229386
0.0241608
0.0254155
0.0267026
0.0280207
0.0293708
8.51632e-06
0.000153899
0.000261636
0.000401395
0.000586396
0.000799471
0.00103895
0.00130432
0.00159571
0.00191294
0.00225561
0.00262417
0.00301872
0.00343968
0.00388753
0.00436306
0.00486636
0.00539799
0.00595876
0.00654901
0.00716917
0.00782009
0.00850201
0.00921546
0.00996065
0.0107381
0.0115484
0.0123922
0.0132689
0.0141795
0.0151239
0.0161023
0.017115
0.0181618
0.0192425
0.0203576
0.0215063
0.0226888
0.0239048
0.025154
0.0264355
0.027749
0.0290939
8.50756e-06
0.000154378
0.000261392
0.000394818
0.000575654
0.000784697
0.00101981
0.00128045
0.0015669
0.00187875
0.00221589
0.00257842
0.00296686
0.00338159
0.00382277
0.00429118
0.00478737
0.00531161
0.00586506
0.00644763
0.00706004
0.00770278
0.00837672
0.00908188
0.00981872
0.0105879
0.0113902
0.0122255
0.0130942
0.0139965
0.014933
0.0159036
0.0169085
0.0179478
0.0190214
0.0201291
0.0212713
0.0224474
0.0236574
0.0249008
0.0261773
0.027486
0.0288272
8.49832e-06
0.000154771
0.000261045
0.000388812
0.000565704
0.00077088
0.00100169
0.00125785
0.0015394
0.00184619
0.00217798
0.00253499
0.00291754
0.00332609
0.00376098
0.00422287
0.00471223
0.00522959
0.00577572
0.00635089
0.00695562
0.00759085
0.00825693
0.00895406
0.00968296
0.0104445
0.0112386
0.0120657
0.0129263
0.0138208
0.0147495
0.0157123
0.0167095
0.0177415
0.0188079
0.0199088
0.0210444
0.0222141
0.0234181
0.0246559
0.0259268
0.0272312
0.0285684
8.51202e-06
0.000154953
0.000260469
0.000383206
0.000556471
0.000757791
0.000984575
0.00123652
0.00151348
0.00181531
0.00214204
0.00249381
0.0028708
0.00327341
0.0037021
0.00415772
0.00464061
0.00515135
0.00569036
0.00625838
0.00685606
0.00748382
0.00814222
0.00883171
0.00955322
0.0103069
0.011093
0.0119123
0.0127651
0.0136521
0.014573
0.0155279
0.0165179