/*--------------------------------*- C++ -*----------------------------------*\
| =========                 |                                                 |
| \\      /  F ield         | OpenFOAM: The Open Source CFD Toolbox           |
|  \\    /   O peration     | Version:  2.3.0                                 |
|   \\  /    A nd           | Web:      www.OpenFOAM.org                      |
|    \\/     M anipulation  |                                                 |
\*---------------------------------------------------------------------------*/
FoamFile
{
    version     2.0;
    format      ascii;
    class       volScalarField;
    location    "10000";
    object      p;
}
// * * * * * * * * * * * * * * * * * * * * * * * * * * * * * * * * * * * * * //

dimensions      [0 2 -2 0 0 0 0];

internalField   nonuniform List<scalar> 
122273
(
2.14876e-06
0.99737
2.16157
3.34418
4.54056
5.74668
6.96619
8.20326
9.45536
10.7203
12.0056
13.3079
14.6283
15.9683
17.3265
18.7056
20.104
21.5196
22.9556
24.4043
25.864
27.3342
28.8101
30.284
31.7534
33.2117
34.6478
36.0459
37.4141
38.7185
39.9555
41.0863
42.0923
42.9585
43.6153
43.993
44.0076
43.525
42.3904
40.5333
38.0103
33.8623
21.5255
0.384234
1.32198
2.42345
3.54897
4.69034
5.84611
7.01305
8.20219
9.40451
10.6258
11.8619
13.1211
14.3963
15.693
17.0135
18.3542
19.7208
21.1171
22.5423
23.9982
25.4912
27.0179
28.5813
30.1856
31.8241
33.4973
35.1978
36.916
38.6393
40.3498
42.0235
43.6186
45.0902
46.384
47.4105
48.0705
48.2439
47.783
46.4784
44.0663
40.1238
33.8132
23.9076
0.556778
1.44214
2.42892
3.42202
4.42113
5.42574
6.43242
7.44855
8.4724
9.5011
10.5374
11.5798
12.6266
13.6816
14.739
15.8003
16.8624
17.9273
18.9905
20.0506
21.1072
22.1537
23.1889
24.2101
25.2084
26.1796
27.1137
28.0014
28.8285
29.5792
30.2342
30.7645
31.1391
31.3163
31.2486
30.8826
30.1503
28.9659
27.2729
24.9954
22.0862
18.5101
14.4009
0.71586
1.54583
2.44066
3.33357
4.23323
5.1358
6.04583
6.96055
7.88434
8.8122
9.75288
10.6976
11.6496
12.6119
13.5786
14.5511
15.5299
16.5122
17.4978
18.4853
19.4723
20.4561
21.4332
22.3992
23.3467
24.2695
25.1574
25.9991
26.779
27.4807
28.0849
28.5639
28.8906
29.0273
28.9385
28.5751
27.9012
26.8597
25.4269
23.5509
21.2295
18.4954
15.427
0.920175
1.63114
2.43267
3.23508
4.03871
4.84558
5.66175
6.4799
7.30347
8.13198
8.96802
9.80913
10.6511
11.5032
12.355
13.2082
14.0635
14.9153
15.7639
16.6088
17.4476
18.2761
19.0914
19.891
20.6662
21.413
22.1215
22.7826
23.3835
23.9102
24.3469
24.6735
24.8688
24.9043
24.7544
24.3871
23.778
22.8966
21.7245
20.2605
18.5132
16.5271
14.3756
1.2142
1.72074
2.42484
3.13858
3.86491
4.59247
5.33356
6.07073
6.81733
7.56991
8.32609
9.09016
9.8584
10.6361
11.4152
12.1979
12.9798
13.7579
14.5339
15.3078
16.0715
16.8281
17.5694
18.2964
18.9984
19.6729
20.3103
20.9027
21.4385
21.9034
22.2837
22.5651
22.7248
22.7448
22.6055
22.2814
21.7566
21.0122
20.0415
18.8384
17.4315
15.8473
14.1497
1.33197
1.73019
2.37925
3.02625
3.69666
4.35406
5.03901
5.70911
6.39471
7.08605
7.77791
8.47446
9.17502
9.8836
10.6119
11.3463
12.0699
12.7754
13.4839
14.1971
14.8901
15.5817
16.2546
16.9239
17.5608
18.1655
18.7394
19.2774
19.7605
20.1765
20.5219
20.7883
20.9416
20.9671
20.8508
20.5778
20.1332
19.5094
18.7005
17.7103
16.5582
15.2714
13.8889
1.55278
1.78815
2.34514
2.9232
3.55095
4.12741
4.77319
5.38133
6.01829
6.63858
7.28366
7.96397
8.60305
9.21155
9.87311
10.5948
11.3278
11.9838
12.6429
13.3162
13.9598
14.6152
15.214
15.8473
16.4669
17.0345
17.561
18.0703
18.539
18.8928
19.178
19.4306
19.6016
19.659
19.5788
19.3552
18.9719
18.4374
17.7551
16.9229
15.9437
14.8432
13.6715
2.05652
2.01917
2.53725
2.89245
3.58316
3.89637
4.63151
5.07842
5.62227
6.09432
6.55583
7.23589
7.88401
8.38354
8.83838
9.25318
10.0982
10.8353
11.3507
12.1195
12.5787
13.4245
13.9113
14.4402
15.0602
15.8153
16.3709
16.8711
17.4712
17.9449
18.1289
18.2864
18.4184
18.4873
18.437
18.3
18.0215
17.5932
17.0426
16.3334
15.3361
14.3036
13.25
-16.0544
-26.6312
-25.716
-24.5985
-23.998
-23.0908
-21.8825
-20.5351
-19.1648
-17.7952
-16.3815
-15.0095
-13.6029
-12.2051
-10.8035
-9.42071
-8.02016
-6.63049
-5.25028
-3.87233
-2.51752
-1.17127
0.157669
1.46698
2.75096
4.00895
5.24366
6.45111
7.63381
8.78715
9.91519
11.0167
12.0949
13.1486
14.1815
15.1907
16.1801
17.1497
18.1027
19.037
19.953
20.8437
21.6421
10.985
-0.844226
-8.64794
-13.6012
-16.7593
-18.6042
-19.4518
-19.5336
-19.0524
-18.172
-17.01
-15.6424
-14.1559
-12.5933
-10.999
-9.39605
-7.80819
-6.24858
-4.73036
-3.25208
-1.82225
-0.438358
0.900373
2.19357
3.4457
4.65918
5.83905
6.98526
8.10078
9.18934
10.253
11.2949
12.314
13.3109
14.2902
15.2482
16.1912
17.1117
18.0182
18.9056
19.7774
20.6282
21.4551
10.0999
6.11496
2.79918
0.211901
-1.74475
-3.13735
-4.05971
-4.58859
-4.78315
-4.72774
-4.46231
-4.04228
-3.49755
-2.86154
-2.15139
-1.38755
-0.584071
0.249094
1.10678
1.97799
2.86198
3.75338
4.64786
5.54389
6.44013
7.33421
8.22331
9.10755
9.98447
10.8558
11.7168
12.5713
13.414
14.2486
15.0739
15.888
16.6928
17.4868
18.2737
19.0479
19.8128
20.5659
21.3858
12.19
9.06764
6.24396
3.8387
1.88763
0.371085
-0.726689
-1.46825
-1.88711
-2.0451
-1.97721
-1.72484
-1.33323
-0.818354
-0.215241
0.458229
1.18565
1.95199
2.74765
3.56267
4.38851
5.22153
6.05774
6.89093
7.72042
8.54363
9.35895
10.1667
10.9668
11.759
12.5402
13.3135
14.0757
14.83
15.574
16.3086
17.0335
17.7472
18.4507
19.1441
19.825
20.4918
21.2715
12.1602
10.0124
8.02234
6.27971
4.82185
3.64949
2.76939
2.15344
1.7689
1.5915
1.58808
1.73348
1.99756
2.36051
2.80563
3.31506
3.87506
4.47367
5.10284
5.75696
6.42683
7.11066
7.80363
8.50007
9.1996
9.89933
10.5992
11.2979
11.9937
12.6871
13.3771
14.0613
14.7384
15.4057
16.0665
16.7223
17.3692
18.0085
18.6342
19.2548
19.8662
20.4787
21.2549
12.4043
10.7049
9.10634
7.68333
6.46798
5.47323
4.6989
4.14119
3.77371
3.58469
3.54934
3.64261
3.84804
4.14518
4.52105
4.95763
5.4464
5.97302
6.53127
7.11481
7.71888
8.33922
8.96879
9.59993
10.2336
10.8669
11.5027
12.1408
12.7769
13.4113
14.0399
14.6631
15.2766
15.8827
16.4824
17.0781
17.6624
18.2399
18.8056
19.3691
19.9283
20.5168
21.3127
12.4822
11.0986
9.79765
8.62554
7.61412
6.78035
6.12357
5.6416
5.32438
5.15866
5.11747
5.19415
5.36802
5.62627
5.96196
6.34645
6.7784
7.24332
7.73999
8.26885
8.82636
9.39896
9.9743
10.5361
11.0973
11.6626
12.2419
12.8362
13.4281
14.0168
14.6008
15.1768
15.7267
16.271
16.8229
17.3783
17.9186
18.4413
18.9427
19.4523
19.9464
20.4372
20.8594
12.5002
11.3377
10.2475
9.26515
8.41406
7.69548
7.11082
6.68208
6.42021
6.2824
6.24702
6.31844
6.48031
6.72451
7.04141
7.37383
7.76168
8.18817
8.66111
9.1777
9.71751
10.2416
10.7536
11.2293
11.7376
12.2847
12.8574
13.4553
14.0212
14.5635
15.1065
15.6359
16.1153
16.6253
17.1765
17.7009
18.1817
18.6383
19.0717
19.5531
20.0127
20.4803
20.8086
12.2512
11.2531
10.3464
9.55779
8.85772
8.24277
7.70534
7.39448
7.2501
7.16319
7.21059
7.37522
7.58295
7.85476
8.21051
8.54944
9.10058
9.50617
10.0472
10.5331
11.0237
11.478
11.9471
12.399
13.0942
13.5997
14.2768
14.7896
15.17
15.6716
16.1099
16.5011
16.8863
17.5049
18.0074
18.3563
18.6575
18.9732
19.3114
19.8931
20.2405
20.7719
21.016
-146.872
-146.376
-145.915
-145.42
-144.9
-144.354
-143.781
-143.18
-142.551
-141.892
-141.201
-140.477
-139.717
-138.922
-138.091
-137.226
-136.329
-135.402
-134.45
-133.477
-132.492
-131.5
-130.51
-129.529
-128.565
-127.628
-126.725
-125.863
-125.048
-124.287
-123.585
-122.944
-122.367
-121.853
-121.4
-121.004
-120.659
-120.357
-120.089
-119.847
-119.65
-119.471
-119.138
-146.405
-145.956
-145.535
-145.089
-144.626
-144.148
-143.655
-143.15
-142.633
-142.105
-141.568
-141.022
-140.467
-139.905
-139.336
-138.759
-138.174
-137.58
-136.976
-136.361
-135.733
-135.091
-134.432
-133.757
-133.062
-132.347
-131.612
-130.855
-130.078
-129.278
-128.456
-127.615
-126.753
-125.872
-124.974
-124.061
-123.14
-122.218
-121.315
-120.449
-119.633
-118.798
-118.423
-146.033
-145.618
-145.222
-144.807
-144.378
-143.936
-143.481
-143.013
-142.534
-142.043
-141.542
-141.032
-140.511
-139.981
-139.441
-138.891
-138.33
-137.758
-137.174
-136.576
-135.965
-135.338
-134.695
-134.035
-133.355
-132.656
-131.935
-131.192
-130.425
-129.635
-128.822
-127.985
-127.126
-126.247
-125.348
-124.436
-123.518
-122.605
-121.716
-120.872
-120.063
-119.103
-118.458
-145.72
-145.321
-144.94
-144.54
-144.125
-143.696
-143.253
-142.794
-142.321
-141.832
-141.329
-140.81
-140.276
-139.727
-139.162
-138.582
-137.986
-137.374
-136.747
-136.104
-135.444
-134.769
-134.079
-133.374
-132.653
-131.916
-131.163
-130.393
-129.606
-128.802
-127.983
-127.15
-126.304
-125.448
-124.587
-123.722
-122.861
-122.013
-121.198
-120.427
-119.695
-118.816
-118.216
-145.463
-145.081
-144.719
-144.34
-143.947
-143.54
-143.12
-142.686
-142.236
-141.772
-141.293
-140.799
-140.291
-139.766
-139.225
-138.667
-138.092
-137.499
-136.889
-136.259
-135.61
-134.94
-134.252
-133.547
-132.825
-132.085
-131.326
-130.547
-129.745
-128.922
-128.082
-127.229
-126.366
-125.497
-124.624
-123.752
-122.886
-122.039
-121.232
-120.471
-119.746
-118.906
-118.31
-145.251
-144.893
-144.554
-144.197
-143.828
-143.446
-143.053
-142.646
-142.223
-141.786
-141.333
-140.866
-140.385
-139.89
-139.377
-138.846
-138.298
-137.731
-137.147
-136.543
-135.915
-135.262
-134.584
-133.887
-133.173
-132.445
-131.702
-130.941
-130.155
-129.336
-128.49
-127.625
-126.755
-125.893
-125.043
-124.199
-123.353
-122.51
-121.698
-120.934
-120.199
-119.37
-118.735
-145.085
-144.748
-144.428
-144.091
-143.741
-143.38
-143.009
-142.625
-142.224
-141.809
-141.376
-140.929
-140.465
-139.995
-139.5
-138.984
-138.453
-137.9
-137.335
-136.75
-136.141
-135.502
-134.827
-134.132
-133.416
-132.688
-131.951
-131.199
-130.428
-129.613
-128.765
-127.904
-127.009
-126.112
-125.257
-124.454
-123.647
-122.837
-122.071
-121.351
-120.652
-119.833
-119.119
-144.947
-144.631
-144.329
-144.012
-143.682
-143.341
-142.995
-142.644
-142.263
-141.875
-141.455
-141.023
-140.566
-140.137
-139.684
-139.183
-138.68
-138.133
-137.587
-137.038
-136.46
-135.852
-135.167
-134.45
-133.715
-132.996
-132.295
-131.629
-130.975
-130.197
-129.271
-128.349
-127.449
-126.597
-125.847
-125.217
-124.552
-123.661
-122.709
-121.971
-121.309
-120.478
-119.701
-144.882
-144.557
-144.259
-143.952
-143.627
-143.266
-142.913
-142.588
-142.226
-141.881
-141.483
-141.108
-140.549
-140.103
-139.679
-139.175
-138.715
-138.134
-137.581
-137.023
-136.495
-136.029
-135.365
-134.713
-133.838
-132.94
-132.081
-131.122
-130.564
-130.073
-129.337
-128.601
-127.247
-125.746
-124.512
-124.078
-123.657
-123.161
-122.565
-121.847
-121.697
-120.872
-119.354
-116.707
-113.628
-110.993
-108.607
-106.461
-104.517
-102.747
-101.125
-99.6288
-98.2381
-96.9364
-95.7095
-94.5466
-93.4405
-92.3845
-91.3733
-90.4033
-89.4712
-88.5752
-87.7122
-86.8812
-86.0812
-85.3103
-84.5687
-83.8548
-83.1693
-82.5113
-81.8807
-81.2778
-80.7028
-80.1561
-79.6385
-79.1507
-78.6934
-78.268
-77.8757
-77.5177
-77.1959
-76.9125
-76.6674
-76.4534
-76.3015
-76.3222
-116.971
-115.321
-113.697
-111.875
-110.044
-108.242
-106.505
-104.848
-103.277
-101.789
-100.382
-99.0504
-97.7891
-96.593
-95.4567
-94.3763
-93.3474
-92.3669
-91.4314
-90.5383
-89.686
-88.8718
-88.0941
-87.3528
-86.6454
-85.9719
-85.3315
-84.7241
-84.1486
-83.6062
-83.0959
-82.6184
-82.174
-81.7635
-81.3874
-81.0465
-80.7418
-80.4748
-80.2466
-80.0575
-79.9039
-79.818
-79.8418
-116.722
-115.111
-113.595
-111.996
-110.428
-108.873
-107.355
-105.884
-104.469
-103.113
-101.817
-100.582
-99.4042
-98.2835
-97.216
-96.2002
-95.2327
-94.3113
-93.4339
-92.5982
-91.8023
-91.0445
-90.3237
-89.6383
-88.9872
-88.3699
-87.7855
-87.2336
-86.7132
-86.2252
-85.7686
-85.3443
-84.9524
-84.5932
-84.2674
-83.9758
-83.7195
-83.499
-83.3158
-83.1707
-83.0621
-83.0059
-83.0288
-116.73
-115.319
-113.897
-112.425
-110.983
-109.556
-108.165
-106.817
-105.516
-104.267
-103.069
-101.924
-100.829
-99.7858
-98.7903
-97.8423
-96.9389
-96.0792
-95.2611
-94.4834
-93.744
-93.0417
-92.3756
-91.7439
-91.147
-90.5824
-90.0505
-89.5503
-89.0813
-88.6434
-88.2364
-87.8606
-87.5161
-87.2028
-86.9219
-86.6736
-86.4583
-86.2764
-86.1289
-86.0173
-85.9401
-85.9032
-85.9358
-116.998
-115.752
-114.452
-113.112
-111.776
-110.443
-109.138
-107.868
-106.639
-105.456
-104.319
-103.232
-102.192
-101.2
-100.254
-99.3549
-98.4993
-97.6867
-96.915
-96.1832
-95.4898
-94.8338
-94.2137
-93.6286
-93.078
-92.5602
-92.0745
-91.6202
-91.1971
-90.8045
-90.4429
-90.1118
-89.8112
-89.5413
-89.3027
-89.0956
-88.9193
-88.7734
-88.6602
-88.5806
-88.5332
-88.517
-88.5441
-117.461
-116.268
-115.028
-113.765
-112.497
-111.234
-109.995
-108.789
-107.62
-106.492
-105.409
-104.371
-103.38
-102.435
-101.535
-100.681
-99.8703
-99.1022
-98.3751
-97.6874
-97.038
-96.4259
-95.8502
-95.3105
-94.8047
-94.3317
-93.8896
-93.4786
-93.0986
-92.7483
-92.4287
-92.1385
-91.8785
-91.649
-91.4502
-91.2808
-91.1409
-91.0258
-90.944
-90.896
-90.8798
-90.8917
-90.9574
-117.837
-116.7
-115.509
-114.304
-113.095
-111.895
-110.724
-109.58
-108.467
-107.391
-106.358
-105.368
-104.424
-103.526
-102.672
-101.864
-101.098
-100.374
-99.6905
-99.0455
-98.4379
-97.8685
-97.3363
-96.8404
-96.3753
-95.9433
-95.5403
-95.1678
-94.8267
-94.5141
-94.233
-93.9801
-93.7567
-93.5646
-93.4023
-93.265
-93.1584
-93.0646
-93.0116
-92.9938
-93.0068
-93.0499
-93.1684
-118.473
-117.387
-116.196
-115.001
-113.784
-112.594
-111.461
-110.356
-109.285
-108.253
-107.263
-106.312
-105.406
-104.546
-103.729
-102.956
-102.227
-101.538
-100.889
-100.278
-99.7039
-99.1693
-98.6746
-98.218
-97.7841
-97.3939
-97.0247
-96.6853
-96.381
-96.1022
-95.8587
-95.639
-95.4463
-95.2908
-95.1639
-95.0541
-94.9859
-94.8946
-94.8765
-94.8871
-94.936
-95.0074
-95.1336
-118.083
-117.391
-116.287
-115.152
-114.037
-112.957
-111.982
-110.992
-109.944
-108.94
-107.984
-107.065
-106.197
-105.381
-104.604
-103.881
-103.204
-102.562
-101.958
-101.384
-100.85
-100.361
-99.921
-99.5295
-99.13
-98.7924
-98.4205
-98.1126
-97.8529
-97.6061
-97.4036
-97.1838
-96.9977
-96.8957
-96.8434
-96.7556
-96.721
-96.5263
-96.5664
-96.6013
-96.7175
-96.7225
-96.6914
232.219
204.636
181.36
162.917
147.132
133.018
120.448
109.347
99.5497
90.8919
83.2205
76.4402
70.4258
65.0607
60.2598
55.9294
52.0215
48.4604
45.1904
42.1719
39.3661
36.743
34.2704
31.9282
29.7014
27.5633
25.515
23.5389
21.6255
19.7775
17.9777
16.2285
14.5267
12.8631
11.2426
9.65903
8.10704
6.59266
5.10685
3.65187
2.22273
0.827735
-0.34273
102.16
97.8928
96.6926
94.2106
90.7476
86.8089
82.6996
78.5498
74.4231
70.3689
66.4361
62.6418
59.0076
55.547
52.2493
49.1147
46.1422
43.3228
40.6488
38.103
35.6827
33.37
31.1661
29.0474
27.0184
25.064
23.1753
21.3539
19.5847
17.8684
16.1998
14.5745
12.9863
11.4397
9.9207
8.44055
6.98464
5.56171
4.16252
2.78978
1.43764
0.108529
-1.01046
65.1858
65.9386
67.7427
68.3744
68.3622
67.8566
66.9196
65.5911
63.9319
62.0028
59.8651
57.5706
55.1608
52.68
50.161
47.6339
45.116
42.6296
40.1886
37.7996
35.4751
33.211
31.0201
28.8933
26.8329
24.8391
22.9037
21.0336
19.2171
17.4533
15.7381
14.0745
12.448
10.87
9.32603
7.82134
6.3489
4.91131
3.50157
2.12119
0.76228
-0.570573
-1.70687
66.3277
66.2744
65.8269
64.939
63.9284
62.7764
61.4657
59.9978
58.3886
56.6556
54.8122
52.8761
50.8661
48.8024
46.6897
44.5592
42.4049
40.2584
38.1142
35.993
33.8946
31.8256
29.7933
27.8008
25.8507
23.9415
22.0737
20.2539
18.4715
16.7368
15.0383
13.3847
11.7652
10.1853
8.63961
7.12946
5.65139
4.20589
2.78963
1.40155
0.033694
-1.30711
-2.46428
57.2984
57.1099
56.5548
55.8519
55.0567
54.1544
53.1451
52.0386
50.8402
49.5524
48.178
46.7246
45.1973
43.6055
41.9524
40.2527
38.511
36.7388
34.9437
33.1318
31.3172
29.4973
27.6878
25.8877
24.1024
22.3388
20.5962
18.8831
17.1921
15.5344
13.9013
12.3025
10.7294
9.19045
7.67722
6.19525
4.74084
3.31397
1.91563
0.543991
-0.807418
-2.13156
-3.27948
46.0874
46.0802
45.9794
45.8088
45.5286
45.1332
44.6297
44.0184
43.3029
42.4864
41.5713
40.5622
39.4676
38.2889
37.0345
35.714
34.3305
32.8949
31.4145
29.8947
28.3482
26.7721
25.1859
23.5866
21.9837
20.3807
18.781
17.1937
15.6141
14.0535
12.5061
10.9816
9.47376
7.99113
6.52769
5.08942
3.67293
2.28226
0.912721
-0.430686
-1.75617
-3.04994
-4.15204
38.3522
38.4061
38.4376
38.3858
38.245
38.0195
37.7062
37.3069
36.823
36.2529
35.5982
34.8607
34.042
33.1474
32.1788
31.1427
30.0395
28.8778
27.663
26.3986
25.0934
23.7488
22.3746
20.9752
19.5567
18.1223
16.6772
15.229
13.7781
12.3285
10.8851
9.44963
8.02316
6.61286
5.21326
3.83333
2.46636
1.12275
-0.205362
-1.50968
-2.79759
-4.05412
-5.09529
32.1868
32.2409
32.2642
32.2135
32.0996
31.9258
31.6904
31.3914
31.0298
30.6036
30.1102
29.5481
28.9206
28.2288
27.4703
26.6493
25.767
24.8247
23.8291
22.7803
21.6854
20.5453
19.3661
18.1531
16.9102
15.6406
14.3516
13.0435
11.7266
10.398
9.0659
7.73128
6.39716
5.07118
3.74548
2.43349
1.12866
-0.161451
-1.44018
-2.7006
-3.94969
-5.18016
-6.2465
26.2335
26.3191
26.387
26.3827
26.3319
26.2317
26.0797
25.8803
25.6275
25.3202
24.9573
24.5373
24.061
23.5278
22.9362
22.2869
21.581
20.8194
20.0041
19.1372
18.222
17.2583
16.2538
15.2082
14.1267
13.0111
11.8705
10.7026
9.51392
8.30985
7.09098
5.86315
4.62646
3.38838
2.14643
0.908044
-0.32771
-1.55533
-2.77814
-3.98862
-5.19294
-6.38855
-7.46701
20.7326
20.8775
20.9815
21.0211
21.0203
20.9802
20.9005
20.7772
20.6092
20.3963
20.1354
19.8245
19.4655
19.0572
18.5958
18.0835
17.5192
16.9038
16.2387
15.5234
14.7601
13.9495
13.0952
12.1996
11.2633
10.2907
9.28464
8.24987
7.18738
6.10219
4.99528
3.87275
2.73672
1.59065
0.435137
-0.722944
-1.88556
-3.04714
-4.20719
-5.36337
-6.51507
-7.66449
-8.73207
15.7604
15.9384
16.066
16.1311
16.1656
16.1669
16.132
16.0633
15.9564
15.8106
15.6246
15.3969
15.1283
14.8145
14.4569
14.0527
13.6024
13.1061
12.563
11.9732
11.3381
10.6586
9.93385
9.16889
8.36179
7.51779
6.6372
5.72332
4.77934
3.80665
2.8106
1.79103
0.753271
-0.300998
-1.36878
-2.44613
-3.53131
-4.62265
-5.71742
-6.81385
-7.91063
-9.01034
-10.0639
11.2365
11.4175
11.5446
11.628
11.6836
11.7098
11.708
11.6759
11.6124
11.5176
11.3888
11.2254
11.0239
10.7854
10.5079
10.1911
9.83305
9.43332
8.99084
8.50627
7.97958
7.40976
6.79846
6.14671
5.45376
4.72407
3.9566
3.15384
2.31841
1.45243
0.558905
-0.360014
-1.3027
-2.26524
-3.24556
-4.24225
-5.24964
-6.26833
-7.29578
-8.32909
-9.36987
-10.4188
-11.4803
7.04171
7.20649
7.33138
7.42137
7.49004
7.53571
7.55676
7.553
7.52399
7.46853
7.3849
7.27026
7.12408
6.94631
6.73513
6.48816
6.20463
5.88443
5.52602
5.13017
4.69475
4.21964
3.70531
3.15213
2.56029
1.93114
1.26506
0.563479
-0.1718
-0.93872
-1.73664
-2.56137
-3.41253
-4.28741
-5.18241
-6.09801
-7.02816
-7.97248
-8.93086
-9.89812
-10.8742
-11.8558
-12.869
3.12613
3.26468
3.3808
3.47451
3.55256
3.61108
3.64898
3.66578
3.66297
3.63784
3.58813
3.51242
3.41078
3.28191
3.12333
2.93346
2.71332
2.45852
2.17075
1.8488
1.49091
1.09669
0.665902
0.198993
-0.304441
-0.844033
-1.41997
-2.03055
-2.67425
-3.35059
-4.05858
-4.79567
-5.55961
-6.35058
-7.16441
-7.99946
-8.85495
-9.72519
-10.6121
-11.5108
-12.4193
-13.3288
-14.2213
-0.787039
-0.620253
-0.476635
-0.356112
-0.254989
-0.17088
-0.106948
-0.0618577
-0.0364349
-0.0324313
-0.0482018
-0.0870645
-0.149408
-0.236896
-0.350074
-0.489311
-0.657185
-0.854587
-1.08124
-1.34018
-1.63097
-1.95557
-2.31342
-2.70558
-3.13138
-3.59127
-4.08627
-4.61483
-5.176
-5.76953
-6.39477
-7.04982
-7.73319
-8.44358
-9.17916
-9.93788
-10.7189
-11.5173
-12.3339
-13.164
-14.0052
-14.8549
-15.6605
-4.26596
-4.13335
-4.01688
-3.90877
-3.8095
-3.72349
-3.65042
-3.59228
-3.55081
-3.52534
-3.51787
-3.52841
-3.56027
-3.61243
-3.68803
-3.7861
-3.90988
-4.05803
-4.23449
-4.43896
-4.67278
-4.93565
-5.2297
-5.55553
-5.91327
-6.30303
-6.72567
-7.18017
-7.66719
-8.18491
-8.73398
-9.31296
-9.92101
-10.5564
-11.2178
-11.904
-12.6136
-13.3433
-14.0925
-14.8592
-15.6402
-16.4404
-17.2327
-7.75565
-7.62104
-7.48699
-7.36373
-7.25052
-7.14947
-7.06266
-6.98866
-6.9284
-6.88338
-6.85379
-6.84034
-6.84392
-6.86616
-6.90761
-6.97084
-7.05556
-7.16269
-7.29436
-7.45218
-7.6353
-7.84523
-8.08309
-8.3509
-8.64762
-8.97486
-9.33239
-9.72034
-10.1394
-10.5885
-11.0681
-11.5772
-12.1144
-12.6793
-13.2712
-13.8883
-14.5299
-15.193
-15.8768
-16.5798
-17.295
-18.0266
-18.7915
-11.0816
-10.9414
-10.8076
-10.6786
-10.5568
-10.447
-10.3467
-10.2572
-10.1802
-10.1175
-10.068
-10.0318
-10.0106
-10.0067
-10.0197
-10.0513
-10.1022
-10.1738
-10.2669
-10.3827
-10.5214
-10.6847
-10.8743
-11.09
-11.3328
-11.6039
-11.9033
-12.2316
-12.5885
-12.9746
-13.3902
-13.8344
-14.3067
-14.8065
-15.3325
-15.8846
-16.461
-17.0605
-17.6814
-18.3226
-18.9781
-19.6504
-20.3571
-14.2637
-14.132
-13.9971
-13.8636
-13.7378
-13.6176
-13.507
-13.4064
-13.3161
-13.237
-13.169
-13.1143
-13.0729
-13.045
-13.0331
-13.0364
-13.058
-13.0971
-13.1559
-13.2341
-13.334
-13.457
-13.6028
-13.7727
-13.9675
-14.1879
-14.435
-14.7093
-15.0107
-15.3397
-15.6965
-16.081
-16.4928
-16.9317
-17.3963
-17.8872
-18.4022
-18.9408
-19.5014
-20.0823
-20.6773
-21.2863
-21.9342
-17.3184
-17.1995
-17.0651
-16.9311
-16.7993
-16.6738
-16.5554
-16.4442
-16.342
-16.2489
-16.1659
-16.0951
-16.0342
-15.9871
-15.952
-15.9315
-15.9271
-15.9386
-15.967
-16.0132
-16.0788
-16.1642
-16.2711
-16.4003
-16.552
-16.7272
-16.9271
-17.1525
-17.403
-17.6795
-17.9828
-18.3125
-18.6688
-19.0505
-19.4576
-19.891
-20.3487
-20.8292
-21.332
-21.8556
-22.3966
-22.9544
-23.4963
-20.4079
-20.2488
-20.0905
-19.9395
-19.7934
-19.653
-19.5207
-19.3959
-19.2805
-19.1731
-19.0755
-18.9864
-18.9092
-18.8427
-18.7878
-18.7453
-18.7167
-18.7028
-18.7041
-18.7217
-18.7563
-18.809
-18.8815
-18.9739
-19.0863
-19.2209
-19.3786
-19.5597
-19.7643
-19.993
-20.2467
-20.5258
-20.83
-21.1592
-21.5134
-21.8928
-22.2959
-22.7223
-23.1712
-23.6422
-24.1331
-24.6463
-25.1739
-23.2708
-23.1256
-22.9697
-22.8149
-22.6654
-22.5203
-22.379
-22.2453
-22.1207
-22.0025
-21.8919
-21.7899
-21.6972
-21.6139
-21.5414
-21.4802
-21.4317
-21.3949
-21.3715
-21.3634
-21.3705
-21.394
-21.4356
-21.4943
-21.5726
-21.6706
-21.7893
-21.9296
-22.092
-22.2769
-22.4859
-22.7182
-22.9743
-23.255
-23.5597
-23.8881
-24.2399
-24.6153
-25.0138
-25.4351
-25.8752
-26.3386
-26.8938
-25.9313
-25.8082
-25.67
-25.5307
-25.3911
-25.2521
-25.1152
-24.9823
-24.8546
-24.7312
-24.6149
-24.5029
-24.4005
-24.305
-24.2177
-24.1407
-24.0737
-24.0179
-23.9741
-23.9436
-23.9254
-23.9226
-23.9354
-23.9648
-24.0109
-24.0755
-24.1592
-24.2628
-24.3867
-24.5316
-24.6988
-24.8882
-25.1003
-25.3351
-25.593
-25.874
-26.1778
-26.5042
-26.853
-27.2231
-27.6096
-28.0132
-28.4778
-28.6842
-28.5454
-28.3944
-28.2424
-28.0955
-27.9491
-27.804
-27.6637
-27.5279
-27.3971
-27.2702
-27.1497
-27.0355
-26.9271
-26.8269
-26.7342
-26.651
-26.5778
-26.5154
-26.4635
-26.4233
-26.397
-26.3845
-26.3864
-26.4036
-26.4379
-26.4897
-26.5597
-26.6483
-26.7563
-26.8851
-27.0351
-27.2057
-27.3978
-27.6123
-27.849
-28.1078
-28.3882
-28.6902
-29.0125
-29.3537
-29.7232
-30.1324
-31.3871
-31.2444
-31.081
-30.9175
-30.758
-30.5998
-30.4453
-30.2955
-30.1483
-30.0063
-29.8686
-29.7362
-29.6091
-29.4894
-29.3757
-29.269
-29.1698
-29.0801
-28.9991
-28.9284
-28.8685
-28.8198
-28.7837
-28.7608
-28.7522
-28.7591
-28.7816
-28.8204
-28.8767
-28.951
-29.0442
-29.1571
-29.2892
-29.4423
-29.6165
-29.8118
-30.028
-30.2657
-30.5245
-30.8039
-31.1049
-31.4429
-31.8404
-33.906
-33.7674
-33.6158
-33.4617
-33.3059
-33.1497
-32.9941
-32.8406
-32.6896
-32.541
-32.3966
-32.2554
-32.1192
-31.9883
-31.8633
-31.7433
-31.6307
-31.5258
-31.4286
-31.3408
-31.2627
-31.1945
-31.1367
-31.0912
-31.0588
-31.0403
-31.0357
-31.0453
-31.072
-31.115
-31.1754
-31.254
-31.3507
-31.4669
-31.6033
-31.7592
-31.9358
-32.133
-32.3505
-32.5878
-32.847
-33.1418
-33.4878
-36.3606
-36.2383
-36.0962
-35.9427
-35.7877
-35.63
-35.4721
-35.3169
-35.161
-35.0085
-34.8581
-34.711
-34.5668
-34.4268
-34.2914
-34.1611
-34.0368
-33.9192
-33.8069
-33.7035
-33.6079
-33.5217
-33.4445
-33.3787
-33.3245
-33.2824
-33.2524
-33.2364
-33.2352
-33.2489
-33.2787
-33.3253
-33.3893
-33.4711
-33.572
-33.6914
-33.8298
-33.9879
-34.1652
-34.3613
-34.5771
-34.8251
-35.121
-38.9173
-38.7692
-38.6034
-38.4337
-38.2657
-38.0956
-37.9281
-37.7614
-37.5967
-37.4345
-37.2757
-37.1197
-36.9659
-36.8159
-36.6711
-36.5295
-36.3937
-36.2627
-36.1373
-36.0188
-35.9084
-35.805
-35.7101
-35.6255
-35.5509
-35.4863
-35.4339
-35.3936
-35.3672
-35.3539
-35.3554
-35.3726
-35.4057
-35.4548
-35.5225
-35.6072
-35.7097
-35.8303
-35.9694
-36.1263
-36.3005
-36.501
-36.7619
-41.2064
-41.083
-40.943
-40.7887
-40.6266
-40.4617
-40.2958
-40.1285
-39.9611
-39.7962
-39.6321
-39.4698
-39.3103
-39.1528
-38.9991
-38.848
-38.701
-38.5586
-38.4217
-38.2903
-38.1648
-38.0462
-37.9352
-37.8329
-37.7386
-37.6543
-37.5806
-37.5185
-37.4679
-37.4292
-37.4045
-37.3944
-37.3984
-37.4177
-37.4538
-37.5057
-37.5744
-37.6602
-37.7636
-37.8843
-38.0213
-38.1842
-38.4229
-43.6174
-43.477
-43.3159
-43.1445
-42.9731
-42.8005
-42.6275
-42.4544
-42.282
-42.1107
-41.941
-41.7725
-41.6055
-41.4415
-41.2796
-41.1201
-40.9631
-40.8107
-40.6627
-40.5184
-40.3799
-40.2475
-40.1214
-40.0018
-39.8904
-39.7885
-39.6946
-39.6111
-39.5382
-39.4762
-39.4277
-39.3911
-39.3678
-39.3594
-39.3658
-39.3874
-39.4241
-39.4774
-39.5473
-39.6331
-39.7352
-39.8618
-40.058
-45.7595
-45.6468
-45.5163
-45.3685
-45.2112
-45.0491
-44.8827
-44.7136
-44.5427
-44.3703
-44.1982
-44.0268
-43.855
-43.6845
-43.5155
-43.3479
-43.1827
-43.0207
-42.862
-42.7066
-42.5559
-42.4105
-42.2698
-42.1349
-42.0081
-41.8886
-41.7761
-41.6729
-41.5795
-41.4959
-41.4241
-41.3631
-41.315
-41.2801
-41.2585
-41.2512
-41.2587
-41.2811
-41.3186
-41.371
-41.4383
-41.5301
-41.6855
-48.018
-47.9088
-47.7739
-47.618
-47.456
-47.2889
-47.1181
-46.9463
-46.7721
-46.595
-46.4182
-46.242
-46.0649
-45.8875
-45.7111
-45.5371
-45.3633
-45.1916
-45.0239
-44.8575
-44.6953
-44.5369
-44.3839
-44.2343
-44.0918
-43.956
-43.8269
-43.7048
-43.5922
-43.4884
-43.3949
-43.3111
-43.2393
-43.1794
-43.1316
-43.0972
-43.0771
-43.0699
-43.0772
-43.099
-43.1346
-43.1922
-43.3082
-50.3939
-50.2502
-50.0824
-49.9031
-49.7227
-49.5391
-49.3552
-49.1705
-48.9849
-48.7991
-48.6141
-48.4287
-48.2425
-48.0577
-47.8736
-47.6905
-47.5083
-47.3277
-47.1494
-46.9728
-46.799
-46.6296
-46.4635
-46.3006
-46.1432
-45.9919
-45.8472
-45.7087
-45.5773
-45.4543
-45.34
-45.2355
-45.1413
-45.0584
-44.9861
-44.9263
-44.8792
-44.8451
-44.8241
-44.8171
-44.8235
-44.847
-44.9102
-52.5216
-52.3896
-52.2365
-52.0675
-51.8895
-51.7064
-51.5211
-51.3329
-51.1439
-50.9538
-50.7634
-50.5714
-50.3795
-50.1886
-49.9969
-49.8064
-49.6163
-49.4267
-49.2394
-49.0533
-48.8698
-48.6888
-48.5108
-48.3355
-48.1649
-47.9991
-47.8382
-47.6841
-47.536
-47.3946
-47.2614
-47.137
-47.0214
-46.9161
-46.8207
-46.7369
-46.665
-46.6054
-46.5582
-46.5244
-46.5044
-46.5005
-46.5335
-54.5412
-54.4255
-54.2868
-54.1288
-53.961
-53.7882
-53.6096
-53.4268
-53.2401
-53.0519
-52.8606
-52.6672
-52.4727
-52.2773
-52.0813
-51.8845
-51.6871
-51.4903
-51.294
-51.0992
-50.9063
-50.7151
-50.5262
-50.3394
-50.1566
-49.9767
-49.8016
-49.6321
-49.4675
-49.3098
-49.1584
-49.0151
-48.8795
-48.7534
-48.6367
-48.5296
-48.4341
-48.3498
-48.2784
-48.2204
-48.1763
-48.1502
-48.1739
-56.6775
-56.5509
-56.4033
-56.2367
-56.0626
-55.8828
-55.6994
-55.5112
-55.3206
-55.1271
-54.9314
-54.733
-54.5332
-54.3329
-54.1316
-53.9286
-53.7258
-53.5217
-53.3177
-53.1149
-52.9125
-52.7113
-52.5114
-52.3135
-52.1185
-51.9258
-51.7383
-51.554
-51.374
-51.2
-51.0323
-50.8703
-50.7155
-50.5697
-50.4322
-50.3039
-50.1855
-50.0775
-49.9824
-49.8983
-49.8264
-49.7754
-49.8113
-58.8032
-58.6723
-58.5124
-58.3357
-58.152
-57.9647
-57.773
-57.5783
-57.3801
-57.1794
-56.9772
-56.7731
-56.5677
-56.3608
-56.1529
-55.9437
-55.7337
-55.5227
-55.3106
-55.0994
-54.8884
-54.6775
-54.4683
-54.2603
-54.0535
-53.8487
-53.6479
-53.4503
-53.256
-53.0666
-52.8824
-52.7032
-52.531
-52.3658
-52.2082
-52.0592
-51.9192
-51.789
-51.6714
-51.5648
-51.4693
-51.4001
-51.5384
-60.7805
-60.6526
-60.5037
-60.3376
-60.1607
-59.9768
-59.7864
-59.5912
-59.3919
-59.1895
-58.9844
-58.7761
-58.567
-58.3548
-58.1412
-57.9264
-57.7102
-57.4929
-57.2745
-57.0552
-56.8357
-56.6161
-56.397
-56.1788
-55.9615
-55.7455
-55.5318
-55.3213
-55.1139
-54.9097
-54.7098
-54.5145
-54.325
-54.1421
-53.9649
-53.7958
-53.6348
-53.4821
-53.339
-53.2046
-53.077
-52.9566
-52.901
-62.7308
-62.616
-62.4743
-62.3087
-62.1326
-61.9494
-61.7598
-61.5646
-61.3651
-61.1615
-60.954
-60.744
-60.5313
-60.3157
-60.0984
-59.8781
-59.6559
-59.4324
-59.2077
-58.9817
-58.754
-58.5263
-58.2985
-58.0708
-57.8434
-57.6171
-57.3919
-57.1685
-56.9482
-56.7296
-56.5149
-56.3046
-56.0987
-55.8981
-55.703
-55.5149
-55.3332
-55.1598
-54.9941
-54.8368
-54.6881
-54.5521
-54.49
-64.7818
-64.6427
-64.4831
-64.3045
-64.1191
-63.9277
-63.7302
-63.529
-63.3247
-63.1155
-62.9034
-62.6887
-62.4709
-62.251
-62.0283
-61.8028
-61.5754
-61.3454
-61.1142
-60.8809
-60.6461
-60.4105
-60.1745
-59.937
-59.6998
-59.4638
-59.2274
-58.9928
-58.7593
-58.5281
-58.2995
-58.0742
-57.8527
-57.6353
-57.4228
-57.2163
-57.0152
-56.8219
-56.6352
-56.4561
-56.2866
-56.1338
-56.0736
-66.6353
-66.5185
-66.3745
-66.2095
-66.0318
-65.8442
-65.6498
-65.4493
-65.2438
-65.0336
-64.8196
-64.6021
-64.3813
-64.1577
-63.9302
-63.7002
-63.4671
-63.2318
-62.9941
-62.755
-62.5138
-62.2702
-62.0257
-61.7797
-61.5335
-61.2869
-61.0406
-60.7943
-60.5485
-60.3045
-60.0627
-59.8231
-59.5868
-59.3537
-59.125
-58.9002
-58.6807
-58.4672
-58.2603
-58.0596
-57.866
-57.686
-57.5995
-68.5226
-68.4037
-68.2626
-68.0978
-67.9198
-67.7337
-67.54
-67.3399
-67.1335
-66.9227
-66.7071
-66.4879
-66.2643
-66.0367
-65.8053
-65.5708
-65.3329
-65.0926
-64.8494
-64.6035
-64.3554
-64.1048
-63.852
-63.5976
-63.3427
-63.0869
-62.8306
-62.5736
-62.3165
-62.0603
-61.8063
-61.5533
-61.3019
-61.0535
-60.8087
-60.5674
-60.3302
-60.0973
-59.8707
-59.6489
-59.4329
-59.2284
-59.1141
-70.394
-70.2818
-70.141
-69.9778
-69.7999
-69.6124
-69.4167
-69.214
-69.0057
-68.7918
-68.5733
-68.3508
-68.1236
-67.8922
-67.657
-67.4183
-67.1753
-66.9298
-66.6802
-66.4283
-66.173
-65.9155
-65.6556
-65.3932
-65.1297
-64.8651
-64.5989
-64.3315
-64.064
-63.7963
-63.5294
-63.2634
-62.999
-62.7355
-62.4752
-62.2177
-61.9637
-61.7129
-61.4672
-61.2257
-60.9892
-60.7632
-60.626
-72.3713
-72.2375
-72.0779
-71.8963
-71.7033
-71.5032
-71.2974