/*--------------------------------*- C++ -*----------------------------------*\
| =========                 |                                                 |
| \\      /  F ield         | OpenFOAM: The Open Source CFD Toolbox           |
|  \\    /   O peration     | Version:  2.3.0                                 |
|   \\  /    A nd           | Web:      www.OpenFOAM.org                      |
|    \\/     M anipulation  |                                                 |
\*---------------------------------------------------------------------------*/
FoamFile
{
    version     2.0;
    format      ascii;
    class       surfaceScalarField;
    location    "10000";
    object      phi;
}
// * * * * * * * * * * * * * * * * * * * * * * * * * * * * * * * * * * * * * //

dimensions      [0 3 -1 0 0 0 0];

internalField   nonuniform List<scalar> 
243606
(
0.000226043
-0.00200371
0.00218171
-0.000404035
6.21797e-05
-0.00192824
0.0020921
-8.86475e-05
-0.00185532
0.00200614
-0.000225649
-0.00178678
0.00192379
-0.000350572
-0.00171935
0.00184427
-0.000463228
-0.00165546
0.00176812
-0.000564067
-0.00159438
0.00169522
-0.000654115
-0.00153477
0.00162481
-0.000733151
-0.0014778
0.00155684
-0.000802819
-0.00142339
0.00149306
-0.00086161
-0.00137144
0.00143024
-0.000911738
-0.00132067
0.0013708
-0.000952954
-0.0012722
0.00131341
-0.000984915
-0.00122599
0.00125795
-0.00100979
-0.00118075
0.00120563
-0.00102606
-0.0011382
0.00115447
-0.00103457
-0.00109713
0.00110564
-0.00103623
-0.00105741
0.00105907
-0.0010307
-0.00101901
0.00101348
-0.00101815
-0.000982521
0.000969968
-0.000999402
-0.000947232
0.000928489
-0.000974677
-0.000913123
0.000888397
-0.000943552
-0.000880697
0.000849572
-0.000906778
-0.000849356
0.000812582
-0.000864497
-0.000819041
0.000776759
-0.000816254
-0.000790277
0.000742034
-0.000762683
-0.000761908
0.000708338
-0.000704455
-0.000735009
0.00067678
-0.000640518
-0.000708979
0.000645042
-0.000571425
-0.000684353
0.000615261
-0.000496648
-0.000660468
0.00058569
-0.000417078
-0.00063717
0.0005576
-0.000333004
-0.000614723
0.000530649
-0.000242999
-0.000594001
0.000503997
-0.000147284
-0.000573576
0.00047786
-4.57054e-05
-0.00055447
0.000452893
6.14e-05
-0.000535913
0.000428807
0.000175075
-0.000518923
0.000405248
0.000295183
-0.000503339
0.00038323
0.000423298
-0.000489948
0.000361834
0.000560672
-0.000478782
0.000341408
0.000710619
-0.000471768
0.000321819
-0.000471904
0.000891743
0.00029078
0.000210842
-0.00184218
-0.000372375
6.22578e-05
-0.00177965
-7.31672e-05
-0.00171989
-0.000197801
-0.00166215
-0.000310169
-0.00160698
-0.000412563
-0.00155307
-0.000504138
-0.0015028
-0.000585847
-0.00145306
-0.000657478
-0.00140617
-0.000720589
-0.00136028
-0.000774903
-0.00131713
-0.000820739
-0.00127484
-0.000857764
-0.00123517
-0.000887536
-0.00119622
-0.000909685
-0.0011586
-0.000925106
-0.00112278
-0.000933471
-0.00108876
-0.000935594
-0.00105529
-0.000931094
-0.00102351
-0.000920246
-0.000993369
-0.000904427
-0.000963051
-0.000882645
-0.000934905
-0.000855072
-0.00090827
-0.000823078
-0.00088135
-0.000785624
-0.000856495
-0.000744013
-0.000831888
-0.00069724
-0.000808681
-0.000645984
-0.000786264
-0.000590308
-0.000764655
-0.000530293
-0.000744368
-0.000466466
-0.000724295
-0.000398023
-0.000705613
-0.000324942
-0.000687804
-0.000248259
-0.000670684
-0.000167791
-0.000654044
-8.2222e-05
-0.000640039
7.75976e-06
-0.000625895
0.000102102
-0.000613265
0.000200975
-0.000602212
0.000304045
-0.000593018
0.000410632
-0.000585368
0.000518523
-0.00057966
-0.000576631
0.000623251
0.000196859
-0.00169569
-0.000343345
6.28775e-05
-0.00164567
-6.09086e-05
-0.0015961
-0.000173044
-0.00155001
-0.000275734
-0.00150429
-0.000368122
-0.00146068
-0.000451772
-0.00141915
-0.000525231
-0.0013796
-0.000591218
-0.00134019
-0.000647627
-0.00130387
-0.000697179
-0.00126758
-0.000738338
-0.00123368
-0.000772614
-0.00120089
-0.000800217
-0.00116862
-0.000820258
-0.00113856
-0.000834101
-0.00110893
-0.000842036
-0.00108083
-0.000843658
-0.00105367
-0.00083979
-0.00102738
-0.000831221
-0.00100194
-0.00081634
-0.000977931
-0.000796525
-0.00095472
-0.000772561
-0.000932234
-0.000743379
-0.000910532
-0.000709765
-0.000890108
-0.00067185
-0.000869803
-0.000629745
-0.000850786
-0.000583594
-0.000832415
-0.000533522
-0.000814727
-0.000480178
-0.000797713
-0.000422475
-0.000781998
-0.000361775
-0.000766312
-0.000297635
-0.000751943
-0.000230557
-0.000737762
-0.000159086
-0.000725515
-8.60078e-05
-0.000713118
-9.29518e-06
-0.000702608
6.97945e-05
-0.000692355
0.000151997
-0.000684415
0.000235103
-0.000676124
0.000320097
-0.000670362
0.000406103
-0.000665665
-0.000661896
0.000491367
0.000183339
-0.00156414
-0.000314893
6.07751e-05
-0.00152311
-5.06807e-05
-0.00148465
-0.000153221
-0.00144747
-0.00024595
-0.00141156
-0.000329216
-0.00137742
-0.000404555
-0.00134381
-0.000472855
-0.0013113
-0.000531997
-0.00128104
-0.000584079
-0.00125179
-0.000628766
-0.00122289
-0.000666918
-0.00119553
-0.000698159
-0.00116965
-0.000722739
-0.00114404
-0.000742066
-0.00111923
-0.000754623
-0.00109638
-0.000762327
-0.00107312
-0.00076483
-0.00105116
-0.000761717
-0.0010305
-0.000753163
-0.00101049
-0.000740536
-0.000990558
-0.000723433
-0.000971823
-0.000701372
-0.000954295
-0.000675708
-0.000936197
-0.000646006
-0.00091981
-0.000611792
-0.000904017
-0.000574373
-0.000888205
-0.000533287
-0.000873501
-0.00048919
-0.000858824
-0.00044106
-0.000845843
-0.00039028
-0.000832778
-0.000336236
-0.000820357
-0.000278918
-0.000809262
-0.000218718
-0.000797962
-0.00015665
-0.000787583
-9.10854e-05
-0.000778682
-2.36081e-05
-0.000770085
4.68039e-05
-0.000762767
0.00011797
-0.000755581
0.000192199
-0.000750353
0.000267025
-0.000745188
0.000342897
-0.000741538
-0.000738611
0.000419613
0.00016929
-0.00144437
-0.00028906
5.88982e-05
-0.00141272
-4.18414e-05
-0.00138391
-0.000135057
-0.00135426
-0.000219262
-0.00132736
-0.000295943
-0.00130073
-0.000364772
-0.00127498
-0.000425445
-0.00125063
-0.000479426
-0.00122706
-0.000526959
-0.00120425
-0.000567681
-0.00118217
-0.000602434
-0.00116077
-0.000630841
-0.00114125
-0.00065431
-0.00112057
-0.000671236
-0.0011023
-0.000683585
-0.00108403
-0.000690398
-0.00106631
-0.00069244
-0.00104912
-0.000689879
-0.00103306
-0.000682882
-0.00101749
-0.000671595
-0.00100185
-0.000656183
-0.000987235
-0.00063681
-0.000973668
-0.000613597
-0.00095941
-0.000586649
-0.000946757
-0.000556683
-0.000933984
-0.000523272
-0.000921616
-0.000486486
-0.000910288
-0.000445926
-0.000899384
-0.000403452
-0.000888317
-0.000357732
-0.000878498
-0.000309185
-0.000868904
-0.000258529
-0.000859918
-0.000204905
-0.000851585
-0.000148391
-0.000844097
-9.05489e-05
-0.000836524
-3.00517e-05
-0.000830582
3.17992e-05
-0.000824618
9.64261e-05
-0.000820208
0.000161237
-0.000815163
0.000228681
-0.000812632
0.000296904
-0.000809761
-0.000807517
0.00036581
0.000156258
-0.00133475
-0.000265877
5.64595e-05
-0.00131292
-3.62315e-05
-0.00129122
-0.00011972
-0.00127077
-0.000196099
-0.00125098
-0.000265609
-0.00123122
-0.000327919
-0.00121268
-0.000383876
-0.00119467
-0.00043311
-0.00117783
-0.000476453
-0.00116091
-0.000513532
-0.00114509
-0.00054454
-0.00112977
-0.000571469
-0.00111432
-0.000592141
-0.0010999
-0.000607944
-0.0010865
-0.000619002
-0.00107297
-0.000625535
-0.00105978
-0.000627641
-0.00104702
-0.000625543
-0.00103515
-0.000619943
-0.00102309
-0.000609854
-0.00101193
-0.000595944
-0.00100114
-0.000578966
-0.000990645
-0.000557884
-0.000980492
-0.000533954
-0.000970687
-0.000506749
-0.000961188
-0.000476337
-0.000952028
-0.000443423
-0.000943202
-0.000407542
-0.000935264
-0.000368739
-0.000927121
-0.000327913
-0.000919323
-0.000283772
-0.000913045
-0.000238108
-0.000905583
-0.000190064
-0.000899629
-0.000140002
-0.000894159
-8.7307e-05
-0.000889219
-3.35441e-05
-0.000884345
2.24294e-05
-0.000880591
7.95024e-05
-0.000877281
0.000139127
-0.000874788
0.000199208
-0.000872713
0.000260639
-0.000871192
-0.00087013
0.000323252
0.000144421
-0.00123628
-0.000242895
5.38217e-05
-0.00122232
-2.97971e-05
-0.0012076
-0.000106659
-0.00119391
-0.000176404
-0.00118124
-0.000239315
-0.00116831
-0.0002956
-0.00115639
-0.000346058
-0.00114421
-0.000390924
-0.00113296
-0.000430388
-0.00112145
-0.00046465
-0.00111083
-0.000493333
-0.00110108
-0.000517175
-0.00109047
-0.000536372
-0.0010807
-0.000551069
-0.0010718
-0.000561456
-0.00106258
-0.000567616
-0.00105362
-0.0005698
-0.00104483
-0.000568066
-0.00103689
-0.000562562
-0.00102859
-0.000553447
-0.00102105
-0.000540862
-0.00101373
-0.000525473
-0.00100603
-0.000507386
-0.000998579
-0.000485597
-0.000992477
-0.000461357
-0.000985428
-0.000433615
-0.00097977
-0.000403591
-0.000973225
-0.000371364
-0.000967492
-0.000336525
-0.000961959
-0.000299106
-0.000956742
-0.000260359
-0.000951791
-0.000218699
-0.000947243
-0.000175391
-0.000942937
-0.000129756
-0.000939793
-8.32205e-05
-0.000935755
-3.409e-05
-0.000933476
1.63843e-05
-0.000931066
6.86659e-05
-0.000929563
0.000121517
-0.000927639
0.000175888
-0.000927084
0.000231914
-0.000927218
-0.000926401
0.000288185
0.000133018
-0.00114685
-0.000222448
5.02167e-05
-0.00113952
-2.55931e-05
-0.00113179
-9.46628e-05
-0.00112484
-0.000158377
-0.00111752
-0.000215771
-0.00111092
-0.000267044
-0.00110512
-0.000313009
-0.00109825
-0.000354426
-0.00109155
-0.000389713
-0.00108616
-0.000420242
-0.0010803
-0.000446764
-0.00107456
-0.00046884
-0.0010684
-0.000486065
-0.00106347
-0.000499758
-0.00105811
-0.000509474
-0.00105287
-0.000514743
-0.00104835
-0.000516857
-0.00104272
-0.000515418
-0.00103833
-0.000510537
-0.00103347
-0.000502869
-0.00102872
-0.00049195
-0.00102465
-0.00047796
-0.00102002
-0.000460406
-0.00101613
-0.000441647
-0.00101124
-0.000418941
-0.00100814
-0.000395223
-0.00100349
-0.000367777
-0.00100067
-0.000338862
-0.000996407
-0.000307521
-0.000993301
-0.00027388
-0.000990383
-0.000238404
-0.000987268
-0.000200921
-0.000984726
-0.000161078
-0.000982781
-0.000120525
-0.000980346
-7.7853e-05
-0.000978427
-3.34518e-05
-0.000977877
1.21137e-05
-0.000976631
5.85009e-05
-0.00097595
0.000106834
-0.000975972
0.000156427
-0.000976677
0.000206683
-0.000977475
-0.00097798
0.000258262
0.000122392
-0.00106566
-0.000203581
4.66436e-05
-0.00106377
-2.19443e-05
-0.0010632
-8.49947e-05
-0.00106179
-0.000141935
-0.00106058
-0.000194324
-0.00105853
-0.000241575
-0.00105787
-0.000283403
-0.00105642
-0.000319938
-0.00105501
-0.000353082
-0.00105302
-0.000381292
-0.00105209
-0.00040526
-0.00105059
-0.000424574
-0.00104908
-0.000441089
-0.00104696
-0.000453219
-0.00104598
-0.000461782
-0.0010443
-0.000467312
-0.00104282
-0.00046935
-0.00104068
-0.000468196
-0.00103948
-0.000463768
-0.0010379
-0.000456337
-0.00103615
-0.000446953
-0.00103403
-0.000434166
-0.00103281
-0.000419201
-0.0010311
-0.000400975
-0.00102946
-0.000381788
-0.00102732
-0.000359032
-0.00102624
-0.000335012
-0.00102469
-0.000308019
-0.0010234
-0.000279735
-0.00102158
-0.000249389
-0.00102073
-0.000217064
-0.00101959
-0.000183114
-0.00101868
-0.000148192
-0.0010177
-0.00011101
-0.00101753
-7.20838e-05
-0.00101735
-3.24186e-05
-0.00101754
8.42237e-06
-0.00101747
5.14509e-05
-0.00101898
9.54419e-05
-0.00101996
0.000140137
-0.00102137
0.000185256
-0.00102259
0.000232276
-0.001025
0.000956065
-0.000492045
0.000427721
0.00101208
-0.000524824
0.00046881
0.00107095
-0.000551206
0.000492328
0.00113044
-0.000574034
0.000514544
0.00118963
-0.000595172
0.000535983
0.00124815
-0.000614252
0.000555737
0.00130522
-0.000632952
0.000575881
0.00136131
-0.000651569
0.000595474
0.00141586
-0.000669957
0.000615407
0.00146794
-0.000688183
0.000636103
0.00151902
-0.000707911
0.000656832
0.00156642
-0.000726805
0.000679412
0.00161166
-0.000746792
0.000701549
0.00165436
-0.000768134
0.000725437
0.00169427
-0.0007897
0.000749788
0.00172982
-0.000811683
0.000776128
0.00176201
-0.000834689
0.000802498
0.00179029
-0.000859123
0.000830848
0.00181379
-0.000883784
0.000860285
0.00183369
-0.000909872
0.00088997
0.00184767
-0.000936779
0.000922801
0.00185657
-0.000964499
0.000955601
0.00186053
-0.000993823
0.00098986
0.00185917
-0.00102414
0.0010255
0.00185147
-0.00105506
0.00106275
0.00183762
-0.00108812
0.00110197
0.00181708
-0.00112135
0.00114189
0.00179008
-0.00115675
0.00118374
0.00175686
-0.00119366
0.00122689
0.00171583
-0.00123151
0.00127253
0.00166711
-0.00127047
0.0013192
0.00161072
-0.00131152
0.0013679
0.00154636
-0.00135384
0.00141821
0.00147447
-0.00139863
0.00147052
0.00139295
-0.00144386
0.00152537
0.0013027
-0.00149133
0.00158158
0.00120281
-0.00154076
0.00164065
0.00109415
-0.00159257
0.00170123
0.00097504
-0.00164513
0.00176425
0.00084599
-0.00170041
0.00182946
0.000706129
-0.00175797
0.00189783
0.000554597
-0.0018174
0.00196893
-0.00187911
0.00204145
0.000392262
0.000715596
-0.000584391
0.000794658
-0.000603886
0.000866536
-0.000623084
0.000934023
-0.000641521
0.000997874
-0.000659024
0.00106036
-0.000676742
0.00112065
-0.000693239
0.00117877
-0.000709683
0.00123494
-0.000726134
0.00128974
-0.000742985
0.00134062
-0.000758791
0.00139007
-0.000776253
0.00143668
-0.000793398
0.00147974
-0.000811201
0.00151919
-0.000829143
0.00155532
-0.000847821
0.00158771
-0.000867077
0.0016161
-0.000887514
0.00163989
-0.00090757
0.00165965
-0.000929628
0.00167437
-0.000951508
0.00168429
-0.000974415
0.00168939
-0.000998921
0.00168852
-0.00102327
0.00168287
-0.00104941
0.00167092
-0.00107616
0.00165389
-0.00110432
0.00163001
-0.00113287
0.00159995
-0.0011636
0.00156256
-0.00119412
0.00151967
-0.00122757
0.00146879
-0.00126063
0.00141114
-0.0012962
0.00134522
-0.00133271
0.00127131
-0.00136995
0.0011902
-0.00141022
0.00109988
-0.00145044
0.00100057
-0.00149326
0.000892189
-0.00153676
0.000774793
-0.00158301
0.000647325
-0.0016305
0.000509677
-0.00167975
-0.001731
0.000361565
0.00057412
-0.000667144
0.000652449
-0.000682214
0.000726498
-0.000697133
0.00079713
-0.000712153
0.00086432
-0.000726214
0.000928398
-0.000740819
0.000989901
-0.000754743
0.00104831
-0.000768087
0.00110465
-0.000782475
0.00115696
-0.000795296
0.00120769
-0.000809519
0.00125464
-0.000823205
0.00129874
-0.000837502
0.00133927
-0.000851726
0.00137658
-0.000866457
0.00141069
-0.000881934
0.00144084
-0.000897227
0.00146683
-0.000913497
0.00148964
-0.000930388
0.00150753
-0.000947513
0.00152168
-0.000965662
0.00153134
-0.000984074
0.00153593
-0.0010035
0.00153586
-0.0010232
0.00153095
-0.0010445
0.00152086
-0.00106607
0.0015052
-0.00108866
0.00148422
-0.00111189
0.00145715
-0.00113653
0.00142427
-0.00116124
0.00138481
-0.00118812
0.00133883
-0.00121465
0.00128655
-0.00124392
0.00122667
-0.00127283
0.0011606
-0.00130388
0.00108587
-0.00133549
0.0010039
-0.00136847
0.00091415
-0.00140351
0.000816124
-0.00143873
0.000708752
-0.00147564
0.000593022
-0.00151477
0.000467519
-0.00155425
-0.00159614
0.000332656
0.000495172
-0.000742704
0.000567199
-0.000754241
0.000636309
-0.000766243
0.000701601
-0.000777445
0.000764957
-0.00078957
0.000824719
-0.000800581
0.000882051
-0.000812076
0.000937286
-0.000823322
0.000989234
-0.000834423
0.00103907
-0.000845136
0.00108558
-0.000856023
0.00113003
-0.000867657
0.00117044
-0.000877914
0.00120866
-0.000889945
0.00124378
-0.000901578
0.00127543
-0.000913581
0.0013038
-0.000925597
0.00132833
-0.000938026
0.0013494
-0.000951458
0.00136703
-0.00096515
0.00138009
-0.000978721
0.00138935
-0.00099333
0.00139464
-0.0010088
0.00139521
-0.00102377
0.00139126
-0.00104055
0.00138262
-0.00105744
0.00136873
-0.00107478
0.00134966
-0.00109281
0.00132559
-0.00111247
0.00129639
-0.00113204
0.00126054
-0.00115227
0.00121963
-0.00117374
0.00117176
-0.00119604
0.0011185
-0.00121957
0.00105779
-0.00124316
0.000990811
-0.00126852
0.000916662
-0.00129432
0.000834442
-0.00132129
0.000745153
-0.00134944
0.000648265
-0.00137875
0.000542356
-0.00140886
0.000428797
-0.00144069
-0.00147366
0.000306322
0.000433825
-0.000810718
0.000500041
-0.000820458
0.000562845
-0.000829047
0.00062399
-0.00083859
0.000682425
-0.000848005
0.000738363
-0.000856519
0.000791453
-0.000865166
0.000842368
-0.000874237
0.000890561
-0.000882616
0.000936562
-0.000891138
0.000980042
-0.000899503
0.00102032
-0.000907937
0.00105925
-0.00091684
0.00109427
-0.000924965
0.00112612
-0.000933426
0.00115518
-0.000942644
0.00118186
-0.000952274
0.00120503
-0.000961202
0.00122414
-0.000970569
0.00124053
-0.000981532
0.00125307
-0.000991264
0.00126178
-0.00100204
0.00126666
-0.00101368
0.00126774
-0.00102484
0.00126427
-0.00103708
0.00125682
-0.00104999
0.00124469
-0.00106265
0.00122769
-0.00107582
0.00120586
-0.00109064
0.00117922
-0.0011054
0.00114762
-0.00112067
0.00111069
-0.00113681
0.00106789
-0.00115324
0.00101848
-0.00117016
0.000964018
-0.0011887
0.000902846
-0.00120735
0.000835924
-0.0012274
0.000761238
-0.0012466
0.000680311
-0.00126851
0.000591892
-0.00129033
0.000496202
-0.00131317
0.000392566
-0.00133705
-0.00136139
0.000280293
0.000385639
-0.000873104
0.000445205
-0.000880024
0.000503241
-0.000887084
0.000558813
-0.000894162
0.000611782
-0.000900974
0.000663096
-0.000907832
0.000712252
-0.000914321
0.000759169
-0.000921155
0.00080385
-0.000927297
0.000845994
-0.000933282
0.00088617
-0.00093968
0.000923678
-0.000945444
0.000957977
-0.000951139
0.000990552
-0.000957539
0.00102069
-0.000963565
0.00104766
-0.000969617
0.00107128
-0.000975894
0.00109269
-0.000982611
0.00111135
-0.000989223
0.00112593
-0.000996119
0.00113779
-0.00100312
0.00114636
-0.00101061
0.0011507
-0.00101802
0.00115159
-0.00102573
0.00114902
-0.00103451
0.00114228
-0.00104324
0.00113157
-0.00105194
0.00111656
-0.00106081
0.00109726
-0.00107133
0.00107292
-0.00108106
0.00104394
-0.00109169
0.00101034
-0.00110321
0.00097177
-0.00111467
0.000928058
-0.00112645
0.00087848
-0.00113913
0.000823069
-0.00115193
0.000761112
-0.00116544
0.00069487
-0.00118036
0.000620819
-0.00119446
0.000540505
-0.00121002
0.00045321
-0.00122588
0.000358777
-0.00124262
-0.00125961
0.000257003
0.000344384
-0.000929304
0.000398757
-0.000934396
0.000451248
-0.000939574
0.000502074
-0.000944988
0.000551279
-0.000950178
0.000598194
-0.000954748
0.00064285
-0.000958977
0.000685624
-0.000963929
0.000726215
-0.000967888
0.000765343
-0.00097241
0.000801612
-0.000975948
0.000835935
-0.000979767
0.000868333
-0.000983538
0.000898088
-0.000987293
0.000925214
-0.000990691
0.000950086
-0.000994489
0.000972355
-0.000998163
0.000992027
-0.00100228
0.00100837
-0.00100556
0.00102232
-0.00101007
0.00103297
-0.00101377
0.00104107
-0.00101871
0.00104511
-0.00102207
0.00104698
-0.0010276
0.00104464
-0.00103216
0.0010381
-0.00103671
0.00102836
-0.0010422
0.0010156
-0.00104805
0.000997396
-0.00105313
0.000976386
-0.00106005
0.000950337
-0.00106564
0.000919441
-0.00107232
0.000884647
-0.00107987
0.000844307
-0.00108611
0.000799559
-0.00109438
0.000749513
-0.00110189
0.000694358
-0.00111028
0.000632805
-0.00111881
0.000565455
-0.00112711
0.000492889
-0.00113745
0.000413481
-0.00114647
0.000327813
-0.00115695
-0.00116794
0.000236142
0.000309737
-0.000980779
0.000359093
-0.000983752
0.00040703
-0.000987512
0.000453055
-0.000991013
0.000497515
-0.000994639
0.00054024
-0.000997472
0.000581456
-0.00100019
0.000620493
-0.00100297
0.000658083
-0.00100548
0.000692792
-0.00100712
0.00072646
-0.00100962
0.000757645
-0.00101095
0.000787272
-0.00101316
0.000814257
-0.00101428
0.000839543
-0.00101598
0.000862006
-0.00101695
0.000882617
-0.00101877
0.000900073
-0.00101974
0.000915869
-0.00102136
0.000928153
-0.00102236
0.000938805
-0.00102442
0.0009452
-0.0010251
0.000950335
-0.0010272
0.000951025
-0.00102829
0.000948446
-0.00102958
0.000943754
-0.00103202
0.000935087
-0.00103353
0.000922634
-0.0010356
0.000907327
-0.00103782
0.000887317
-0.00104004
0.000864302
-0.00104263
0.000836983
-0.001045
0.000804977
-0.00104787
0.000768708
-0.00104984
0.000727835
-0.0010535
0.000682365
-0.00105642
0.000631923
-0.00105984
0.000576171
-0.00106305
0.000516051
-0.00106699
0.000449394
-0.0010708
0.00037767
-0.00107474
0.000299825
-0.0010791
-0.00108361
0.000215487
0.000278735
-0.00102724
0.000324152
-0.00102917
0.000367368
-0.00103073
0.000409556
-0.0010332
0.000449902
-0.00103499
0.000489107
-0.00103668
0.000526116
-0.0010372
0.000561898
-0.00103875
0.00059583
-0.00103941
0.000628522
-0.00103981
0.000658411
-0.00103951
0.000687648
-0.00104019
0.000714205
-0.00103972
0.000739238
-0.00103931
0.000761454
-0.00103819
0.000782493
-0.00103799
0.000801219
-0.0010375
0.000817851
-0.00103637
0.000831351
-0.00103486
0.000843362
-0.00103437
0.000852231
-0.00103329
0.00085944
-0.00103231
0.00086257
-0.00103033
0.000863868
-0.00102959
0.00086274
-0.00102845
0.000857936
-0.00102721
0.000849946
-0.00102554
0.00083941
-0.00102506
0.000825239
-0.00102365
0.000807698
-0.0010225
0.000785823
-0.00102075
0.000760902
-0.00102008
0.000732015
-0.00101898
0.000699826
-0.00101765
0.00066225
-0.00101593
0.000621148
-0.00101532
0.000575422
-0.00101412
0.000525443
-0.00101308
0.000470137
-0.00101169
0.000409418
-0.00101008
0.000344093
-0.00100942
0.000273366
-0.00100838
-0.00100727
0.000197033
-8.68253e-06
0.00261173
-0.00284127
0.000238221
0.000203492
0.00251779
-0.00272996
0.000398864
0.00242741
-0.00262278
0.000577671
0.0023406
-0.00251941
0.000740921
0.00225685
-0.0024201
0.000889391
0.00217585
-0.00232432
0.00102306
0.00209838
-0.00223204
0.00114265
0.00202338
-0.00214298
0.00124865
0.00195136
-0.00205737
0.00134182
0.00188125
-0.00197441
0.00142208
0.00181431
-0.00189457
0.00149043
0.00174897
-0.00181732
0.00154682
0.00168621
-0.0017426
0.00159196
0.00162522
-0.00167036
0.00162581
0.00156622
-0.00160007
0.00164908
0.00150892
-0.00153219
0.00166202
0.00145326
-0.0014662
0.00166464
0.00139923
-0.00140185
0.00165799
0.00134656
-0.00133991
0.00164211
0.00129499
-0.00127911
0.00161737
0.00124522
-0.00122048
0.00158412
0.00119628
-0.00116304
0.00154304
0.00114841
-0.00110732
0.00149455
0.00110182
-0.00105334
0.00143914
0.00105606
-0.00100065
0.00137708
0.00101157
-0.000949516
0.0013094
0.000967429
-0.000899741
0.00123641
0.000924561
-0.000851578
0.00115874
0.000882259
-0.00080459
0.00107658
0.000840963
-0.000758799
0.000991236
0.000799973
-0.00071463
0.000902969
0.000759696
-0.000671429
0.000812495
0.000719851
-0.000629376
0.000720557
0.000680545
-0.000588607
0.00062794
0.000641241
-0.000548625
0.000535476
0.000601951
-0.000509487
0.000443708
0.000562389
-0.000470621
0.000353836
0.000521932
-0.000432061
0.000266889
0.000479872
-0.000392925
0.000184454
0.000435117
-0.00035268
0.000107442
0.000385483
-0.000308472
3.30792e-05
0.000330298
-0.000255931
0.000294313
-8.44637e-05
-0.000176771
-9.95334e-06
0.00240355
0.000218141
0.000182513
0.00232532
0.000359512
0.00225041
0.000521812
0.0021783
0.000669932
0.00210873
0.000804358
0.00204142
0.000925596
0.00197714
0.00103416
0.00191482
0.0011308
0.00185472
0.00121498
0.00179706
0.00128849
0.00174081
0.00135051
0.00168695
0.0014023
0.00163442
0.00144355
0.00158396
0.00147501
0.00153476
0.00149691
0.00148702
0.00150945
0.00144072
0.00151315
0.00139553
0.00150826
0.00135145
0.00149457
0.00130868
0.00147335
0.00126643
0.00144469
0.00122495
0.0014082
0.0011849
0.00136521
0.00114481
0.00131567
0.00110561
0.00126022
0.00106702
0.00119888
0.00102877
0.00113261
0.000990836
0.00106147
0.000953395
0.000986499
0.000915933
0.000907832
0.00087864
0.000826104
0.000841424
0.000741788
0.000804167
0.000656002
0.00076633
0.000569095
0.000728149
0.000481897
0.000689149
0.000395325
0.00064896
0.000310252
0.000607005
0.000227778
0.000562345
0.000149492
0.000513404
7.582e-05
0.000459156
7.08246e-07
0.00040541
0.000406226
-0.000111204
-1.07674e-05
0.00221442
0.000199888
0.000163717
0.00215084
0.00032432
0.00208981
0.000471804
0.00203082
0.000606168
0.00197436
0.000727938
0.00191965
0.000837892
0.00186718
0.000936505
0.00181621
0.00102406
0.00176717
0.00110102
0.0017201
0.0011674
0.00167443
0.00122421
0.00163014
0.00127114
0.00158748
0.00130898
0.00154613
0.00133792
0.00150582
0.00135793
0.001467
0.00137003
0.00142862
0.00137369
0.00139188
0.00136965
0.00135549
0.00135843
0.00131991
0.0013398
0.00128506
0.00131405
0.0012507
0.00128199
0.00121696
0.00124345
0.00118334
0.00119879
0.00115027
0.00114887
0.00111695
0.00109338
0.00108426
0.00103301
0.00105121
0.000968457
0.00101794
0.000899764
0.000984626
0.000827485
0.000950919
0.0007522
0.000916709
0.000674523
0.000881844
0.000594918
0.000845936
0.00051411
0.000808957
0.000432905
0.000770354
0.000351814
0.000730052
0.000272089
0.00068673
0.000194793
0.00063964
0.000121172
0.000587026
5.07514e-05
0.000529577
-2.38133e-05
0.000479976
0.000512387
-0.000129975
-1.11143e-05
0.00204268
0.000182855
0.000147039
0.00199269
0.00029288
0.00194397
0.000426412
0.00189728
0.000548432
0.00185234
0.000659186
0.0018089
0.000759153
0.00176722
0.000848387
0.00172697
0.000927856
0.0016877
0.000997599
0.00165036
0.0010581
0.00161393
0.00110934
0.0015789
0.00115234
0.00154448
0.00118682
0.00151165
0.00121302
0.00147962
0.00123168
0.00144834
0.00124254
0.00141776
0.00124657
0.00138785
0.00124328
0.00135878
0.00123317
0.00133002
0.00121674
0.0013015
0.00119378
0.00127365
0.00116507
0.00124567
0.00113064
0.00121777
0.0010906
0.00119031
0.00104528
0.00116227
0.000995264
0.00113427
0.000940737
0.00110574
0.000881881
0.0010768
0.000819167
0.00104734
0.000753086
0.001017
0.000684188
0.000985608
0.000613021
0.000953011
0.000539791
0.000919165
0.000464984
0.000883764
0.000389577
0.000845761
0.000314641
0.000804988
0.000240451
0.00076092
0.000168728
0.000711363
9.98411e-05
0.000655912
3.346e-05
0.000595958
-3.87475e-05
0.000552184
0.000610205
-0.000136565
-1.17454e-05
0.00188721
0.000167217
0.000132475
0.00184847
0.000264687
0.00181176
0.000385937
0.00177603
0.000496707
0.00174157
0.000596999
0.0017086
0.000687884
0.00167633
0.000769048
0.00164581
0.000841051
0.0016157
0.00090437
0.00158704
0.000959267
0.00155904
0.00100625
0.00153192
0.00104506
0.00150567
0.00107643
0.00148028
0.00110062
0.00145542
0.00111761
0.00143134
0.00112788
0.00140749
0.00113144
0.00138429
0.001129
0.00136121
0.00112033
0.00133869
0.00110542
0.0013164
0.00108528
0.00129379
0.00105945
0.00127151
0.00102821
0.001249
0.000992346
0.00122618
0.000951434
0.00120318
0.00090605
0.00117966
0.000856547
0.00115524
0.000803083
0.00113027
0.000746095
0.00110433
0.000686043
0.00107705
0.000622963
0.00104869
0.000557408
0.00101857
0.000489962
0.000986611
0.000421472
0.000952254
0.000352049
0.000915185
0.00028256
0.000874476
0.00021418
0.0008293
0.000147493
0.000778051
8.36e-05
0.000719806
2.15735e-05
0.000657985
-4.69167e-05
0.000620674
0.000699628
-0.00013634
-1.13482e-05
0.00174562
0.000152938
0.000119023
0.00171809
0.000239223
0.00169156
0.0003495
0.00166576
0.000449855
0.00164122
0.000541329
0.00161713
0.000623384
0.00159428
0.000697337
0.00157186
0.0007629
0.00155013
0.000820339
0.0015296
0.000870424
0.00150895
0.000912896
0.00148945
0.00094826
0.00147031
0.000976753
0.00145179
0.000998878
0.0014333
0.00101461
0.00141561
0.00102397
0.00139813
0.00102744
0.00138083
0.00102522
0.00136343
0.00101734
0.00134658
0.00100452
0.00132922
0.000986042
0.00131227
0.000962923
0.00129463
0.000934935
0.00127699
0.00090237
0.00125874
0.00086574
0.00123981
0.000824863
0.00122053
0.000779816
0.00120029
0.000731188
0.00117889
0.000679407
0.00115611
0.000624235
0.00113222
0.000566838
0.00110608
0.000507043
0.00107836
0.000445359
0.00104829
0.000382376
0.00101524
0.000318536
0.000979025
0.000254477
0.000938535
0.000191251
0.000892527
0.000129759
0.000839543
7.09203e-05
0.000778644
1.32004e-05
0.000715705
-5.09611e-05
0.000684836
0.000781525
-0.000132858
-1.14821e-05
0.00161732
0.000139787
0.000107168
0.00159944
0.000216429
0.0015823
0.000316305
0.00156588
0.000407843
0.00154968
0.000490518
0.00153445
0.000565611
0.00151918
0.00063259
0.00150488
0.000692
0.00149072
0.000744338
0.00147726
0.000789611
0.00146368
0.000828316
0.00145074
0.000860486
0.00143814
0.000886574
0.0014257
0.000906589
0.00141329
0.000921039
0.00140116
0.000929653
0.00138952
0.000933175
0.00137731
0.000931116
0.00136549
0.000924419
0.00135327
0.000912585
0.00134105
0.000896123
0.00132873
0.000875295
0.00131546
0.000850144
0.00130214
0.000820713
0.00128817
0.000787297
0.00127323
0.000750376
0.00125745
0.000709768
0.00124089
0.00066574
0.00122292
0.000618431
0.00120342
0.000568537
0.00118212
0.000515812
0.00115881
0.000461094
0.00113308
0.000404946
0.00110444
0.000347371
0.00107281
0.000288816
0.00103758
0.000230101
0.000997249
0.000172023
0.000950605
0.000115452
0.000896114
6.09759e-05
0.00083312
7.28162e-06
0.000769399
-5.28668e-05
0.000744984
0.000856236
-0.000127578
-1.10815e-05
0.00150047
0.000127933
9.66514e-05
0.00149171
0.000195797
0.00148315
0.00028685
0.00147483
0.000369585
0.00146694
0.000445024
0.00145902
0.000512906
0.0014513
0.000573724
0.00144406
0.000627751
0.0014367
0.000675487
0.00142952
0.000716707
0.00142246
0.000751908
0.00141554
0.000781362
0.00140869
0.000805038
0.00140203
0.000823129
0.00139519
0.000836229
0.00138806
0.000844254
0.0013815
0.000847297
0.00137427
0.000845797
0.00136699
0.000839716
0.00135935
0.000829048
0.00135172
0.000814459
0.00134332
0.000795326
0.00133459
0.000772661
0.0013248
0.000746255
0.00131458
0.000716124
0.00130336
0.000682533
0.00129105
0.000645704
0.00127772
0.000605576
0.00126305
0.00056258
0.00124641
0.00051694
0.00122776
0.000469096
0.00120665
0.000419215
0.00118296
0.000367785
0.00115587
0.000315339
0.00112526
0.000261803
0.00109112
0.000207465
0.00105159
0.000153835
0.00100423
0.000102365
0.000947584
5.25688e-05
0.000882916
2.89523e-06
0.000819073
-5.2836e-05
0.000800715
0.00092446
-0.00012106
-1.06524e-05
0.00139454
0.000116583
8.72513e-05
0.00139381
0.000177316
0.00139309
0.000259845
0.0013923
0.000335344
0.00139145
0.000403816
0.00139054
0.000465551
0.00138957
0.000520993
0.00138862
0.000570182
0.00138751
0.00061334
0.00138637
0.000650529
0.00138527
0.000682386
0.00138368
0.000709206
0.00138187
0.000731032
0.0013802
0.000747727
0.0013785
0.000759502
0.00137628
0.000766924
0.00137407
0.000769923
0.00137127
0.000768719
0.00136819
0.000763212
0.00136486
0.000753974
0.00136096
0.000740429
0.00135687
0.000723366
0.00135165
0.00070243
0.00134574
0.000678459
0.00133855
0.000651469
0.00133035
0.000621381
0.00132113
0.000588744
0.00131036
0.000552635
0.00129916
0.000512674
0.00128637