/*--------------------------------*- C++ -*----------------------------------*\
| =========                 |                                                 |
| \\      /  F ield         | OpenFOAM: The Open Source CFD Toolbox           |
|  \\    /   O peration     | Version:  2.3.0                                 |
|   \\  /    A nd           | Web:      www.OpenFOAM.org                      |
|    \\/     M anipulation  |                                                 |
\*---------------------------------------------------------------------------*/
FoamFile
{
    version     2.0;
    format      ascii;
    class       volScalarField;
    location    "3000";
    object      nut;
}
// * * * * * * * * * * * * * * * * * * * * * * * * * * * * * * * * * * * * * //

dimensions      [0 2 -1 0 0 0 0];

internalField   nonuniform List<scalar> 
38144
(
0.0718239
0.0702203
0.0686113
0.0669973
0.0653794
0.0637585
0.0621354
0.0605112
0.0588864
0.0572619
0.0556384
0.0540163
0.0523966
0.0507798
0.0491668
0.047558
0.0459542
0.0443559
0.0427636
0.0411781
0.0395999
0.0380293
0.0364671
0.0349141
0.0333713
0.0318391
0.0303187
0.0288115
0.0273191
0.0258434
0.0243864
0.0229507
0.0215404
0.0201594
0.0188128
0.0175064
0.0162474
0.0150439
0.0139008
0.0128129
0.0117329
0.0104206
0.00860635
0.072946
0.0715269
0.0701036
0.0686765
0.0672463
0.0658135
0.064379
0.0629432
0.0615066
0.0600695
0.0586319
0.0571946
0.0557582
0.0543224
0.0528882
0.051456
0.0500264
0.0485998
0.0471767
0.0457578
0.0443435
0.0429345
0.0415317
0.0401358
0.0387481
0.0373704
0.0360037
0.0346505
0.0333138
0.031996
0.0307008
0.0294334
0.0282005
0.0270089
0.0258691
0.0247914
0.0237907
0.0228828
0.0220859
0.0214196
0.0209005
0.0205432
0.0203593
0.0739855
0.0727251
0.0714606
0.0701923
0.0689205
0.0676461
0.0663693
0.0650909
0.063811
0.0625293
0.0612459
0.0599612
0.0586753
0.0573884
0.0561011
0.0548136
0.0535264
0.0522398
0.0509545
0.0496711
0.0483902
0.0471124
0.0458386
0.0445701
0.0433082
0.0420547
0.0408117
0.0395821
0.0383688
0.0371753
0.0360063
0.0348671
0.0337648
0.0327072
0.0317027
0.0307623
0.0298985
0.0291241
0.0284525
0.0278974
0.0274709
0.0271825
0.0270373
0.0749456
0.0738224
0.0726946
0.0715622
0.0704257
0.0692855
0.0681422
0.0669962
0.0658475
0.0646961
0.0635418
0.0623845
0.0612239
0.0600604
0.0588947
0.0577265
0.0565564
0.0553853
0.0542133
0.0530409
0.051869
0.0506987
0.0495304
0.0483653
0.0472052
0.0460518
0.0449076
0.0437757
0.0426587
0.0415605
0.040487
0.0394431
0.0384349
0.0374705
0.0365584
0.0357079
0.0349295
0.0342346
0.0336338
0.0331375
0.0327555
0.0324959
0.0323612
0.0758295
0.074825
0.0738151
0.0727996
0.0717786
0.0707526
0.0697224
0.068688
0.0676499
0.0666081
0.0655621
0.0645116
0.0634558
0.0623953
0.0613303
0.060261
0.0591875
0.0581108
0.0570315
0.0559504
0.0548683
0.0537856
0.0527032
0.0516226
0.0505448
0.0494717
0.0484065
0.0473513
0.0463096
0.045286
0.0442848
0.0433114
0.0423724
0.0414754
0.0406286
0.0398402
0.039119
0.0384754
0.0379189
0.0374587
0.0371027
0.0368579
0.0367273
0.0766395
0.0757388
0.0748307
0.073916
0.0729943
0.0720657
0.0711313
0.0701916
0.0692467
0.068297
0.0673422
0.0663815
0.065414
0.0644395
0.0634586
0.0624717
0.0614788
0.0604805
0.0594771
0.0584702
0.0574612
0.0564508
0.0554396
0.0544281
0.0534178
0.05241
0.0514079
0.0504145
0.0494331
0.0484678
0.0475228
0.0466038
0.0457171
0.0448704
0.0440718
0.0433284
0.0426481
0.04204
0.041514
0.0410781
0.0407389
0.0405025
0.0403728
0.0773823
0.0765705
0.0757502
0.0749227
0.0740875
0.0732418
0.0723885
0.0715289
0.0706627
0.0697903
0.0689124
0.0680281
0.0671358
0.0662336
0.0653229
0.0644052
0.0634799
0.0625473
0.0616073
0.060661
0.0597109
0.0587598
0.0578074
0.0568538
0.0558997
0.0549461
0.0539954
0.0530518
0.0521195
0.0512011
0.0503009
0.0494248
0.0485786
0.0477693
0.047007
0.046299
0.0456505
0.0450684
0.0445643
0.0441455
0.0438185
0.0435877
0.0434572
0.0780632
0.077327
0.0765815
0.0758282
0.0750724
0.0742962
0.0735109
0.0727201
0.071921
0.0711123
0.0702981
0.069479
0.0686525
0.0678122
0.0669588
0.0660998
0.0652317
0.0643551
0.0634687
0.062574
0.0616705
0.0607665
0.0598624
0.0589579
0.0580519
0.0571452
0.0562379
0.0553331
0.0544406
0.0535616
0.0526987
0.0518574
0.0510438
0.0502622
0.049526
0.0488463
0.0482286
0.047664
0.0471763
0.0467703
0.0464526
0.0462266
0.0460936
0.078696
0.0780161
0.0773337
0.0766377
0.0759668
0.0752474
0.0745163
0.0737821
0.073042
0.0722822
0.0715164
0.0707467
0.0699769
0.0691974
0.0683873
0.0675809
0.066757
0.0659319
0.0650886
0.0642469
0.0633784
0.0625095
0.0616424
0.0607785
0.0599131
0.0590497
0.0581867
0.057309
0.0564489
0.0556034
0.0547745
0.0539602
0.0531799
0.0524188
0.0516997
0.0510358
0.0504643
0.0499071
0.0494328
0.049035
0.0487249
0.0485055
0.0483644
0.00904961
0.0110986
0.0122402
0.0132926
0.0144042
0.0155894
0.0168326
0.0181206
0.0194398
0.0207819
0.0221417
0.0235132
0.0248949
0.0262847
0.0276812
0.0290831
0.0304899
0.0319012
0.0333168
0.0347365
0.0361593
0.0375859
0.0390159
0.0404495
0.0418863
0.0433261
0.0447692
0.0462148
0.0476636
0.0491149
0.0505684
0.0520241
0.0534818
0.0549411
0.0564015
0.0578626
0.0593243
0.0607859
0.062247
0.0637071
0.0651654
0.0666212
0.0680733
0.0203551
0.0205414
0.0209157
0.0214647
0.0221654
0.0229921
0.023922
0.0249333
0.0260089
0.0271344
0.0282979
0.0294914
0.0307071
0.0319401
0.0331867
0.0344435
0.0357087
0.0369796
0.0382555
0.0395352
0.040818
0.0421031
0.0433903
0.0446794
0.0459696
0.0472611
0.0485536
0.0498473
0.0511416
0.0524367
0.0537322
0.0550283
0.0563247
0.0576211
0.0589176
0.060214
0.0615101
0.0628057
0.0641006
0.0653945
0.0666871
0.0679778
0.0692663
0.0270326
0.0271719
0.0274584
0.0278848
0.0284387
0.0291058
0.0298708
0.0307182
0.031633
0.0326034
0.0336189
0.0346698
0.0357482
0.0368494
0.0379677
0.0390992
0.0402408
0.04139
0.0425448
0.0437039
0.0448658
0.0460295
0.0471949
0.0483607
0.049527
0.0506931
0.0518589
0.0530241
0.0541886
0.0553522
0.0565148
0.0576763
0.0588365
0.0599957
0.0611536
0.0623104
0.0634661
0.0646204
0.0657736
0.0669254
0.0680758
0.0692242
0.0703709
0.0323498
0.0324636
0.0327038
0.0330643
0.0335375
0.0341134
0.0347792
0.0355231
0.036333
0.0371986
0.0381092
0.0390564
0.0400337
0.0410344
0.042053
0.0430861
0.0441295
0.0451808
0.0462378
0.0472986
0.0483618
0.0494266
0.0504914
0.0515562
0.05262
0.0536826
0.0547431
0.0558015
0.0568576
0.0579116
0.058963
0.0600117
0.0610577
0.062101
0.0631419
0.0641804
0.0652168
0.0662511
0.0672831
0.068313
0.0693407
0.0703661
0.0713889
0.0367097
0.036806
0.0370162
0.0373358
0.0377587
0.0382753
0.0388758
0.0395499
0.0402873
0.0410776
0.0419124
0.0427833
0.0436835
0.0446065
0.0455478
0.0465029
0.0474684
0.0484413
0.049419
0.0504002
0.0513834
0.0523667
0.05335
0.0543318
0.0553114
0.0562878
0.0572611
0.0582309
0.0591972
0.0601599
0.0611184
0.0620724
0.0630221
0.0639678
0.0649098
0.0658481
0.0667833
0.0677152
0.0686436
0.0695687
0.0704909
0.0714098
0.0723254
0.0403494
0.0404321
0.0406211
0.0409125
0.0412996
0.0417753
0.04233
0.0429541
0.0436379
0.0443731
0.0451511
0.0459636
0.0468038
0.0476665
0.0485465
0.0494396
0.0503424
0.0512515
0.0521654
0.0530819
0.0539995
0.0549171
0.0558335
0.056747
0.0576567
0.058562
0.0594627
0.060359
0.0612509
0.0621374
0.0630177
0.0638919
0.0647603
0.0656235
0.0664818
0.0673354
0.0681845
0.0690289
0.0698686
0.0707037
0.0715346
0.0723617
0.0731847
0.0434285
0.0435011
0.0436736
0.0439428
0.0443044
0.04475
0.0452702
0.0458565
0.0465004
0.0471936
0.0479277
0.0486935
0.049486
0.0503009
0.0511319
0.0519746
0.052826
0.0536831
0.0545445
0.0554082
0.0562727
0.0571363
0.0579977
0.0588548
0.0597059
0.0605511
0.0613911
0.062227
0.0630575
0.06388
0.0646934
0.0655001
0.0662997
0.0670932
0.0678803
0.0686621
0.0694378
0.0702075
0.0709711
0.0717284
0.0724803
0.0732275
0.0739704
0.0460609
0.0461256
0.0462829
0.046534
0.0468776
0.0473004
0.0477929
0.0483487
0.0489624
0.0496239
0.0503218
0.0510487
0.0518032
0.0525804
0.0533713
0.0541722
0.0549804
0.0557943
0.0566125
0.0574332
0.0582545
0.0590739
0.0598909
0.0606996
0.0615001
0.0622937
0.0630843
0.0638717
0.0646517
0.0654185
0.0661724
0.0669243
0.0676636
0.0683993
0.0691245
0.0698467
0.0705587
0.071265
0.0719627
0.0726522
0.073336
0.0740139
0.0746862
0.0483295
0.0483893
0.0485282
0.0487605
0.0490934
0.0494964
0.0499623
0.0504905
0.0510815
0.0517173
0.0523814
0.0530745
0.0538011
0.0545486
0.0553028
0.0560685
0.0568415
0.0576209
0.0584064
0.0591943
0.0599813
0.0607646
0.0615477
0.0623097
0.0630677
0.063819
0.0645739
0.0653222
0.0660573
0.0667727
0.0674731
0.0681902
0.0688663
0.0695633
0.0702273
0.0709066
0.0715569
0.0722116
0.0728496
0.0734811
0.0741084
0.074729
0.0753447
0.0189928
0.0183462
0.0177196
0.0171105
0.0165175
0.0159395
0.0153756
0.014825
0.0142868
0.0137603
0.0132449
0.01274
0.012245
0.0117594
0.0112826
0.0108142
0.0103536
0.00990052
0.00945443
0.00901491
0.00858152
0.00815387
0.00773156
0.00731417
0.00690136
0.00649276
0.00608798
0.00568677
0.00528873
0.00489369
0.00450149
0.00411202
0.00372542
0.00334209
0.00296278
0.00258866
0.00222162
0.00186412
0.00151921
0.00119005
0.000878097
0.000589348
0.000355968
0.0189477
0.018354
0.017774
0.0172084
0.0166565
0.0161172
0.0155898
0.0150735
0.0145676
0.0140714
0.0135845
0.0131061
0.0126357
0.0121729
0.0117171
0.0112679
0.0108248
0.0103874
0.00995523
0.0095278
0.00910475
0.00868567
0.00827014
0.00785769
0.00744807
0.00704082
0.00663555
0.00623203
0.00582988
0.00542896
0.0050291
0.00463032
0.00423282
0.00383698
0.00344358
0.00305384
0.00266927
0.00229148
0.00192165
0.00155843
0.00119545
0.000873553
0.000596468
0.0189176
0.0183664
0.0178301
0.0173059
0.0167929
0.0162903
0.0157973
0.0153133
0.0148377
0.0143697
0.013909
0.013455
0.0130072
0.0125651
0.0121282
0.0116962
0.0112686
0.0108449
0.0104247
0.0100076
0.00959327
0.00918122
0.00877102
0.00836231
0.00795477
0.00754792
0.00714141
0.00673499
0.00632828
0.00592117
0.00551344
0.00510518
0.00469647
0.00428768
0.00387948
0.00347283
0.00306869
0.00266767
0.00226867
0.00186699
0.00146116
0.00110578
0.000773603
0.0188798
0.018377
0.0178818
0.0173956
0.0169181
0.0164487
0.0159868
0.0155319
0.0150833
0.0146406
0.0142033
0.0137709
0.0133429
0.012919
0.0124987
0.0120815
0.0116672
0.0112552
0.0108453
0.0104369
0.0100298
0.00962336
0.00921737
0.00881139
0.00840509
0.00799803
0.00758984
0.00718027
0.00676891
0.00635564
0.00594027
0.00552275
0.00510315
0.00468175
0.00425911
0.00383577
0.0034122
0.00298779
0.00255938
0.00212111
0.00168608
0.00129278
0.000912024
0.0188551
0.0183878
0.0179289
0.0174769
0.0170315
0.016592
0.016158
0.0157291
0.0153047
0.0148844
0.0144678
0.0140544
0.0136439
0.013236
0.01283
0.0124258
0.0120229
0.011621
0.0112197
0.0108187
0.0104174
0.0100156
0.00961292
0.00920892
0.00880326
0.00839555
0.00798544
0.00757254
0.00715661
0.0067374
0.00631467
0.00588832
0.00545843
0.00502516
0.00458883
0.0041497
0.00370758
0.00326061
0.00280396
0.00233167
0.00187328
0.00144476
0.00102395
0.0188266
0.018397
0.0179715
0.0175505
0.0171339
0.0167214
0.0163124
0.0159068
0.015504
0.0151037
0.0147054
0.014309
0.0139139
0.0135198
0.0131265
0.0127335
0.0123406
0.0119473
0.0115534
0.0111585
0.0107622
0.0103642
0.00996404
0.00956144
0.00915593
0.00874728
0.00833504
0.00791892
0.00749851
0.00707365
0.00664393
0.0062094
0.00576992
0.00532557
0.0048766
0.00442277
0.00396322
0.00349509
0.00301176
0.00250778
0.00202989
0.00157006
0.00111658
0.0188061
0.0184061
0.0180102
0.0176172
0.0172266
0.0168382
0.0164519
0.0160672
0.0156837
0.0153013
0.0149195
0.0145379
0.0141564
0.0137747
0.0133925
0.0130093
0.012625
0.0122391
0.0118515
0.0114618
0.0110697
0.0106748
0.0102768
0.00987512
0.00946941
0.00905951
0.0086451
0.0082258
0.00780122
0.007371
0.00693486
0.00649271
0.00604438
0.0055899
0.00512921
0.00466182
0.00418626
0.00369808
0.00318845
0.00264678
0.00215853
0.00167268
0.00119306
0.0187833
0.0184139
0.0180453
0.0176776
0.0173104
0.0169439
0.0165778
0.016212
0.0158462
0.0154799
0.015113
0.014745
0.0143755
0.0140046
0.0136322
0.0132579
0.0128813
0.0125017
0.012119
0.0117338
0.0113454
0.0109533
0.0105573
0.0101568
0.00975048
0.00933854
0.00892153
0.00849925
0.00807097
0.00763589
0.00719373
0.00674453
0.00628811
0.00582416
0.00535237
0.00487231
0.00438182
0.00387523
0.00334171
0.0027701
0.00226787
0.00176211
0.00126246
0.0187653
0.018421
0.0180773
0.0177326
0.0173866
0.0170392
0.0166913
0.016343
0.0159935
0.0156422
0.0152895
0.014935
0.0145763
0.0142143
0.013851
0.0134845
0.0131164
0.0127432
0.0123627
0.011981
0.011596
0.0112065
0.0108122
0.0104165
0.0100116
0.00959533
0.00917282
0.00874685
0.00831613
0.00787793
0.00743036
0.00697456
0.0065114
0.00603947
0.00555522
0.00506019
0.00455372
0.00402862
0.00347088
0.00287685
0.00234226
0.00180115
0.00129133
0.000357454
0.000476135
0.000672197
0.000858545
0.0010373
0.00120986
0.00137754
0.00154195
0.00170529
0.00187079
0.00204345
0.0022302
0.0024393
0.00267629
0.002943
0.00323906
0.00356229
0.00391122
0.0042851
0.0046834
0.0051064
0.00555425
0.00602746
0.00652664
0.00705232
0.00760518
0.0081857
0.00879438
0.00943196
0.0100991
0.0107966
0.0115253
0.0122861
0.0130798
0.0139077
0.0147705
0.0156695
0.0166057
0.01758
0.0185934
0.0196468
0.0207415
0.0218803
0.000501766
0.000629751
0.00083123
0.00102805
0.00121688
0.00139892
0.00157666
0.00175345
0.00193386
0.00212357
0.00232908
0.0025572
0.00281437
0.00310264
0.00341775
0.00375717
0.00411943
0.00450356
0.00490906
0.00533606
0.00578451
0.00625461
0.00674684
0.00726155
0.00779902
0.00835967
0.00894379
0.0095518
0.0101843
0.0108419
0.0115252
0.0122349
0.0129718
0.0137367
0.0145304
0.0153536
0.0162072
0.0170923
0.0180094
0.0189595
0.019943
0.0209599
0.0220075
0.00063536
0.000767827
0.00097674
0.00118409
0.00138359
0.00157732
0.00176962
0.00196604
0.0021729
0.00239647
0.0026423
0.00291499
0.0032187
0.00355173
0.00390774
0.00428446
0.00468074
0.00509605
0.00553011
0.00598263
0.0064539
0.00694389
0.00745284
0.00798093
0.00852821
0.00909479
0.00968105
0.0102873
0.0109139
0.0115615
0.0122304
0.0129212
0.0136345
0.0143709
0.0151311
0.0159158
0.0167254
0.0175607
0.0184222
0.0193103
0.0202255
0.0211675
0.0221357
0.000752036
0.000888934
0.00110603
0.00132373
0.00153481
0.001743
0.00195463
0.00217671
0.00241582
0.00267706
0.00296368
0.00327842
0.00362439
0.0039953
0.00438596
0.00479461
0.00522049
0.00566293
0.00612168
0.0065966
0.0070876
0.00759463
0.00811768
0.0086567
0.0092117
0.00978269
0.0103698
0.0109734
0.0115937
0.0122311
0.0128859
0.0135586
0.0142495
0.0149591
0.0156879
0.0164363
0.0172047
0.0179937
0.0188036
0.0196345
0.0204867
0.0213601
0.0222546
0.000852598
0.000995079
0.0012208
0.00144913
0.00167332
0.00189897
0.00213389
0.00238532
0.00265875
0.00295716
0.00328196
0.00363519
0.00401781
0.00442123
0.00484188
0.00527847
0.00573011
0.00619635
0.0066768
0.00717118
0.00767931
0.00820097
0.00873595
0.00928395
0.00984503
0.010419
0.0110062
0.0116067
0.0122206
0.012848
0.0134895
0.0141449
0.0148148
0.0154995
0.016199
0.0169141
0.0176446
0.0183909
0.0191533
0.0199318
0.0207266
0.0215379
0.0223663
0.000939451
0.00108856
0.00132331
0.00156291
0.00180189
0.0020475
0.00230806
0.00259014
0.0028973
0.00323042
0.00358988
0.00397815
0.00439218
0.00482403
0.0052711
0.00573234
0.00620687
0.00669424
0.00719385
0.00770538
0.00822844
0.00876264
0.00930764
0.00986313
0.0104291
0.0110054
0.011592
0.012189
0.0127965
0.0134145
0.0140432
0.0146826
0.0153331
0.0159947
0.0166672
0.0173513
0.018047
0.0187543
0.0194734
0.0202042
0.0209468
0.0217016
0.0224695
0.00101495
0.00117217
0.00141624
0.00166779
0.00192307
0.0021903
0.00247748
0.00278963
0.00312826
0.0034928
0.00388336
0.00430305
0.00474435
0.00520128
0.00567191
0.00615516
0.00665014
0.00715633
0.00767304
0.00819979
0.00873596
0.00928109
0.00983483
0.0103968
0.0109669
0.0115448
0.0121303
0.0127236
0.0133248
0.0139339
0.0145508
0.0151754
0.0158079
0.0164479
0.0170954
0.0177511
0.0184148
0.0190865
0.019766
0.0204533
0.0211486
0.0218517
0.0225626
0.00108091
0.00124381
0.00149744
0.00176223
0.00203432
0.002323
0.0026361
0.00297682
0.00334458
0.00373746
0.00415729
0.00460547
0.00507186
0.00555237
0.00604529
0.00654929
0.0070633
0.00758681
0.00811937
0.00866
0.00920803
0.00976308
0.0103246
0.0108922
0.0114652
0.0120428
0.0126256
0.0132144
0.0138097
0.014411
0.0150175
0.0156283
0.0162436
0.0168631
0.0174869
0.0181161
0.0187509
0.0193908
0.0200343
0.0206815
0.0213337
0.0219908
0.0226534
0.00113919
0.00132439
0.00159026
0.00186405
0.00215542
0.00247313
0.00281749
0.00318944
0.00358191
0.00401048
0.00446474
0.00493781
0.00542625
0.00593102
0.00644039
0.00696206
0.0074859
0.00802386
0.00856827
0.00911833
0.00967462
0.0102366
0.0108023
0.0113717
0.0119411
0.0125097
0.0130836
0.0136668
0.0142582
0.0148553
0.0154524
0.0160489
0.0166477
0.0172446
0.0178432
0.0184477
0.0190583
0.0196724
0.0202814
0.0208902
0.0215033
0.0221199
0.0227391
0.000687535
0.00236468
0.00405803
0.00569704
0.00728628
0.00884679
0.0103988
0.0119495
0.0135034
0.0150628
0.0166275
0.0182015
0.0197864
0.0213823
0.0229905
0.0246105
0.0262416
0.0278836
0.0295357
0.0311971
0.0328675
0.0345464
0.0362334
0.0379278
0.0396289
0.0413367
0.0430503
0.0447696
0.0464936
0.0482218
0.0499538
0.0516888
0.053426
0.0551643
0.0569036
0.0586425
0.0603803
0.0621162
0.0638491
0.0655779
0.0673018
0.0690199
0.0707322
0.000390792
0.00199126
0.00315223
0.00438333
0.00567656
0.00700154
0.00833258
0.00964722
0.0109388
0.0122631
0.0137233
0.015271
0.016867
0.0184938
0.0201436
0.0218131
0.0234996
0.0252014
0.0269168
0.0286448
0.0303838
0.0321325
0.0338906
0.0356562
0.0374295
0.0392088
0.0409939
0.0427842
0.0445786
0.0463764
0.048177
0.0499797
0.0517834
0.0535874
0.0553911
0.0571931
0.0589927
0.0607893
0.0625812
0.064368
0.0661482
0.067921
0.0696851
0.000321658
0.00161855
0.00318409
0.00444021
0.00558139
0.00668727
0.00778722
0.00888909
0.00999766
0.0111297
0.0123074
0.0135546
0.0149645
0.0164927
0.0180914
0.019736
0.0214151
0.0231214
0.0248506
0.0266
0.0283662
0.0301472
0.0319416
0.0337472
0.0355629
0.037387
0.0392185
0.0410563
0.0428992
0.0447463
0.0465966
0.0484492
0.0503027
0.0521565
0.0540095
0.0558604
0.0577086
0.0595527
0.0613919
0.0632248
0.0650504
0.0668673
0.068674
0.000270973
0.00141037
0.00291572
0.00436213
0.00560001
0.00669921
0.00772331
0.00871451
0.00969933
0.0106953
0.0117156
0.0127787
0.0139171
0.015189
0.0166317
0.018182
0.0198013
0.0214695
0.0231757
0.0249127
0.0266755
0.0284611
0.0302659
0.0320873
0.0339234
0.035772
0.037631
0.0394992
0.0413751
0.0432569
0.0451436
0.0470336
0.048926
0.0508193
0.0527121
0.0546035
0.0564923
0.058377
0.0602566
0.0621298
0.063995
0.0658508
0.067695
0.000235475
0.00124415
0.00260073
0.00408646
0.00544419
0.00663384
0.00769711
0.00867956
0.00961838
0.0105416
0.0114705
0.0124227
0.0134166
0.0144817
0.0156726
0.0170529
0.0185625
0.0201569
0.0218115
0.0235121
0.0252501
0.0270196
0.0288158
0.0306352
0.0324748
0.0343319
0.036204
0.0380889
0.0399847
0.0418896
0.0438016
0.0457192
0.0476409
0.049565
0.0514901
0.0534147
0.0553373
0.0572567
0.0591713
0.0610796
0.0629801
0.0648709
0.0667493
0.000210511
0.00113016
0.00236721
0.00378686
0.00518871
0.00645884
0.00759196
0.00861703
0.00956705
0.0104726
0.0113593
0.0122486
0.0131594
0.0141118
0.0151362
0.0162907
0.0176386
0.0191245
0.0207029
0.0223482
0.024045
0.0257838
0.0275576
0.0293621
0.0311926
0.0330462
0.0349196
0.0368102
0.0387156
0.0406335
0.0425619
0.0444983
0.0464413
0.0483888
0.050339
0.0522901
0.054241
0.0561895
0.0581341
0.0600731
0.062005
0.0639282
0.0658414
0.000190757
0.00104162
0.00218455
0.00352117
0.00491011
0.00622265
0.0074149
0.0084932
0.00948005
0.0104013
0.0112818
0.0121443
0.0130096
0.0138969
0.0148282
0.0158366
0.016987
0.0183296
0.0198085
0.0213818
0.0230245
0.0247214
0.0264632
0.028243
0.0300552
0.0318962
0.0337621
0.0356499
0.0375566
0.0394796
0.0414163
0.0433643
0.0453214
0.0472857
0.0492548
0.0512272
0.0532006
0.0551732
0.0571433
0.059109
0.0610687
0.0630212
0.0649667
0.00017441
0.00096952
0.00203511
0.00329356
0.00464227
0.00596495
0.00719552
0.00831989
0.00934824
0.0102994
0.0111946
0.0120549
0.0129011
0.0137525
0.0146288
0.0155538
0.0165666
0.0177398
0.0190965
0.0205822
0.0221594
0.023806
0.0255081
0.0272561
0.0290435
0.0308651
0.0327169
0.0345952
0.0364965
0.038418
0.0403568
0.0423102
0.0442758
0.0462511
0.0482341
0.0502223
0.0522135
0.0542059
0.0561972
0.0581855
0.0601693
0.0621473
0.064119
0.000160475
0.000909263
0.00190978
0.00309821
0.00439669
0.00570751
0.00695701
0.0081151
0.00918049
0.0101646
0.0110837
0.0119561
0.0128006
0.0136359
0.0144807
0.0153555
0.0162874
0.0173239
0.018541
0.0199248
0.0214267
0.0230154
0.0246716
0.0263829
0.0281403
0.0299379
0.0317705
0.0336342
0.0355251
0.03744
0.0393759
0.0413298
0.0432988
0.0452807
0.0472726
0.049272
0.051277
0.0532848
0.0552934
0.0573007
0.059305
0.0613045
0.0632976
0.00014858
0.000857898
0.00180271
0.00292912
0.00417505
0.00546086
0.00671376
0.00789338
0.00898826
0.0100027
0.0109481
0.0118394
0.0126927
0.0135253
0.0143545
0.0151993
0.0160817
0.0170344
0.0181176
0.0193889
0.020807
0.0223316
0.0239373
0.0256075
0.0273313
0.0291011
0.0309112
0.0327564
0.0346332
0.0365376
0.0384665
0.0404166
0.0423852
0.0443692
0.0463661
0.0483732
0.0503879
0.0524076
0.0544301
0.0564531
0.0584744
0.0604917
0.0625018
0.000141786
0.000813471
0.00171011
0.00278133
0.00397624
0.00522964
0.00647439
0.00766476
0.00878117
0.00982127
0.0107918
0.0117042
0.0125718
0.0134099
0.0142345
0.0150628
0.0159143
0.0168146
0.0178051
0.0189577
0.0202844
0.0217395
0.0232905
0.0249167
0.0266041
0.0283437
0.0301281
0.0319525
0.0338119
0.0357029
0.0376215
0.0395648
0.0415294
0.0435125
0.045511
0.0475222
0.0495434
0.051572
0.0536053
0.0556409
0.0576766
0.0597097
0.0617371
0.000144686
0.00077433
0.00162919
0.00265138
0.00379823
0.0050156
0.00624407
0.00743623
0.00856664
0.00962698
0.0106197
0.0115528
0.0124371
0.0132856
0.0141125
0.0149337
0.0157668
0.0166331
0.017564
0.0186146
0.0198455
0.0212266
0.0227199
0.0242993
0.0259483
0.0276553
0.0294126
0.0312137
0.0330539
0.034929
0.0368351
0.0387688
0.0407269
0.0427061
0.0447034
0.0467161
0.0487409
0.0507755
0.052817
0.0548627
0.0569105
0.0589581
0.0610056
0.000151644
0.000739625
0.00155785
0.00253612
0.00363836
0.00481899
0.0060257
0.00721254
0.00835002
0.00942531
0.0104367
0.0113887
0.0122899
0.0131511
0.0139849
0.0148054
0.0156284
0.0164729
0.0173643
0.0183435
0.0194782
0.0207823
0.022215
0.0237458
0.0253545
0.027028
0.0287564
0.0305331
0.0323524
0.0342099
0.0361015
0.0380236
0.0399729
0.041946
0.0439399
0.0459514
0.0479777
0.0500159
0.0520631
0.0541165
0.0561739
0.0582325
0.0602892
0.000158649
0.000708792
0.00149428
0.00243309
0.0034942
0.00463852
0.00582038
0.00699637
0.00813528
0.00922051
0.0102466
0.0112153
0.0121325
0.0130072
0.0138503
0.0146742
0.0154932
0.0163243
0.0171891
0.0181198
0.0191717
0.020397
0.0217674
0.0232479
0.0248155
0.026454
0.0281529
0.029904
0.0317012
0.0335399
0.0354155
0.0373245
0.0392633
0.0412286
0.043217
0.0452255
0.0472512
0.0492909
0.0513416
0.0534008
0.0554657
0.0575336
0.0596012
0.000164793
0.000681332
0.00143747
0.00234059
0.00336376
0.0044729
0.00562813
0.00678951
0.00792514
0.0090158
0.0100529
0.0110354
0.0119673
0.0128553
0.0137088
0.0145387
0.0153578
0.0161814
0.0170284
0.0179255
0.0189156
0.0200631
0.0213696
0.0227991
0.0243244
0.0259275
0.0275959
0.0293208
0.0310952
0.0329141
0.0347728
0.0366674
0.0385946
0.0405503
0.0425317
0.0445356
0.0465588
0.0485981
0.0506508
0.0527139
0.054785
0.0568616
0.0589438
0.000170005
0.000656872
0.00138633
0.00225699
0.00324525
0.00432087
0.005449
0.00659299
0.0077215
0.00881369
0.00985823
0.0108519
0.0117964
0.0126971
0.0135612
0.0143985
0.0152205
0.0160409
0.0168764
0.0177498
0.018696
0.0197729
0.0210156
0.0223932
0.0238758
0.025443
0.0270807
0.0287787
0.0305298
0.0323283
0.0341691
0.0360486
0.0379628
0.0399081
0.0418813
0.043879
0.0458983
0.0479359
0.0499887
0.0520541
0.0541292
0.0562117
0.0582994
0.000174448
0.000635047
0.00134007
0.00218105
0.00313708
0.00418103
0.00528215
0.00640693
0.0075255
0.00861578
0.00966471
0.0106669
0.0116222
0.0125341
0.0134086
0.0142541
0.0150807
0.0159007
0.0167292
0.017586
0.0185004
0.01952
0.0206997
0.0220251
0.0234648
0.0249958
0.0266024
0.0282734
0.0300009
0.0317784
0.0336011
0.0354647
0.0373651
0.039299
0.0412628
0.0432533
0.0452675
0.0473019
0.0493536
0.0514195
0.0534967
0.0555815
0.057668
0.000178332
0.000615664
0.00129819
0.0021119
0.00303808
0.00405227
0.00512684
0.0062315
0.00733778
0.00842346
0.00947388
0.0104821
0.0114462
0.0123679
0.0132521
0.0141059
0.0149381
0.0157598
0.0165845
0.0174299
0.018321
0.0192973
0.0204168
0.0216904
0.0230871
0.0245819
0.0261574
0.0278014
0.0295048
0.0312614
0.0330656
0.0349126
0.0367988
0.0387204
0.0406741
0.0426565
0.0446643
0.0466945
0.0487437
0.0508089
0.0528867
0.0549741
0.0570688
0.000181704
0.000598346
0.00126011
0.00204857
0.00294718
0.00393325
0.00498214
0.00606616
0.00715871
0.00823731
0.00928695
0.0102989
0.0112697
0.0121999
0.013093
0.0139548
0.0147932
0.0156179
0.0164412
0.017279
0.018153
0.0190966
0.0201626
0.0213851
0.022739
0.0241978
0.0257423
0.0273592
0.0290388
0.0307741
0.0325592
0.0343896
0.0362611
0.0381699
0.0401128
0.0420862
0.0440869
0.0461117
0.0481574
0.0502205
0.0522976
0.0543846
0.0564758
0.000184621
0.000582787
0.00122526
0.00199042
0.00286329
0.00382304
0.00484703
0.00591046
0.00698799
0.00805807
0.00910485
0.0101184
0.0110941
0.0120313
0.0129322
0.0138017
0.0146462
0.0154747
0.0162984
0.0171313
0.0179928
0.0189115
0.0199331
0.0211057
0.0224174
0.0238403
0.0253539
0.0269438
0.0285997
0.0303137
0.0320798
0.0338932
0.0357497
0.0376454
0.0395769
0.0415407
0.0435336
0.0455522
0.0475932
0.0496532
0.0517286
0.0538158
0.0559115
0.00018729
0.00056901
0.00119348
0.00193688
0.00278583
0.00372067
0.0047209
0.00576371
0.00682572
0.00788588
0.00892798
0.00994136
0.0109204
0.0118631
0.0127708
0.0136471
0.0144978
0.0153306
0.0161556
0.0169857
0.0178381
0.0187378
0.0197241
0.0208494
0.0221192
0.0235067
0.0249898
0.026553
0.0281852
0.029878
0.0316251
0.0334214
0.0352626
0.037145
0.0390646
0.0410182
0.0430026
0.0450143
0.0470499
0.049106
0.0511789
0.0532646
0.055358
0.00018982
0.00055682
0.00116444
0.00188756
0.00271412
0.00362559
0.00460298
0.0056256
0.00667157
0.00772066
0.00875674
0.00976848
0.0107492
0.0116961
0.0126094
0.0134919
0.0143485
0.0151857
0.016013
0.0168417
0.0176876
0.0185727
0.0195312
0.0206132
0.0218422
0.0231947
0.0246476
0.0261844
0.027793
0.0294647
0.0311929
0.0329722
0.034798
0.0366665
0.0385741
0.0405172
0.0424925
0.0444966
0.0465263
0.0485778
0.0506475
0.0527316
0.0548269
0.000192095
0.000545825
0.00113784
0.00184198
0.00264756
0.00353687
0.00449262
0.00549553
0.00652523
0.00756255
0.00859146
0.00960017
0.0105812
0.011531
0.0124488
0.0133368
0.0141986
0.0150405
0.0158703
0.0166989
0.0175401
0.018414
0.0193504
0.0203948
0.0215839
0.0229021
0.0243253
0.0258358
0.0274213
0.0290723
0.0307816
0.0325437
0.0343541
0.0362087
0.0381039
0.0400362
0.0420019
0.0439982
0.0460213
0.0480675
0.0501334
0.052214
0.0543015
0.00019424
0.000536108
0.00111345
0.00179973
0.00258556
0.00345415
0.00438919
0.00537291
0.00638634
0.00741137
0.00843219
0.00943664
0.0104168
0.0113682
0.0122898
0.0131822
0.0140489
0.0148951
0.0157279
0.0165569
0.0173952
0.0182603
0.019179
0.0201918
0.0213427
0.0226271
0.024021
0.0255059
0.0270684
0.0286986
0.0303892
0.0321343
0.0339292
0.0357699
0.0376526
0.0395737
0.0415299
0.0435178
0.0455339
0.047575
0.0496372
0.0517175
0.0538157
0.000196293
0.000527368
0.00109105
0.0017606
0.00252791
0.00337678
0.004292
0.00525716
0.00625458
0.00726695
0.00827881
0.0092781
0.0102563
0.0112085
0.0121326
0.0130288
0.0138998
0.0147499
0.0155857
0.0164159
0.0172521
0.0181107
0.0190151
0.0200017
0.0211166
0.022368
0.0237332
0.0251927
0.0267327
0.0283425
0.0300145
0.0317427
0.0335223
0.035349
0.037219
0.0391289
0.041075
0.0430543
0.0450634
0.0470988
0.0491574
0.0512371
0.0533374
0.000198217
0.000519549
0.00107045
0.00172419
0.00247399
0.00330423
0.0042006
0.00514786
0.00612951
0.00712889
0.00813137
0.00912461
0.0101
0.0110519
0.0119775
0.0128768
0.0137515
0.0146053
0.0154441
0.0162756
0.0171108
0.0179642
0.0188572
0.0198223
0.0209042
0.0221233
0.0234603
0.0248951
0.0264128
0.0280024
0.0296562
0.0313677
0.0331319
0.0349446
0.0368019
0.0387003
0.0406364
0.0426069
0.0446086
0.0466382
0.0486926
0.050769
0.0528641
0.000200059
0.000512486
0.00105142
0.00169029
0.00242351
0.00323614
0.0041145
0.00504451
0.00601049
0.006997
0.00798962
0.00897623
0.00994789
0.0108986
0.0118252
0.0127267
0.0136045
0.0144616
0.0153032
0.0161364
0.016971
0.0178206
0.0187044
0.0196515
0.020704
0.0218918
0.0232012
0.0246116
0.0261073
0.0276773
0.029313
0.0310079
0.0327569
0.0345557
0.0364003
0.0382872
0.0402131
0.0421747
0.0441688
0.0461922
0.048242
0.0503152
0.0524088
0.000201831
0.000506128
0.00103392
0.00165872
0.00237629
0.00317209
0.00403338
0.00494666
0.00589753
0.00687109
0.00785348
0.00883286
0.00980016
0.010749
0.0116756
0.0125788
0.0134591
0.0143191
0.0151633
0.0159982
0.0168328
0.0176794
0.0185556
0.0194877
0.0205145
0.0216724
0.0229547
0.0243411
0.0258154
0.0273659
0.0289838
0.0306624
0.0323964
0.0341813
0.0360132
0.0378886
0.0398043
0.0417568
0.043743
0.0457602
0.0478053
0.0498759
0.0519706
0.000203492
0.00050032
0.00101771
0.00162918
0.0023319
0.00311181
0.00395671
0.00485401
0.00578996
0.00675061
0.0077227
0.00869455
0.00965684
0.010603
0.0115291
0.0124332
0.0133154
0.0141779
0.0150245
0.0158611
0.0166959
0.0175403
0.0184104
0.01933
0.0203347
0.0214639
0.0227197
0.0240826
0.0255358
0.0270672
0.0286677
0.0303301
0.0320491
0.0338203
0.0356396
0.0375037
0.0394089
0.0413523
0.0433307
0.0453414
0.0473815
0.0494489
0.0515429
0.00020513
0.000495216
0.00100274
0.00160169
0.00229032
0.00305511
0.00388437
0.00476612
0.00568755
0.00663552
0.00759717
0.00856105
0.00951792
0.010461
0.0113858
0.0122901
0.0131738
0.0140383
0.014887
0.0157253
0.0165605
0.0174032
0.0182684
0.0191775
0.020163
0.0212654
0.0224955
0.0238354
0.0252679
0.0267806
0.0283637
0.0300102
0.0317146
0.033472
0.0352788
0.0371314
0.0390263
0.0409604
0.0429309
0.0449348
0.0469693
0.0490317
0.0511184
0.000206706
0.000490438
0.000988906
0.00157593
0.00225117
0.00300153
0.00381586
0.00468276
0.00559016
0.00652554
0.00747666
0.00843227
0.00938329
0.0103227
0.0112457
0.0121498
0.0130344
0.0139005
0.0147511
0.0155908
0.0164265
0.0172681
0.018129