/*--------------------------------*- C++ -*----------------------------------*\
| =========                 |                                                 |
| \\      /  F ield         | OpenFOAM: The Open Source CFD Toolbox           |
|  \\    /   O peration     | Version:  2.3.0                                 |
|   \\  /    A nd           | Web:      www.OpenFOAM.org                      |
|    \\/     M anipulation  |                                                 |
\*---------------------------------------------------------------------------*/
FoamFile
{
    version     2.0;
    format      ascii;
    class       volScalarField;
    location    "2000";
    object      nuTilda;
}
// * * * * * * * * * * * * * * * * * * * * * * * * * * * * * * * * * * * * * //

dimensions      [0 2 -1 0 0 0 0];

internalField   nonuniform List<scalar> 
38977
(
0.0619583
0.0602932
0.0586387
0.056991
0.05535
0.0537161
0.0520901
0.0504728
0.0488653
0.0472682
0.0456824
0.0441091
0.0425488
0.0410025
0.0394714
0.0379557
0.0364563
0.0349744
0.0335105
0.0320657
0.0306409
0.0292377
0.0278576
0.0265021
0.0251737
0.0238758
0.022613
0.0213898
0.0202086
0.019072
0.0179885
0.0169671
0.0160196
0.0151383
0.014287
0.0134351
0.0125721
0.0116924
0.0107854
0.0098293
0.00878436
0.00762411
0.00656369
0.0634647
0.0620099
0.0605585
0.0591112
0.0576692
0.056233
0.0548032
0.0533805
0.0519653
0.050558
0.0491592
0.0477694
0.0463895
0.04502
0.0436613
0.0423144
0.0409793
0.0396568
0.0383479
0.037053
0.0357727
0.0345085
0.0332605
0.0320312
0.0308206
0.0296304
0.0284634
0.0273219
0.0262077
0.0251238
0.0240741
0.0230639
0.0220987
0.0211864
0.0203324
0.0195445
0.018835
0.0182165
0.0177043
0.0173143
0.0170634
0.0169665
0.0170389
0.0648477
0.0635693
0.0622878
0.0610081
0.0597323
0.0584606
0.0571937
0.055932
0.0546754
0.0534242
0.0521787
0.0509396
0.0497071
0.0484817
0.0472637
0.046054
0.0448531
0.0436611
0.0424793
0.0413072
0.040147
0.0389993
0.0378649
0.0367454
0.0356425
0.0345572
0.0334931
0.0324516
0.0314364
0.0304513
0.0294993
0.0285864
0.0277195
0.0269042
0.026149
0.0254638
0.024858
0.0243443
0.023934
0.0236376
0.0234664
0.0234271
0.0235229
0.0661292
0.0649875
0.0638473
0.0627091
0.0615733
0.0604402
0.0593099
0.0581829
0.0570588
0.0559379
0.0548199
0.0537055
0.0525951
0.0514888
0.050387
0.0492903
0.0481992
0.0471146
0.0460365
0.044966
0.0439038
0.0428514
0.0418097
0.0407799
0.0397641
0.0387643
0.0377823
0.0368222
0.0358863
0.034979
0.0341047
0.0332679
0.0324748
0.0317333
0.0310499
0.0304339
0.0298943
0.0294407
0.0290835
0.0288316
0.0286923
0.0286709
0.0287687
0.0672886
0.0662703
0.0652525
0.0642349
0.0632179
0.062202
0.0611871
0.0601733
0.0591605
0.0581486
0.0571375
0.0561272
0.0551181
0.0541107
0.0531051
0.0521018
0.0511014
0.0501046
0.0491121
0.0481244
0.0471431
0.0461686
0.0452025
0.0442457
0.0433004
0.0423691
0.0414537
0.0405573
0.0396837
0.0388373
0.0380217
0.0372427
0.0365056
0.0358169
0.0351848
0.034616
0.0341201
0.0337059
0.0333813
0.0331549
0.033033
0.0330194
0.0331164
0.0683399
0.0674298
0.066518
0.0656039
0.064688
0.0637714
0.0628541
0.0619359
0.0610167
0.0600966
0.0591751
0.0582522
0.0573279
0.0564028
0.0554774
0.0545518
0.0536266
0.0527024
0.0517804
0.0508613
0.0499462
0.049036
0.0481318
0.0472349
0.0463472
0.0454716
0.04461
0.0437652
0.0429411
0.0421421
0.0413725
0.0406374
0.039943
0.0392951
0.0386999
0.0381656
0.0377004
0.0373128
0.0370101
0.0368003
0.0366883
0.0366781
0.036773
0.0692916
0.0684775
0.0676584
0.0668331
0.0660026
0.0651701
0.0643361
0.0634991
0.0626586
0.0618159
0.0609703
0.060121
0.0592682
0.0584122
0.0575538
0.0566934
0.055831
0.0549672
0.0541035
0.053241
0.052381
0.0515239
0.050671
0.0498237
0.048984
0.0481539
0.0473362
0.0465337
0.0457497
0.0449882
0.0442547
0.0435544
0.0428931
0.0422769
0.041711
0.0412027
0.0407604
0.0403914
0.040104
0.0399055
0.0398005
0.0397922
0.0398838
0.0701578
0.0694246
0.0686857
0.0679384
0.0671792
0.0664171
0.0656543
0.0648875
0.0641125
0.0633351
0.0625536
0.0617674
0.0609754
0.0601773
0.0593752
0.0585697
0.0577605
0.0569476
0.056132
0.0553162
0.0545016
0.0536894
0.0528796
0.0520732
0.0512737
0.0504821
0.0497009
0.0489329
0.048182
0.0474514
0.0467465
0.0460731
0.0454387
0.0448484
0.0443068
0.0438197
0.0433942
0.0430385
0.0427628
0.0425734
0.0424743
0.0424671
0.0425553
0.0709346
0.0702713
0.0696
0.068928
0.0682281
0.0675228
0.0668147
0.0661105
0.0653895
0.0646671
0.0639381
0.063205
0.062466
0.0617167
0.0609607
0.0602007
0.0594355
0.058667
0.0578912
0.057112
0.0563341
0.0555595
0.0547882
0.0540164
0.0532496
0.0524907
0.0517404
0.0510025
0.0502804
0.049577
0.0488978
0.0482462
0.0476331
0.0470662
0.0465475
0.0460798
0.0456714
0.0453247
0.0450588
0.044879
0.0447885
0.044781
0.0448699
0.00732158
0.00923656
0.0104153
0.0115549
0.0127631
0.0140449
0.0153854
0.0167696
0.0181863
0.0196267
0.0210854
0.0225587
0.0240434
0.0255383
0.0270412
0.0285521
0.0300698
0.0315935
0.0331231
0.0346583
0.0361986
0.0377437
0.0392936
0.040848
0.0424065
0.0439689
0.0455353
0.0471048
0.0486774
0.0502529
0.0518308
0.0534107
0.054992
0.0565746
0.058158
0.0597416
0.0613248
0.0629068
0.0644872
0.0660651
0.0676398
0.0692104
0.0707731
0.0172873
0.0177146
0.0183115
0.0190634
0.0199499
0.0209491
0.02204
0.0232039
0.024425
0.0256913
0.0269922
0.0283193
0.0296679
0.031032
0.0324085
0.0337944
0.0351881
0.0365872
0.0379906
0.0393973
0.0408068
0.042218
0.0436308
0.0450451
0.0464599
0.0478753
0.0492911
0.0507069
0.0521227
0.0535384
0.0549538
0.0563687
0.0577828
0.0591962
0.0606088
0.0620202
0.0634301
0.0648381
0.0662439
0.0676471
0.0690472
0.0704437
0.0718328
0.023752
0.0241178
0.0246223
0.0252567
0.0260089
0.0268647
0.027809
0.0288277
0.029908
0.0310385
0.0322085
0.0334103
0.0346365
0.0358822
0.0371425
0.0384134
0.0396924
0.0409772
0.0422657
0.0435568
0.0448491
0.0461414
0.0474335
0.0487247
0.0500143
0.0513022
0.0525881
0.0538718
0.0551532
0.0564324
0.0577091
0.0589832
0.0602549
0.0615242
0.0627911
0.0640556
0.0653176
0.0665766
0.0678326
0.0690855
0.0703351
0.0715808
0.0728196
0.0289851
0.0293211
0.0297777
0.0303485
0.0310242
0.031795
0.0326488
0.0335739
0.0345586
0.0355926
0.0366672
0.0377743
0.0389061
0.040058
0.041225
0.0424027
0.0435881
0.0447786
0.0459718
0.0471662
0.0483605
0.0495531
0.0507438
0.0519317
0.0531162
0.054297
0.0554737
0.056646
0.0578142
0.0589781
0.0601376
0.0612928
0.0624439
0.0635911
0.0647345
0.065874
0.0670097
0.0681414
0.069269
0.0703925
0.0715118
0.0726268
0.073735
0.0333233
0.0336403
0.0340664
0.034597
0.0352244
0.0359394
0.0367321
0.0375919
0.0385086
0.0394727
0.0404758
0.0415105
0.0425695
0.0436476
0.0447403
0.0458428
0.0469523
0.0480654
0.0491796
0.050294
0.0514072
0.0525175
0.0536237
0.0547254
0.055822
0.0569132
0.0579984
0.0590774
0.0601502
0.0612172
0.062278
0.0633328
0.064382
0.0654259
0.0664645
0.0674979
0.0685259
0.0695485
0.0705658
0.0715779
0.0725848
0.0735865
0.0745836
0.0369718
0.0372746
0.0376796
0.0381824
0.0387762
0.0394518
0.0402
0.0410121
0.0418787
0.0427902
0.0437384
0.0447164
0.045718
0.0467381
0.0477711
0.048813
0.0498601
0.0509092
0.0519588
0.0530074
0.0540536
0.0550954
0.0561315
0.0571613
0.0581844
0.0592004
0.0602089
0.0612097
0.0622027
0.0631879
0.0641653
0.0651352
0.0660984
0.067055
0.0680048
0.0689478
0.0698838
0.0708129
0.0717353
0.0726513
0.0735608
0.0744639
0.0753629
0.0400754
0.0403669
0.0407564
0.0412386
0.0418068
0.0424526
0.0431678
0.0439439
0.0447718
0.0456423
0.046547
0.04748
0.0484359
0.0494095
0.0503946
0.0513866
0.0523816
0.0533767
0.0543725
0.0553679
0.0563586
0.0573427
0.05832
0.0592897
0.0602513
0.0612043
0.0621484
0.0630834
0.0640086
0.0649243
0.065831
0.0667292
0.0676197
0.0685026
0.0693769
0.0702428
0.0710999
0.0719485
0.0727891
0.073622
0.074447
0.0752638
0.0760743
0.0427381
0.0430198
0.0433979
0.043865
0.0444132
0.0450349
0.045724
0.0464724
0.0472715
0.0481085
0.048977
0.0498732
0.0507931
0.0517299
0.0526745
0.0536254
0.054575
0.0555228
0.0564747
0.0574297
0.0583728
0.0593072
0.0602351
0.0611543
0.0620638
0.0629637
0.0638538
0.0647326
0.0656
0.0664566
0.067303
0.0681404
0.0689697
0.0697912
0.0705995
0.0714002
0.0721891
0.0729679
0.0737382
0.0744995
0.0752516
0.0759926
0.0767263
0.0450398
0.0453139
0.0456838
0.046139
0.0466692
0.0472702
0.0479371
0.0486652
0.0494442
0.050248
0.0510842
0.0519519
0.0528481
0.0537566
0.0546594
0.055575
0.0564805
0.0573888
0.0583098
0.059237
0.0601276
0.0610201
0.0619084
0.0627845
0.0636498
0.0645045
0.0653503
0.0661803
0.0669984
0.0678052
0.0686009
0.0693883
0.0701676
0.0709419
0.071686
0.0724341
0.0731617
0.073882
0.0745935
0.0752941
0.0759849
0.0766587
0.0773278
0.0529219
0.0508439
0.048743
0.0466235
0.0444921
0.0423562
0.0402238
0.0381039
0.036006
0.0339401
0.0319166
0.0299454
0.0280359
0.0261953
0.0244294
0.0227412
0.0211318
0.0196008
0.0181465
0.0167667
0.0154588
0.0142198
0.0130472
0.011938
0.0108897
0.00989985
0.00896593
0.0080858
0.00725741
0.00647892
0.00574845
0.00506473
0.0044263
0.00383212
0.00328142
0.0027736
0.0023086
0.00188625
0.00150702
0.00117235
0.000901295
0.000689892
0.000485902
0.0529906
0.0510897
0.0491636
0.0472193
0.045262
0.0432971
0.0413306
0.0393687
0.0374183
0.0354867
0.0335819
0.0317117
0.0298839
0.0281057
0.026383
0.0247205
0.0231211
0.0215863
0.0201165
0.0187109
0.0173685
0.0160876
0.0148663
0.013703
0.0125958
0.0115427
0.0105423
0.00959299
0.00869351
0.0078425
0.007039
0.0062822
0.00557135
0.00490595
0.00428572
0.00371054
0.00318039
0.00269619
0.0022634
0.00190817
0.00159286
0.00128086
0.000918734
0.0530796
0.0513347
0.0495712
0.0477907
0.0459962
0.0441919
0.0423817
0.0405699
0.0387617
0.0369622
0.0351771
0.0334124
0.0316741
0.0299681
0.0283001
0.026675
0.0250967
0.0235682
0.0220916
0.0206681
0.019298
0.017981
0.0167168
0.0155043
0.0143429
0.0132314
0.0121689
0.0111546
0.0101876
0.00926724
0.0083931
0.00756483
0.00678197
0.00604448
0.0053524
0.004706
0.00410589
0.00355499
0.00306598
0.00266168
0.00226349
0.00183525
0.00132064
0.0531557
0.0515645
0.0499504
0.0483179
0.0466702
0.0450104
0.043341
0.0416657
0.0399877
0.0383109
0.0366393
0.0349774
0.0333297
0.0317009
0.0300956
0.0285184
0.0269731
0.0254634
0.0239922
0.0225623
0.0211751
0.019832
0.0185335
0.0172801
0.0160717
0.0149083
0.0137897
0.0127156
0.0116858
0.0106998
0.00975755
0.00885866
0.00800283
0.00719053
0.00642295
0.00570246
0.0050324
0.00442312
0.00390195
0.00340778
0.00290502
0.00235434
0.00170058
0.0532485
0.0517851
0.0503027
0.048802
0.0472852
0.0457539
0.0442104
0.042657
0.0410959
0.0395303
0.0379629
0.0363972
0.0348365
0.0332844
0.0317447
0.0302212
0.0287173
0.0272365
0.0257822
0.0243576
0.0229653
0.0216076
0.020286
0.0190018
0.0177563
0.0165498
0.0153827
0.0142554
0.013168
0.0121203
0.0111122
0.0101428
0.00921201
0.00832126
0.00747501
0.00667871
0.00593741
0.00526551
0.00468426
0.00410861
0.00350757
0.00284181
0.00206016
0.0533372
0.0519929
0.0506284
0.0492451
0.0478443
0.0464272
0.0449951
0.0435496
0.0420926
0.0406262
0.0391526
0.0376745
0.0361944
0.0347151
0.0332396
0.0317709
0.0303119
0.0288656
0.0274355
0.0260249
0.024637
0.0232747
0.0219403
0.0206357
0.0193628
0.0181223
0.0169152
0.0157418
0.0146028
0.0134981
0.0124272
0.0113894
0.0103845
0.00941578
0.00849257
0.00762316
0.00681583
0.00609398
0.00543353
0.00477122
0.0040737
0.00329926
0.00239848
0.0534251
0.0521875
0.0509281
0.0496489
0.0483511
0.0470352
0.0457016
0.0443514
0.042986
0.0416074
0.0402171
0.0388174
0.0374109
0.0359988
0.0345836
0.033168
0.031754
0.0303441
0.0289415
0.0275493
0.0261714
0.0248112
0.0234717
0.0221548
0.0208627
0.0195967
0.0183575
0.0171451
0.0159605
0.0148039
0.0136753
0.0125737
0.0114992
0.010457
0.00946195
0.00852402
0.00765555
0.00688409
0.00614546
0.00539791
0.00460747
0.00372977
0.00271592
0.0535157
0.0523702
0.0512027
0.0500147
0.0488087
0.0475834
0.0463367
0.0450706
0.0437855
0.0424842
0.041167
0.0398363
0.0384963
0.0371463
0.0357867
0.0344207
0.0330504
0.0316761
0.0303013
0.0289298
0.0275647
0.0262105
0.0248707
0.023547
0.0222423
0.0209583
0.0196945
0.0184491
0.0172239
0.0160205
0.0148402
0.0136811
0.0125437
0.0114347
0.0103741
0.00937258
0.00844557
0.00761989
0.00681185
0.00598629
0.00510991
0.00413602
0.00301363
0.053602
0.0525413
0.0514526
0.0503422
0.0492186
0.0480783
0.0469074
0.0457151
0.0445006
0.0432667
0.0420143
0.0407403
0.0394609
0.0381698
0.0368617
0.0355417
0.0342138
0.032872
0.0315224
0.0301724
0.0288221
0.027475
0.0261394
0.0248116
0.0234985
0.0222043
0.0209246
0.0196506
0.0183873
0.0171403
0.0159146
0.0147045
0.0135122
0.0123458
0.0112268
0.0101672
0.00918563
0.00830486
0.00743175
0.00653443
0.00558426
0.00453006
0.00332325
0.000398662
0.000528683
0.000757759
0.000978137
0.00118775
0.00138737
0.00157841
0.00176244
0.00194076
0.0021153
0.00228792
0.00246071
0.0026365
0.00281901
0.00301377
0.00322818
0.0034725
0.00375518
0.00407656
0.00443331
0.00482192
0.00524
0.00568651
0.00616108
0.00666371
0.00719469
0.00775454
0.0083438
0.00896318
0.00961325
0.0102945
0.0110077
0.0117535
0.0125329
0.0133469
0.0141967
0.0150831
0.0160074
0.0169706
0.0179737
0.0190173
0.020102
0.0212276
0.000619985
0.000705354
0.00093238
0.00116159
0.00137974
0.00158679
0.00178439
0.00197454
0.00215941
0.0023415
0.00252395
0.00271023
0.00290498
0.00311405
0.00334452
0.00360469
0.00390236
0.00423594
0.00460063
0.00499308
0.00541108
0.00585366
0.0063204
0.00681095
0.00732555
0.00786465
0.00842831
0.00901725
0.00963163
0.010272
0.0109386
0.0116324
0.0123537
0.0131037
0.013883
0.0146925
0.0155331
0.0164056
0.0173109
0.0182498
0.0192227
0.0202302
0.0212731
0.000859681
0.000867715
0.00108807
0.00132526
0.00155198
0.00176675
0.00197163
0.00216942
0.00236336
0.00255721
0.00275545
0.00296323
0.00318643
0.00343154
0.00370487
0.00401302
0.00435786
0.00473212
0.00513121
0.00555296
0.00599587
0.00645949
0.0069436
0.00744787
0.00797271
0.00851826
0.00908465
0.00967202
0.0102806
0.0109108
0.0115629
0.0122375
0.0129352
0.0136565
0.0144021
0.0151727
0.0159689
0.0167914
0.0176408
0.0185178
0.019423
0.0203571
0.0213202
0.00109611
0.00101433
0.00122352
0.00146713
0.00170176
0.00192422
0.00213717
0.00234441
0.00255042
0.00276042
0.00298027
0.00321588
0.0034731
0.00375711
0.00407295
0.00442514
0.00480789
0.00521411
0.00564092
0.00608647
0.00655014
0.00703133
0.00752981
0.00804563
0.00857859
0.00912904
0.00969678
0.0102817
0.0108841
0.011504
0.012142
0.0127984
0.0134736
0.0141681
0.0148823
0.0156168
0.0163719
0.0171482
0.0179463
0.0187668
0.0196105
0.0204801
0.0213819
0.00132144
0.00114673
0.00134161
0.00159056
0.00183242
0.00206262
0.00228455
0.00250315
0.00272435
0.00295458
0.00320013
0.00346694
0.00375948
0.0040814
0.00443649
0.00482522
0.00523836
0.0056709
0.00612065
0.00658644
0.00706763
0.00756374
0.00807443
0.00859964
0.00913927
0.00969305
0.0102609
0.0108429
0.0114388
0.012049
0.0126737
0.013313
0.0139674
0.0146371
0.0153223
0.0160235
0.0167411
0.0174751
0.0182264
0.0189956
0.0197836
0.0205919
0.021421
0.00153341
0.00126666
0.00144492
0.00169832
0.00194716
0.0021854
0.00241732
0.00264929
0.00288831
0.00314147
0.00341497
0.00371343
0.00403981
0.00439639
0.00478672
0.00520514
0.00564355
0.00609841
0.00656789
0.00705087
0.00754715
0.00805609
0.00857727
0.00911052
0.00965541
0.0102116
0.010779
0.0113576
0.0119475
0.0125483
0.0131603
0.0137839
0.0144189
0.0150656
0.0157243
0.016395
0.0170781
0.0177738
0.0184827
0.0192052
0.0199418
0.0206927
0.0214564
0.00173113
0.00137532
0.00153554
0.0017929
0.00204871
0.00229559
0.00253869
0.00278559
0.00304428
0.00332168
0.00362329
0.00395211
0.00430966
0.00469763
0.00511819
0.00556162
0.00602154
0.00649539
0.00698207
0.00748049
0.00798994
0.00851007
0.00904022
0.00958012
0.0101293
0.0106873
0.0112539
0.0118294
0.0124132
0.0130052
0.0136053
0.0142141
0.0148314
0.0154571
0.0160914
0.0167343
0.017386
0.0180468
0.018717
0.0193966
0.0200859
0.0207847
0.0214927
0.00191183
0.00147436
0.00161893
0.001879
0.00214054
0.00239549
0.00265025
0.00291316
0.00319204
0.00349375
0.00382246
0.00417942
0.00456536
0.00498255
0.00542878
0.00589314
0.00637127
0.00686195
0.00736425
0.00787691
0.00839849
0.00892861
0.0094667
0.0100123
0.0105649
0.0111242
0.0116906
0.0122635
0.0128415
0.013424
0.0140127
0.0146079
0.0152093
0.0158156
0.0164266
0.0170437
0.0176673
0.0182961
0.0189309
0.0195711
0.020217
0.0208675
0.0215225
0.00211389
0.00156506
0.0016739
0.0019397
0.00221336
0.00248325
0.00275436
0.00303357
0.00333502
0.00366433
0.00401895
0.00440246
0.00481807
0.00526315
0.00572549
0.0062002
0.00669169
0.00720375
0.00772695
0.00825362
0.0087851
0.00932349
0.00986773
0.0104178
0.0109724
0.0115326
0.0121021
0.0126749
0.0132421
0.0138089
0.0143865
0.0149716
0.0155604
0.0161458
0.0167317
0.0173253
0.0179257
0.0185239
0.0191265
0.0197297
0.0203365
0.0209409
0.0215522
0.000378783
0.00137707
0.00283359
0.00427208
0.00562798
0.00690212
0.00810286
0.0092392
0.010321
0.011361
0.0123772
0.0133909
0.0144183
0.0154645
0.0165241
0.0175846
0.0186606
0.0198387
0.0211151
0.0224657
0.0238718
0.0253213
0.026807
0.0283244
0.0298694
0.031439
0.033031
0.0346434
0.036275
0.037924
0.0395893
0.0412703
0.0429653
0.0446733
0.0463936
0.0481247
0.0498659
0.051616
0.053374
0.0551391
0.0569112
0.0586912
0.0604847
0.000303557
0.00100638
0.0022518
0.00341663
0.00449929
0.00554116
0.0065637
0.00757159
0.00856682
0.00955172
0.0105299
0.0115073
0.0124906
0.0134853
0.0144945
0.0155203
0.0165734
0.017679
0.0188471
0.0200664
0.0213184
0.022644
0.0240775
0.0255905
0.0271604
0.0287745
0.0304242
0.0321027
0.0338059
0.0355304
0.0372731
0.0390324
0.0408063
0.0425931
0.0443916
0.0462002
0.0480179
0.0498434
0.0516757
0.053514
0.055358
0.0572083
0.0590664
0.000202931
0.000684123
0.00155967
0.00268651
0.0039471
0.00509855
0.0061488
0.00712824
0.00805913
0.00895812
0.00983854
0.0107117
0.0115874
0.0124745
0.0133811
0.0143145
0.0152834
0.0162968
0.0173629
0.0184835
0.0196578
0.0208951
0.0222007
0.0235588
0.0249905
0.026536
0.0281643
0.0298519
0.0315841
0.0333506
0.0351441
0.0369598
0.0387936
0.0406426
0.0425044
0.044377
0.0462586
0.0481476
0.0500431
0.0519437
0.053849
0.0557587
0.057672
0.000213673
0.000585532
0.00132778
0.00228408
0.00345084
0.00467211
0.00582234
0.00689083
0.00788571
0.00881707
0.00969622
0.0105358
0.0113494
0.0121511
0.0129551
0.0137749
0.0146238
0.0155133
0.0164538
0.0174535
0.0185181
0.0196513
0.0208535
0.0221215
0.0234581
0.0248653
0.0263336
0.0279213
0.0296078
0.0313643
0.0331714
0.0350161
0.036889
0.038784
0.0406963
0.0426222
0.0445587
0.0465038
0.0484556
0.0504126
0.0523737
0.0543376
0.0563027
0.000198192
0.000523757
0.0011875
0.00203865
0.00307632
0.0042752
0.00548461
0.00663178
0.00770721
0.00871452
0.00965836
0.010544
0.011379
0.0121732
0.0129394
0.0136925
0.014449
0.0152257
0.0160391
0.0169039
0.0178327
0.0188341
0.019913
0.0210711
0.0223075
0.0236186
0.0250007
0.026461
0.0279909
0.029642
0.0313973
0.0332261
0.0351069
0.0370253
0.0389712
0.0409375
0.0429189
0.0449118
0.0469132
0.0489208
0.0509325
0.0529464
0.0549602
0.000196628
0.000488634
0.00110508
0.00189152
0.00284776
0.00397086
0.00518604
0.00638249
0.00752167
0.00859719
0.00960991
0.0105617
0.0114548
0.012293
0.0130829
0.0138338
0.0145589
0.0152741
0.015998
0.0167498
0.0175484
0.0184105
0.0193488
0.0203721
0.0214842
0.0226845
0.0239704
0.0253373
0.0267805
0.0283055
0.0299105
0.0316472
0.0334836
0.0353895
0.0373438
0.0393326
0.0413456
0.0433763
0.045419
0.0474706
0.0495275
0.0515875
0.0536478
0.000192343
0.000461634
0.00104319
0.00178334
0.00268095
0.00373591
0.00492415
0.00614648
0.00733543
0.00846912
0.00954333
0.0105581
0.0115139
0.0124114
0.0132525
0.0140413
0.0147846
0.0154931
0.0161815
0.0168677
0.0175724
0.0183171
0.0191219
0.0200038
0.0209753
0.0220431
0.023209
0.0244703
0.0258219
0.027258
0.0287737
0.0303753
0.0320826
0.0339163
0.0358394
0.0378235
0.0398491
0.0419036
0.0439777
0.0460653
0.0481616
0.0502627
0.0523661
0.000190712
0.000443549
0.000999144
0.00170536
0.00255993
0.00356285
0.00470841
0.00593328
0.00715602
0.00833764
0.00946563
0.0105372
0.0115514
0.0125078
0.0134063
0.0142474
0.0150338
0.0157707
0.0164668
0.0171353
0.0177933
0.0184617
0.0191634
0.0199212
0.0207555
0.0216822
0.0227112
0.0238464
0.0250863
0.0264253
0.0278562
0.0293727
0.0309737
0.0326654
0.0344972
0.0364351
0.0384453
0.0405042
0.042596
0.0447096
0.0468375
0.0489739
0.0511131
0.00018902
0.000429306
0.00096405
0.00164383
0.00246488
0.00342698
0.00452987
0.00574142
0.00698419
0.00820458
0.00937984
0.0105026
0.0115704
0.012582
0.0135364
0.0144325
0.0152705
0.0160518
0.0167806
0.0174648
0.0181162
0.0187511
0.0193902
0.0200573
0.0207771
0.0215727
0.0224628
0.0234603
0.0245709
0.0257942
0.0271247
0.0285542
0.0300741
0.0316784
0.033376
0.0352068
0.0371588
0.0391936
0.0412836
0.0434099
0.0455601
0.0477258
0.0499029
0.000187843
0.00041801
0.00093625
0.00159488
0.00238923
0.00331865
0.00438455
0.00557286
0.00682288
0.00807246
0.0092884
0.0104572
0.0115741
0.012637
0.013644
0.0145936
0.0154843
0.0163156
0.0170887
0.0178072
0.0184782
0.0191126
0.0197266
0.0203407
0.0209794
0.0216688
0.0224338
0.0232959
0.0242697
0.0253628
0.0265758
0.0279028
0.0293351
0.0308624
0.0324786
0.0341896
0.0360257
0.0379947
0.0400549
0.0421751
0.0443347
0.0465199
0.0487221
0.000186768
0.000408583
0.000913215
0.00155448
0.00232678
0.00322938
0.00426394
0.0054255
0.00667264
0.00794246
0.00919268
0.0104029
0.0115649
0.0126753
0.0137317
0.0147319
0.015674
0.0165561
0.0173776
0.0181393
0.0188446
0.0195001
0.0201167
0.0207105
0.0213023
0.0219171
0.0225821
0.0233242
0.0241661
0.0251246
0.0262081
0.0274175
0.0287472
0.0301875
0.0317279
0.0333607
0.0350883
0.036939
0.0389301
0.0410179
0.0431692
0.0453621
0.0475838
0.000185879
0.000400695
0.000893826
0.00152057
0.00227442
0.00315445
0.00416248
0.00529761
0.0065344
0.00781619
0.00909424
0.0103412
0.0115447
0.0126991
0.0138017
0.0148497
0.0158408
0.0167726
0.0176431
0.0184515
0.0191985
0.0198874
0.020525
0.0211225
0.0216961
0.0222672
0.0228616
0.0235078
0.0242337
0.0250635
0.0260147
0.0270967
0.0283101
0.029649
0.0311032
0.0326612
0.0343138
0.036062
0.0379367
0.0399558
0.0420742
0.0442573
0.0464803
0.000185046
0.000393928
0.000877243
0.00149152
0.00222962
0.00309046
0.00407568
0.00518632
0.00640814
0.00769468
0.00899432
0.0102734
0.0115148
0.0127103
0.0138561
0.0149492
0.0159869
0.0169664
0.017885
0.0187407
0.0195326
0.0202615
0.020931
0.0215485
0.0221252
0.0226783
0.02323
0.0238072
0.0244396
0.0251559
0.0259812
0.0269336
0.0280221
0.0292471
0.030602
0.0320755
0.0336552
0.0353309
0.0371047
0.0390121
0.041065
0.0432171
0.0454345
0.000184273
0.000388046
0.000862831
0.00146625
0.00219073
0.00303496
0.00400038
0.0050889
0.0062935
0.0075788
0.00889411
0.0102007
0.0114764
0.0127103
0.0138967
0.0150323
0.016114
0.017139
0.0181041
0.0190064
0.0198441
0.0206162
0.0213238
0.0219712
0.0225658
0.0231204
0.0236529
0.0241867
0.0247501
0.0253736
0.0260869
0.0269156
0.0278773
0.0289805
0.0302246
0.0316018
0.0330998
0.034705
0.0364077
0.0382119
0.0401606
0.0422517
0.0444363
0.000183513
0.000382861
0.000850094
0.00144395
0.0021564
0.00298607
0.00393407
0.00500278
0.00618935
0.00746893
0.00879453
0.0101241
0.0114307
0.0127
0.0139247
0.0151005
0.0162241
0.0172923
0.018302
0.0192497
0.0201327
0.020949
0.021698
0.0223812
0.0230034
0.0235733
0.0241047
0.0246167
0.0251346
0.0256878
0.0263078
0.0270252
0.0278649
0.0288442
0.02997
0.0312403
0.0326457
0.0341728
0.0358076
0.0375409
0.0393812
0.0413782
0.0435104
0.000182716
0.000378194
0.000838663
0.00142402
0.00212579
0.00294244
0.00387498
0.0049259
0.00609488
0.0073652
0.00869635
0.0100445
0.0113786
0.0126807
0.0139413
0.0151552
0.0163185
0.017428
0.0184804
0.0194719
0.0203992
0.0212595
0.0220511
0.0227737
0.0234295
0.0240241
0.0245676
0.025075
0.0255675
0.0260719
0.0266191
0.0272418
0.0279703
0.0288293
0.0298341
0.0309901
0.0322932
0.0337323
0.0352929
0.0369608
0.0387287
0.0406138
0.0426693
0.000181887
0.000373989
0.000828361
0.00140606
0.00209819
0.00290313
0.00382183
0.00485673
0.00600897
0.00726796
0.0086003
0.00996282
0.011321
0.0126532
0.0139475
0.0151974
0.0163987
0.0175476
0.0186407
0.0196743
0.0206445
0.0215482
0.0223826
0.0231461
0.023839
0.0244646
0.0250295
0.0255453
0.0260289
0.0265035
0.0269978
0.0275443
0.0281761
0.0289237
0.02981
0.0308484
0.0320417
0.0333835
0.0348611
0.036459
0.0381636
0.0399712
0.0419132
0.000181017
0.000370149
0.000818939
0.0013897
0.00207311
0.0028674
0.00377352
0.00479393
0.00593044
0.00717693
0.0085071
0.00988008
0.0112588
0.0126185
0.0139444
0.0152285
0.0164658
0.0176523
0.0187843
0.0198583
0.0208701
0.021816
0.0226927
0.0234976
0.0242297
0.02489
0.0254829
0.0260164
0.0265038
0.0269646
0.0274239
0.0279126
0.0284643
0.0291129
0.0298876
0.0308095
0.031889
0.0331262
0.034512
0.0360321
0.0376705
0.039414
0.0412613
0.000180091
0.000366593
0.000810267
0.00137461
0.0020501
0.0028347
0.0037293
0.00473641
0.00585831
0.00709184
0.00841714
0.00979685
0.011193
0.0125773
0.0139327
0.0152492
0.0165207
0.0177432
0.0189126
0.0200252
0.0210771
0.022064
0.0229821
0.0238283
0.0246003
0.0252978
0.0259227
0.0264807
0.0269817
0.0274412
0.0278811
0.0283289
0.0288174
0.0293817
0.0300552
0.0308656
0.0318311
0.0329589
0.0342456
0.0356799
0.0372456
0.0389261
0.0407099
0.000179144
0.00036326
0.000802262
0.00136073
0.00202882
0.00280456
0.00368864
0.0046835
0.00579171
0.00701222
0.0083306
0.0097139
0.0111241
0.0125306
0.0139133
0.0152603
0.0165646
0.0178214
0.0190266
0.0201764
0.0212668
0.0222933
0.0232518
0.0241386
0.0249508
0.0256865
0.0263463
0.0269335
0.0274551
0.0279233
0.0283563
0.0287782
0.0292196
0.029715
0.0302999
0.0310071
0.0318618
0.0328786
0.0340611
0.0354022
0.0368882
0.0385019
0.0402281
0.00017819
0.000360181
0.000794762
0.00134781
0.00200905
0.00277651
0.00365092
0.00463443
0.00572986
0.00693764
0.00824761
0.00963178
0.011053
0.012479
0.0138868
0.0152626
0.0165981
0.0178878
0.0191274
0.020313
0.0214403
0.0225051
0.0235028
0.0244294
0.0252813
0.0260559
0.0267522
0.0273716
0.027919
0.0284035
0.0288397
0.0292485
0.0296571
0.0300985
0.0306087
0.0312233
0.0319734
0.0328809
0.0339563
0.0351989
0.0365985
0.0381398
0.0398073
0.000177207
0.000357305
0.000787793
0.00133572
0.0019906
0.0027504
0.00361574
0.00458869
0.00567219
0.00686763
0.00816823
0.0095509
0.0109804
0.0124231
0.0138541
0.015257
0.0166221
0.0179433
0.0192159
0.0204358
0.0215988
0.0227003
0.0237361
0.0247016
0.0255926
0.026406
0.0271395
0.0277933
0.0283701
0.0288765
0.0293239
0.0297299
0.0301185
0.0305198
0.030969
0.0315032
0.0321574
0.0329597
0.0339281
0.0350685
0.0363762
0.0378386
0.0394395
0.000176207
0.000354609
0.000781261
0.00132439
0.00197329
0.00272593
0.0035828
0.00454585
0.00561821
0.00680177
0.00809242
0.00947161
0.0109069
0.0123639
0.0138157
0.0152439
0.0166373
0.0179887
0.0192929
0.0205458
0.0217431
0.0228803
0.0239528
0.0249559
0.0258853
0.026737
0.0275082
0.0281975
0.0288062
0.0293386
0.0298035
0.0302152
0.0305943
0.030968
0.0313694
0.0318357
0.0324043
0.0331082
0.033972
0.0350089
0.0362206
0.0375993
0.0391351
0.000175164
0.000352049
0.000775078
0.00131363
0.00195693
0.00270283
0.00355171
0.0045055
0.00556727
0.00673951
0.00801996
0.0093941
0.0108327
0.0123017
0.0137722
0.0152241
0.0166442
0.0180243
0.0193592
0.0206438
0.0218741
0.0230457
0.0241538
0.0251936
0.0261603
0.0270498
0.0278585
0.028584
0.0292262
0.0297876
0.0302746
0.0306987
0.0310772
0.0314341
0.0318
0.0322107
0.0327048
0.0333186
0.0340826
0.0350167
0.0361294
0.0374177
0.0388695
0.000174067
0.000349578
0.000769147
0.00130336
0.0019413
0.00268085
0.00352219
0.00446727
0.00551904
0.00668038
0.0079506
0.00931847
0.0107584
0.012237
0.0137242
0.015198
0.0166434
0.0180512
0.0194152
0.0207305
0.0219927
0.0231975
0.02434
0.0254153
0.0264185
0.027345
0.0281908
0.0289527
0.0296294
0.0302219
0.0307345
0.0311762
0.0315613
0.0319106
0.0322518
0.0326188
0.0330497
0.033583
0.0342535
0.0350877
0.0361004
0.037294
0.0386591
0.000172933
0.000347212
0.000763474
0.00129358
0.00192645
0.00265992
0.00349414
0.00443097
0.00547331
0.00662419
0.00788408
0.00924489
0.0106842
0.0121703
0.0136722
0.0151661
0.0166354
0.0180696
0.0194618
0.0208067
0.0220997
0.0233365
0.0245122
0.025622
0.0266606
0.0276234
0.0285057
0.0293038
0.0300155
0.0306405
0.0311813
0.0316447
0.0320423
0.0323917
0.0327178
0.0330518
0.0334306
0.0338934
0.0344784
0.0352171
0.0361307
0.0372277
0.0385032
0.000171763
0.00034494
0.00075804
0.00128424
0.00191226
0.00263986
0.00346731
0.00439637
0.00542977
0.0065707
0.00782046
0.00917336
0.0106106
0.0121022
0.0136168
0.0151291
0.0166209
0.0180803
0.0194994
0.0208729
0.0221957
0.0234634
0.0246713
0.0258144
0.0268875
0.0278856
0.0288038
0.0296378
0.0303846
0.031043
0.0316139
0.0321021
0.0325168
0.0328729
0.033192
0.0335027
0.0338398
0.0342424
0.0347504
0.0353996
0.0362171
0.0372183
0.0384067
0.00017055
0.000342737
0.000752816
0.00127521
0.00189863
0.00262066
0.00344157
0.00436321
0.00538815
0.00651955
0.00775939
0.00910396
0.0105377
0.0120329
0.0135585
0.0150875
0.0166003
0.0180837
0.0195288
0.0209296
0.0222812
0.0235789
0.0248179
0.0259933
0.0270999
0.0281324
0.0290856
0.0299552
0.0307371
0.0314293
0.0320316
0.0325468
0.0329823
0.0333503
0.0336694
0.0339653
0.0342704
0.0346228
0.0350629
0.0356297
0.0363554
0.0372615
0.0383571
0.000169279
0.000340591
0.0007478
0.00126658
0.00188551
0.00260227
0.00341698
0.00433147
0.00534826
0.0064705
0.00770067
0.00903659
0.0104658
0.0119631
0.0134976
0.0150417
0.0165741
0.0180802
0.0195502
0.0209775
0.0223569
0.0236836
0.0249527
0.0261595
0.0272985
0.0283645
0.0293521
0.0302564
0.0310732
0.0317993
0.0324338
0.032978
0.0334371
0.0338212
0.0341461
0.0344346
0.0347165
0.035028
0.0354095
0.0359017
0.0365408
0.0373539
0.0383549
0.000167984
0.000338486
0.000742916
0.00125825
0.00187287
0.00258448
0.00339331
0.00430093
0.00530992
0.00642341
0.00764421
0.00897138
0.010395
0.0118928
0.0134347
0.0149922
0.0165427
0.0180704
0.0195643
0.0210171
0.0224234
0.0237781
0.0250764
0.0263135
0.0274841
0.0285827
0.0296038
0.0305423
0.0313934
0.0321535
0.0328207
0.0333949
0.0338799
0.0342835
0.034619
0.0349065
0.035173
0.0354524
0.0357842
0.0362099
0.0367687
0.0374924
0.0384011
0.000166689
0.000336496
0.00073824
0.00125019
0.00186068
0.00256738
0.00337047
0.00427148
0.00527297
0.00637808
0.00758978
0.00890817
0.0103256
0.0118224
0.01337
0.0149394
0.0165067
0.0180547
0.0195714
0.0210489
0.0224811
0.0238628
0.0251895
0.026456
0.0276572
0.0287875
0.0298413
0.0308132
0.0316983