/*--------------------------------*- C++ -*----------------------------------*\
| =========                 |                                                 |
| \\      /  F ield         | OpenFOAM: The Open Source CFD Toolbox           |
|  \\    /   O peration     | Version:  2.3.0                                 |
|   \\  /    A nd           | Web:      www.OpenFOAM.org                      |
|    \\/     M anipulation  |                                                 |
\*---------------------------------------------------------------------------*/
FoamFile
{
    version     2.0;
    format      ascii;
    class       surfaceScalarField;
    location    "2000";
    object      phi;
}
// * * * * * * * * * * * * * * * * * * * * * * * * * * * * * * * * * * * * * //

dimensions      [0 3 -1 0 0 0 0];

internalField   nonuniform List<scalar> 
77614
(
-0.00420625
-0.00686757
0.00753477
0.00353909
-0.00482652
-0.00661465
0.00723492
-0.00540205
-0.00637008
0.00694561
-0.00593471
-0.00613364
0.0066663
-0.00642667
-0.00590584
0.0063978
-0.00687842
-0.00568696
0.00613871
-0.00729228
-0.00547528
0.00588914
-0.00766836
-0.00527138
0.00564746
-0.00801012
-0.00507421
0.00541596
-0.00831758
-0.00488483
0.00519229
-0.00859236
-0.00470186
0.00497664
-0.00883674
-0.00452531
0.00476969
-0.00905148
-0.00435417
0.0045689
-0.00923678
-0.00418983
0.00437513
-0.00939741
-0.00402984
0.00419047
-0.00953198
-0.0038764
0.00401096
-0.00964098
-0.0037283
0.0038373
-0.00972901
-0.00358361
0.00367165
-0.00979544
-0.00344449
0.00351092
-0.00984151
-0.0033106
0.00335667
-0.00987031
-0.00317841
0.00320721
-0.00988031
-0.00305314
0.00306313
-0.00987717
-0.00292792
0.00292478
-0.00985741
-0.00280926
0.00278951
-0.00982404
-0.00269363
0.00266025
-0.00977831
-0.00257889
0.00253316
-0.00971996
-0.00246666
0.00240831
-0.00964697
-0.00235852
0.00228554
-0.00956226
-0.00225038
0.00216567
-0.00946214
-0.00214409
0.00204397
-0.00934818
-0.00203882
0.00192485
-0.00921523
-0.00193348
0.00180053
-0.00906749
-0.00182519
0.00167746
-0.00889939
-0.00171851
0.00155041
-0.0087095
-0.00161027
0.00142038
-0.00849904
-0.00149593
0.00128547
-0.00826769
-0.00137924
0.00114789
-0.00801697
-0.00125669
0.00100597
-0.00774392
-0.00112992
0.000856866
-0.00745344
-0.000994521
0.000704046
-0.00714425
-0.000855537
0.000546346
-0.00682669
-0.000711428
0.000393866
-0.000560163
-0.00659664
0.000330119
-0.00380416
-0.0062727
0.00320929
-0.00435864
-0.00606017
-0.00487132
-0.0058574
-0.00534475
-0.00566021
-0.00577967
-0.00547091
-0.00617851
-0.00528812
-0.00654251
-0.00511127
-0.0068738
-0.00494009
-0.00717202
-0.00477599
-0.00743977
-0.00461709
-0.00767788
-0.00446375
-0.00788814
-0.00431505
-0.00807069
-0.00417161
-0.00822736
-0.00403316
-0.0083587
-0.0038985
-0.00846683
-0.00376827
-0.00855168
-0.00364345
-0.00861581
-0.00351948
-0.00865768
-0.00340262
-0.00868213
-0.00328615
-0.00868643
-0.00317412
-0.00867436
-0.0030652
-0.00864459
-0.00295769
-0.00860061
-0.00285323
-0.00854222
-0.00275201
-0.00847061
-0.00265051
-0.00838538
-0.00255189
-0.00829019
-0.0024537
-0.00818449
-0.00235609
-0.00806781
-0.00226077
-0.00794218
-0.00216444
-0.00780893
-0.00206673
-0.00766422
-0.0019699
-0.00751015
-0.00187258
-0.0073477
-0.00177272
-0.0071705
-0.00167314
-0.00698031
-0.00156942
-0.00677065
-0.00146635
-0.00653614
-0.00136443
-0.00627043
-0.00126023
-0.00596607
-0.00115989
-0.00561547
-0.00106203
-0.00097237
-0.00520326
-0.00344277
-0.00574284
0.00291291
-0.00393697
-0.00556598
-0.00439259
-0.00540178
-0.00481386
-0.00523894
-0.00520029
-0.00508449
-0.00555385
-0.00493456
-0.00587635
-0.00478877
-0.00616714
-0.0046493
-0.00642946
-0.00451366
-0.00666366
-0.00438289
-0.00687094
-0.00425647
-0.00705307
-0.00413292
-0.00721002
-0.00401466
-0.007344
-0.00389918
-0.00745401
-0.00378849
-0.00754298
-0.0036793
-0.00761307
-0.00357336
-0.00766114
-0.0034714
-0.00769236
-0.0033714
-0.00770322
-0.00327529
-0.00769834
-0.003179
-0.00767801
-0.00308554
-0.00764111
-0.00299459
-0.00758957
-0.00290477
-0.00752522
-0.00281636
-0.00744535
-0.00273038
-0.00735522
-0.00264202
-0.00725103
-0.00255789
-0.00713541
-0.00247171
-0.00700994
-0.00238624
-0.00687285
-0.00230154
-0.00672427
-0.0022153
-0.0065667
-0.00212748
-0.00639799
-0.00204129
-0.00621911
-0.00195161
-0.00602996
-0.00186228
-0.00582702
-0.00177237
-0.00561263
-0.00168074
-0.00538772
-0.00158934
-0.005147
-0.00150095
-0.00489451
-0.00141239
-0.00462485
-0.00133168
-0.00125673
-0.00434049
-0.00311464
-0.00526333
0.00263513
-0.0035537
-0.00512692
-0.00396365
-0.00499182
-0.00433821
-0.00486438
-0.00468324
-0.00473946
-0.00499776
-0.00462004
-0.00528339
-0.00450314
-0.00554205
-0.00439064
-0.00577414
-0.00428157
-0.00598106
-0.00417596
-0.00616348
-0.00407405
-0.00632215
-0.00397425
-0.00645902
-0.00387779
-0.00657401
-0.00378419
-0.00666934
-0.00369317
-0.00674489
-0.00360375
-0.00680055
-0.0035177
-0.00683906
-0.00343289
-0.00685951
-0.00335095
-0.0068655
-0.0032693
-0.00685483
-0.00318966
-0.00682934
-0.00311103
-0.00678968
-0.00303425
-0.00673579
-0.00295866
-0.00667022
-0.00288194
-0.00659276
-0.00280784
-0.0065016
-0.00273318
-0.00640079
-0.0026587
-0.00628962
-0.00258287
-0.00616761
-0.00250825
-0.00603719
-0.00243196
-0.00589646
-0.00235603
-0.00574453
-0.00227941
-0.00558628
-0.00219953
-0.00541671
-0.00212118
-0.00523819
-0.0020408
-0.00505064
-0.00195992
-0.00485267
-0.00187871
-0.00464357
-0.00179844
-0.00442604
-0.00171848
-0.00419593
-0.00164249
-0.00395678
-0.00157084
-0.00150518
-0.00370833
-0.00281617
-0.00483492
0.00238776
-0.00321147
-0.00473163
-0.00357649
-0.0046268
-0.00391293
-0.00452794
-0.00422091
-0.00443148
-0.00450221
-0.00433874
-0.00475679
-0.00424857
-0.00498708
-0.00416035
-0.00519312
-0.00407553
-0.00537574
-0.00399335
-0.00553781
-0.00391198
-0.00567764
-0.00383442
-0.00579729
-0.00375814
-0.00589822
-0.00368326
-0.00598036
-0.00361102
-0.00604359
-0.00354052
-0.00609097
-0.00347031
-0.00612199
-0.00340188
-0.00613747
-0.00333547
-0.00613836
-0.00326841
-0.0061248
-0.00320322
-0.00609722
-0.00313862
-0.00605756
-0.00307391
-0.00600484
-0.00301138
-0.00594055
-0.00294623
-0.00586535
-0.00288304
-0.00577995
-0.00281858
-0.00568339
-0.00275526
-0.00557742
-0.00268884
-0.00546259
-0.00262308
-0.00533701
-0.00255754
-0.00520434
-0.0024887
-0.00506361
-0.00242014
-0.00491283
-0.00235031
-0.00475577
-0.00227825
-0.00458887
-0.0022077
-0.00441595
-0.00213283
-0.00423449
-0.00206017
-0.00404468
-0.00198825
-0.00384811
-0.00191506
-0.00364228
-0.00184832
-0.00343169
-0.00178143
-0.00172173
-0.00321513
-0.00254542
-0.0044529
0.0021634
-0.00290242
-0.00437463
-0.0032307
-0.00429851
-0.00353063
-0.00422801
-0.00380658
-0.00415553
-0.00405797
-0.00408735
-0.00428646
-0.00402007
-0.0044912
-0.00395561
-0.00467553
-0.0038912
-0.00483901
-0.00382988
-0.0049818
-0.00376919
-0.00510603
-0.00371019
-0.00521166
-0.00365251
-0.00529994
-0.00359498
-0.00537166
-0.0035393
-0.00542801
-0.00348418
-0.00546774
-0.00343058
-0.00549326
-0.00337636
-0.00550474
-0.00332399
-0.00550291
-0.00327024
-0.00548757
-0.00321856
-0.00546092
-0.00316527
-0.00542178
-0.00311305
-0.00537177
-0.00306139
-0.00531054
-0.00300746
-0.0052403
-0.00295329
-0.0051595
-0.00289938
-0.00506997
-0.0028448
-0.00497103
-0.00278777
-0.00486283
-0.00273129
-0.00474824
-0.00267213
-0.00462395
-0.00261299
-0.00449405
-0.00255004
-0.00435586
-0.0024885
-0.00420886
-0.00242526
-0.00405792
-0.00235863
-0.00389833
-0.00229242
-0.0037318
-0.00222671
-0.00356093
-0.00215912
-0.00338204
-0.00209395
-0.00319839
-0.00203196
-0.00300882
-0.001971
-0.00191511
-0.00281544
-0.00230382
-0.00410755
0.00195846
-0.00262408
-0.00405437
-0.00291628
-0.00400631
-0.0031884
-0.00395589
-0.0034351
-0.00390883
-0.00366086
-0.00386159
-0.00386559
-0.00381535
-0.00405043
-0.00377077
-0.00421397
-0.00372765
-0.00436019
-0.00368366
-0.00448764
-0.00364174
-0.00459877
-0.00359906
-0.00469324
-0.00355804
-0.00477084
-0.00351738
-0.0048343
-0.00347584
-0.00488241
-0.00343607
-0.00491685
-0.00339613
-0.00493782
-0.0033554
-0.00494731
-0.00331449
-0.00494298
-0.00327457
-0.00492829
-0.00323324
-0.0049018
-0.00319176
-0.00486393
-0.00315093
-0.00481823
-0.00310708
-0.00476094
-0.00306475
-0.00469394
-0.00302029
-0.00461868
-0.00297464
-0.0045364
-0.00292708
-0.00444419
-0.00287998
-0.00434511
-0.00283036
-0.00423899
-0.00277825
-0.00412557
-0.00272641
-0.00400479
-0.00267082
-0.00387846
-0.00261483
-0.00374595
-0.00255776
-0.00360668
-0.00249791
-0.00346098
-0.00243812
-0.00331061
-0.00237707
-0.00315335
-0.00231638
-0.00299178
-0.00225553
-0.00282717
-0.00219657
-0.00265582
-0.00214235
-0.00208868
-0.00248225
-0.00208553
-0.00379468
0.00177266
-0.00237214
-0.00376776
-0.00263857
-0.00373988
-0.00288019
-0.00371427
-0.0031031
-0.00368592
-0.0033061
-0.0036586
-0.00348922
-0.00363222
-0.0036546
-0.00360539
-0.00380297
-0.00357928
-0.0039327
-0.00355393
-0.00404767
-0.00352677
-0.00414662
-0.00350011
-0.00423031
-0.00347434
-0.00430002
-0.00344767
-0.00435578
-0.00342009
-0.00439815
-0.00339369
-0.00442871
-0.00336557
-0.00444641
-0.0033377
-0.0044526
-0.0033083
-0.00444848
-0.0032787
-0.00443327
-0.00324845
-0.00440835
-0.00321668
-0.00437383
-0.00318545
-0.0043294
-0.00315152
-0.00427687
-0.00311727
-0.00421628
-0.00308088
-0.00414709
-0.00304383
-0.00406899
-0.00300518
-0.00398485
-0.00296413
-0.00389437
-0.00292084
-0.00379557
-0.00287705
-0.00369222
-0.00282975
-0.00358267
-0.00278037
-0.00346693
-0.00273058
-0.00334579
-0.0026789
-0.00321789
-0.00262581
-0.00308502
-0.00257099
-0.00294796
-0.00251413
-0.00280728
-0.00245705
-0.00266116
-0.00240165
-0.00251017
-0.00234757
-0.00235731
-0.00229521
-0.00224722
-0.00219877
-0.00188642
0.00160717
-0.00351543
-0.00214411
-0.00351008
-0.00238347
-0.00350052
-0.00260334
-0.0034944
-0.00280472
-0.00348454
-0.00298662
-0.00347669
-0.00315285
-0.00346599
-0.0033012
-0.00345705
-0.00343437
-0.00344611
-0.00355178
-0.00343652
-0.00365484
-0.00342371
-0.00374406
-0.00341089
-0.00381935
-0.00339906
-0.00388169
-0.00338533
-0.00393038
-0.00337139
-0.00396967
-0.0033544
-0.00399608
-0.00333916
-0.00401218
-0.0033216
-0.00401697
-0.00330351
-0.00401124
-0.00328443
-0.00399758
-0.0032621
-0.00397394
-0.00324033
-0.00394264
-0.00321674
-0.00390101
-0.00319315
-0.00385229
-0.00316599
-0.00379525
-0.00313792
-0.00373218
-0.00310689
-0.00366266
-0.0030747
-0.00358514
-0.00304165
-0.00350175
-0.00300423
-0.00341183
-0.00296697
-0.0033167
-0.00292488
-0.00321467
-0.0028824
-0.00310989
-0.00283536
-0.00299939
-0.0027894
-0.0028836
-0.0027416
-0.00276266
-0.00269193
-0.00263627
-0.00264053
-0.00250708
-0.00258624
-0.00237409
-0.00253463
-0.00223784
-0.00248382
-0.00209756
-0.00243549
-0.00195571
-0.00238907
-0.00570721
-0.000469432
-0.000419999
-0.00508314
-0.000469094
-0.000154977
-0.00457272
-0.000490147
-2.02821e-05
-0.00412858
-0.000524622
8.04862e-05
-0.00373377
-0.00056324
0.00016843
-0.00337663
-0.000607126
0.000249978
-0.00304662
-0.000655799
0.00032579
-0.00273957
-0.000706463
0.000399411
-0.00245218
-0.000759768
0.00047238
-0.00218126
-0.000815211
0.000544288
-0.001925
-0.000872426
0.000616168
-0.0016814
-0.000931614
0.000688018
-0.00145239
-0.000991016
0.000762007
-0.00123343
-0.00105444
0.000835476
-0.00102728
-0.00111771
0.000911558
-0.000832179
-0.00118351
0.000988411
-0.000649106
-0.00125082
0.00106774
-0.000477623
-0.00132102
0.00114954
-0.000317887
-0.00139299
0.00123325
-0.000169784
-0.00146729
0.00131919
-3.40385e-05
-0.00154444
0.0014087
8.90746e-05
-0.00162417
0.00150105
0.000198524
-0.00170613
0.00159668
0.000293765
-0.0017916
0.00169635
0.000375458
-0.00188091
0.00179921
0.000441331
-0.00197234
0.00190647
0.000491581
-0.00206797
0.00201772
0.000525425
-0.00216794
0.00213409
0.000541133
-0.00227072
0.00225501
0.0005394
-0.00237866
0.00238039
0.000517675
-0.0024903
0.00251203
0.000476108
-0.00260711
0.00264868
0.00041285
-0.00272848
0.00279174
0.000327151
-0.0028547
0.0029404
0.000217829
-0.00298645
0.00309577
8.40245e-05
-0.00312381
0.00325761
-7.63891e-05
-0.00326676
0.00342718
-0.000263792
-0.00341616
0.00360356
-0.000480122
-0.00357161
0.00378794
-0.000726564
-0.00373383
0.00398027
-0.00100494
-0.00390273
0.0041811
-0.00131635
-0.00407931
0.00439072
-0.004263
0.00460952
-0.00166288
-0.00475999
-0.000912702
-0.00434202
-0.000887063
-0.00395332
-0.000878847
-0.00359575
-0.000882195
-0.00326324
-0.000895753
-0.00295197
-0.000918392
-0.0026624
-0.000945376
-0.00238923
-0.000979632
-0.00213265
-0.00101634
-0.0018912
-0.00105666
-0.00166161
-0.00110201
-0.00144576
-0.00114746
-0.00123974
-0.00119704
-0.00104672
-0.00124746
-0.000862963
-0.00130147
-0.000690226
-0.00135625
-0.000527245
-0.0014138
-0.000375392
-0.00147287
-0.000233691
-0.00153469
-0.000103383
-0.0015976
1.55412e-05
-0.00166337
0.000122813
-0.00173144
0.00021829
-0.0018016
0.000301048
-0.00187435
0.00037
-0.00194986
0.000425903
-0.00202824
0.000467104
-0.00210917
0.000492935
-0.00219377
0.000503004
-0.00228079
0.000496114
-0.00237177
0.000471822
-0.00246601
0.000428823
-0.00256411
0.000366593
-0.00266625
0.000284137
-0.00277225
0.000180373
-0.00288268
5.4112e-05
-0.00299755
-9.52712e-05
-0.00311738
-0.000269348
-0.00324208
-0.000469361
-0.0033716
-0.000696415
-0.00350677
-0.000951478
-0.00364767
-0.00123692
-0.00379387
-0.00394681
-0.0015531
-0.00404555
-0.00120764
-0.00374815
-0.00118447
-0.00345742
-0.00116958
-0.0031732
-0.00116641
-0.00290004
-0.00116892
-0.00263851
-0.00117992
-0.00238687
-0.00119701
-0.00214801
-0.0012185
-0.00191964
-0.00124471
-0.00170063
-0.00127567
-0.00149425
-0.0013084
-0.00129611
-0.0013456
-0.00110831
-0.00138483
-0.000929988
-0.00142579
-0.000761879
-0.00146957
-0.000602774
-0.00151536
-0.000453826
-0.00156275
-0.00031475
-0.00161195
-0.000186308
-0.00166313
-6.76748e-05
-0.00171623
4.016e-05
-0.0017712
0.000137095
-0.00182837
0.000221918
-0.00188643
0.000295787
-0.00194822
0.00035667
-0.00201074
0.000404555
-0.00207613
0.000439341
-0.00214396
0.000459473
-0.0022139
0.000465227
-0.00228654
0.000455457
-0.002362
0.000429846
-0.0024404
0.000387622
-0.00252189
0.000327219
-0.00260584
0.000248928
-0.00269396
0.000151033
-0.00278479
3.32076e-05
-0.00287972
-0.000106199
-0.00297797
-0.000267397
-0.00308088
-0.000451923
-0.00318707
-0.000660805
-0.00329789
-0.000895397
-0.00341308
-0.00115607
-0.0035332
-0.00365798
-0.0014449
-0.0034574
-0.00145857
-0.00320755
-0.00143432
-0.00296098
-0.00141615
-0.00272099
-0.0014064
-0.0024875
-0.00140241
-0.00226242
-0.00140501
-0.00204711
-0.00141232
-0.00183877
-0.00142684
-0.00163869
-0.00144479
-0.00144768
-0.00146668
-0.00126478
-0.00149129
-0.00109083
-0.00151956
-0.000925173
-0.00155049
-0.000767752
-0.00158321
-0.00061922
-0.00161811
-0.000479114
-0.00165546
-0.000348224
-0.00169363
-0.000225494
-0.00173468
-0.000111819
-0.00177681
-8.02663e-06
-0.00182002
8.60614e-05
-0.00186529
0.000170013
-0.00191233
0.000244063
-0.00196048
0.000306242
-0.0020104
0.000357631
-0.00206213
0.000397222
-0.00211572
0.000424531
-0.00217126
0.00043944
-0.00222881
0.000440898
-0.002288
0.00042828
-0.00234938
0.000400972
-0.00241309
0.000358269
-0.00247918
0.000300178
-0.00254775
0.000225028
-0.00261881
0.000132501
-0.00269226
2.17241e-05
-0.00276895
-0.000107811
-0.00284844
-0.000257996
-0.0029307
-0.000428595
-0.00301648
-0.000621286
-0.0031052
-0.000836514
-0.00319785
-0.00107615
-0.00329356
-0.00339377
-0.00134036
-0.00299675
-0.00167695
-0.00278008
-0.00165099
-0.00256747
-0.00162876
-0.00235996
-0.0016139
-0.00215804
-0.00160434
-0.00196175
-0.0016013
-0.0017704
-0.00160367
-0.00158732
-0.00160991
-0.00141166
-0.00162045
-0.00124266
-0.00163568
-0.00108052
-0.00165343
-0.000925939
-0.00167414
-0.000778417
-0.00169801
-0.000638914
-0.00172271
-0.000505826
-0.00175119
-0.000381516
-0.00177977
-0.000264218
-0.00181093
-0.000155489
-0.00184341
-5.51174e-05
-0.00187718
3.67945e-05
-0.00191193
0.000119402
-0.0019479
0.000192831
-0.00198576
0.00025676
-0.00202441
0.000311301
-0.00206494
0.000355038
-0.00210587
0.000388086
-0.00214877
0.000409941
-0.00219312
0.000420106
-0.00223897
0.000418041
-0.00228593
0.000403236
-0.00233458
0.000375494
-0.00238535
0.000333864
-0.00243755
0.000277191
-0.00249108
0.000206046
-0.00254766
0.000119117
-0.00260533
1.53796e-05
-0.00266521
-0.000105412
-0.00272765
-0.000244195
-0.00279192
-0.000402304
-0.00285837
-0.000579778
-0.00292773
-0.000778144
-0.00299948
-0.000998049
-0.00307366
-0.00315066
-0.00124116
-0.00262041
-0.00187199
-0.00242973
-0.00184167
-0.00224057
-0.00181792
-0.00205694
-0.00179753
-0.00187757
-0.00178371
-0.00170289
-0.00177597
-0.00153493
-0.00177163
-0.0013724
-0.00177244
-0.00121525
-0.00177761
-0.00106484
-0.00178609
-0.000920454
-0.00179782
-0.00078209
-0.0018125
-0.000651352
-0.00182875
-0.000526608
-0.00184746
-0.000408538
-0.00186926
-0.000297668
-0.00189064
-0.000193118
-0.00191548
-9.69567e-05
-0.00193957
-8.17244e-06
-0.00196596
7.27776e-05
-0.00199288
0.000146299
-0.00202142
0.000210415
-0.00204987
0.000266421
-0.00208041
0.000312459
-0.00211098
0.000350193
-0.0021436
0.000377686
-0.00217626
0.000395021
-0.00221045
0.000401273
-0.00224522
0.000396906
-0.00228157
0.000380927
-0.0023186
0.000352841
-0.00235726
0.000312051
-0.00239676
0.00025865
-0.00243768
0.000191024
-0.00248003
0.000109004
-0.00252331
1.26287e-05
-0.00256883
-9.99833e-05
-0.00261504
-0.000228879
-0.00266302
-0.000374516
-0.00271273
-0.000538067
-0.00276418
-0.000720458
-0.00281709
-0.000922121
-0.00287199
-0.00292894
-0.00114384
-0.00230744
-0.0020468
-0.00213588
-0.00201323
-0.00196807
-0.00198573
-0.00180321
-0.00196239
-0.00164214
-0.00194478
-0.00148755
-0.00193057
-0.00133683
-0.00192234
-0.00119067
-0.0019186
-0.00105039
-0.00191789
-0.000915717
-0.00192076
-0.000787027
-0.00192651
-0.000664533
-0.001935
-0.000546773
-0.00194651
-0.000434998
-0.00195923
-0.000329716
-0.00197454
-0.000229806
-0.00199055
-0.000137309
-0.00200798
-5.07977e-05
-0.00202608
2.76503e-05
-0.00204441
9.97777e-05
-0.00206501
0.000164061
-0.0020857
0.000220757
-0.00210657
0.000269171
-0.00212883
0.000310006
-0.00215181
0.000341397
-0.00217499
0.000364462
-0.00219932
0.00037778
-0.00222377
0.000381898
-0.00224934
0.000375908
-0.00227558
0.000359408
-0.0023021
0.000331437
-0.00232929
0.000292226
-0.00235755
0.000241005
-0.00238646
0.000177675
-0.0024167
0.000101239
-0.00244688
1.10428e-05
-0.00247864
-9.3201e-05
-0.00251079
-0.000212103
-0.00254412
-0.000346574
-0.00257826
-0.000497322
-0.00261343
-0.00066464
-0.00264977
-0.000849751
-0.00268688
-0.00272546
-0.00105323
-0.00204128
-0.00220429
-0.00188713
-0.00216738
-0.00173643
-0.00213643
-0.00158804
-0.00211078
-0.00144482
-0.002088
-0.00130365
-0.00207173
-0.00116884
-0.00205715
-0.00103841
-0.00204903
-0.000912991
-0.00204331
-0.000792067
-0.00204168
-0.000676578
-0.002042
-0.000565187
-0.00204639
-0.000460399
-0.0020513
-0.000359907
-0.00205973
-0.000265175
-0.00206928
-0.000175849
-0.00207988
-9.28536e-05
-0.00209098
-1.67207e-05
-0.00210221
5.41501e-05
-0.00211528
0.000117612
-0.00212847
0.000174342
-0.00214243
0.000224288
-0.00215651
0.000267264
-0.0021718
0.000302452
-0.002187
0.000330415
-0.00220295
0.000349359
-0.00221827
0.000360297
-0.00223471
0.000362436
-0.00225148
0.000354553
-0.00226769
0.000337566
-0.00228511
0.000310747
-0.00230247
0.000273316
-0.00232012
0.000225358
-0.0023385
0.000165836
-0.00235718
9.44686e-05
-0.00237551
1.06232e-05
-0.00239479
-8.56402e-05
-0.00241453
-0.00019591
-0.00243385
-0.000319734
-0.00245443
-0.000458199
-0.00247496
-0.000612036
-0.00249594
-0.000781454
-0.00251746
-0.00253917
-0.000967746
-0.00181464
-0.00234536
-0.0016748
-0.00230723
-0.00153882
-0.0022724
-0.00140476
-0.00224484
-0.00127456
-0.00221821
-0.00114871
-0.00219758
-0.00102657
-0.0021793
-0.000908941
-0.00216666
-0.000795897
-0.00215635
-0.000687667
-0.00214992
-0.000582752
-0.00214691
-0.00048437
-0.00214477
-0.000388385
-0.00214728
-0.00029801
-0.0021501
-0.000212756
-0.00215453
-0.000133529
-0.00215911
-5.9643e-05
-0.00216486
9.50005e-06
-0.00217136
7.23164e-05
-0.0021781
0.000129638
-0.00218579
0.000179771
-0.00219256
0.000224548
-0.00220129
0.000262129
-0.00220938
0.000293468
-0.00221834
0.000316735
-0.00222622
0.000333165
-0.0022347
0.00034178
-0.00224332
0.000341513
-0.00225121
0.000333993
-0.00226017
0.00031687
-0.00226799
0.000291054
-0.00227666
0.000255795
-0.00228486
0.000210609
-0.00229332
0.000154851
-0.00230142
8.84157e-05
-0.00230907
1.11778e-05
-0.00231755
-7.87099e-05
-0.00232464
-0.000179533
-0.00233303
-0.000293707
-0.00234026
-0.000420656
-0.00234801
-0.000561844
-0.00235475
-0.000717721
-0.00236159
-0.00236954
-0.000887354
0.000411273
0.00278189
-0.00302271
-0.000170447
0.000621683
0.00261112
-0.00282153
0.000803559
0.00245212
-0.002634
0.000959859
0.00230338
-0.00245968
0.00109268
0.00216436
-0.00229718
0.00120444
0.00203441
-0.00214617
0.00129683
0.00191282
-0.0020052
0.00137201
0.00179886
-0.00187404
0.00143136
0.00169218
-0.00175153
0.00147633
0.00159225
-0.00163722
0.00150851
0.00149833
-0.00153052
0.0015292
0.00141024
-0.00143093
0.00153911
0.00132776
-0.00133767
0.00153998
0.00124992
-0.00125079
0.00153202
0.00117709
-0.00116913
0.00151673
0.00110825
-0.00109296
0.00149467
0.00104384
-0.00102178
0.00146673
0.000982984
-0.000955047
0.00143347
0.000925837
-0.000892578
0.00139549
0.000872098
-0.00083412
0.00135378
0.000821198
-0.000779483
0.00130847
0.000773547
-0.000728243
0.0012604
0.000728385
-0.000680315
0.00120983
0.000685995
-0.000635416
0.00115724
0.000645869
-0.000593282
0.00110304
0.000608032
-0.000553833
0.0010477
0.000572399
-0.000517055
0.000991696
0.000538527
-0.000482525
0.000935107
0.000506607
-0.000450018
0.000878571
0.000476334
-0.000419799
0.000821878
0.000447892
-0.000391198
0.000765989
0.000420591
-0.000364703
0.000710679
0.000394943
-0.000339633
0.000656385
0.000370479
-0.000316185
0.000603302
0.000347241
-0.000294158
0.000551734
0.000325122
-0.000273554
0.000501477
0.000304141
-0.000253884
0.000452403
0.000284707
-0.000235633
0.000402961
0.000267619
-0.000218178
0.000348308
0.000256672
-0.00020202
0.000274767
0.000261767
-0.000188226
0.000142807
0.000317613
-0.000185654
0.000537736
-0.000182738
-0.000212191
0.000376266
0.00256103
-0.000155413
0.000568948
0.00241844
0.000736886
0.00228418
0.000881874
0.00215839
0.00100605
0.00204018
0.00111131
0.00192915
0.00119932
0.0018248
0.0012714
0.00172679
0.00132922
0.00163436
0.00137402
0.00154744
0.00140691
0.00146545
0.00142889
0.00138826
0.00144127
0.00131539
0.00144465
0.00124655
0.00144013
0.00118161
0.00142835
0.00112003
0.00141011
0.00106207
0.00138609
0.00100701
0.00135689
0.000955035
0.00132319
0.000905804
0.00128542
0.000858964
0.0012443
0.000814664
0.00120004
0.000772653
0.00115335
0.000732682
0.0011046
0.00069462
0.00105401
0.000658615
0.00100219
0.000624219
0.000949252
0.000591469
0.000895747
0.000560112
0.000841683
0.000530398
0.000787875
0.0005017
0.000734136
0.000474329
0.000680903
0.000448177
0.000628261
0.00042312
0.000576511
0.000398992
0.000525565
0.000376068
0.000474667
0.000355039
0.000422569
0.000336804
0.000365843
0.000324346
0.000296028
0.000326487
0.000195576
0.000362219
3.37466e-05
0.000479443
0.000779793
-0.00020831
0.000344488
0.00236147
-0.000144924
0.00052053
0.0022424
0.000674412
0.0021303
0.000807857
0.00202494
0.000922805
0.00192524
0.00102081
0.00183114
0.00110296
0.00174266
0.0011711
0.00165865
0.00122603
0.00157942
0.00126914
0.00150434
0.00130115
0.00143344
0.00132338
0.00136602
0.00133652
0.00130225
0.00134137
0.00124169
0.0013388
0.00118419
0.00132951
0.00112932
0.00131404
0.00107754
0.00129312
0.00102793
0.00126734
0.000980814
0.00123741
0.00093573
0.00120337
0.000893002
0.00116592
0.00085212
0.00112561
0.000812964
0.00108273
0.000775565
0.0010376
0.00073975
0.000990824
0.000705387
0.000942684
0.000672359
0.00089347
0.000640683
0.000843299
0.000610283
0.000792741
0.000580957
0.000741878
0.000552563
0.000690935
0.000525273
0.000640127
0.000498985
0.000589757
0.00047349
0.000539403
0.000449346
0.00048883
0.000426641
0.000437224
0.000406646
0.000382137
0.000391891
0.000318943
0.000387541
0.0002402
0.000405231
0.00013123
0.000471188
-2.21825e-05
0.000632855
0.000975437
-0.000217827
0.000314187
0.00217859
-0.000131305
0.000474912
0.00208168
0.000615973
0.00198924
0.000739011
0.0019019
0.00084533
0.00181892
0.000936077
0.00174039
0.00101315
0.00166559
0.00107698
0.00159482
0.00112897
0.00152744
0.00117005
0.00146326
0.00120128
0.00140221
0.00122321
0.00134409
0.00123674
0.00128872
0.0012426
0.00123583
0.00124157
0.00118522
0.00123411
0.00113678
0.0012211
0.00109056
0.00120277
0.00104626
0.00117984
0.00100375
0.00115252
0.00096305
0.00112173
0.000923786
0.00108769
0.000886164
0.00105069
0.000849962
0.00101118
0.000815072
0.000969645
0.000781287
0.000926316
0.000748717
0.000881324
0.00071735
0.000835329
0.000686679
0.000788458
0.000657154
0.000740997
0.000628417
0.000693084
0.000600476
0.000644945
0.000573412
0.000596745
0.000547185
0.000548412
0.000521823
0.000499848
0.00049791
0.000450351
0.000476138
0.000398749
0.000458248
0.000342832
0.000447808
0.000277964
0.000452408
0.000197117
0.000486079
9.14987e-05
0.000576806
-4.88751e-05
0.000773229
0.00114607
-0.000219506
0.000286344
0.00201347
-0.000121231
0.000433067
0.00193495
0.000562237
0.00186007
0.000675359
0.00178878
0.00077336
0.00172092
0.000857724
0.00165603
0.00092931
0.001594
0.000989091
0.00153504
0.0010381
0.00147842
0.00107714
0.00142422
0.00110677
0.00137258
0.00112813
0.00132273
0.00114176
0.00127509
0.0011482
0.00122939
0.00114818
0.00118523
0.00114215
0.00114281
0.00113086
0.00110185
0.0011147
0.00106242
0.00109408
0.00102436
0.00106984
0.000987294
0.00104173
0.000951891
0.00101057
0.000917333
0.000976512
0.000884015
0.000940166
0.000851419
0.000901701
0.000819752
0.000861445
0.000788974
0.000819896
0.000758899
0.00077697
0.000729604
0.000733375
0.00070075
0.000688917
0.000672875
0.000644063
0.000645331
0.000598788
0.000618687
0.000553257
0.000592716
0.000507332
0.000567748
0.000460675
0.000544567
0.000412821
0.000523992
0.000362463
0.000508605
0.000307147
0.000503125
0.000243337
0.000516218
0.000165537
0.000563879
6.66051e-05
0.000675739
-5.99209e-05
0.000899756
0.00130114
-0.000214991
0.000260946
0.00186298
-0.000110448
0.000394675
0.00180122
0.000512785
0.00174196
0.000616651
0.00168492
0.000707165
0.0016304
0.000785032
0.00157816
0.000851219
0.00152781
0.000907124
0.00147913
0.000952888
0.00143266
0.000989506
0.0013876
0.00101801
0.00134408
0.00103854
0.0013022
0.00105192
0.00126171
0.00105871
0.00122259
0.00105937
0.00118457
0.00105462
0.00114756
0.00104451
0.00111195
0.00103018
0.00107676
0.00101186
0.00104268
0.000989531
0.00100962
0.000964167
0.000977255
0.000935581
0.000945919
0.000904596
0.000915
0.0008711
0.000884914
0.000835521
0.000855331
0.000798177
0.000826318
0.000759621
0.000797454
0.000719853
0.000769373
0.00067924
0.000741362
0.000637922
0.000714193
0.000595967
0.000687285
0.000553747
0.000660908
0.000511077
0.000635387
0.000467828
0.000610996
0.000423806
0.000588589
0.000378153
0.000569646
0.000329618
0.00055714
0.000276344
0.000556399
0.000214816
0.000577746
0.000140538
0.000638157
4.85644e-05
0.000767713
-6.71529e-05
0.00101547
0.00144006
-0.000206074
0.000237187
0.00172537
-9.95804e-05
0.000359185
0.00167923
0.00046731
0.00163383
0.000562543
0.00158968
0.000645864
0.00154708
0.000717793
0.00150623
0.000779285
0.00146632
0.000831141
0.00142728
0.000873881
0.00138992
0.000908314
0.00135317
0.000934999
0.0013174
0.000954634
0.00128256
0.000967601
0.00124875
0.000974586
0.00121561
0.00097602
0.00118314
0.000971895
0.00115168
0.000963271
0.00112058
0.000950362
0.00108967
0.000933708
0.00105933
0.000913572
0.00102976
0.000890314
0.00100051
0.000864493
0.00097174
0.000835799
0.000943694
0.000805199
0.000915515
0.000772372
0.000888158
0.000738044
0.000860646
0.000702143
0.000833356
0.000665363
0.000806153
0.000627636
0.000779089
0.000589285
0.000752544
0.000550385
0.000726186
0.000510864
0.000700428
0.000470979
0.000675271
0.000430587
0.000651388
0.000389285
0.000629892
0.000346384
0.000612546
0.000300651
0.000602873
0.000250195
0.000606856
0.000192203
0.000635738
0.000123082
0.000707277
3.79659e-05
0.000852829
-6.74335e-05
0.00112087
0.00157089
-0.000198267
0.000215973
0.00160093
-9.15342e-05
0.000327157
0.00156804
0.000425798
0.00153519
0.000513178
0.0015023
0.000589679
0.00147058
0.000655851
0.00144006
0.000712468
0.0014097
0.000760442
0.0013793
0.000800281
0.00135008
0.000832147
0.0013213
0.000857247
0.0012923
0.000875854
0.00126396
0.000888291
0.00123631
0.000895094
0.00120881
0.000896556
0.00118167
0.000893608
0.00115463
0.000885855
0.00112833
0.000873925
0.0011016
0.000858771
0.00107448
0.000840552
0.00104798
0.000819492
0.00102157
0.000795611
0.00099562
0.000769533
0.000969772
0.000741277
0.000943771
0.000711383
0.000918053
0.000679621
0.000892407
0.000646352
0.000866624
0.0006122
0.000840306
0.000577389
0.0008139
0.000542113
0.00078782
0.000505929
0.00076237
0.00046959
0.000736767
0.000432605
0.000712257
0.000395119
0.000688874
0.000356599
0.000668412
0.000316515
0.00065263
0.000273704
0.000645684
0.000226683
0.000653877
0.000172683
0.000689738
0.000107218
0.000772742
2.89642e-05
0.000931083
-6.77469e-05
0.00121758
0.00168944
-0.000186293
0.000196894
-8.35204e-05
0.00148756
0.00029758
0.00146735
0.000387264
0.00144551
0.000467645
0.00142192
0.000538488
0.00139974
0.000600028
0.00137852
0.000651861
0.00135787
0.00069673
0.00133444
0.000734231
0.00131258
0.000763838
0.00129169
0.000787171
0.00126897
0.000805049
0.00124608
0.000817202
0.00122416
0.000823935
0.00120208
0.000826219
0.00117939
0.000824024
0.00115683
0.000817508
0.00113485
0.000806762
0.00111234
0.000792789
0.00108846
0.000775942
0.00106483
0.000756456
0.00104106
0.000735171
0.00101691
0.000711086
0.000993857
0.000685511
0.000969346
0.000658076
0.000945487
0.000629206
0.000921277
0.00059818
0.000897651
0.000565986
0.000872499
0.000533435
0.00084645
0.000500789
0.000820466
0.000467467
0.000795691
0.00043321
0.000771025
0.000398803
0.000746663
0.000363749
0.000723929
0.000328
0.00070416
0.000290453
0.000690178
0.000250839
0.000685298
0.000207734
0.000696982
0.000158035
0.000739438
9.70056e-05
0.000833771
2.27664e-05