/*--------------------------------*- C++ -*----------------------------------*\
| =========                 |                                                 |
| \\      /  F ield         | OpenFOAM: The Open Source CFD Toolbox           |
|  \\    /   O peration     | Version:  2.3.0                                 |
|   \\  /    A nd           | Web:      www.OpenFOAM.org                      |
|    \\/     M anipulation  |                                                 |
\*---------------------------------------------------------------------------*/
FoamFile
{
    version     2.0;
    format      ascii;
    class       volVectorField;
    location    "2000";
    object      U;
}
// * * * * * * * * * * * * * * * * * * * * * * * * * * * * * * * * * * * * * //

dimensions      [0 1 -1 0 0 0 0];

internalField   nonuniform List<vector> 
38977
(
(23.9025 6.97209 -1.58278e-21)
(23.8926 7.17073 -1.5238e-21)
(23.8787 7.3723 3.30531e-22)
(23.8612 7.57705 2.9013e-20)
(23.8399 7.78558 -1.10202e-20)
(23.8149 7.99797 -3.32178e-20)
(23.7859 8.21438 3.14301e-20)
(23.7527 8.43492 7.00025e-21)
(23.7153 8.65982 3.15163e-21)
(23.6734 8.88923 0)
(23.6267 9.12339 -6.25982e-20)
(23.5751 9.3626 5.83088e-20)
(23.5181 9.60716 -1.33457e-19)
(23.4554 9.85752 2.88316e-19)
(23.3868 10.1141 -1.50077e-19)
(23.3119 10.3776 6.82292e-21)
(23.2305 10.6485 7.32401e-21)
(23.1421 10.9277 3.71827e-21)
(23.0465 11.2159 0)
(22.9433 11.5141 -2.22708e-19)
(22.8319 11.823 2.26463e-19)
(22.7119 12.1436 -2.45539e-19)
(22.5823 12.4766 2.49211e-19)
(22.4421 12.8225 -5.161e-21)
(22.2899 13.1817 0)
(22.1234 13.5539 -3.09213e-19)
(21.9392 13.9386 3.1062e-19)
(21.7335 14.3346 -2.92811e-21)
(21.5009 14.7401 9.56414e-21)
(21.2346 15.1519 1.34635e-20)
(20.9262 15.5669 0)
(20.5653 15.9802 1.79938e-19)
(20.1384 16.3875 -1.97937e-19)
(19.6297 16.782 -1.84468e-19)
(19.0195 17.1583 1.90419e-19)
(18.2836 17.5099 -1.71088e-19)
(17.3937 17.8308 3.24769e-19)
(16.3167 18.1125 -3.64064e-20)
(15.009 18.3347 -1.029e-19)
(13.4219 18.4677 2.8369e-20)
(11.5292 18.5392 -1.52098e-20)
(9.33799 18.6702 -1.39306e-19)
(6.83265 18.5662 1.57139e-19)
(23.7011 6.97313 -6.5675e-21)
(23.6837 7.15091 1.86955e-20)
(23.6617 7.33156 -2.30173e-21)
(23.6363 7.51494 -9.09169e-21)
(23.6073 7.7013 0)
(23.5746 7.89074 1.59432e-21)
(23.5381 8.08333 0)
(23.4975 8.27918 0)
(23.4527 8.47843 -2.27488e-21)
(23.4035 8.68117 1.17215e-20)
(23.3497 8.88753 -2.20624e-20)
(23.2908 9.09761 1.4125e-20)
(23.2265 9.31156 -5.09861e-21)
(23.1564 9.52956 0)
(23.08 9.75175 -2.23429e-20)
(22.9966 9.97835 4.66564e-20)
(22.9058 10.2097 -2.44065e-20)
(22.8068 10.4458 2.32707e-20)
(22.6988 10.6873 1.00081e-21)
(22.5809 10.9345 -5.78971e-20)
(22.4522 11.1877 5.99509e-20)
(22.3115 11.4476 -3.54414e-20)
(22.1577 11.7148 -4.84395e-21)
(21.989 11.9896 5.06045e-21)
(21.8043 12.2731 -2.99544e-20)
(21.6013 12.5655 5.88458e-20)
(21.3778 12.8673 -2.89014e-20)
(21.1311 13.1789 2.84244e-21)
(20.8581 13.5 0)
(20.5553 13.8301 1.50961e-21)
(20.2189 14.1678 -2.92065e-21)
(19.8439 14.5105 0)
(19.4256 14.8544 5.88367e-20)
(18.9586 15.194 3.29688e-20)
(18.4375 15.5214 -9.48891e-20)
(17.8574 15.8251 -7.51736e-21)
(17.2138 16.0897 1.42656e-21)
(16.5043 16.2954 0)
(15.7291 16.4167 -1.22003e-20)
(14.8946 16.4202 0)
(14.0181 16.2677 0)
(13.1134 15.9145 -2.79312e-20)
(12.1736 15.3128 0)
(23.5266 6.9609 0)
(23.5002 7.12164 0)
(23.471 7.28384 1.69031e-20)
(23.439 7.44839 -1.41128e-20)
(23.4035 7.61538 -5.09844e-21)
(23.3643 7.7849 4.83894e-21)
(23.3213 7.95697 0)
(23.2741 8.13168 0)
(23.2228 8.30918 -9.11206e-22)
(23.167 8.48956 1.82727e-20)
(23.1066 8.67291 -3.47081e-20)
(23.0412 8.8593 1.68554e-20)
(22.9705 9.04887 -3.8257e-21)
(22.8941 9.24175 0)
(22.8117 9.43808 -1.44466e-20)
(22.7226 9.63797 -3.9273e-22)
(22.6265 9.84152 1.74754e-21)
(22.5227 10.0489 1.54072e-20)
(22.4105 10.2601 1.79771e-20)
(22.2892 10.4753 1.9775e-21)
(22.1577 10.6946 -2.31386e-20)
(22.0152 10.9179 1.07258e-22)
(21.8604 11.1453 -3.30276e-21)
(21.692 11.3767 -3.70677e-21)
(21.5084 11.612 4.38208e-20)
(21.308 11.851 7.34827e-21)
(21.0884 12.0929 -5.35879e-20)
(20.8475 12.3373 0)
(20.5825 12.583 0)
(20.2905 12.8284 -1.09082e-19)
(19.9683 13.0718 1.10996e-19)
(19.6122 13.3101 1.55532e-19)
(19.2185 13.5395 -1.64114e-19)
(18.7839 13.7554 0)
(18.305 13.9518 -1.35243e-19)
(17.7791 14.1208 1.57998e-19)
(17.2051 14.2535 0)
(16.5839 14.3386 -1.52847e-20)
(15.9195 14.3641 -2.41728e-19)
(15.2213 14.3173 2.8032e-19)
(14.5046 14.1851 -1.87549e-19)
(13.7926 13.955 2.16525e-19)
(13.1188 13.6157 -2.45593e-19)
(23.373 6.94184 -1.5005e-20)
(23.3392 7.08676 -1.39598e-20)
(23.3056 7.23256 -1.3102e-20)
(23.2697 7.38046 1.90325e-20)
(23.2306 7.53051 -2.46128e-21)
(23.1881 7.68278 -4.87042e-21)
(23.1421 7.83719 7.2737e-21)
(23.0922 7.99378 -2.31807e-20)
(23.0383 8.15272 2.29803e-20)
(22.9801 8.3141 4.48312e-20)
(22.9176 8.47798 -9.60443e-20)
(22.8503 8.64435 4.43072e-20)
(22.7778 8.81334 -4.45901e-20)
(22.6999 8.98504 4.48484e-20)
(22.6161 9.15954 5.04878e-20)
(22.5259 9.3369 -4.69394e-20)
(22.4287 9.5172 -2.06865e-21)
(22.3241 9.70052 5.73428e-20)
(22.2114 9.88689 -1.10189e-19)
(22.0899 10.0763 1.13016e-19)
(21.9586 10.2687 -5.36668e-20)
(21.8167 10.4639 7.12247e-20)
(21.6631 10.662 -6.33562e-20)
(21.4968 10.8628 -2.61694e-21)
(21.3166 11.0658 9.62312e-20)
(21.121 11.2707 -9.84748e-20)
(20.9085 11.4769 1.21595e-19)
(20.6776 11.6833 -1.15259e-19)
(20.4262 11.8887 -1.0773e-20)
(20.1525 12.0915 -1.92125e-19)
(19.8544 12.2895 1.85393e-19)
(19.5297 12.4801 0)
(19.1766 12.6595 -1.37914e-19)
(18.7932 12.8235 -1.74695e-20)
(18.3782 12.9668 1.64683e-19)
(17.9315 13.083 -2.38713e-19)
(17.4538 13.1649 2.35851e-19)
(16.9478 13.204 -2.34004e-21)
(16.4184 13.1915 -1.7553e-20)
(15.8734 13.1188 0)
(15.3238 12.9788 0)
(14.7841 12.767 2.33802e-19)
(14.2723 12.4841 -2.363e-19)
(23.2277 6.91344 7.91104e-21)
(23.1952 7.04705 1.82978e-20)
(23.1603 7.17912 -2.8255e-20)
(23.1226 7.31262 7.83376e-21)
(23.0814 7.4479 7.6443e-21)
(23.0371 7.58528 9.67327e-21)
(22.9897 7.72456 -5.07694e-20)
(22.9385 7.86564 3.35574e-20)
(22.8833 8.00873 0)
(22.824 8.15407 0)
(22.7606 8.30164 7.03508e-21)
(22.6927 8.45136 0)
(22.62 8.60335 3.56797e-21)
(22.542 8.7577 -7.02793e-20)
(22.4585 8.91445 6.66446e-20)
(22.3689 9.07362 0)
(22.2726 9.23527 7.79752e-20)
(22.1693 9.39946 -8.84678e-20)
(22.0585 9.5662 -6.01549e-21)
(21.9394 9.73532 4.68822e-21)
(21.8113 9.90662 -5.0183e-21)
(21.6731 10.08 0)
(21.524 10.2553 -1.36354e-20)
(21.363 10.4322 6.84335e-20)
(21.189 10.6103 1.36222e-20)
(21.0006 10.789 -6.94385e-20)
(20.7968 10.9676 -9.33824e-20)
(20.576 11.1452 -1.66e-20)
(20.3367 11.3204 1.04927e-19)
(20.0774 11.4916 1.22489e-20)
(19.7967 11.6569 0)
(19.493 11.8135 -1.63023e-19)
(19.165 11.9584 1.48912e-19)
(18.8117 12.0878 0)
(18.4323 12.197 2.61348e-20)
(18.0276 12.2814 4.27618e-20)
(17.599 12.3352 -4.82984e-20)
(17.1498 12.3522 1.74012e-20)
(16.6852 12.3264 1.69236e-19)
(16.2119 12.2518 -1.72856e-19)
(15.7394 12.1243 1.83958e-19)
(15.2786 11.9421 -2.12308e-19)
(14.8422 11.7067 -9.46954e-20)
(23.1012 6.88688 -7.33161e-22)
(23.068 7.00699 3.41189e-20)
(23.0331 7.12646 -1.19362e-20)
(22.995 7.24691 -3.36174e-20)
(22.953 7.36912 -9.87187e-21)
(22.9078 7.49363 3.30813e-20)
(22.8601 7.62005 -1.96953e-21)
(22.8092 7.74796 5.80117e-21)
(22.7541 7.87754 -4.26217e-20)
(22.695 8.00924 4.81523e-20)
(22.6319 8.14317 0)
(22.5648 8.27903 5.9493e-21)
(22.493 8.41681 -5.05725e-20)
(22.4161 8.55675 8.39024e-20)
(22.334 8.69892 -4.56448e-20)
(22.2461 8.84321 -4.84652e-20)
(22.1519 8.98956 4.19593e-20)
(22.0506 9.13816 1.28658e-20)
(21.9422 9.28912 6.08408e-21)
(21.8261 9.4422 -7.79823e-21)
(21.7017 9.5971 0)
(21.568 9.75351 0)
(21.4238 9.91116 7.85683e-21)
(21.2686 10.07 0)
(21.1013 10.2295 -9.22265e-21)
(20.9208 10.3888 7.89263e-20)
(20.726 10.5474 -1.81037e-19)
(20.5157 10.7044 1.15705e-19)
(20.2889 10.8583 1.0482e-19)
(20.0441 11.0076 -1.06603e-19)
(19.7804 11.1506 1.864e-20)
(19.4969 11.2849 1.8582e-20)
(19.1927 11.4074 -1.83172e-19)
(18.8673 11.5147 1.88465e-19)
(18.5202 11.6029 -2.62175e-20)
(18.1518 11.6677 -2.94465e-20)
(17.7639 11.7047 3.30483e-20)
(17.3597 11.7095 1.97309e-19)
(16.9444 11.6776 -1.62262e-19)
(16.5239 11.6041 -2.41036e-19)
(16.1056 11.4862 2.74173e-19)
(15.6975 11.3233 -5.59014e-20)
(15.3092 11.1167 -3.0119e-20)
(22.9884 6.86096 -1.511e-21)
(22.956 6.96697 -2.5555e-20)
(22.9215 7.07542 -2.55532e-20)
(22.8839 7.18421 3.72419e-20)
(22.8418 7.29492 -1.85239e-20)
(22.7961 7.40827 3.19292e-20)
(22.7484 7.52379 -6.66244e-21)
(22.6984 7.64066 4.47072e-20)
(22.6446 7.75894 -1.00892e-19)
(22.5861 7.87893 -6.52142e-21)
(22.5237 8.00148 5.08001e-20)
(22.458 8.12597 -1.29069e-20)
(22.3878 8.25189 -4.72385e-20)
(22.3124 8.37975 1.14181e-19)
(22.232 8.50993 -5.47177e-20)
(22.1463 8.64224 -7.60185e-21)
(22.0548 8.77617 6.85593e-21)
(21.9561 8.91188 5.56534e-20)
(21.8501 9.04988 -7.20077e-20)
(21.7368 9.19004 -6.1387e-20)
(21.616 9.33201 7.02389e-20)
(21.4867 9.47517 0)
(21.3478 9.61892 0)
(21.1978 9.76335 0)
(21.0364 9.90825 -1.22447e-20)
(20.8628 10.0529 -1.3217e-21)
(20.6759 10.1963 -1.42804e-20)
(20.4744 10.3376 1.24331e-19)
(20.2579 10.4756 -1.10642e-19)
(20.0246 10.6089 -1.69854e-20)
(19.7741 10.7356 -3.89528e-20)
(19.5054 10.854 1.78751e-19)
(19.2189 10.9615 -1.8376e-19)
(18.9142 11.0545 0)
(18.5915 11.129 1.20787e-19)
(18.2495 11.1814 -2.30708e-20)
(17.891 11.2079 -1.37019e-19)
(17.5177 11.2057 -3.85399e-20)
(17.1359 11.1717 0)
(16.7511 11.1016 4.67737e-20)
(16.3698 10.9923 -1.02609e-19)
(15.9973 10.8442 5.54741e-20)
(15.6422 10.6581 -1.2278e-19)
(22.8905 6.83044 1.39312e-20)
(22.8576 6.92632 1.3595e-20)
(22.8239 7.02646 2.85766e-20)
(22.7877 7.12471 -2.83526e-20)
(22.7463 7.2257 -1.43123e-20)
(22.7001 7.3292 2.15186e-20)
(22.6526 7.43529 2.16931e-20)
(22.6038 7.54248 -2.81568e-20)
(22.5521 7.65218 2.87247e-20)
(22.495 7.76188 -8.64151e-20)
(22.4328 7.87473 6.50642e-20)
(22.3685 7.99009 6.95562e-21)
(22.301 8.10643 7.67368e-21)
(22.2274 8.22387 0)
(22.1483 8.3437 0)
(22.0645 8.46636 -5.79353e-20)
(21.9766 8.59063 6.60172e-20)
(21.881 8.7156 -8.83904e-21)
(21.7774 8.84268 -5.77747e-22)
(21.6661 8.97205 -9.63398e-21)
(21.548 9.10359 0)
(21.4227 9.2367 0)
(21.2895 9.36978 1.13042e-20)
(21.1446 9.50236 0)
(20.9888 9.63522 1.04901e-19)
(20.8211 9.76828 -9.44364e-20)
(20.6418 9.89997 1.43369e-20)
(20.4476 10.0295 -3.15785e-20)
(20.2404 10.1554 0)
(20.017 10.2765 7.86698e-20)
(19.7782 10.3911 -1.4646e-19)
(19.5215 10.4971 1.82268e-19)
(19.2489 10.5936 -2.24322e-19)
(18.9606 10.6771 1.05715e-19)
(18.6586 10.7426 0)
(18.338 10.7876 -7.14279e-20)
(18.0036 10.8073 1.75612e-19)
(17.6526 10.8001 -1.63827e-19)
(17.2949 10.7653 1.24268e-19)
(16.9363 10.6991 0)
(16.5832 10.5965 1.01198e-19)
(16.2356 10.4601 0)
(15.9058 10.2886 0)
(22.8046 6.80277 -8.46656e-21)
(22.773 6.88727 0)
(22.7414 6.98231 0)
(22.708 7.06866 -3.92138e-20)
(22.6674 7.16229 2.32237e-20)
(22.6212 7.25744 8.43698e-21)
(22.5759 7.35632 0)
(22.5288 7.45247 8.3986e-21)
(22.4805 7.55701 -8.18709e-21)
(22.4279 7.65761 -8.37985e-21)
(22.3668 7.76179 8.82331e-22)
(22.3041 7.86983 0)
(22.2417 7.97917 -4.82084e-20)
(22.1717 8.0874 6.52964e-20)
(22.0951 8.19758 -4.24498e-20)
(22.012 8.31173 0)
(21.9304 8.42943 9.70478e-21)
(21.8403 8.54503 -3.82335e-20)
(21.7411 8.66278 3.67273e-20)
(21.6335 8.78269 2.09173e-20)
(21.5187 8.90489 -5.3813e-20)
(21.3972 9.03018 5.43877e-20)
(21.2728 9.15592 -7.05898e-20)
(21.1343 9.27885 -1.56694e-20)
(20.9855 9.40055 7.90499e-20)
(20.823 9.52345 1.54133e-20)
(20.6544 9.64563 0)
(20.4669 9.76562 -5.04028e-20)
(20.2711 9.88152 4.91314e-20)
(20.0562 9.99232 2.05487e-20)
(19.8298 10.0985 -6.26017e-20)
(19.5817 10.1939 8.69353e-20)
(19.3205 10.2815 -5.00187e-20)
(19.0435 10.3579 -6.98484e-21)
(18.7622 10.4153 1.12847e-19)
(18.4571 10.456 1.65889e-21)
(18.1439 10.4711 1.5482e-21)
(17.8044 10.4607 3.97736e-20)
(17.4599 10.4259 4.77231e-20)
(17.1179 10.3645 -1.80701e-19)
(16.785 10.2648 4.52207e-20)
(16.4474 10.1409 0)
(16.1366 9.97763 0)
(4.30612 17.0831 2.49913e-20)
(4.38287 15.112 0)
(4.76083 13.5756 0)
(5.21441 12.338 0)
(5.69735 11.3294 3.22204e-20)
(6.1855 10.4806 -5.05396e-19)
(6.66507 9.75809 9.78067e-19)
(7.1276 9.13729 -4.7266e-19)
(7.56868 8.59878 9.87436e-19)
(7.98599 8.12797 6.32324e-20)
(8.379 7.71315 4.20827e-21)
(8.74817 7.345 9.39539e-19)
(9.09428 7.01526 1.06378e-19)
(9.41905 6.71849 -3.05338e-18)
(9.72372 6.44908 1.4743e-18)
(10.0101 6.20329 1.41825e-18)
(10.2798 5.97749 -2.74354e-18)
(10.5343 5.76875 1.33009e-18)
(10.7751 5.57478 0)
(11.0035 5.39376 0)
(11.2208 5.22383 7.95774e-20)
(11.428 5.06361 7.33819e-20)
(11.6261 4.91195 -7.46304e-20)
(11.816 4.76782 0)
(11.9985 4.63034 -2.79328e-21)
(12.1743 4.49875 0)
(12.3439 4.37253 0)
(12.5079 4.251 -1.03356e-18)
(12.6667 4.13373 1.02836e-18)
(12.8209 4.02047 1.29656e-19)
(12.9706 3.91076 -1.00148e-18)
(13.1164 3.8044 8.82629e-19)
(13.2583 3.70106 0)
(13.3968 3.60062 -1.11978e-18)
(13.5321 3.50288 1.00235e-18)
(13.6643 3.40767 2.47327e-19)
(13.7936 3.31479 -4.98219e-19)
(13.9201 3.22415 4.9269e-19)
(14.044 3.13569 -7.32268e-19)
(14.1653 3.04928 7.19958e-19)
(14.2843 2.96472 0)
(14.401 2.88167 1.13497e-19)
(14.5169 2.80898 -1.10439e-19)
(11.2436 14.4891 -2.02164e-19)
(10.5859 13.5616 -5.96251e-20)
(10.1775 12.6732 1.55709e-19)
(9.94868 11.8524 1.11584e-19)
(9.84299 11.1051 -8.63183e-20)
(9.82418 10.4292 5.17555e-20)
(9.86726 9.82108 -5.17275e-20)
(9.95429 9.27491 -5.11844e-20)
(10.072 8.78458 -8.66076e-19)
(10.211 8.34377 8.32377e-19)
(10.3638 7.94641 0)
(10.5252 7.58708 -8.3089e-19)
(10.6916 7.2609 7.09359e-19)
(10.86 6.9634 2.05487e-21)
(11.0286 6.69081 0)
(11.196 6.43983 -4.08428e-20)
(11.3613 6.20766 0)
(11.5237 5.9918 0)
(11.6829 5.79021 0)
(11.8386 5.60116 -7.29542e-20)
(11.9907 5.42314 7.11844e-20)
(12.1391 5.25484 -1.20505e-18)
(12.2839 5.09527 1.10919e-18)
(12.4252 4.9435 -1.14091e-18)
(12.563 4.79871 1.05697e-18)
(12.6975 4.66034 0)
(12.8289 4.52779 -1.01609e-18)
(12.9572 4.40053 2.07481e-18)
(13.0826 4.2782 -9.9945e-19)
(13.2053 4.16039 8.63426e-19)
(13.3255 4.04677 -9.84181e-19)
(13.4432 3.93704 -8.53678e-19)
(13.5586 3.8309 9.82293e-19)
(13.672 3.72815 4.90086e-19)
(13.7833 3.62853 -3.70644e-19)
(13.8928 3.53181 7.35375e-19)
(14.0004 3.43778 -3.69502e-19)
(14.1062 3.34627 0)
(14.2102 3.25716 -2.40898e-19)
(14.3126 3.17028 1.18057e-19)
(14.4133 3.08537 -1.16377e-19)
(14.5124 3.00224 -1.13873e-19)
(14.6111 2.93002 -1.09669e-19)
(12.5289 13.1688 4.1876e-19)
(12.0592 12.6387 -9.77137e-20)
(11.7033 12.0663 4.39078e-20)
(11.4482 11.4847 0)
(11.278 10.9145 1.72267e-19)
(11.1778 10.3683 -2.67007e-19)
(11.134 9.8529 -3.15706e-19)
(11.1349 9.37126 4.49552e-19)
(11.1707 8.92428 -9.22356e-20)
(11.2332 8.51106 -4.71553e-20)
(11.3157 8.12963 -6.99261e-19)
(11.4129 7.77799 6.78998e-19)
(11.5207 7.45346 -4.10698e-20)
(11.6359 7.15359 4.24823e-20)
(11.7558 6.87585 0)
(11.8786 6.61808 -6.5385e-19)
(12.0027 6.37808 1.20382e-18)
(12.1272 6.15403 -6.59733e-19)
(12.251 5.94422 -1.14547e-18)
(12.3737 5.74726 1.19341e-18)
(12.4948 5.56181 9.56208e-19)
(12.6139 5.38675 -1.07089e-18)
(12.731 5.22113 0)
(12.846 5.06407 6.51707e-20)
(12.9588 4.91477 -6.38964e-20)
(13.0695 4.77255 0)
(13.1783 4.63679 0)
(13.285 4.5069 -1.98707e-18)
(13.3899 4.38247 1.91879e-18)
(13.493 4.263 1.20479e-19)
(13.5944 4.14815 1.19951e-19)
(13.6941 4.03755 0)
(13.7923 3.93088 3.55108e-19)
(13.8891 3.82787 -3.56085e-19)
(13.9845 3.7282 -1.20069e-19)
(14.0786 3.63164 4.7501e-19)
(14.1714 3.53795 -2.53151e-21)
(14.2628 3.44693 -4.77848e-19)
(14.3529 3.35846 0)
(14.4417 3.27234 -9.71503e-22)
(14.5294 3.18826 1.14936e-19)
(14.6158 3.10601 0)
(14.7017 3.03313 1.12298e-19)
(13.8066 12.1364 -3.29853e-20)
(13.4002 11.7368 -7.50133e-20)
(13.0597 11.3027 7.51694e-20)
(12.7857 10.852 -3.95479e-20)
(12.574 10.3988 -1.71777e-19)
(12.4183 9.95309 3.84798e-19)
(12.3112 9.52229 -1.70417e-19)
(12.2454 9.11092 -8.59928e-20)
(12.2138 8.72154 -2.61133e-19)
(12.2103 8.35517 -4.31317e-21)
(12.2296 8.01188 3.33366e-19)
(12.2671 7.69094 -8.04925e-20)
(12.3188 7.39132 -6.04607e-19)
(12.3817 7.11158 -7.95663e-20)
(12.4532 6.85017 6.13181e-19)
(12.5311 6.60563 6.75374e-19)
(12.6138 6.37646 -1.24081e-18)
(12.6997 6.16131 7.23952e-20)
(12.7878 5.95894 1.11502e-18)
(12.8771 5.76825 -1.02328e-18)
(12.9671 5.58822 6.83833e-20)
(13.0572 5.41793 5.84012e-19)
(13.1471 5.25658 6.26581e-20)
(13.2368 5.10334 0)
(13.3258 4.95759 0)
(13.4143 4.81865 -5.40015e-19)
(13.502 4.68594 1.71193e-21)
(13.5888 4.55898 9.99152e-19)
(13.6748 4.43731 -1.81556e-21)
(13.7599 4.32055 -1.85988e-21)
(13.844 4.20834 -4.06426e-19)
(13.9273 4.10035 -4.61316e-19)
(14.0098 3.99629 6.94921e-19)
(14.0915 3.89581 -4.62754e-19)
(14.1725 3.79866 9.30856e-19)
(14.2526 3.70456 -1.1973e-19)
(14.3318 3.61333 -3.53074e-19)
(14.4102 3.52478 -2.32972e-19)
(14.4876 3.4388 2.32709e-19)
(14.5642 3.35519 0)
(14.64 3.27375 -1.1425e-19)
(14.7153 3.19435 -5.57369e-20)
(14.7909 3.12127 1.67508e-19)
(14.4408 11.4231 1.25843e-19)
(14.0821 11.0987 7.14963e-20)
(13.7712 10.7439 -7.15278e-20)
(13.5105 10.3701 7.83619e-20)
(13.2987 9.98819 -7.92555e-20)
(13.1327 9.60657 -7.96691e-20)
(13.008 9.23199 -1.65223e-19)
(12.9195 8.86912 5.35026e-19)
(12.8625 8.52118 -2.84924e-19)
(12.832 8.18994 -4.062e-19)
(12.8236 7.87627 3.18036e-19)
(12.8337 7.58023 8.03625e-20)
(12.8587 7.30156 0)
(12.8959 7.03942 2.36711e-21)
(12.9428 6.79281 0)
(12.9973 6.56066 5.80565e-19)
(13.0575 6.34203 1.43216e-19)
(13.122 6.13582 -1.1087e-18)
(13.1893 5.94123 5.42322e-19)
(13.2588 5.75743 -1.61982e-21)
(13.3298 5.58357 6.40996e-20)
(13.4019 5.4189 -6.40515e-20)
(13.4746 5.26271 -5.57613e-19)
(13.5478 5.11429 -5.92759e-20)
(13.6211 4.97302 5.37565e-19)
(13.6945 4.83828 -3.52572e-19)
(13.7677 4.70955 9.30626e-19)
(13.8406 4.58637 -5.19587e-19)
(13.913 4.46836 0)
(13.9849 4.35518 0)
(14.0564 4.24651 -5.71434e-20)
(14.1273 4.142 0)
(14.1979 4.04135 3.94773e-19)
(14.2681 3.94423 -5.6828e-19)
(14.3377 3.85034 1.13381e-19)
(14.4068 3.75949 2.28866e-19)
(14.4752 3.67147 -3.45819e-19)
(14.5429 3.58616 -3.4307e-19)
(14.6098 3.50343 1.14892e-19)
(14.6761 3.42315 1.70001e-19)
(14.7417 3.34527 5.629e-20)
(14.8068 3.27019 -5.50337e-20)
(14.8718 3.19906 -5.52749e-20)
(14.9479 10.8706 0)
(14.6197 10.5907 -6.80363e-20)
(14.3292 10.2842 7.12827e-20)
(14.0791 9.95937 0)
(13.8693 9.62456 7.80362e-20)
(13.6981 9.28712 2.18333e-21)
(13.5626 8.95294 0)
(13.4596 8.62647 0)
(13.3855 8.3108 -8.02852e-20)
(13.3363 8.00792 7.97097e-20)
(13.3084 7.71906 0)
(13.2985 7.44475 0)
(13.3039 7.18507 7.45365e-20)
(13.3222 6.93939 3.71509e-19)
(13.3508 6.70693 3.63678e-19)
(13.3873 6.48713 -4.96267e-19)
(13.4301 6.27923 4.86204e-19)
(13.4774 6.08252 -6.63007e-20)
(13.5282 5.89656 -5.9836e-19)
(13.5817 5.72065 5.19594e-19)
(13.6374 5.55401 -5.72553e-19)
(13.6948 5.39601 0)
(13.7536 5.24605 6.03585e-20)
(13.8136 5.1034 5.37975e-19)
(13.8743 4.96748 -6.00126e-20)
(13.9356 4.83771 -5.2242e-19)
(13.9971 4.71367 -4.57595e-19)
(14.0585 4.59499 4.54096e-19)
(14.1199 4.48137 -5.58778e-20)
(14.181 4.37244 5.55903e-20)
(14.242 4.26792 0)
(14.3029 4.16749 5.53732e-20)
(14.3638 4.07081 -5.61055e-20)
(14.4246 3.97749 1.12452e-19)
(14.4849 3.88735 -1.6861e-19)
(14.5448 3.80019 -5.60802e-20)
(14.6041 3.71582 0)
(14.6627 3.63416 1.07826e-21)
(14.7208 3.55502 1.12066e-19)
(14.7784 3.47819 -1.12487e-19)
(14.8351 3.40365 -1.10653e-19)
(14.8915 3.33168 1.10183e-19)
(14.9477 3.25918 1.0716e-19)
(15.3088 10.4376 1.23559e-19)
(15.0033 10.1878 3.31244e-20)
(14.7299 9.91404 4.21421e-20)
(14.4911 9.62245 -4.5786e-20)
(14.2862 9.32017 3.65707e-20)
(14.1149 9.01397 -7.68098e-20)
(13.9752 8.70904 7.55994e-20)
(13.8647 8.40973 0)
(13.7812 8.11869 -1.5496e-19)
(13.7212 7.83787 7.58846e-20)
(13.6814 7.56873 3.04256e-19)
(13.659 7.31226 -2.96888e-19)
(13.6521 7.06868 -3.69274e-19)
(13.6588 6.83684 2.16148e-19)
(13.6754 6.6163 -7.15818e-20)
(13.6997 6.40717 -7.01719e-20)
(13.7304 6.20868 -6.75752e-20)
(13.7653 6.0207 -1.99947e-19)
(13.8038 5.84299 3.27223e-19)
(13.8458 5.67453 -5.75988e-19)
(13.8904 5.51472 9.99305e-19)
(13.9371 5.36329 1.66624e-25)
(13.9858 5.2194 -5.99458e-19)
(14.0361 5.0823 -5.29245e-19)
(14.0875 4.95145 4.63771e-19)
(14.1397 4.82647 5.67598e-20)
(14.1922 4.70697 0)
(14.2448 4.59281 4.4695e-19)
(14.2974 4.48357 -3.88605e-19)
(14.35 4.3789 1.65035e-19)
(14.4029 4.27858 -2.75005e-19)
(14.456 4.18228 -5.5243e-20)
(14.5093 4.08956 0)
(14.5625 3.99999 2.19985e-19)
(14.6152 3.9137 -1.65786e-19)
(14.6674 3.8303 5.58038e-20)
(14.7191 3.74972 -5.57892e-20)
(14.7704 3.67188 2.78718e-19)
(14.8213 3.59645 -5.62479e-20)
(14.8717 3.52316 0)
(14.9212 3.45215 1.10374e-19)
(14.9703 3.38391 5.41164e-20)
(15.0194 3.31423 5.29256e-20)
(15.5919 10.087 6.35095e-20)
(15.3032 9.85963 -6.36204e-20)
(15.0439 9.60964 -8.65845e-22)
(14.8156 9.34134 1.78453e-20)
(14.6153 9.06202 -5.26281e-20)
(14.4447 8.77867 3.81105e-20)
(14.3025 8.49559 -1.4661e-19)
(14.1873 8.21748 -7.38261e-20)
(14.0981 7.94546 7.61198e-20)
(14.0306 7.68216 -1.45631e-19)
(13.9824 7.429 -1.47589e-19)
(13.9509 7.18763 7.22826e-20)
(13.9358 6.95775 0)
(13.9352 6.73697 7.0961e-20)
(13.9425 6.52635 -3.46266e-19)
(13.9571 6.32625 2.0373e-19)
(13.9789 6.13617 6.72377e-20)
(14.0037 5.95647 3.27202e-19)
(14.0327 5.78685 5.33884e-22)
(14.0661 5.62455 -2.5064e-19)
(14.1025 5.47131 3.06411e-19)
(14.141 5.32632 -4.21194e-19)
(14.1822 5.18792 2.95376e-19)
(14.2255 5.05567 -1.15966e-19)
(14.2697 4.92945 4.00188e-19)
(14.3147 4.80884 -5.07486e-19)
(14.3597 4.69355 2.22955e-19)
(14.4049 4.5839 -5.4852e-20)
(14.4507 4.47889 0)
(14.4967 4.37831 2.17657e-19)
(14.5432 4.28211 1.0809e-19)
(14.5901 4.18973 -2.16913e-19)
(14.6373 4.10063 2.1659e-19)
(14.6839 4.01433 -2.17489e-19)
(14.7301 3.93219 5.42534e-20)
(14.7762 3.8524 -5.44994e-20)
(14.8218 3.7758 -5.51436e-20)
(14.8672 3.70176 -1.09849e-19)
(14.9123 3.62998 -1.6454e-19)
(14.9567 3.56013 5.47874e-20)
(14.9996 3.49257 -3.39905e-21)
(15.0422 3.4283 -2.41084e-20)
(15.0844 3.36182 -7.95752e-20)
(15.8293 9.79305 0)
(15.5495 9.58528 3.24454e-20)
(15.2992 9.35524 -9.80893e-20)
(15.0786 9.10413 -1.71522e-20)
(14.8791 8.84223 1.78795e-20)
(14.7087 8.57587 7.0928e-20)
(14.5646 8.30976 -7.19528e-20)
(14.4464 8.0492 -7.31324e-20)
(14.3539 7.79152 3.59667e-19)
(14.2801 7.5437 3.24994e-21)
(14.2258 7.30344 -2.18276e-19)
(14.1881 7.07526 2.1759e-19)
(14.1702 6.85531 -2.09841e-19)
(14.1654 6.64101 -6.78427e-20)
(14.1639 6.44066 6.56199e-20)
(14.1732 6.24954 6.47309e-20)
(14.1893 6.06731 -6.60463e-20)
(14.2042 5.89485 -6.66615e-20)
(14.2278 5.73273 0)
(14.2566 5.57437 -2.45903e-19)
(14.2854 5.42939 1.22389e-19)
(14.318 5.29023 -1.19951e-19)
(14.3548 5.15561 -5.83257e-20)
(14.3926 5.02742 -5.82146e-20)
(14.4307 4.90512 5.67889e-22)
(14.4695 4.78833 -5.63415e-20)
(14.5071 4.67659 -5.59005e-20)
(14.5469 4.57237 -1.10479e-19)
(14.5876 4.47084 3.26653e-22)
(14.6279 4.37396 2.17792e-19)
(14.6685 4.28146 1.62341e-19)
(14.7097 4.19216 -2.15629e-19)
(14.7511 4.10562 0)
(14.7912 4.02156 0)
(14.8326 3.9456 -1.06829e-19)
(14.8749 3.86881 4.57578e-22)
(14.915 3.79681 0)
(14.9546 3.72579 3.69042e-22)
(14.9939 3.65716 3.52919e-22)
(15.0326 3.59037 0)
(15.069 3.52586 -5.40414e-20)
(15.1064 3.46516 -5.43481e-20)
(15.1442 3.39836 0)
(8.99163 -1.76073 1.21615e-19)
(8.73201 -1.73126 7.40516e-22)
(8.48182 -1.70404 0)
(8.24063 -1.67813 -1.34993e-19)
(8.00802 -1.65307 0)
(7.78353 -1.62874 1.38574e-19)
(7.56669 -1.60507 1.41427e-19)
(7.35702 -1.58202 0)
(7.15408 -1.55954 0)
(6.9574 -1.53758 -7.51783e-20)
(6.76659 -1.5161 -7.69402e-20)
(6.58125 -1.49506 7.91955e-19)
(6.40106 -1.47443 -1.38729e-18)
(6.22568 -1.45416 1.26535e-18)
(6.05489 -1.43425 -6.98006e-19)
(5.88843 -1.41465 4.49783e-20)
(5.7261 -1.39535 7.53041e-19)
(5.5677 -1.37631 -7.87449e-19)
(5.41305 -1.35755 -5.12289e-20)
(5.26197 -1.33901 -5.38622e-20)
(5.11431 -1.32072 5.68309e-20)
(4.96989 -1.30267 1.02649e-18)
(4.82856 -1.28487 -1.09255e-18)
(4.69017 -1.26732 6.82584e-20)
(4.55454 -1.25006 0)
(4.42155 -1.23311 0)
(4.29101 -1.21649 0)
(4.16276 -1.20026 -1.47975e-18)
(4.03663 -1.1845 5.37626e-20)
(3.91245 -1.16927 1.71949e-18)
(3.78998 -1.15466 6.05581e-20)
(3.66905 -1.14075 0)
(3.54938 -1.12769 -7.01134e-22)
(3.43068 -1.11558 0)
(3.31259 -1.1045 0)
(3.19472 -1.09442 0)
(3.07677 -1.08506 -6.37057e-20)
(2.95902 -1.07536 -5.99127e-19)
(2.84479 -1.06246 6.23486e-19)
(2.75075 -1.03864 0)
(2.75577 -0.9829 -1.03971e-18)
(3.21926 -0.852313 1.28939e-18)
(5.74786 -0.641743 -2.60134e-18)
(8.9934 -1.76429 6.32692e-20)
(8.75713 -1.74158 -1.99143e-19)
(8.52885 -1.71852 0)
(8.308 -1.69594 1.37276e-19)
(8.09418 -1.67392 2.08535e-19)
(7.88699 -1.65245 1.40456e-19)
(7.68603 -1.63151 -3.5675e-19)
(7.49094 -1.61108 -2.88833e-19)
(7.30132 -1.59112 2.20057e-19)
(7.11682 -1.57159 -4.46919e-19)
(6.93709 -1.55246 7.73194e-20)
(6.76178 -1.53369 -1.55699e-19)
(6.59058 -1.51526 6.39525e-19)
(6.42322 -1.49714 0)
(6.25942 -1.47932 0)
(6.099 -1.46176 -3.567e-23)
(5.94173 -1.44446 -7.76245e-19)
(5.78742 -1.42738 7.62491e-19)
(5.63589 -1.41051 5.00961e-20)
(5.48695 -1.39383 -7.84405e-19)
(5.34046 -1.37734 1.71011e-18)
(5.19622 -1.36106 -1.05164e-18)
(5.05406 -1.34496 -9.914e-19)
(4.91381 -1.32908 9.91697e-19)
(4.77532 -1.31342 7.10833e-20)
(4.63836 -1.298 7.64042e-20)
(4.50276 -1.28283 0)
(4.3683 -1.26793 1.42433e-18)
(4.23478 -1.25335 -1.60196e-18)
(4.10192 -1.2391 0)
(3.96946 -1.22518 -9.35105e-19)
(3.83713 -1.21159 9.70449e-19)
(3.70465 -1.19827 -1.1512e-18)
(3.57183 -1.18503 1.28908e-18)
(3.43871 -1.1715 0)
(3.30602 -1.15682 -7.19082e-19)
(3.17645 -1.13919 9.3965e-19)
(3.05804 -1.11488 0)
(2.97459 -1.07567 0)
(2.9952 -1.00626 1.81994e-19)
(3.31411 -0.886536 1.05064e-19)
(4.46168 -0.736651 -2.55385e-19)
(7.79725 -0.633537 -2.18178e-18)
(8.99232 -1.77407 -1.95794e-19)
(8.7738 -1.75156 -4.19683e-21)
(8.56205 -1.72954 7.24356e-20)
(8.35635 -1.7085 -2.85079e-22)
(8.15638 -1.68812 -2.09572e-19)
(7.96183 -1.66827 0)
(7.77237 -1.64891 0)
(7.58771 -1.63001 7.2557e-20)
(7.40757 -1.61154 7.31136e-20)
(7.23162 -1.59347 -3.72191e-19)
(7.05962 -1.57577 3.03701e-19)
(6.89124 -1.55841 6.97041e-19)
(6.72623 -1.54137 -1.34994e-18)
(6.56433 -1.52465 6.93929e-19)
(6.40531 -1.50822 -7.14865e-19)
(6.24898 -1.4921 6.53315e-19)
(6.09515 -1.47626 -3.39074e-22)
(5.94367 -1.46066 7.52618e-19)
(5.79436 -1.44528 -8.37024e-19)
(5.64703 -1.43007 -8.25546e-19)
(5.50153 -1.41503 8.70129e-19)
(5.35766 -1.40012 -4.35599e-22)
(5.21526 -1.38536 6.06894e-20)
(5.07416 -1.37073 -6.51198e-20)
(4.93418 -1.35623 1.11044e-18)
(4.79513 -1.34186 -1.26707e-18)
(4.65683 -1.32759 6.42178e-19)
(4.51907 -1.31341 -6.95838e-19)
(4.38164 -1.29927 0)
(4.24431 -1.28507 -8.2504e-19)
(4.10688 -1.27074 9.06117e-19)
(3.96921 -1.2561 6.21695e-20)
(3.83129 -1.24082 1.17413e-18)
(3.69349 -1.22433 -1.84718e-18)
(3.55703 -1.20563 6.8945e-19)
(3.42509 -1.18287 -9.66699e-20)
(3.30545 -1.15264 -4.39402e-19)
(3.21691 -1.10877 -4.31007e-23)
(3.20469 -1.04029 2.84992e-19)
(3.37401 -0.932302 8.13229e-20)
(3.96077 -0.77597 9.48883e-20)
(5.47018 -0.616255 -2.65009e-21)
(8.83731 -0.604103 0)
(8.99016 -1.77599 1.29007e-19)
(8.7892 -1.75654 0)
(8.59259 -1.73721 -1.66029e-22)
(8.40073 -1.71818 -6.99628e-20)
(8.21358 -1.69958 0)
(8.03086 -1.68134 1.41962e-19)
(7.85223 -1.66347 1.43259e-19)
(7.67749 -1.646 -3.62404e-19)
(7.50639 -1.62889 -7.35801e-20)
(7.33866 -1.6121 2.97806e-19)
(7.17407 -1.59565 -2.27186e-19)
(7.01241 -1.57947 0)
(6.85337 -1.56353 7.88074e-20)
(6.69672 -1.54783 2.43164e-19)
(6.54222 -1.53239 4.13286e-20)
(6.3897 -1.51724 -3.45375e-19)
(6.23899 -1.50237 4.46117e-20)
(6.08998 -1.48776 0)
(5.94255 -1.47335 4.84855e-20)
(5.79653 -1.4591 4.07623e-19)
(5.65174 -1.44495 5.33388e-20)
(5.50799 -1.43087 -8.49684e-19)
(5.3651 -1.41685 5.40635e-19)
(5.22291 -1.40285 -3.68115e-22)
(5.08124 -1.38889 -6.80019e-20)
(4.93992 -1.37493 7.33211e-20)
(4.79882 -1.36095 6.29198e-19)
(4.65777 -1.34688 -7.4066e-22)
(4.51664 -1.3326 -7.38663e-19)
(4.3753 -1.31793 0)
(4.23367 -1.30265 8.79878e-19)
(4.09183 -1.28638 1.20328e-19)
(3.95021 -1.26852 -1.06919e-18)
(3.80999 -1.24814 0)
(3.67386 -1.2236 0)
(3.54782 -1.19221 0)
(3.44491 -1.14939 3.12731e-19)
(3.39338 -1.08762 -4.70986e-19)
(3.45308 -0.99636 0)
(3.74533 -0.865284 2.25215e-19)
(4.51049 -0.697643 -8.49234e-20)
(6.19664 -0.548431 1.8883e-19)
(9.4826 -0.584834 0)
(8.98793 -1.7801 6.47167e-20)
(8.80268 -1.76145 -7.29501e-20)
(8.62029 -1.74333 7.36003e-20)
(8.44125 -1.72596 6.99574e-20)
(8.26596 -1.70903 -1.41381e-19)
(8.09412 -1.69225 2.13793e-19)
(7.92539 -1.67568 -1.43928e-19)
(7.75959 -1.65944 7.28054e-20)
(7.59666 -1.64345 1.46977e-19)
(7.43623 -1.6277 -2.23178e-19)
(7.27821 -1.61226 1.89405e-19)
(7.12248 -1.59703 3.08367e-19)
(6.96873 -1.58193 -2.75874e-19)
(6.81669 -1.56697 3.63343e-19)
(6.66616 -1.55217 -3.32619e-19)
(6.51691 -1.53759 0)
(6.36878 -1.52328 -4.45514e-20)
(6.22173 -1.50931 -4.63164e-20)
(6.07577 -1.4956 -4.33801e-19)
(5.93076 -1.48204 4.04054e-19)
(5.78652 -1.46852 3.7126e-19)
(5.64285 -1.45499 -8.95362e-19)
(5.49955 -1.44142 4.15097e-19)
(5.35645 -1.42777 6.27909e-20)
(5.21339 -1.41402 0)
(5.07016 -1.40016 -7.16932e-20)
(4.92664 -1.38615 6.17506e-19)
(4.78281 -1.37195 -7.50396e-19)
(4.63864 -1.35737 0)
(4.49416 -1.34209 0)
(4.34941 -1.32573 -3.20869e-19)
(4.20478 -1.30777 -2.34476e-19)
(4.0612 -1.28735 4.69825e-22)
(3.92068 -1.26315 5.73522e-19)
(3.78737 -1.23305 0)
(3.66982 -1.19368 0)
(3.58539 -1.13984 9.95784e-20)
(3.56895 -1.0638 -2.24266e-19)
(3.6882 -0.956631 1.24732e-19)
(4.07041 -0.812743 -3.1679e-19)
(4.94863 -0.644047 3.96075e-20)
(6.72114 -0.510479 0)
(9.92997 -0.572392 0)
(8.98885 -1.78154 6.8297e-20)
(8.81569 -1.76494 -2.38524e-21)
(8.6455 -1.74811 3.71188e-20)
(8.4777 -1.73217 -1.05907e-19)
(8.31303 -1.7168 -1.42216e-19)
(8.15118 -1.70132 3.57905e-19)
(7.99138 -1.68578 -2.16696e-19)
(7.83355 -1.6706 7.29206e-20)
(7.67805 -1.6556 -1.83862e-19)
(7.52416 -1.64061 7.46791e-20)
(7.37184 -1.62601 1.89066e-19)
(7.22139 -1.61168 -3.08494e-19)
(7.07239 -1.59729 -3.14611e-19)
(6.92447 -1.58293 3.6308e-19)
(6.77754 -1.56863 4.15366e-20)
(6.63124 -1.55435 3.84618e-19)
(6.48528 -1.54023 -3.09823e-19)
(6.33964 -1.52653 4.5838e-20)
(6.19462 -1.5133 4.78649e-19)
(6.05025 -1.50028 4.98295e-20)
(5.90632 -1.48729 -4.20782e-19)
(5.76265 -1.47421 0)
(5.61892 -1.46096 0)