/*--------------------------------*- C++ -*----------------------------------*\
| =========                 |                                                 |
| \\      /  F ield         | OpenFOAM: The Open Source CFD Toolbox           |
|  \\    /   O peration     | Version:  2.3.0                                 |
|   \\  /    A nd           | Web:      www.OpenFOAM.org                      |
|    \\/     M anipulation  |                                                 |
\*---------------------------------------------------------------------------*/
FoamFile
{
    version     2.0;
    format      ascii;
    class       volScalarField;
    location    "350";
    object      nuTilda;
}
// * * * * * * * * * * * * * * * * * * * * * * * * * * * * * * * * * * * * * //

dimensions      [0 2 -1 0 0 0 0];

internalField   nonuniform List<scalar> 
28256
(
0.0152207
0.0136906
0.0123571
0.0112071
0.0102243
0.0093967
0.00871071
0.0081577
0.00772744
0.00739964
0.00715687
0.00697483
0.00683173
0.00670489
0.00657832
0.0064326
0.00626176
0.00605579
0.00582373
0.00554572
0.0162124
0.0148914
0.0137852
0.0128728
0.0121385
0.011567
0.0111423
0.0108537
0.0106808
0.0106049
0.0106054
0.0106613
0.0107552
0.0108696
0.0109929
0.0111097
0.0112238
0.0113192
0.0113982
0.0114591
0.0173015
0.0162088
0.0153436
0.0146813
0.0141994
0.0138773
0.0136953
0.0136318
0.0136615
0.0137624
0.0139148
0.0140994
0.0142967
0.0144976
0.0146907
0.0148669
0.0150216
0.0151575
0.0152607
0.0153301
0.0184648
0.0176095
0.0169842
0.0165611
0.0163136
0.0162139
0.0162361
0.0163539
0.016539
0.016773
0.0170371
0.0173116
0.0175832
0.0178448
0.0180851
0.0183051
0.0184955
0.0186514
0.0187738
0.0188621
0.0196884
0.0190617
0.018661
0.0184561
0.018413
0.018499
0.0186855
0.018944
0.0192507
0.0195844
0.0199289
0.0202712
0.0205994
0.0209069
0.0211876
0.0214384
0.0216531
0.0218327
0.021975
0.0220734
0.0209473
0.020537
0.0203394
0.0203228
0.020449
0.0206846
0.0209984
0.0213651
0.0217617
0.0221687
0.0225738
0.0229674
0.0233381
0.0236798
0.0239904
0.0242662
0.0245036
0.0247048
0.0248599
0.0249741
0.022232
0.0220112
0.0219884
0.0221267
0.0223881
0.0227389
0.0231494
0.023595
0.0240561
0.0245163
0.0249666
0.025395
0.0257966
0.0261655
0.0264994
0.0267964
0.0270536
0.0272678
0.0274386
0.0275642
0.0235167
0.0234593
0.0235807
0.0238429
0.024208
0.0246438
0.025123
0.0256236
0.0261281
0.0266253
0.0271045
0.0275578
0.0279814
0.0283696
0.0287217
0.0290336
0.0293037
0.0295317
0.0297154
0.0298502
0.0247939
0.0248645
0.0250992
0.0254549
0.0258941
0.0263882
0.026913
0.0274481
0.02798
0.0284988
0.028995
0.029464
0.0299002
0.0303009
0.0306642
0.0309867
0.0312684
0.0315068
0.0316988
0.0318444
0.026036
0.0262102
0.0265282
0.0269486
0.0274368
0.0279665
0.0285163
0.02907
0.0296153
0.0301431
0.0306469
0.0311217
0.0315636
0.0319703
0.0323394
0.0326688
0.0329573
0.0332022
0.0334025
0.0335551
0.0272226
0.0274786
0.0278548
0.0283161
0.0288316
0.0293773
0.029936
0.0304939
0.03104
0.0315667
0.0320689
0.0325425
0.0329838
0.0333904
0.0337601
0.0340922
0.0343832
0.0346326
0.0348378
0.0349976
0.0283389
0.0286588
0.0290727
0.0295545
0.030078
0.0306239
0.0311774
0.0317268
0.0322628
0.0327798
0.0332729
0.0337385
0.0341727
0.0345739
0.034941
0.0352705
0.0355617
0.0358126
0.0360208
0.0361851
0.0293983
0.0297507
0.0301806
0.030664
0.0311798
0.0317117
0.0322476
0.032778
0.0332953
0.0337944
0.0342711
0.034722
0.0351439
0.0355355
0.0358944
0.0362185
0.0365062
0.0367555
0.0369648
0.0371319
0.0303891
0.030753
0.0311793
0.0316478
0.032142
0.0326483
0.0331567
0.0336592
0.0341499
0.034624
0.0350781
0.0355088
0.0359138
0.0362908
0.0366374
0.0369522
0.0372331
0.0374783
0.0376863
0.0378551
0.0313017
0.0316632
0.0320716
0.0325125
0.0329736
0.0334443
0.0339166
0.0343839
0.0348413
0.0352846
0.0357105
0.036116
0.036499
0.0368569
0.0371877
0.0374896
0.0377607
0.0379995
0.0382039
0.0383721
0.0321452
0.0324854
0.0328624
0.0332652
0.0336844
0.0341119
0.0345412
0.0349673
0.0353857
0.035793
0.0361859
0.0365618
0.0369186
0.0372536
0.037565
0.037851
0.0381096
0.038339
0.0385377
0.0387037
0.0329175
0.0332227
0.033558
0.0339148
0.0342857
0.0346645
0.035046
0.0354262
0.0358012
0.0361681
0.036524
0.0368665
0.0371934
0.0375022
0.0377912
0.0380584
0.0383018
0.0385198
0.0387105
0.0388723
0.0336122
0.0338771
0.0341651
0.0344709
0.0347895
0.0351162
0.0354471
0.0357783
0.036107
0.0364303
0.036746
0.0370518
0.0373459
0.0376257
0.0378895
0.0381356
0.0383617
0.038566
0.038747
0.0389027
0.0342342
0.0344533
0.0346908
0.0349437
0.0352087
0.0354824
0.0357617
0.0360432
0.036324
0.0366016
0.0368742
0.0371407
0.0373994
0.0376482
0.0378852
0.0381082
0.0383149
0.038504
0.0386736
0.0388217
0.0347893
0.0349568
0.0351427
0.0353448
0.0355564
0.035779
0.036009
0.0362431
0.0364778
0.036709
0.0369347
0.0371575
0.0373781
0.0375949
0.0378051
0.038004
0.0381898
0.0383613
0.038518
0.0386581
0.00552572
0.00578113
0.00603192
0.00625927
0.0064774
0.00668108
0.00687915
0.00708176
0.00729887
0.00754996
0.00785517
0.00823614
0.00871103
0.00929555
0.00999997
0.0108294
0.0117846
0.0128629
0.0140583
0.0153633
0.0114849
0.0114828
0.0114692
0.0114449
0.0114035
0.0113663
0.0113268
0.0112986
0.0112882
0.0113128
0.0113871
0.0115293
0.0117578
0.01209
0.0125399
0.0131168
0.0138245
0.0146624
0.0156256
0.0167057
0.0153678
0.0153806
0.0153585
0.0153168
0.0152622
0.0151862
0.0151019
0.0150078
0.0149187
0.0148439
0.0147941
0.0147885
0.0148421
0.0149733
0.0152018
0.0155409
0.0160012
0.0165888
0.0173045
0.0181458
0.0189107
0.0189207
0.0189047
0.0188625
0.018794
0.0186964
0.0185819
0.0184487
0.0183078
0.0181635
0.0180299
0.0179171
0.017837
0.017813
0.0178577
0.017991
0.0182277
0.0185795
0.0190534
0.0196537
0.0221328
0.0221538
0.0221388
0.0220948
0.022012
0.021906
0.0217713
0.0216109
0.0214312
0.0212417
0.0210453
0.020851
0.0206767
0.0205294
0.0204288
0.0203937
0.0204395
0.0205817
0.0208323
0.0212009
0.0250439
0.0250693
0.0250602
0.0250117
0.0249309
0.0248147
0.0246667
0.0244878
0.0242834
0.02406
0.0238165
0.0235671
0.0233178
0.0230797
0.0228682
0.0226983
0.0225873
0.0225513
0.022605
0.022765
0.0276422
0.0276779
0.0276708
0.0276279
0.027544
0.0274246
0.0272684
0.0270766
0.0268578
0.0266102
0.0263378
0.0260467
0.025745
0.0254392
0.0251436
0.0248705
0.024635
0.0244518
0.0243402
0.0243178
0.0299398
0.0299817
0.0299825
0.0299421
0.0298619
0.0297395
0.0295803
0.0293855
0.0291572
0.0288956
0.0286039
0.0282862
0.0279466
0.0275941
0.0272386
0.0268891
0.0265576
0.0262593
0.0260129
0.0258352
0.0319416
0.0319923
0.0320013
0.0319672
0.0318895
0.031771
0.0316133
0.0314196
0.0311869
0.0309183
0.0306151
0.0302828
0.0299219
0.0295396
0.0291424
0.0287388
0.0283378
0.0279537
0.027601
0.0272973
0.0336608
0.0337209
0.0337371
0.0337096
0.0336389
0.0335271
0.033375
0.0331835
0.0329529
0.0326823
0.0323788
0.0320404
0.0316703
0.0312721
0.0308498
0.0304104
0.0299637
0.0295176
0.0290884
0.0286905
0.0351107
0.0351778
0.0352019
0.0351832
0.0351222
0.0350192
0.0348738
0.0346896
0.034465
0.0342016
0.0339012
0.0335652
0.0331946
0.0327909
0.0323583
0.0319023
0.0314272
0.0309438
0.0304628
0.0299969
0.036304
0.0363793
0.0364117
0.0364021
0.03635
0.036257
0.0361233
0.0359499
0.0357366
0.035484
0.0351933
0.0348662
0.0345014
0.0341027
0.0336721
0.0332116
0.0327276
0.0322257
0.031714
0.0312068
0.0372565
0.0373384
0.0373795
0.037379
0.0373384
0.0372577
0.037137
0.0369772
0.036778
0.0365397
0.0362645
0.0359512
0.0356008
0.0352148
0.0347941
0.0343425
0.0338612
0.0333564
0.0328348
0.0323077
0.0379835
0.038072
0.0381209
0.0381312
0.0381024
0.0380344
0.0379283
0.0377843
0.0376015
0.0373817
0.037125
0.0368309
0.0364997
0.0361325
0.0357307
0.0352955
0.0348292
0.0343351
0.0338192
0.0332912
0.0385033
0.038597
0.038654
0.0386741
0.038657
0.038603
0.0385124
0.0383856
0.0382217
0.0380221
0.0377863
0.037514
0.037207
0.0368642
0.0364874
0.0360767
0.0356338
0.0351614
0.0346633
0.0341474
0.0388358
0.0389336
0.0389973
0.0390265
0.0390213
0.038981
0.0389065
0.038797
0.0386528
0.0384743
0.0382614
0.0380144
0.0377334
0.0374193
0.0370717
0.0366905
0.0362784
0.0358353
0.0353634
0.0348661
0.0390036
0.0391039
0.0391731
0.0392105
0.0392157
0.0391887
0.039129
0.0390365
0.0389115
0.0387547
0.0385655
0.0383442
0.0380916
0.0378077
0.0374922
0.0371463
0.0367695
0.0363625
0.0359263
0.0354608
0.0390317
0.0391331
0.0392061
0.0392499
0.039264
0.0392478
0.0392009
0.0391236
0.0390164
0.0388794
0.0387131
0.0385178
0.0382937
0.0380412
0.0377604
0.0374518
0.0371152
0.0367508
0.0363587
0.0359378
0.0389471
0.0390481
0.0391237
0.0391724
0.039193
0.0391841
0.0391457
0.039079
0.0389855
0.0388655
0.0387202
0.0385493
0.038353
0.0381321
0.0378868
0.0376173
0.0373234
0.0370052
0.0366626
0.0362959
0.0387782
0.0388777
0.0389556
0.0390098
0.0390363
0.039027
0.0389853
0.0389199
0.0388344
0.0387289
0.0386043
0.0384542
0.0382812
0.0380924
0.0378832
0.0376518
0.0373995
0.0371276
0.0368374
0.0365288
0.00217899
0.00169637
0.0013223
0.00103708
0.000835522
0.000695773
0.000592917
0.000510922
0.000432391
0.000347804
0.000265201
0.000206623
0.000204917
0.000259516
0.00033232
0.000397088
0.000443712
0.000470645
0.000479565
0.00047205
0.00217012
0.0017044
0.00134258
0.00106551
0.000870808
0.000728766
0.000608356
0.000516457
0.000525555
0.000691081
0.000959045
0.00125309
0.00153253
0.00178101
0.00199728
0.00217541
0.00231495
0.00241835
0.0024855
0.00251911
0.00216315
0.00171606
0.00136747
0.00109919
0.000902147
0.000782344
0.000882445
0.00127265
0.00181726
0.00238252
0.00291744
0.00339114
0.00379846
0.00414265
0.00442789
0.00465909
0.00483963
0.00497181
0.00505891
0.00510139
0.00215769
0.00172976
0.00139498
0.00115418
0.00115338
0.00159156
0.00235054
0.00319052
0.00398578
0.00469268
0.00530804
0.00583895
0.00629218
0.0066752
0.00699382
0.00725304
0.00745544
0.00760405
0.00770167
0.00774746
0.00215323
0.00175382
0.00150897
0.00168005
0.00243182
0.00348548
0.00455223
0.00552217
0.00637682
0.00712251
0.00777016
0.00833006
0.00881088
0.00921912
0.00956043
0.00983856
0.010057
0.0102177
0.0103216
0.0103707
0.00217671
0.00194346
0.00227044
0.00326792
0.00454854
0.00580212
0.00693189
0.00792819
0.00880253
0.00956823
0.0102366
0.0108175
0.0113183
0.0117451
0.0121031
0.0123954
0.0126255
0.0127945
0.0129037
0.0129535
0.00242089
0.00285692
0.00403029
0.005495
0.00691777
0.0082019
0.00933946
0.0103432
0.0112277
0.0120058
0.012688
0.0132831
0.0137978
0.0142377
0.0146071
0.0149097
0.0151471
0.0153215
0.0154333
0.0154825
0.00339904
0.00469533
0.00631546
0.00789785
0.00933336
0.0106117
0.0117452
0.0127485
0.0136363
0.0144201
0.0151097
0.0157124
0.0162354
0.0166828
0.0170593
0.0173672
0.0176092
0.0177859
0.0178983
0.0179461
0.00525421
0.00701394
0.00874867
0.0103333
0.0117511
0.013013
0.0141346
0.0151312
0.0160154
0.0167984
0.0174888
0.0180939
0.0186192
0.0190697
0.0194487
0.0197587
0.0200016
0.0201783
0.020289
0.0203335
0.00760217
0.00948209
0.011212
0.0127669
0.0141552
0.0153932
0.0164964
0.0174793
0.0183537
0.01913
0.0198157
0.0204174
0.0209406
0.0213895
0.0217668
0.0220753
0.0223158
0.0224899
0.022597
0.0226371
0.0101259
0.011986
0.0136719
0.0151831
0.016534
0.017741
0.0188198
0.019783
0.0206419
0.0214055
0.0220814
0.0226752
0.0231916
0.0236346
0.0240067
0.0243099
0.0245455
0.024714
0.0248153
0.0248494
0.0126776
0.0144829
0.0161101
0.0175692
0.018876
0.0200464
0.0210946
0.022033
0.0228713
0.0236175
0.0242786
0.0248598
0.0253654
0.0257987
0.0261619
0.0264566
0.0266841
0.0268446
0.0269384
0.0269644
0.0152138
0.0169506
0.0185116
0.0199126
0.0211701
0.0222991
0.0233122
0.0242207
0.0250337
0.0257583
0.0264006
0.0269654
0.0274562
0.027876
0.0282267
0.02851
0.0287265
0.0288765
0.0289599
0.0289765
0.0177273
0.0193757
0.0208628
0.0222012
0.0234053
0.0244887
0.025463
0.0263382
0.0271221
0.0278213
0.0284412
0.0289858
0.0294584
0.0298614
0.0301965
0.030465
0.0306676
0.0308047
0.0308758
0.0308806
0.020179
0.0217362
0.0231473
0.024421
0.0255695
0.026605
0.027538
0.0283769
0.0291291
0.0298002
0.0303945
0.0309161
0.0313673
0.0317504
0.0320669
0.0323177
0.0325039
0.032625
0.0326813
0.0326721
0.0225119
0.0240041
0.0253464
0.0265568
0.0276497
0.0286368
0.0295271
0.0303287
0.0310475
0.0316882
0.0322552
0.0327511
0.0331784
0.033539
0.0338341
0.0340647
0.0342313
0.0343341
0.034373
0.0343476
0.0247624
0.0261758
0.0274472
0.0285951
0.0296331
0.0305721
0.0314204
0.0321845
0.0328696
0.0334797
0.0340178
0.0344868
0.0348884
0.0352242
0.0354956
0.0357032
0.0358478
0.0359295
0.0359483
0.0359037
0.0269036
0.0282355
0.0294348
0.0305201
0.0315047
0.0323976
0.0332058
0.0339346
0.0345877
0.0351682
0.0356783
0.03612
0.0364949
0.0368044
0.0370498
0.0372321
0.037352
0.0374101
0.0374056
0.037339
0.0289241
0.0301669
0.0312901
0.0323122
0.0332455
0.0340962
0.0348683
0.0355667
0.0361926
0.036748
0.0372335
0.03765
0.0379986
0.0382803
0.038497
0.0386512
0.0387439
0.0387755
0.0387454
0.0386526
0.0308191
0.0319514
0.0329868
0.0339394
0.034827
0.0356442
0.0363846
0.0370629
0.0376719
0.0382124
0.0386819
0.0390794
0.0394064
0.0396583
0.0398393
0.0399592
0.040021
0.0400267
0.0399714
0.0398455
0.000469668
0.00047181
0.000454446
0.000419737
0.000370933
0.000319385
0.000288265
0.000307008
0.000381967
0.000499827
0.000657859
0.000858323
0.00111316
0.00144048
0.00186197
0.00240322
0.00309499
0.00397352
0.00507907
0.00645149
0.00251577
0.00247342
0.00239893
0.00228986
0.00214688
0.0019706
0.0017671
0.00154802
0.00133717
0.0011754
0.001117
0.00119531
0.00140008
0.00171037
0.0021241
0.00265671
0.00333295
0.00418329
0.00524136
0.00653924
0.00509632
0.00504514
0.00494887
0.00480877
0.00462266
0.0043901
0.00410969
0.00378286
0.00341565
0.00302377
0.00264325
0.00233716
0.00218936
0.00225816
0.00253908
0.00299942
0.00362494
0.00442434
0.00541799
0.00662701
0.00774161
0.00768243
0.007574
0.00741345
0.0072019
0.0069372
0.00661757
0.00624213
0.00581101
0.00532815
0.00480449
0.00426988
0.0037839
0.00344454
0.00335525
0.00355895
0.00402725
0.00471973
0.00561925
0.00672468
0.0103625
0.0102972
0.0101764
0.0100005
0.00976822
0.00947811
0.00912933
0.00871969
0.00824837
0.00771521
0.00712447
0.00648678
0.00583042
0.00521454
0.00474141
0.00453578
0.00467315
0.00513939
0.00587924
0.00684902
0.0129424
0.0128711
0.0127403
0.0125501
0.0123
0.0119895
0.0116165
0.0111794
0.0106765
0.0101071
0.0094711
0.00877387
0.00802775
0.00726328
0.00654344
0.00597629
0.00569684
0.00579538
0.0062633
0.00703175
0.0154687
0.015391
0.0152508
0.0150487
0.0147838
0.0144559
0.014063
0.0136037
0.0130761
0.0124779
0.011809
0.0110697
0.0102665
0.00941503
0.00855041
0.00774216
0.00710587
0.00678261
0.00686275
0.00732823
0.0179282
0.0178443
0.0176963
0.0174831
0.017206
0.0168634
0.0164543
0.0159773
0.0154298
0.0148101
0.0141159
0.0133466
0.0125039
0.0115958
0.0106417
0.0096825
0.0087963
0.0081071
0.00775628
0.00782118
0.020311
0.0202215
0.020065
0.0198431
0.0195546
0.0192002
0.0187781
0.0182868
0.017724
0.0170875
0.0163748
0.0155839
0.0147141
0.0137683
0.0127563
0.0117018
0.0106522
0.00969467
0.00896016
0.00858374
0.0226092
0.0225128
0.0223492
0.0221185
0.0218211
0.0214563
0.0210233
0.0205206
0.0199458
0.019297
0.0185711
0.0177654
0.0168775
0.0159073
0.0148587
0.0137437
0.0125897
0.0114515
0.0104248
0.00964428
0.0248149
0.0247119
0.0245406
0.0243018
0.0239962
0.0236224
0.0231805
0.0226687
0.0220849
0.0214269
0.0206921
0.0198767
0.018978
0.0179934
0.0169232
0.0157716
0.0145531
0.0132993
0.0120711
0.0109725
0.0269223
0.0268113
0.0266322
0.0263859
0.026072
0.0256906
0.025241
0.0247216
0.024131
0.0234668
0.0227259
0.0219054
0.0210011
0.02001
0.0189289
0.0177584
0.0165036
0.0151803
0.0138234
0.0125009
0.0289251
0.0288053
0.028618
0.0283634
0.0280418
0.0276529
0.0271962
0.0266708
0.0260747
0.025406
0.0246619
0.0238391
0.0229338
0.0219415
0.0208587
0.019682
0.0184112
0.0170517
0.0156198
0.0141549
0.0308182
0.0306885
0.0304915
0.0302281
0.0298983
0.0295018
0.0290384
0.0285073
0.0279067
0.0272346
0.0264887
0.0256662
0.0247627
0.0237742
0.0226957
0.0215224
0.0202508
0.0188794
0.0174123
0.0158686
0.032597
0.0324552
0.0322475
0.0319738
0.0316348
0.0312302
0.0307595
0.0302223
0.0296169
0.0289421
0.0281954
0.027374
0.0264747
0.0254927
0.0244233
0.0232608
0.0219996
0.0206343
0.0191615
0.0175872
0.0342571
0.0341014
0.0338805
0.0335951
0.0332452
0.0328307
0.0323514
0.0318067
0.0311959
0.0305174
0.0297694
0.0289496
0.0280549
0.0270814
0.0260244
0.0248779
0.0236352
0.022289
0.0208305
0.0192548
0.0357954
0.0356229
0.0353865
0.0350866
0.0347232
0.0342961
0.0338055
0.033251
0.0326321
0.0319479
0.0311969
0.0303777
0.0294873
0.0285229
0.0274801
0.0263531
0.0251355
0.0238187
0.0223919
0.0208459
0.0372095
0.0370171
0.0367619
0.0364442
0.0360634
0.0356198
0.0351133
0.0345442
0.0339127
0.0332186
0.0324615
0.0316402
0.0307528
0.0297967
0.0287686
0.0276635
0.0264751
0.0251947
0.0238113
0.0223157
0.0384977
0.0382818
0.0380046
0.0376657
0.0372633
0.0367961
0.0362651
0.0356725
0.0350205
0.0343102
0.0335419
0.0327148
0.0318274
0.0308779
0.0298641
0.0287822
0.027626
0.0263899
0.0250674
0.0236531
0.0396558
0.0394117
0.0391125
0.0387567
0.0383292
0.0378224
0.0372487
0.0366136
0.0359293
0.0351937
0.0344094
0.0335736
0.0326814
0.0317341
0.0307333
0.0296781
0.028564
0.0273817
0.0261278
0.0248137
5.93571e-05
0.000200781
0.000374509
0.000576635
0.000813884
0.00108599
0.00140206
0.00176661
0.00218846
0.00267461
0.00323725
0.00388636
0.00463525
0.0054971
0.00648111
0.00759798
0.00885949
0.0102778
0.0118699
0.0136487
2.90397e-07
1.17077e-06
2.60984e-06
4.79228e-06
4.75447e-05
0.000176562
0.000383569
0.000617549
0.000910819
0.00127621
0.00172639
0.00227531
0.00293753
0.00372842
0.00466365
0.00575839
0.00702728
0.00848591
0.0101492
0.0120284
3.94478e-08
1.28328e-07
2.85003e-07
2.11489e-05
9.33976e-05
0.000198147
0.000325501
0.000491252
0.000707223
0.000985292
0.00133899
0.00178369
0.00233659
0.00301677
0.00384453
0.00484096
0.00602724
0.00742463
0.0090545
0.0109377
8.07802e-06
2.19863e-05
4.08798e-05
7.54714e-05
0.00013302
0.00021016
0.000313485
0.000451708
0.000633189
0.000868574
0.00117075
0.00155488
0.00203864
0.00264216
0.00338784
0.00429992
0.00540389
0.00672582
0.00829142
0.0101235
9.93891e-06
2.96046e-05
5.18188e-05
8.15489e-05
0.00012945
0.000196901
0.000288945
0.000412282
0.000574555
0.000785296
0.00105646
0.00140247
0.00184054
0.0023907
0.0030758
0.00392139
0.00495525
0.00620677
0.00770597
0.00948135
9.86262e-06
2.952e-05
5.10317e-05
7.77759e-05
0.000118742
0.000179691
0.00026322
0.000375172
0.000523192
0.00071582
0.000964149
0.00128184
0.00168541
0.00219441
0.00283147
0.00362251
0.00459639
0.00578431
0.00721884
0.00893095
9.70409e-06
2.91125e-05
5.01478e-05
7.53172e-05
0.000109722
0.000164809
0.000241117
0.000343676
0.000479589
0.000657309
0.000887003
0.00118159
0.00155686
0.00203174
0.00262846
0.00337286
0.00429419
0.00542466
0.00679859
0.00844961
9.55645e-06
2.88475e-05
4.97632e-05
7.41499e-05
0.000104817
0.000153181
0.000222997
0.000317524
0.000443134
0.000608229
0.000822208
0.00109727
0.00144856
0.00189439
0.0024566
0.00316088
0.00403686
0.0051184
0.00644389
0.00805837
9.45488e-06
2.87592e-05
4.98363e-05
7.41764e-05
0.000103375
0.000144433
0.000208311
0.000295928
0.000412812
0.000566803
0.000767227
0.00102551
0.00135607
0.00177658
0.00230833
0.00297644
0.00381007
0.0048423
0.00610868
0.00764253
9.34547e-06
2.85827e-05
4.97103e-05
7.38743e-05
0.000101889
0.00013782
0.000196179
0.000277755
0.000387032
0.000531283
0.00071993
0.000963529
0.00127582
0.00167386
0.0021782
0.00281326
0.00360759
0.0045937
0.00580721
0.00728591
9.2512e-06
2.84684e-05
4.96922e-05
7.39571e-05
0.000101584
0.000135304
0.000186674
0.000262468
0.000365026
0.000500831
0.000678798
0.000909339
0.00120543
0.00158342
0.0020632
0.00266866
0.00342806
0.00437422
0.0055451
0.00698594
9.17637e-06
2.83703e-05
4.97438e-05
7.41998e-05
0.000101684
0.000134087
0.000178988
0.000249419
0.00034598
0.000474257
0.000642625
0.000861565
0.00114324
0.00150332
0.00196112
0.00253999
0.00326765
0.00417653
0.00530354
0.00668817
9.09785e-06
2.82474e-05
4.96428e-05
7.41434e-05
0.000101404
0.000132718
0.000173202
0.000238249
0.000329317
0.000450857
0.000610696
0.000819108
0.00108784
0.00143186
0.00186988
0.00242468
0.00312353
0.0039986
0.00508739
0.00643406
9.02668e-06
2.81198e-05
4.9589e-05
7.42268e-05
0.00010152
0.000132403
0.000170822
0.000229172
0.000314804
0.000430205
0.000582386
0.000781131
0.00103814
0.00136765
0.00178774
0.00232055
0.00299268
0.00383569
0.00488569
0.0061822
8.96239e-06
2.80268e-05
4.95619e-05
7.44031e-05
0.000101831
0.000132502
0.000169547
0.000221608
0.000302065
0.000411819
0.000557013
0.000746904
0.000993283
0.00130962
0.00171338
0.00222609
0.00287389
0.0036879
0.00470482
0.00596812
8.89276e-06
2.78793e-05
4.9436e-05
7.43733e-05
0.00010185
0.000132257
0.000168104
0.000215486
0.00029083
0.000395359
0.000534193
0.000716076
0.00095255
0.00125681
0.0016456
0.00213988
0.00276517
0.00355204
0.0045364
0.00575936
8.8255e-06
2.77401e-05
4.92937e-05
7.43071e-05
0.000101868
0.000132182
0.000167391
0.000212249
0.000281331
0.000380651
0.00051359
0.000688129
0.000915344
0.00120843
0.00158335
0.00206042
0.00266441
0.00342488
0.00437622
0.00555659
8.76306e-06
2.7611e-05
4.91797e-05
7.43359e-05
0.000102074
0.000132453
0.000167364
0.000210681
0.000273311
0.000367468
0.000494836
0.000662531
0.00088106
0.0011637
0.00152562
0.00198644
0.0025701
0.00330513
0.00422474
0.00536595
8.6991e-06
2.74761e-05
4.90572e-05
7.43237e-05
0.000102201
0.000132626
0.000167228
0.000209163
0.000266327
0.000355516
0.000477643
0.000638944
0.000849426
0.00112214
0.00147181
0.00191733
0.00248193
0.00319355
0.00408536
0.00519654
8.6407e-06
2.7337e-05
4.88856e-05
7.41886e-05
0.00010215
0.000132584
0.000166908
0.000207781
0.000261187
0.000344824
0.000461833
0.000617144
0.000820111
0.0010833
0.00142147
0.0018526
0.00239932
0.00308895
0.00395373
0.00503045
8.57419e-06
2.71728e-05
4.86811e-05
7.4026e-05
0.000102095
0.000132601
0.000166842
0.000207155
0.000258428
0.000335514
0.000447261
0.000596814
0.00079267
0.00104689
0.00137428
0.00179212
0.00232248
0.00299256
0.00383532
0.00489154
8.50925e-06
2.70237e-05
4.85019e-05
7.39233e-05
0.000102134
0.00013277
0.000167027
0.000206958
0.000256624
0.000327305
0.000433814
0.000577808
0.000766938
0.0010127
0.00132999
0.00173553
0.00225088
0.00290292
0.00372428
0.00475377
8.45032e-06
2.6866e-05
4.82716e-05
7.37735e-05
0.000102108
0.000132866
0.000167115
0.00020665
0.000254823
0.00032008
0.000421458
0.000560186
0.000743027
0.000981032
0.00128871
0.00168273
0.00218401
0.00281885
0.00361888
0.00462119
8.37041e-06
2.66313e-05
4.80448e-05
7.35026e-05
0.000101912
0.000132768
0.000166997
0.000206207
0.00025327
0.000314793
0.000410423
0.000544018
0.000720985
0.000951725
0.00125033
0.0016335
0.00212145
0.00273964
0.00351875
0.00449463
8.31038e-06
2.65114e-05
4.77549e-05
7.31754e-05
0.000101668
0.000132597
0.000166879
0.000205979
0.000252429
0.000311741
0.000400872
0.000529276
0.000700646
0.000924565
0.00121457
0.00158745
0.0020626
0.00266459
0.00342304
0.0043721
8.26212e-06
2.63355e-05
4.75176e-05
7.28921e-05
0.000101418
0.000132464
0.000166857
0.000205951
0.000252003
0.000309695
0.000392519
0.000515816
0.000681809
0.000899226
0.0011811
0.00154412
0.00200695
0.00259347
0.00333248
0.00425763
8.21571e-06
2.61818e-05
4.72224e-05
7.25535e-05
0.000101139
0.000132277
0.000166763
0.000205836
0.000251497
0.000307714
0.000385069
0.000503441
0.000664322
0.000875624
0.00114988
0.00150346
0.00195488
0.00252756
0.00325071
0.00416124
8.15735e-06
2.60109e-05
4.69874e-05
7.21902e-05
0.00010079
0.000131961
0.00016648
0.000205478
0.00025074
0.000305649
0.000378689
0.000492064
0.000648055
0.000853604
0.00112075
0.00146543
0.00190627
0.00246619
0.00317412
0.00406523
8.11321e-06
2.58571e-05
4.66829e-05
7.18087e-05
0.000100353
0.00013155
0.000166082
0.000205028
0.000249982
0.000303955
0.000374085
0.000481833
0.000632982
0.000833065
0.00109351
0.00142985
0.0018608
0.00240867
0.00310166
0.00397357
8.05148e-06
2.56801e-05
4.63729e-05
7.13761e-05
9.9893e-05
0.000131092
0.000165642
0.000204586
0.000249385
0.00030279
0.000370976
0.000472696
0.000618997
0.000813869
0.00106798
0.00139637
0.00181791
0.00235409
0.00303204
0.00388389
7.99939e-06
2.55137e-05
4.60936e-05
7.10016e-05
9.94744e-05
0.000130672
0.000165257
0.000204211
0.000248935
0.000301923
0.000368541
0.000464462
0.000606011
0.000795912
0.00104402
0.00136495
0.0017775
0.00230285
0.00296805
0.00380733
7.96814e-06
2.53879e-05
4.58907e-05
7.07112e-05
9.91207e-05
0.000130331
0.00016493
0.0002039
0.000248538
0.000301093
0.000366249
0.000456954
0.000593917
0.000779067
0.00102152
0.0013355
0.00173945
0.00225449
0.00290703
0.0037294
7.93815e-06
2.52727e-05
4.56671e-05
7.03823e-05
9.87587e-05
0.000129948
0.000164566
0.000203524
0.000248037
0.000300126
0.000363916
0.000450185
0.000582669
0.000763258
0.00100034
0.00130775
0.0017036
0.00220905
0.00285018
0.00366008
7.87703e-06
2.50865e-05
4.54287e-05
7.00169e-05
9.83205e-05
0.000129513
0.000164112
0.000203033
0.000247399
0.00029905
0.000361689
0.000444455
0.000572229
0.00074844
0.000980479
0.00128164
0.00166974
0.00216613
0.00279621
0.00359216
7.83738e-06
2.49946e-05
4.52014e-05
6.96717e-05
9.79183e-05
0.000129067
0.000163636
0.000202503
0.000246736
0.000298068
0.000359854
0.000440105
0.000562707
0.000734532
0.000961741
0.00125698
0.00163769
0.00212538
0.00274478
0.00352725
7.80216e-06
2.48549e-05
4.49882e-05
6.93381e-05
9.75171e-05
0.000128617
0.000163159
0.000201988
0.000246156
0.000297278
0.000358463
0.000436871
0.000554067
0.000721511
0.000944012
0.00123363
0.00160739
0.0020868
0.00269621
0.00346701
7.76775e-06
2.47589e-05
4.47689e-05
6.90284e-05
9.71362e-05
0.000128185
0.000162718
0.00020156
0.00024571
0.000296688
0.000357404
0.000434283
0.000546179
0.000709323
0.000927313
0.00121153
0.00157865
0.00204995
0.00264932
0.00340665
7.73961e-06
2.46408e-05
4.45867e-05
6.87476e-05
9.6795e-05
0.000127813
0.00016235
0.000201203
0.000245319
0.000296174
0.000356467
0.000431935
0.000538871
0.000697817
0.000911462
0.00119059
0.00155144
0.00201495
0.00260525
0.00335292
7.6981e-06
2.45251e-05
4.43641e-05
6.84516e-05
9.64585e-05
0.000127459
0.000161999
0.000200859
0.000244946
0.000295664
0.000355499
0.000429631
0.000532115
0.000687025
0.000896539
0.00117079
0.00152564
0.00198188
0.002564
0.00330261
7.66256e-06
2.44129e-05
4.41959e-05
6.81902e-05
9.61546e-05
0.000127124
0.000161643
0.000200494
0.00024455
0.000295108
0.000354479
0.000427357
0.00052592
0.000676818
0.000882342
0.00115195
0.00150112
0.00195033
0.00252394
0.00325074
7.64074e-06
2.43287e-05
4.40179e-05
6.79544e-05
9.5846e-05
0.00012678
0.000161265
0.000200099
0.000244107
0.000294499
0.000353442
0.000425224
0.000520543
0.000667304
0.000868958
0.00113412
0.00147797
0.00192073
0.00248762
0.00320996
7.61245e-06
2.42305e-05
4.38565e-05
6.76895e-05
9.55231e-05
0.000126428
0.000160885
0.000199677
0.000243629
0.000293885
0.000352468
0.000423349
0.000516135
0.000658456
0.0008563
0.00111729
0.00145616
0.00189309
0.00245388
0.00316919
7.60108e-06
2.41619e-05
4.37105e-05
6.74428e-05
9.52191e-05
0.00012608
0.0001605
0.000199259
0.00024316
0.000293316
0.000351635
0.000421848
0.000512703
0.000650344
0.000844428
0.0011014
0.00143553
0.00186675
0.00242041
0.00312462
7.58526e-06
2.40929e-05
4.35515e-05
6.72168e-05
9.49322e-05
0.00012574
0.000160143
0.000198884
0.000242753
0.000292834
0.000350976
0.000420691
0.000509997
0.000642888
0.000833238
0.00108643
0.00141618
0.00184226
0.00239031
0.00309084
7.56136e-06
2.40057e-05
4.34005e-05
6.70008e-05
9.46502e-05
0.000125448
0.00015983
0.000198556
0.000242417
0.000292478
0.000350498
0.000419787
0.000507759
0.000636074
0.000822773
0.00107223
0.00139754
0.00181776
0.00235657
0.00303693
7.54174e-06
2.39217e-05
4.32797e-05
6.68151e-05
9.44168e-05
0.000125179
0.000159546
0.000198274
0.000242149
0.000292193
0.000350102
0.000419018
0.000505751
0.000629707
0.000812843
0.00105865
0.00137964
0.00179452
0.00232752
0.0030093
7.51216e-06
2.3842e-05
4.31537e-05
6.66387e-05
9.41848e-05
0.000124924
0.000159289
0.000198029
0.000241921
0.000291951
0.00034975
0.000418281
0.000503828
0.00062376
0.000803426
0.00104568
0.00136241
0.00177188
0.00229745
0.00296472
7.48127e-06
2.37545e-05
4.30298e-05
6.64438e-05
9.39572e-05
0.000124683
0.000159049
0.000197803
0.000241706
0.000291719
0.000349407
0.000417552
0.000501961
0.000618193
0.000794439
0.00103319
0.00134566
0.00174954
0.00226735
0.00292477
7.46573e-06
2.37183e-05
4.29449e-05
6.62961e-05
9.37825e-05
0.000124487
0.000158839
0.00019759
0.000241487
0.000291475
0.000349027
0.000416777
0.000500132
0.000613063
0.000785876
0.00102116
0.00132953
0.00172839
0.00224099
0.002898
7.45603e-06
2.36831e-05
4.28738e-05
6.61757e-05
9.36153e-05
0.000124301
0.000158636
0.000197383
0.000241283
0.000291237
0.000348655
0.000416035
0.000498406
0.000608451
0.000777696
0.00100958
0.00131405
0.00170828
0.00221523
0.00286339
7.44397e-06
2.36492e-05
4.27963e-05
6.60469e-05
9.34566e-05
0.000124106
0.000158434
0.000197181
0.000241072
0.000290984
0.000348269
0.00041531
0.000496844
0.000604474
0.000769965
0.000998551
0.00129936
0.00168929
0.00219152
0.00283615
7.43384e-06
2.36007e-05
4.27084e-05
6.59204e-05
9.32818e-05
0.000123905
0.000158222
0.000196953
0.000240833
0.000290718
0.000347887
0.000414649
0.000495509
0.000601196
0.000762767
0.000988099
0.00128541
0.00167121
0.00216827
0.00280455
7.41372e-06
2.35472e-05
4.2621e-05
6.57907e-05
9.31116e-05
0.000123695
0.000157985
0.000196718
0.00024061
0.000290481
0.000347581
0.000414137
0.000494443
0.000598521
0.000756042
0.000978137
0.00127199
0.00165357
0.00214478
0.00277192
7.40368e-06
2.35078e-05
4.25569e-05
6.56754e-05
9.29585e-05
0.000123526
0.000157797
0.000196518
0.000240405
0.00029028
0.000347348
0.000413754
0.00049363
0.000596353
0.000749801
0.000968682
0.00125919
0.0016367
0.00212288
0.00274524
7.39888e-06
2.34866e-05
4.2502e-05
6.55789e-05
9.28303e-05
0.000123375
0.000157641
0.000196363
0.00024025
0.00029013
0.000347183
0.000413486
0.000492986
0.000594501
0.00074396
0.000959651
0.00124672
0.00161977
0.00209928
0.00270861
7.38245e-06
2.34396e-05
4.24312e-05
6.54756e-05
9.27047e-05
0.000123233
0.000157494
0.000196221
0.000240141
0.000290046
0.000347094
0.000413313
0.000492482
0.000592875
0.000738449
0.000950952
0.00123467
0.00160375
0.00207902
0.00268923
7.3806e-06
2.34188e-05
4.23658e-05
6.53938e-05
9.25985e-05