/*--------------------------------*- C++ -*----------------------------------*\
| =========                 |                                                 |
| \\      /  F ield         | OpenFOAM: The Open Source CFD Toolbox           |
|  \\    /   O peration     | Version:  2.3.0                                 |
|   \\  /    A nd           | Web:      www.OpenFOAM.org                      |
|    \\/     M anipulation  |                                                 |
\*---------------------------------------------------------------------------*/
FoamFile
{
    version     2.0;
    format      ascii;
    class       volScalarField;
    location    "350";
    object      p;
}
// * * * * * * * * * * * * * * * * * * * * * * * * * * * * * * * * * * * * * //

dimensions      [0 2 -2 0 0 0 0];

internalField   nonuniform List<scalar> 
28256
(
-0.0945207
15.0837
26.9241
36.9418
44.5296
48.8772
49.8781
48.056
43.7862
37.8674
31.029
23.4769
15.6812
7.43953
-1.02548
-10.1439
-19.1435
-28.3059
-33.8774
-40.5779
-6.12079
5.12889
13.6169
20.8188
26.6485
30.9693
33.8376
35.3217
35.2767
33.6936
30.4703
25.6582
19.3612
11.8201
3.26971
-6.00449
-15.7967
-25.9386
-36.0473
-46.2769
-12.5572
-4.40606
1.08686
5.07667
7.35899
7.73591
6.34614
3.33093
-0.939582
-6.1192
-11.8592
-17.8793
-23.9583
-30.0118
-35.7693
-41.4564
-46.5893
-51.6712
-56.3637
-60.8208
-19.7241
-13.335
-9.83522
-7.64248
-6.65512
-6.86276
-8.09279
-10.1912
-12.9464
-16.2442
-19.934
-23.8597
-27.9246
-32.1272
-36.1026
-40.0797
-43.9338
-47.6117
-50.9283
-54.288
-26.8478
-21.7461
-19.7862
-19.0005
-19.2057
-20.3432
-22.2687
-24.7978
-27.722
-30.9164
-34.2235
-37.5062
-40.6496
-43.6917
-46.634
-49.3102
-51.7522
-54.1347
-56.2063
-58.2434
-33.0704
-29.4125
-28.4179
-28.4365
-29.1106
-30.3516
-32.0311
-34.034
-36.2011
-38.4373
-40.7229
-42.94
-45.102
-47.086
-49.0371
-50.8134
-52.4172
-53.9525
-55.2826
-56.6245
-38.839
-36.2254
-35.955
-36.4633
-37.4192
-38.7386
-40.3078
-42.0447
-43.8354
-45.6199
-47.3649
-48.9968
-50.5229
-51.8923
-53.1613
-54.2639
-55.3218
-56.2125
-56.965
-57.6569
-42.974
-42.1199
-42.3698
-43.1172
-44.132
-45.3385
-46.6373
-47.9836
-49.2848
-50.5653
-51.6858
-52.7674
-53.6844
-54.5028
-55.2374
-55.8256
-56.333
-56.766
-57.0818
-57.3414
-47.2854
-47.3426
-47.8669
-48.6834
-49.6557
-50.718
-51.777
-52.8017
-53.7535
-54.6348
-55.365
-56.0175
-56.525
-56.9504
-57.246
-57.4632
-57.5661
-57.6531
-57.6241
-57.5636
-51.2081
-51.7713
-52.4088
-53.2281
-54.1013
-54.9795
-55.7959
-56.5252
-57.1526
-57.66
-58.0647
-58.3439
-58.4914
-58.6008
-58.5331
-58.4951
-58.3026
-58.0727
-57.7983
-57.4933
-54.8343
-55.4237
-56.1276
-56.9104
-57.6563
-58.344
-58.9378
-59.4182
-59.7675
-60.0108
-60.1221
-60.1507
-60.0107
-59.8731
-59.5827
-59.245
-58.8829
-58.4493
-57.9383
-57.4564
-57.7711
-58.4268
-59.1402
-59.8358
-60.4369
-60.9425
-61.3301
-61.5846
-61.7002
-61.716
-61.6004
-61.3975
-61.0595
-60.6974
-60.2756
-59.7207
-59.1866
-58.6005
-57.9951
-57.3332
-60.1421
-60.8794
-61.5399
-62.1068
-62.5621
-62.8769
-63.0915
-63.1407
-63.0788
-62.8892
-62.6372
-62.2331
-61.7692
-61.2492
-60.6674
-60.0361
-59.3849
-58.6677
-57.9795
-57.232
-62.3183
-62.9801
-63.4564
-63.8477
-64.137
-64.2672
-64.3103
-64.1871
-63.9891
-63.6254
-63.2437
-62.7048
-62.159
-61.5016
-60.8469
-60.1178
-59.3924
-58.648
-57.8675
-57.0779
-63.8121
-64.4583
-64.8053
-65.0492
-65.1892
-65.1722
-65.056
-64.8102
-64.4659
-64.0198
-63.5047
-62.8889
-62.2995
-61.5471
-60.8564
-60.0838
-59.3126
-58.5202
-57.7442
-56.9319
-65.0931
-65.5195
-65.7376
-65.8178
-65.8108
-65.6633
-65.3988
-65.0675
-64.6036
-64.1061
-63.5013
-62.8331
-62.1969
-61.4322
-60.6875
-59.9235
-59.1393
-58.3405
-57.5526
-56.7523
-66.0522
-66.2809
-66.3146
-66.2366
-66.0733
-65.81
-65.4368
-65.0028
-64.4812
-63.9088
-63.2708
-62.5902
-61.9148
-61.1665
-60.3923
-59.6783
-58.8723
-58.1123
-57.3395
-56.5662
-66.3781
-66.5999
-66.5005
-66.2958
-66.0271
-65.6644
-65.2395
-64.7184
-64.1763
-63.5494
-62.9179
-62.2271
-61.564
-60.8474
-60.0844
-59.3647
-58.6346
-57.87
-57.1362
-56.397
-66.6058
-66.5729
-66.3231
-65.957
-65.5834
-65.133
-64.6501
-64.0659
-63.458
-62.7945
-62.1715
-61.5054
-60.8888
-60.2154
-59.521
-58.8101
-58.1625
-57.4727
-56.8481
-56.1416
-67.0868
-67.0789
-66.6767
-66.2282
-65.7115
-65.3558
-64.9404
-64.3873
-63.801
-63.0862
-62.3211
-61.7097
-61.1663
-60.5596
-59.8835
-59.1287
-58.2974
-57.648
-57.0731
-56.3521
-76.5201
-102.846
-117.472
-128.7
-138.912
-147.924
-155.711
-161.918
-166.758
-170.192
-172.193
-172.73
-171.705
-168.99
-164.413
-157.925
-149.639
-139.935
-129.192
-119.826
-56.3971
-66.6487
-76.8252
-87.3004
-97.8792
-107.94
-117.638
-126.426
-134.136
-140.36
-144.929
-147.674
-148.512
-147.525
-144.839
-140.62
-135.046
-128.3
-120.466
-113.831
-65.0237
-69.5579
-74.1089
-78.6903
-83.6891
-88.8242
-94.1953
-99.5925
-104.938
-109.969
-114.667
-118.678
-121.805
-123.826
-124.46
-123.616
-121.253
-117.429
-112.24
-107.377
-57.6125
-60.875
-64.3814
-68.1394
-72.1629
-76.4926
-80.8473
-85.3943
-90.0669
-94.5566
-98.8219
-102.694
-105.996
-108.483
-110.048
-110.502
-109.739
-107.725
-104.465
-100.943
-60.1225
-62.0861
-64.3085
-66.6109
-69.0844
-71.8183
-74.6878
-77.6968
-80.9142
-84.1438
-87.4035
-90.561
-93.4555
-95.9909
-97.9599
-99.1786
-99.5136
-98.8372
-97.0893
-94.5882
-57.9349
-59.2186
-60.7814
-62.4055
-64.2231
-66.2909
-68.528
-70.8462
-73.4425
-76.0374
-78.7238
-81.4488
-84.0118
-86.3666
-88.3952
-89.9258
-90.821
-90.9581
-90.2874
-88.9859
-58.3695
-59.07
-59.9958
-61.0445
-62.236
-63.5293
-65.1068
-66.7397
-68.5818
-70.4966
-72.4948
-74.6112
-76.6969
-78.7444
-80.6018
-82.1651
-83.3449
-83.9875
-84.0106
-83.4693
-57.6475
-57.9356
-58.4425
-59.0033
-59.8127
-60.6991
-61.7352
-62.9324
-64.2511
-65.7718
-67.3439
-69.0633
-70.7947
-72.5359
-74.2007
-75.6988
-76.9381
-77.8558
-78.3408
-78.3372
-57.5268
-57.5233
-57.6659
-57.869
-58.249
-58.789
-59.4488
-60.2475
-61.1232
-62.1967
-63.3888
-64.6343
-66.0025
-67.4315
-68.8555
-70.2376
-71.4733
-72.4929
-73.2481
-73.5347
-57.1626
-56.9141
-56.8337
-56.8011
-56.8826
-57.0754
-57.4205
-57.9316
-58.5034
-59.2314
-60.1008
-61.0634
-62.1217
-63.263
-64.4438
-65.6443
-66.7803
-67.8306
-68.7264
-69.1539
-56.9843
-56.5374
-56.2047
-55.9496
-55.8323
-55.8153
-55.8993
-56.1355
-56.4176
-56.88
-57.4393
-58.1173
-58.8907
-59.7963
-60.7405
-61.7611
-62.777
-63.7702
-64.6946
-65.1312
-56.7361
-56.1463
-55.7042
-55.2802
-55.0216
-54.8006
-54.6756
-54.6903
-54.7769
-54.9897
-55.3301
-55.7748
-56.3092
-56.9709
-57.7009
-58.5149
-59.3746
-60.2748
-61.1502
-61.4714
-56.5505
-55.8631
-55.3137
-54.7722
-54.3427
-54.0086
-53.7509
-53.5812
-53.5046
-53.5389
-53.6549
-53.8682
-54.1997
-54.6453
-55.1952
-55.8243
-56.5453
-57.3224
-58.1267
-58.3315
-56.3439
-55.5988
-54.9725
-54.3883
-53.8564
-53.4111
-53.0664
-52.752
-52.5227
-52.4168
-52.3745
-52.4179
-52.5992
-52.8258
-53.2054
-53.6376
-54.1792
-54.8274
-55.5295
-55.5599
-56.1771
-55.3984
-54.7392
-54.0923
-53.5351
-52.9743
-52.5796
-52.1515
-51.8359
-51.5924
-51.425
-51.3345
-51.3243
-51.4179
-51.5936
-51.8863
-52.287
-52.7607
-53.3063
-53.0775
-55.9972
-55.2103
-54.5553
-53.8818
-53.2805
-52.7077
-52.2164
-51.7466
-51.3664
-51.0514
-50.7333
-50.5697
-50.4239
-50.4018
-50.4061
-50.5404
-50.7721
-51.1117
-51.4639
-51.0803
-55.8347
-55.0633
-54.3891
-53.7414
-53.1093
-52.5426
-51.998
-51.4888
-51.0494
-50.6882
-50.3038
-50.0337
-49.7961
-49.6425
-49.5321
-49.5265
-49.5681
-49.7373
-49.9142
-49.5602
-55.673
-54.949
-54.2799
-53.6039
-53.0041
-52.4009
-51.8496
-51.3367
-50.8642
-50.4432
-50.0667
-49.7014
-49.4284
-49.152
-48.9578
-48.8257
-48.7271
-48.7042
-48.7022
-48.3352
-55.4615
-54.7824
-54.1619
-53.5055
-52.929
-52.2893
-51.7425
-51.2309
-50.7962
-50.3575
-50.0284
-49.6065
-49.2772
-48.9647
-48.6668
-48.4389
-48.2345
-48.0789
-47.9551
-47.7642
-55.5814
-54.814
-54.193
-53.6273
-52.8803
-52.4365
-51.4046
-50.9644
-50.5759
-50.2597
-49.7883
-49.5351
-49.0028
-48.3778
-48.3863
-48.0348
-47.7157
-47.4827
-47.342
-47.5815
-146.174
-145.057
-144.045
-143.092
-142.211
-141.405
-140.675
-140.011
-139.442
-139.088
-139.039
-139.266
-139.679
-140.222
-140.927
-141.96
-143.521
-145.581
-147.64
-148.761
-144.393
-142.658
-141.043
-139.494
-138.088
-136.874
-135.961
-135.56
-135.791
-136.62
-137.996
-139.973
-142.664
-146.079
-150.062
-154.279
-158.175
-161.096
-162.583
-162.528
-142.905
-140.744
-138.756
-136.803
-134.989
-133.499
-132.566
-132.342
-132.877
-134.086
-135.774
-137.735
-139.751
-141.596
-143.076
-144.071
-144.571
-144.646
-144.399
-144.002
-141.621
-139.122
-136.835
-134.594
-132.715
-131.54
-131.299
-131.988
-133.379
-135.14
-136.948
-138.579
-139.917
-140.916
-141.591
-141.99
-142.181
-142.209
-142.124
-141.984
-140.492
-137.808
-135.444
-133.409
-132.159
-131.91
-132.538
-133.691
-135.019
-136.279
-137.347
-138.174
-138.767
-139.154
-139.375
-139.465
-139.454
-139.373
-139.235
-139.066
-139.61
-137.024
-135.012
-133.697
-133.331
-133.734
-134.569
-135.554
-136.513
-137.356
-138.042
-138.564
-138.932
-139.165
-139.284
-139.307
-139.251
-139.133
-138.962
-138.751
-139.218
-137.013
-135.67
-135.112
-135.24
-135.768
-136.471
-137.202
-137.874
-138.439
-138.878
-139.193
-139.393
-139.492
-139.501
-139.434
-139.302
-139.11
-138.863
-138.571
-139.327
-137.791
-137.091
-136.972
-137.251
-137.74
-138.308
-138.867
-139.361
-139.767
-140.075
-140.285
-140.4
-140.432
-140.383
-140.262
-140.072
-139.819
-139.505
-139.141
-140.118
-139.127
-138.842
-138.921
-139.235
-139.667
-140.128
-140.564
-140.941
-141.24
-141.454
-141.585
-141.635
-141.605
-141.501
-141.326
-141.081
-140.772
-140.399
-139.967
-141.422
-140.777
-140.711
-140.881
-141.194
-141.574
-141.959
-142.311
-142.608
-142.838
-142.997
-143.076
-143.08
-143.008
-142.862
-142.645
-142.36
-142.004
-141.584
-141.101
-142.783
-142.525
-142.599
-142.82
-143.127
-143.466
-143.797
-144.094
-144.337
-144.516
-144.627
-144.669
-144.639
-144.534
-144.358
-144.11
-143.792
-143.405
-142.95
-142.429
-144.591
-144.373
-144.513
-144.753
-145.046
-145.352
-145.64
-145.894
-146.1
-146.248
-146.33
-146.343
-146.285
-146.157
-145.958
-145.688
-145.348
-144.94
-144.464
-143.924
-146.257
-146.23
-146.419
-146.667
-146.943
-147.222
-147.483
-147.706
-147.88
-147.999
-148.057
-148.051
-147.978
-147.835
-147.621
-147.341
-146.992
-146.576
-146.091
-145.543
-147.934
-148.055
-148.29
-148.547
-148.815
-149.076
-149.312
-149.513
-149.669
-149.771
-149.814
-149.794
-149.708
-149.558
-149.341
-149.057
-148.706
-148.289
-147.808
-147.265
-149.682
-149.931
-150.167
-150.414
-150.667
-150.908
-151.125
-151.306
-151.441
-151.528
-151.559
-151.532
-151.444
-151.293
-151.079
-150.801
-150.46
-150.057
-149.59
-149.063
-151.496
-151.787
-152.041
-152.277
-152.509
-152.732
-152.933
-153.101
-153.229
-153.308
-153.335
-153.306
-153.219
-153.072
-152.865
-152.598
-152.271
-151.884
-151.436
-150.932
-153.677
-153.727
-153.936
-154.132
-154.321
-154.507
-154.677
-154.82
-154.925
-154.989
-155.009
-154.981
-154.904
-154.773
-154.588
-154.347
-154.048
-153.692
-153.28
-152.813
-155.122
-155.636
-155.858
-156.04
-156.218
-156.402
-156.587
-156.755
-156.882
-156.953
-156.969
-156.931
-156.839
-156.698
-156.508
-156.267
-155.977
-155.636
-155.246
-154.813
-157.164
-157.266
-157.402
-157.476
-157.505
-157.58
-157.669
-157.751
-157.822
-157.865
-157.91
-157.972
-157.992
-157.963
-157.881
-157.754
-157.561
-157.288
-156.942
-156.584
-160.292
-160.535
-161.261
-161.392
-160.819
-161.141
-161.904
-162.796
-162.996
-162.75
-162.037
-161.621
-161.338
-161.048
-160.64
-160.253
-159.882
-159.48
-159.248
-159.18
-147.751
-145.091
-142.206
-139.684
-137.565
-135.75
-134.125
-132.587
-131.079
-129.557
-127.974
-126.297
-124.528
-122.684
-120.797
-118.898
-117.023
-115.192
-113.462
-112.23
-161.238
-158.81
-155.25
-151.027
-146.711
-142.841
-139.711
-137.239
-135.117
-133.103
-131.108
-129.116
-127.119
-125.113
-123.107
-121.123
-119.185
-117.304
-115.504
-114.183
-143.592
-143.083
-142.324
-141.259
-139.895
-138.295
-136.578
-134.878
-133.281
-131.801
-130.399
-129.008
-127.564
-126.026
-124.385
-122.662
-120.903
-119.146
-117.428
-116.077
-141.8
-141.522
-141.085
-140.499
-139.731
-138.773
-137.613
-136.262
-134.758
-133.16
-131.532
-129.925
-128.361
-126.834
-125.317
-123.785
-122.233
-120.672
-119.13
-117.873
-138.883
-138.64
-138.298
-137.865
-137.338
-136.707
-135.956
-135.081
-134.075
-132.94
-131.686
-130.34
-128.93
-127.496
-126.068
-124.665
-123.291
-121.935
-120.608
-119.54
-138.506
-138.201
-137.824
-137.375
-136.852
-136.249
-135.561
-134.78
-133.9
-132.918
-131.835
-130.657
-129.401
-128.091
-126.764
-125.461
-124.217
-123.037
-121.921
-121.022
-138.24
-137.864
-137.432
-136.949
-136.416
-135.827
-135.183
-134.474
-133.697
-132.845
-131.914
-130.902
-129.812
-128.657
-127.464
-126.274
-125.136
-124.087
-123.144
-122.389
-138.731
-138.273
-137.77
-137.229
-136.646
-136.024
-135.36
-134.65
-133.894
-133.088
-132.227
-131.308
-130.331
-129.302
-128.235
-127.16
-126.124
-125.177
-124.364
-123.734
-139.483
-138.958
-138.394
-137.797
-137.167
-136.506
-135.816
-135.097
-134.347
-133.565
-132.748
-131.893
-131
-130.071
-129.115
-128.152
-127.217
-126.363
-125.645
-125.111
-140.566
-139.986
-139.369
-138.722
-138.047
-137.347
-136.624
-135.881
-135.118
-134.336
-133.536
-132.715
-131.875
-131.017
-130.148
-129.28
-128.44
-127.669
-127.023
-126.547
-141.854
-141.235
-140.583
-139.899
-139.189
-138.457
-137.705
-136.94
-136.163
-135.375
-134.58
-133.779
-132.973
-132.165
-131.36
-130.569
-129.809
-129.113
-128.526
-128.095
-143.327
-142.685
-142.007
-141.3
-140.567
-139.812
-139.042
-138.259
-137.468
-136.673
-135.878
-135.087
-134.302
-133.529
-132.772
-132.04
-131.348
-130.718
-130.187
-129.821
-144.938
-144.288
-143.601
-142.885
-142.141
-141.377
-140.596
-139.804
-139.006
-138.208
-137.415
-136.631
-135.861
-135.112
-134.389
-133.702
-133.06
-132.48
-131.988
-131.674
-146.665
-146.021
-145.339
-144.625
-143.885
-143.122
-142.342
-141.552
-140.756
-139.961
-139.172
-138.397
-137.64
-136.91
-136.214
-135.56
-134.958
-134.419
-133.968
-133.737
-148.48
-147.852
-147.187
-146.49
-145.764
-145.015
-144.25
-143.473
-142.69
-141.909
-141.134
-140.374
-139.635
-138.926
-138.255
-137.632
-137.067
-136.572
-136.175
-136.042
-150.375
-149.775
-149.136
-148.464
-147.764
-147.041
-146.301
-145.549
-144.79
-144.032
-143.279
-142.54
-141.821
-141.131
-140.477
-139.869
-139.313
-138.815
-138.391
-138.215
-152.295
-151.733
-151.132
-150.5
-149.838
-149.153
-148.451
-147.738
-147.018
-146.298
-145.583
-144.879
-144.193
-143.534
-142.91
-142.332
-141.806
-141.338
-140.953
-140.854
-154.332
-153.801
-153.235
-152.642
-152.023
-151.383
-150.729
-150.069
-149.402
-148.735
-148.069
-147.411
-146.766
-146.141
-145.545
-144.986
-144.46
-143.969
-143.545
-143.402
-156.177
-155.71
-155.227
-154.725
-154.171
-153.55
-152.939
-152.347
-151.758
-151.184
-150.589
-149.994
-149.399
-148.82
-148.27
-147.774
-147.291
-146.835
-146.483
-146.439
-159.095
-158.267
-157.431
-156.801
-156.243
-155.948
-155.481
-155.186
-154.677
-154.192
-153.649
-153.09
-152.549
-152.073
-151.691
-151.379
-150.816
-150.216
-149.946
-149.727
392.686
388.295
381.228
372.743
363.38
352.959
340.379
325.351
307.744
287.609
264.777
239.386
211.578
181.769
150.899
119.975
90.1461
62.5578
37.5045
14.1965
11.5728
12.4101
13.8704
15.7464
17.8942
19.8339
21.3948
23.1307
25.1978
27.444
29.7448
31.9976
33.9997
35.4349
35.8449
34.6717
31.3826
25.6146
17.1529
5.69464
49.6299
49.6492
49.7244
49.8802
50.0781
50.157
50.1094
49.9366
49.5069
48.6866
47.3471
45.3548
42.5818
38.9283
34.3406
28.8172
22.4033
15.1636
7.08913
-2.09521
16.9819
16.9985
17.0713
17.2007
17.3061
17.2788
17.1764
17.0248
16.7958
16.4558
15.9619
15.247
14.224
12.7726
10.743
7.96818
4.29313
-0.377869
-6.05438
-12.8339
-24.5935
-24.5482
-24.4005
-24.0846
-23.6517
-23.1315
-22.5316
-21.8582
-21.125
-20.3542
-19.5752
-18.8332
-18.185
-17.714
-17.5274
-17.7677
-18.6056
-20.2139
-22.693
-26.2319
-47.8733
-47.8067
-47.6423
-47.3313
-46.8714
-46.3056
-45.6426
-44.8799
-44.0208
-43.0757
-42.0643
-41.0128
-39.9606
-38.9623
-38.0943
-37.4549
-37.169
-37.367
-38.0967
-39.4988
-68.0208
-67.959
-67.8064
-67.4989
-67.0371
-66.4538
-65.7551
-64.9348
-63.9866
-62.9105
-61.7121
-60.4034
-59.0047
-57.5531
-56.1039
-54.734
-53.5502
-52.6729
-52.1581
-52.0125
-84.8425
-84.7853
-84.6457
-84.3628
-83.9212
-83.3451
-82.6493
-81.8214
-80.8517
-79.733
-78.4606
-77.0362
-75.4654
-73.767
-71.9738
-70.14
-68.3466
-66.6944
-65.2836
-64.4046
-98.1852
-98.1312
-98.0104
-97.7572
-97.3509
-96.8111
-96.1465
-95.3507
-94.4093
-93.311
-92.0481
-90.6119
-89.0011
-87.2204
-85.2859
-83.2309
-81.1113
-79.007
-77.002
-75.1896
-109.009
-108.965
-108.856
-108.633
-108.267
-107.769
-107.149
-106.398
-105.504
-104.453
-103.231
-101.826
-100.23
-98.437
-96.4516
-94.2894
-91.9812
-89.5862
-87.2036
-84.9237
-117.973
-117.931
-117.837
-117.64
-117.31
-116.854
-116.279
-115.579
-114.739
-113.745
-112.58
-111.23
-109.681
-107.922
-105.948
-103.761
-101.377
-98.8279
-96.2108
-93.8621
-125.327
-125.292
-125.208
-125.034
-124.74
-124.328
-123.802
-123.156
-122.375
-121.445
-120.348
-119.069
-117.589
-115.894
-113.97
-111.811
-109.417
-106.808
-104.055
-101.278
-131.471
-131.438
-131.366
-131.211
-130.949
-130.576
-130.096
-129.5
-128.777
-127.911
-126.884
-125.681
-124.282
-122.67
-120.829
-118.748
-116.422
-113.861
-111.16
-108.753
-136.545
-136.518
-136.453
-136.316
-136.08
-135.742
-135.302
-134.754
-134.086
-133.281
-132.323
-131.193
-129.872
-128.34
-126.578
-124.568
-122.294
-119.748
-116.962
-114.157
-140.781
-140.756
-140.699
-140.577
-140.365
-140.059
-139.658
-139.155
-138.538
-137.791
-136.897
-135.839
-134.598
-133.152
-131.481
-129.565
-127.385
-124.93
-122.222
-119.483
-144.278
-144.257
-144.206
-144.098
-143.908
-143.631
-143.267
-142.807
-142.238
-141.548
-140.718
-139.733
-138.572
-137.215
-135.641
-133.827
-131.755
-129.409
-126.797
-124.096
-147.166
-147.148
-147.103
-147.006
-146.834
-146.583
-146.249
-145.825
-145.3
-144.66
-143.889
-142.968
-141.881
-140.605
-139.118
-137.399
-135.425
-133.175
-130.645
-127.946
-149.498
-149.482
-149.443
-149.356
-149.201
-148.972
-148.667
-148.278
-147.794
-147.202
-146.485
-145.627
-144.61
-143.412
-142.013
-140.388
-138.513
-136.366
-133.938
-131.314
-151.363
-151.349
-151.315
-151.236
-151.096
-150.889
-150.61
-150.254
-149.81
-149.262
-148.597
-147.799
-146.849
-145.729
-144.417
-142.889
-141.121
-139.092
-136.786
-134.283
-152.783
-152.772
-152.741
-152.672
-152.545
-152.357
-152.103
-151.777
-151.369
-150.864
-150.249
-149.508
-148.624
-147.579
-146.35
-144.913
-143.244
-141.318
-139.118
-136.692
-153.836
-153.827
-153.801
-153.738
-153.624
-153.452
-153.22
-152.921
-152.545
-152.081
-151.513
-150.827
-150.007
-149.036
-147.892
-146.553
-144.995
-143.189
-141.122
-138.9
-154.447
-154.44
-154.418
-154.365
-154.264
-154.111
-153.904
-153.638
-153.301
-152.883
-152.37
-151.747
-151
-150.111
-149.062
-147.831
-146.393
-144.724
-142.801
-140.726
-154.62
-154.615
-154.598
-154.553
-154.467
-154.337
-154.159
-153.928
-153.636
-153.271
-152.82
-152.269
-151.604
-150.808
-149.862
-148.744
-147.432
-145.898
-144.113
-142.124
-154.621
-154.618
-154.603
-154.565
-154.492
-154.379
-154.223
-154.022
-153.765
-153.443
-153.044
-152.555
-151.962
-151.249
-150.398
-149.387
-148.192
-146.788
-145.14
-143.265
-154.561
-154.558
-154.546
-154.513
-154.449
-154.349
-154.212
-154.034
-153.806
-153.519
-153.163
-152.726
-152.193
-151.551
-150.782
-149.866
-148.78
-147.499
-145.992
-144.256
-154.411
-154.409
-154.398
-154.37
-154.314
-154.227
-154.107
-153.949
-153.748
-153.495
-153.179
-152.789
-152.311
-151.734
-151.04
-150.21
-149.222
-148.052
-146.674
-145.081
-154.299
-154.297
-154.287
-154.261
-154.211
-154.132
-154.023
-153.88
-153.697
-153.467
-153.179
-152.824
-152.389
-151.862
-151.228
-150.469
-149.565
-148.493
-147.23
-145.788
-154.132
-154.13
-154.122
-154.1
-154.056
-153.985
-153.888
-153.761
-153.597
-153.39
-153.13
-152.808
-152.411
-151.929
-151.347
-150.648
-149.812
-148.816
-147.628
-146.245
-154.003
-154.001
-153.993
-153.973
-153.932
-153.868
-153.779
-153.662
-153.512
-153.322
-153.083
-152.787
-152.422
-151.978
-151.44
-150.794
-150.019
-149.094
-147.988
-146.681
-153.87
-153.869
-153.862
-153.844
-153.807
-153.749
-153.668
-153.562
-153.426
-153.252
-153.034
-152.762
-152.428
-152.019
-151.523
-150.926
-150.21
-149.353
-148.332
-147.127
-153.789
-153.787
-153.781
-153.764
-153.729
-153.675
-153.6
-153.501
-153.374
-153.212
-153.009
-152.757
-152.446
-152.066
-151.605
-151.051
-150.386
-149.592
-148.647
-147.548
-153.691
-153.69
-153.684
-153.668
-153.636
-153.587
-153.518
-153.427
-153.31
-153.161
-152.974
-152.741
-152.453
-152.099
-151.67
-151.152
-150.529
-149.783
-148.893
-147.855
-153.611
-153.61
-153.605
-153.59
-153.561
-153.516
-153.452
-153.368
-153.259
-153.121
-152.948
-152.731
-152.462
-152.132
-151.731
-151.246
-150.664
-149.965
-149.131
-148.175
-153.559
-153.557
-153.552
-153.539
-153.512
-153.469
-153.409
-153.331
-153.23
-153.101
-152.939
-152.736
-152.484
-152.174
-151.797
-151.341
-150.792
-150.134
-149.343
-148.429
-153.524
-153.523
-153.518
-153.505
-153.48
-153.441
-153.385
-153.312
-153.217
-153.096
-152.944
-152.753
-152.516
-152.225
-151.869
-151.439
-150.92
-150.297
-149.546
-148.668
-153.505
-153.504
-153.5
-153.488
-153.464
-153.427
-153.375
-153.307
-153.218
-153.105
-152.962
-152.783
-152.56
-152.286
-151.951
-151.545
-151.055
-150.467
-149.759
-148.924
-153.531
-153.53
-153.526
-153.514
-153.492
-153.456
-153.406
-153.341
-153.256
-153.148
-153.012
-152.841
-152.629
-152.368
-152.049
-151.662
-151.196
-150.635
-149.963
-149.167
-153.55
-153.549
-153.545
-153.534
-153.514
-153.48
-153.434
-153.373
-153.294
-153.193
-153.065
-152.904
-152.704
-152.458
-152.155
-151.788
-151.345
-150.812
-150.174
-149.434
-153.611
-153.61
-153.606
-153.596
-153.576
-153.544
-153.499
-153.44
-153.364
-153.267
-153.145
-152.991
-152.8
-152.565
-152.276
-151.925
-151.501
-150.99
-150.377
-149.664
-153.677
-153.675
-153.671
-153.662
-153.643
-153.613
-153.571
-153.515
-153.443
-153.352
-153.236
-153.09
-152.909
-152.684
-152.408
-152.071
-151.664
-151.172
-150.578
-149.885
-153.772
-153.771
-153.767
-153.758
-153.74
-153.711
-153.671
-153.618
-153.55
-153.462
-153.352
-153.212
-153.039
-152.824
-152.561
-152.24
-151.853
-151.387
-150.828
-150.194
-153.88
-153.879
-153.876
-153.867
-153.85
-153.823
-153.785
-153.734
-153.669
-153.586
-153.481
-153.348
-153.183
-152.978
-152.726
-152.419
-152.047
-151.599
-151.059
-150.434
-154.012
-154.011
-154.007
-153.999
-153.982
-153.956
-153.92
-153.872
-153.81
-153.73
-153.629
-153.501
-153.342
-153.144
-152.9
-152.603
-152.242
-151.805
-151.274
-150.646
-154.176
-154.174
-154.171
-154.163
-154.147
-154.122
-154.087
-154.04
-153.98
-153.903
-153.805
-153.682
-153.528
-153.337
-153.102
-152.816
-152.469
-152.05
-151.543
-150.947
-154.357
-154.356
-154.353
-154.345
-154.329
-154.305
-154.271
-154.226
-154.168
-154.094
-153.999
-153.88
-153.732
-153.547
-153.321
-153.044
-152.708
-152.302
-151.81
-151.192
-154.545
-154.544
-154.54
-154.533
-154.519
-154.496
-154.464
-154.421
-154.366
-154.296
-154.206
-154.093
-153.95
-153.774
-153.557
-153.292
-152.971
-152.585
-152.126
-151.591
-154.771
-154.77
-154.767
-154.76
-154.746
-154.723
-154.692
-154.65
-154.595
-154.526
-154.438
-154.327
-154.188
-154.015
-153.802
-153.542
-153.225
-152.841
-152.374
-151.775
-155.021
-155.02
-155.017
-155.01
-154.996
-154.974
-154.943
-154.902
-154.848
-154.78
-154.693
-154.584
-154.447
-154.277
-154.068
-153.811
-153.498
-153.119
-152.66
-152.083
-155.268
-155.266
-155.264
-155.257
-155.244
-155.223
-155.194
-155.155
-155.104
-155.04
-154.957
-154.853
-154.722
-154.559
-154.357
-154.109
-153.808
-153.443
-153.005
-152.454
-155.565
-155.564
-155.561
-155.554
-155.541
-155.521
-155.492
-155.453
-155.403
-155.339
-155.257
-155.154
-155.025
-154.865
-154.667
-154.425
-154.129
-153.77
-153.337
-152.777
-155.868
-155.867
-155.864
-155.858
-155.845
-155.825
-155.798
-155.76
-155.713
-155.651
-155.572
-155.473
-155.347
-155.19
-154.997
-154.758
-154.467
-154.114
-153.689
-153.141
-156.197
-156.196
-156.193
-156.187
-156.175
-156.156
-156.129
-156.094
-156.047
-155.987
-155.911
-155.814
-155.691
-155.538
-155.348
-155.114
-154.829
-154.481
-154.063
-153.521
-156.579
-156.578
-156.575
-156.569
-156.557
-156.538
-156.511
-156.475
-156.429
-156.369
-156.292
-156.195
-156.073
-155.92
-155.732
-155.499
-155.215
-154.869
-154.453
-153.918
-156.978
-156.977
-156.974
-156.968
-156.957
-156.938
-156.912
-156.877
-156.832
-156.773
-156.698
-156.602
-156.482
-156.33
-156.143
-155.912
-155.629
-155.284
-154.867
-154.338
-157.412
-157.411
-157.408
-157.402
-157.391
-157.372
-157.347
-157.312
-157.267
-157.209
-157.135
-157.04
-156.92
-156.77
-156.583
-156.352
-156.069
-155.723
-155.301
-154.741
-157.884
-157.883
-157.88
-157.875
-157.864
-157.846
-157.82
-157.786
-157.742
-157.684
-157.61
-157.516
-157.396
-157.246
-157.059
-156.829
-156.547
-156.202
-155.785
-155.227
-158.405
-158.404
-158.401
-158.395
-158.384
-158.366
-158.34
-158.306
-158.261
-158.203
-158.128
-158.033
-157.913
-157.761
-157.573
-157.341
-157.055
-156.707
-156.289
-155.725
-158.963
-158.962
-158.959
-158.953
-158.942
-158.924
-158.899
-158.865
-158.82
-158.761
-158.686
-158.59
-158.467
-158.314
-158.122
-157.886
-157.595
-157.239
-156.812
-156.27
-159.555
-159.555
-159.553
-159.547
-159.536
-159.518
-159.493
-159.459
-159.414
-159.355
-159.279
-159.182
-159.058
-158.901
-158.705
-158.462
-158.161
-157.791
-157.341
-156.754
-160.234
-160.234
-160.231
-160.225
-160.214
-160.195
-160.169
-160.133
-160.086
-160.025
-159.945
-159.843
-159.713
-159.549
-159.343
-159.087
-158.771
-158.382
-157.91
-157.306
-160.957
-160.957
-160.955
-160.949
-160.937
-160.919
-160.893
-160.857
-160.809
-160.745
-160.663
-160.558
-160.422
-160.25
-160.034
-159.764
-159.431
-159.021
-158.523
-157.888
-161.805
-161.804
-161.802
-161.795
-161.782
-161.761
-161.731
-161.691
-161.638
-161.568
-161.478
-161.362
-161.213
-161.026
-160.791
-160.499
-160.14
-159.7
-159.169
-158.492
-162.707
-162.707
-162.704
-162.698
-162.684
-162.662
-162.63
-162.586
-162.528
-162.451
-162.353
-162.225
-162.063
-161.857
-161.599
-161.279
-160.886
-160.407
-159.83
-159.103
-163.69
-163.69
-163.687
-163.679
-163.663
-163.638
-163.602
-163.552
-163.487
-163.402
-163.291
-163.148
-162.967
-162.737
-162.45
-162.094
-161.657
-161.126
-160.49
-159.699
-164.74
-164.74
-164.737
-164.728
-164.71
-164.681
-164.64
-164.585
-164.51
-164.413
-164.288
-164.126
-163.92
-163.661
-163.336
-162.936
-162.447
-161.854
-161.147
-160.285
-165.86
-165.86
-165.856
-165.846
-165.825
-165.792
-165.744
-165.679
-165.593
-165.481
-165.336
-165.15
-164.914
-164.617
-164.246
-163.789
-163.234
-162.566
-161.775
-160.818
-167.036
-167.035
-167.032
-167.019
-166.994
-166.955
-166.899
-166.823
-166.722
-166.59
-166.42
-166.203
-165.928
-165.581
-165.151
-164.623
-163.984
-163.219
-162.32
-161.237
-168.266
-168.266
-168.26
-168.245
-168.215
-168.167
-168.099
-168.007
-167.886
-167.727
-167.524
-167.264
-166.936
-166.526
-166.019
-165.399
-164.655
-163.773
-162.75
-161.537
-169.536
-169.535
-169.529
-169.51
-169.472
-169.412
-169.327
-169.212
-169.062
-168.867
-168.616
-168.299
-167.9
-167.404
-166.794
-166.056
-165.178
-164.151
-162.981
-161.623
-170.788
-170.787
-170.778
-170.753
-170.703
-170.625
-170.514
-170.367
-170.174
-169.926
-169.611
-169.213
-168.717
-168.106
-167.364
-166.477
-165.437
-164.245
-162.92
-161.445
-171.965
-171.962
-171.95
-171.916
-171.848
-171.742
-171.593
-171.396
-171.141
-170.815
-170.404
-169.891
-169.258
-168.489
-167.568
-166.487
-165.246
-163.86
-162.364
-160.765
-172.694
-172.69
-172.672
-172.623
-172.526
-172.375
-172.166
-171.893
-171.543
-171.103
-170.556
-169.885
-169.073
-168.105
-166.974
-165.68
-164.239
-162.684
-161.077
-159.463
-172.919
-172.912
-172.886
-172.813
-172.668
-172.442
-172.135
-171.743
-171.25
-170.64
-169.893
-168.992
-167.926
-166.688
-165.288
-163.747
-162.11
-160.437
-158.818
-157.338
-169.925
-169.92
-169.888
-169.797
-169.616
-169.319
-168.891
-168.325
-167.627
-166.794
-165.824
-164.716
-163.477
-162.121
-160.677
-159.188
-157.709
-156.311
-155.072
-154.099
-164.6
-164.597
-164.485
-164.218
-163.81
-163.292
-162.686
-162.009
-161.235
-160.319
-159.228
-157.974
-156.599
-155.168
-153.762
-152.465
-151.361
-150.525
-150.002
-149.852
-482.111
-475.325
-465.555
-456.61
-447.684
-436.779
-423.449
-407.804
-389.886
-369.598
-347.008
-322.328
-295.938
-268.479
-240.817
-213.945
-188.791
-166.102
-146.266
-130.03
-141.924
-142.194
-142.41
-142.606
-142.78
-142.905
-143.143
-143.696
-144.521
-145.587
-146.819
-148.061
-149.127
-149.798
-149.731
-148.45
-145.446
-140.374
-133.229
-125.144
-180.203
-180.212
-180.231
-180.248
-180.248
-180.168
-179.871
-179.251
-178.194
-176.567
-174.245
-171.128
-167.162
-162.349
-156.744
-150.438
-143.554
-136.23
-128.504
-120.824
-136.49
-136.491
-136.485
-136.454
-136.365
-136.208
-136.026
-135.823
-135.599
-135.336
-135.019
-134.611
-134.046
-133.218
-131.978
-130.146
-127.544
-124.028
-119.493
-114.489
-132.327
-132.326
-132.325
-132.328
-132.331
-132.323
-132.275
-132.158
-131.933
-131.546
-130.92
-129.972
-128.627
-126.84
-124.599
-121.927
-118.853
-115.384
-111.448
-107.118
-115.49
-115.48
-115.469
-115.452
-115.425
-115.378
-115.308
-115.216
-115.096
-114.937
-114.719
-114.408
-113.956
-113.284
-112.302
-110.917
-109.052
-106.662
-103.729
-100.405
-107.413
-107.401
-107.389
-107.377
-107.367
-107.356
-107.337
-107.294
-107.214
-107.081
-106.87
-106.549
-106.073
-105.386
-104.426
-103.136
-101.472
-99.4122
-96.9543
-93.912
-97.2542
-97.2398
-97.2231
-97.2032
-97.1829
-97.1604
-97.1313
-97.0879
-97.028
-96.9445
-96.8287
-96.6647
-96.4278
-96.0797
-95.5631
-94.8063
-93.7359
-92.2992
-90.4962
-88.3716
-89.9314
-89.9166
-89.8993
-89.8801
-89.8624
-89.8474
-89.8322
-89.8077
-89.7648
-89.6988
-89.6003
-89.4569
-89.249
-88.9488
-88.5172
-87.9035
-87.051
-85.9152
-84.4867
-82.5895
-82.618
-82.6022
-82.583
-82.5624
-82.5414
-82.5232
-82.5062
-82.4831
-82.4493
-82.4022