/*--------------------------------*- C++ -*----------------------------------*\
| =========                 |                                                 |
| \\      /  F ield         | OpenFOAM: The Open Source CFD Toolbox           |
|  \\    /   O peration     | Version:  2.3.0                                 |
|   \\  /    A nd           | Web:      www.OpenFOAM.org                      |
|    \\/     M anipulation  |                                                 |
\*---------------------------------------------------------------------------*/
FoamFile
{
    version     2.0;
    format      ascii;
    class       surfaceScalarField;
    location    "350";
    object      phi;
}
// * * * * * * * * * * * * * * * * * * * * * * * * * * * * * * * * * * * * * //

dimensions      [0 3 -1 0 0 0 0];

internalField   nonuniform List<scalar> 
56247
(
2.9778e-05
-0.000123876
0.000128059
-3.39771e-05
2.71268e-05
-9.93884e-05
0.000102041
2.58663e-05
-7.98943e-05
8.11553e-05
2.58168e-05
-6.44722e-05
6.45227e-05
2.67815e-05
-5.23244e-05
5.13603e-05
2.85324e-05
-4.27826e-05
4.10319e-05
3.08285e-05
-3.5258e-05
3.29621e-05
3.34835e-05
-2.93383e-05
2.66833e-05
3.62858e-05
-2.45929e-05
2.17907e-05
3.91401e-05
-2.0803e-05
1.79488e-05
4.19519e-05
-1.77289e-05
1.49171e-05
4.46964e-05
-1.52251e-05
1.24806e-05
4.73391e-05
-1.31586e-05
1.05159e-05
4.99061e-05
-1.14608e-05
8.8938e-06
5.23758e-05
-1.00163e-05
7.54666e-06
5.4781e-05
-8.79996e-06
6.39471e-06
5.71556e-05
-7.80311e-06
5.42858e-06
5.95355e-05
-6.95211e-06
4.5722e-06
6.18762e-05
-6.1791e-06
3.8385e-06
-5.57363e-06
6.43607e-05
3.08921e-06
3.24507e-05
-0.00012012
-3.62045e-05
3.03673e-05
-9.7304e-05
2.96362e-05
-7.91624e-05
2.99554e-05
-6.47909e-05
3.10684e-05
-5.34371e-05
3.27288e-05
-4.44429e-05
3.48013e-05
-3.73304e-05
3.70914e-05
-3.16283e-05
3.95384e-05
-2.70399e-05
4.20401e-05
-2.33046e-05
4.45301e-05
-2.02189e-05
4.69923e-05
-1.76872e-05
4.93707e-05
-1.5537e-05
5.16818e-05
-1.37718e-05
5.38954e-05
-1.22299e-05
5.60822e-05
-1.09867e-05
5.81493e-05
-9.87014e-06
6.02047e-05
-9.00753e-06
6.22334e-05
-8.20776e-06
-7.54466e-06
6.42044e-05
3.45447e-05
-0.000116679
-3.79838e-05
3.27339e-05
-9.54925e-05
3.21592e-05
-7.85873e-05
3.25132e-05
-6.51446e-05
3.35367e-05
-5.44605e-05
3.50192e-05
-4.59253e-05
3.67706e-05
-3.90817e-05
3.86709e-05
-3.35286e-05
4.06083e-05
-2.89773e-05
4.2571e-05
-2.52673e-05
4.45366e-05
-2.21845e-05
4.644e-05
-1.95906e-05
4.83359e-05
-1.74329e-05
5.02234e-05
-1.56593e-05
5.20914e-05
-1.40979e-05
5.39627e-05
-1.2858e-05
5.58814e-05
-1.17888e-05
5.77564e-05
-1.08826e-05
5.96579e-05
-1.01092e-05
-9.49697e-06
6.16102e-05
3.61607e-05
-0.000113451
-3.9388e-05
3.43812e-05
-9.37127e-05
3.37159e-05
-7.79217e-05
3.38665e-05
-6.52949e-05
3.45805e-05
-5.51744e-05
3.56684e-05
-4.70131e-05
3.70036e-05
-4.04168e-05
3.84764e-05
-3.50014e-05
4.00634e-05
-3.05643e-05
4.17058e-05
-2.69096e-05
4.33822e-05
-2.38609e-05
4.51069e-05
-2.13153e-05
4.68502e-05
-1.91762e-05
4.86036e-05
-1.74127e-05
5.04464e-05
-1.59407e-05
5.22741e-05
-1.46858e-05
5.41141e-05
-1.36287e-05
5.60113e-05
-1.27798e-05
5.79438e-05
-1.20417e-05
-1.14347e-05
5.98816e-05
3.73736e-05
-0.000110235
-4.05889e-05
3.55102e-05
-9.18491e-05
3.46683e-05
-7.70796e-05
3.45647e-05
-6.51912e-05
3.49855e-05
-5.55952e-05
3.57772e-05
-4.78048e-05
3.67976e-05
-4.14372e-05
3.80256e-05
-3.62294e-05
3.93666e-05
-3.19053e-05
4.07823e-05
-2.83253e-05
4.22883e-05
-2.53669e-05
4.38739e-05
-2.29009e-05
4.55329e-05
-2.08351e-05
4.72155e-05
-1.90953e-05
4.89538e-05
-1.76789e-05
5.07469e-05
-1.64789e-05
5.2591e-05
-1.54729e-05
5.44766e-05
-1.46654e-05
5.63839e-05
-1.3949e-05
-1.33972e-05
5.83464e-05
3.82681e-05
-0.000106922
-4.15815e-05
3.62473e-05
-8.98282e-05
3.51849e-05
-7.60172e-05
3.48272e-05
-6.48334e-05
3.49779e-05
-5.57459e-05
3.54973e-05
-4.83242e-05
3.6296e-05
-4.22358e-05
3.729e-05
-3.72234e-05
3.84623e-05
-3.30776e-05
3.97672e-05
-2.96302e-05
4.11929e-05
-2.67926e-05
4.26924e-05
-2.44004e-05
4.42833e-05
-2.2426e-05
4.59577e-05
-2.07698e-05
4.76842e-05
-1.94053e-05
4.94731e-05
-1.82678e-05
5.13331e-05
-1.73329e-05
5.32087e-05
-1.6541e-05
5.51458e-05
-1.58861e-05
-1.53549e-05
5.71036e-05
3.88866e-05
-0.000103512
-4.2296e-05
3.66757e-05
-8.76173e-05
3.53901e-05
-7.47315e-05
3.47957e-05
-6.4239e-05
3.47206e-05
-5.56708e-05
3.50447e-05
-4.86483e-05
3.5669e-05
-4.28601e-05
3.65351e-05
-3.80895e-05
3.75842e-05
-3.41266e-05
3.88162e-05
-3.08622e-05
4.01523e-05
-2.81287e-05
4.16254e-05
-2.58735e-05
4.31898e-05
-2.39904e-05
4.48481e-05
-2.2428e-05
4.65824e-05
-2.11397e-05
4.8372e-05
-2.00574e-05
5.02068e-05
-1.91677e-05
5.21056e-05
-1.84398e-05
5.40521e-05
-1.78326e-05
-1.73242e-05
5.60214e-05
3.9296e-05
-9.98885e-05
-4.29199e-05
3.68812e-05
-8.52025e-05
3.5379e-05
-7.32293e-05
3.45813e-05
-6.34414e-05
3.43195e-05
-5.54089e-05
3.44741e-05
-4.88029e-05
3.49652e-05
-4.33512e-05
3.57173e-05
-3.88415e-05
3.66992e-05
-3.51086e-05
3.78602e-05
-3.20232e-05
3.9174e-05
-2.94425e-05
4.06225e-05
-2.7322e-05
4.2177e-05
-2.55449e-05
4.3827e-05
-2.4078e-05
4.55507e-05
-2.28634e-05
4.73495e-05
-2.18561e-05
4.92077e-05
-2.10259e-05
5.11171e-05
-2.03491e-05
5.30611e-05
-1.97767e-05
-1.93221e-05
5.5059e-05
3.94976e-05
-9.61032e-05
-4.32828e-05
3.68964e-05
-8.26013e-05
3.52061e-05
-7.15389e-05
3.42262e-05
-6.24615e-05
3.38074e-05
-5.49901e-05
3.38367e-05
-4.88323e-05
3.42248e-05
-4.37393e-05
3.49082e-05
-3.95249e-05
3.58336e-05
-3.6034e-05
3.6949e-05
-3.31385e-05
3.82472e-05
-3.07407e-05
3.96721e-05
-2.87469e-05
4.12215e-05
-2.70943e-05
4.28756e-05
-2.5732e-05
4.46072e-05
-2.45951e-05
4.64208e-05
-2.36697e-05
4.829e-05
-2.28951e-05
5.02034e-05
-2.22625e-05
5.2174e-05
-2.17474e-05
-2.13195e-05
5.41715e-05
3.95717e-05
-9.21322e-05
-4.35426e-05
3.6782e-05
-7.98116e-05
3.49159e-05
-6.96729e-05
3.37808e-05
-6.13263e-05
3.32318e-05
-5.44411e-05
3.31503e-05
-4.87507e-05
3.34553e-05
-4.40443e-05
3.40763e-05
-4.01459e-05
3.49572e-05
-3.69149e-05
3.60535e-05
-3.42348e-05
3.7326e-05
-3.20132e-05
3.87532e-05
-3.01741e-05
4.03034e-05
-2.86445e-05
4.19595e-05
-2.73882e-05
4.37016e-05
-2.63371e-05
4.55175e-05
-2.54857e-05
4.74007e-05
-2.47782e-05
4.93354e-05
-2.41973e-05
5.13087e-05
-2.37206e-05
-2.33413e-05
5.33304e-05
3.95258e-05
-8.79945e-05
-4.36635e-05
3.65589e-05
-7.68447e-05
3.45365e-05
-6.76505e-05
3.32647e-05
-6.00545e-05
3.2603e-05
-5.37794e-05
3.24367e-05
-4.85845e-05
3.26753e-05
-4.42829e-05
3.32474e-05
-4.0718e-05
3.40935e-05
-3.77609e-05
3.51676e-05
-3.53089e-05
3.64306e-05
-3.32763e-05
3.78532e-05
-3.15967e-05
3.94065e-05
-3.01978e-05
4.10658e-05
-2.90474e-05
4.28285e-05
-2.80998e-05
4.46519e-05
-2.73091e-05
4.65435e-05
-2.66698e-05
4.84925e-05
-2.61463e-05
5.04867e-05
-2.57147e-05
-2.53687e-05
5.25141e-05
3.93708e-05
-8.36951e-05
-4.36703e-05
3.62538e-05
-7.37276e-05
3.40812e-05
-6.54779e-05
3.26924e-05
-5.86657e-05
3.19352e-05
-5.30222e-05
3.16942e-05
-4.83434e-05
3.18755e-05
-4.44643e-05
3.24055e-05
-4.1248e-05
3.32256e-05
-3.8581e-05
3.4285e-05
-3.63683e-05
3.55444e-05
-3.45356e-05
3.69609e-05
-3.30133e-05
3.85186e-05
-3.17555e-05
4.01888e-05
-3.07177e-05
4.19499e-05
-2.98608e-05
4.37952e-05
-2.91545e-05
4.57033e-05
-2.85779e-05
4.76592e-05
-2.81022e-05
4.96668e-05
-2.77223e-05
-2.74084e-05
5.17065e-05
3.913e-05
-7.9244e-05
-4.3581e-05
3.58646e-05
-7.04622e-05
3.35786e-05
-6.3192e-05
3.20844e-05
-5.71715e-05
3.12376e-05
-5.21754e-05
3.09318e-05
-4.80376e-05
3.10633e-05
-4.45958e-05
3.15601e-05
-4.17448e-05
3.2357e-05
-3.93778e-05
3.34018e-05
-3.74131e-05
3.46502e-05
-3.5784e-05
3.60722e-05
-3.44352e-05
3.76321e-05
-3.33153e-05
3.93085e-05
-3.23941e-05
4.10806e-05
-3.1633e-05
4.29347e-05
-3.10085e-05
4.48502e-05
-3.04934e-05
4.68244e-05
-3.00765e-05
4.88392e-05
-2.97371e-05
-2.94654e-05
5.08961e-05
3.88145e-05
-7.46489e-05
-4.34095e-05
3.5422e-05
-6.70698e-05
3.30279e-05
-6.07978e-05
3.14425e-05
-5.55861e-05
3.05243e-05
-5.12571e-05
3.01552e-05
-4.76685e-05
3.0244e-05
-4.46847e-05
3.07106e-05
-4.22114e-05
3.14844e-05
-4.01516e-05
3.25179e-05
-3.84467e-05
3.3759e-05
-3.7025e-05
3.51782e-05
-3.58545e-05
3.67421e-05
-3.48792e-05
3.84256e-05
-3.40776e-05
4.02066e-05
-3.3414e-05
4.20674e-05
-3.28693e-05
4.39983e-05
-3.24243e-05
4.59807e-05
-3.2059e-05
4.80106e-05
-3.17669e-05
-3.15296e-05
5.00748e-05
3.84543e-05
-6.99211e-05
-4.31821e-05
3.49424e-05
-6.35579e-05
3.24392e-05
-5.82947e-05
3.07712e-05
-5.39181e-05
2.97863e-05
-5.02722e-05
2.93699e-05
-4.72521e-05
2.94229e-05
-4.47377e-05
2.98515e-05
-4.264e-05
3.0608e-05
-4.09081e-05
3.1623e-05
-3.94616e-05
3.28623e-05
-3.82644e-05
3.42808e-05
-3.72731e-05
3.5845e-05
-3.64434e-05
3.75322e-05
-3.57648e-05
3.93209e-05
-3.52027e-05
4.11922e-05
-3.47406e-05
4.31284e-05
-3.43605e-05
4.51241e-05
-3.40548e-05
4.71625e-05
-3.38053e-05
-3.36051e-05
4.9238e-05
3.80365e-05
-6.50628e-05
-4.28948e-05
3.44424e-05
-5.99637e-05
3.18466e-05
-5.56989e-05
3.01026e-05
-5.21741e-05
2.90556e-05
-4.92252e-05
2.85822e-05
-4.67787e-05
2.85912e-05
-4.47467e-05
2.90035e-05
-4.30523e-05
2.97362e-05
-4.16408e-05
3.07385e-05
-4.04639e-05
3.19681e-05
-3.9494e-05
3.33807e-05
-3.86857e-05
3.49454e-05
-3.80081e-05
3.66362e-05
-3.74556e-05
3.84293e-05
-3.69957e-05
4.03045e-05
-3.66158e-05
4.22532e-05
-3.63091e-05
4.42532e-05
-3.60547e-05
4.62998e-05
-3.58519e-05
-3.56888e-05
4.83835e-05
3.76088e-05
-6.01056e-05
-4.2566e-05
3.38963e-05
-5.62512e-05
3.1232e-05
-5.30346e-05
2.94086e-05
-5.03507e-05
2.83056e-05
-4.81223e-05
2.77942e-05
-4.62672e-05
2.77708e-05
-4.47232e-05
2.8146e-05
-4.34275e-05
2.88575e-05
-4.23524e-05
2.98543e-05
-4.14607e-05
3.10752e-05
-4.07148e-05
3.24809e-05
-4.00914e-05
3.40439e-05
-3.95711e-05
3.57322e-05
-3.91439e-05
3.75333e-05
-3.87968e-05
3.9412e-05
-3.84945e-05
4.13625e-05
-3.82596e-05
4.33712e-05
-3.80635e-05
4.54245e-05
-3.79052e-05
-3.77767e-05
4.75124e-05
3.71448e-05
-5.50531e-05
-4.21974e-05
3.33472e-05
-5.24536e-05
3.05973e-05
-5.02846e-05
2.87363e-05
-4.84897e-05
2.75827e-05
-4.69687e-05
2.70312e-05
-4.57158e-05
2.69562e-05
-4.46483e-05
2.73166e-05
-4.37879e-05
2.80055e-05
-4.30412e-05
2.89784e-05
-4.24337e-05
3.01803e-05
-4.19167e-05
3.15876e-05
-4.14987e-05
3.31448e-05
-4.11283e-05
3.48301e-05
-4.08292e-05
3.66216e-05
-4.05884e-05
3.85155e-05
-4.03883e-05
4.04602e-05
-4.02043e-05
4.24759e-05
-4.00791e-05
4.45295e-05
-3.99589e-05
-3.98748e-05
4.66277e-05
3.66605e-05
-4.99214e-05
-4.17922e-05
3.27882e-05
-4.85813e-05
2.99873e-05
-4.74837e-05
2.80447e-05
-4.6547e-05
2.68454e-05
-4.57694e-05
2.62543e-05
-4.51247e-05
2.61731e-05
-4.45671e-05
2.64815e-05
-4.40962e-05
2.71589e-05
-4.37186e-05
2.81166e-05
-4.33915e-05
2.93134e-05
-4.31135e-05
3.07014e-05
-4.28866e-05
3.22543e-05
-4.26812e-05
3.39471e-05
-4.25221e-05
3.57319e-05
-4.23731e-05
3.7606e-05
-4.22624e-05
3.95703e-05
-4.21687e-05
4.15802e-05
-4.2089e-05
4.3636e-05
-4.20148e-05
-4.19746e-05
4.57359e-05
3.61642e-05
-4.13582e-05
-4.47273e-05
3.22428e-05
-4.46599e-05
2.93702e-05
-4.46111e-05
2.73926e-05
-4.45694e-05
2.61502e-05
-4.45271e-05
2.55109e-05
-4.44853e-05
2.5386e-05
-4.44422e-05
2.56911e-05
-4.44013e-05
2.63362e-05
-4.43638e-05
2.72732e-05
-4.43285e-05
2.8454e-05
-4.42943e-05
2.98301e-05
-4.42627e-05
3.13778e-05
-4.42289e-05
3.305e-05
-4.41943e-05
3.48433e-05
-4.41663e-05
3.67207e-05
-4.41399e-05
3.86753e-05
-4.41233e-05
4.06868e-05
-4.41004e-05
4.2751e-05
-4.4079e-05
4.48438e-05
-4.40675e-05
6.63045e-05
-5.68295e-06
3.73921e-06
6.80709e-05
-6.59565e-06
4.82918e-06
6.96986e-05
-7.65441e-06
6.02685e-06
7.12339e-05
-9.0118e-06
7.4765e-06
7.26119e-05
-1.06252e-05
9.24722e-06
7.38311e-05
-1.26293e-05
1.14101e-05
7.4854e-05
-1.50747e-05
1.40518e-05
7.56192e-05
-1.80374e-05
1.72722e-05
7.60882e-05
-2.1658e-05
2.1189e-05
7.62052e-05
-2.6051e-05
2.59341e-05
7.59213e-05
-3.13752e-05
3.16591e-05
7.51802e-05
-3.77981e-05
3.85392e-05
7.39426e-05
-4.55358e-05
4.67733e-05
7.21748e-05
-5.48313e-05
5.65991e-05
6.985e-05
-6.59696e-05
6.82943e-05
6.69227e-05
-7.92845e-05
8.22118e-05
6.33054e-05
-9.51639e-05
9.87811e-05
5.8857e-05
-0.000114081
0.000118529
5.33675e-05
-0.000136601
0.000142091
-0.000163408
0.000170164
4.66114e-05
6.61461e-05
-7.62467e-06
6.80601e-05
-8.50964e-06
6.99015e-05
-9.49578e-06
7.16089e-05
-1.07192e-05
7.32428e-05
-1.22591e-05
7.46787e-05
-1.40652e-05
7.59296e-05
-1.63256e-05
7.6921e-05
-1.90287e-05
7.76261e-05
-2.23632e-05
7.79682e-05
-2.6393e-05
7.79128e-05
-3.13198e-05
7.73994e-05
-3.72847e-05
7.6376e-05
-4.45123e-05
7.47772e-05
-5.32326e-05
7.2538e-05
-6.37305e-05
6.95759e-05
-7.63223e-05
6.5793e-05
-9.1381e-05
6.10717e-05
-0.000109359
5.52438e-05
-0.000130774
-0.000156313
4.8149e-05
6.35598e-05
-9.57424e-06
6.5415e-05
-1.03649e-05
6.72776e-05
-1.13583e-05
6.90999e-05
-1.25416e-05
7.08032e-05
-1.39623e-05
7.24186e-05
-1.56806e-05
7.38533e-05
-1.77603e-05
7.51191e-05
-2.02945e-05
7.61546e-05
-2.33986e-05
7.68807e-05
-2.71192e-05
7.72424e-05
-3.16815e-05
7.71613e-05
-3.72037e-05
7.65388e-05
-4.38898e-05
7.53158e-05
-5.20096e-05
7.33781e-05
-6.17928e-05
7.06399e-05
-7.35841e-05
6.69998e-05
-8.77409e-05
6.23292e-05
-0.000104689
5.64831e-05
-0.000124928
-0.00014908
4.92502e-05
6.18185e-05
-1.15112e-05
6.37394e-05
-1.22858e-05
6.56111e-05
-1.32299e-05
6.74145e-05
-1.4345e-05
6.91169e-05
-1.56648e-05
7.07511e-05
-1.73148e-05
7.22537e-05
-1.92629e-05
7.35828e-05
-2.16237e-05
7.46928e-05
-2.45086e-05
7.55652e-05
-2.79916e-05
7.60979e-05
-3.22143e-05
7.62204e-05
-3.73261e-05
7.58771e-05
-4.35466e-05
7.49246e-05
-5.10571e-05
7.32867e-05
-6.01549e-05
7.08384e-05
-7.11358e-05
6.74461e-05
-8.43487e-05
6.29699e-05
-0.000100213
5.72429e-05
-0.000119201
-0.000141908
5.00701e-05
6.03084e-05
-1.34732e-05
6.2215e-05
-1.41924e-05
6.40863e-05
-1.51012e-05
6.58801e-05
-1.61388e-05
6.76321e-05
-1.74167e-05
6.92636e-05
-1.89463e-05
7.07877e-05
-2.07871e-05
7.21564e-05
-2.29924e-05
7.3339e-05
-2.56911e-05
7.42778e-05
-2.89304e-05
7.49098e-05
-3.28463e-05
7.51967e-05
-3.76131e-05
7.5002e-05
-4.33518e-05
7.42652e-05
-5.03203e-05
7.28551e-05
-5.87448e-05
7.0641e-05
-6.89218e-05
6.74802e-05
-8.11878e-05
6.32162e-05
-9.59487e-05
5.7668e-05
-0.000113652
-0.000134844
5.06043e-05
5.90613e-05
-1.5431e-05
6.09952e-05
-1.61263e-05
6.28608e-05
-1.69668e-05
6.46934e-05
-1.79714e-05
6.64332e-05
-1.91566e-05
6.80752e-05
-2.05883e-05
6.96111e-05
-2.2323e-05
7.09963e-05
-2.43776e-05
7.22036e-05
-2.68984e-05
7.31775e-05
-2.99043e-05
7.38737e-05
-3.35424e-05
7.42122e-05
-3.79516e-05
7.41319e-05
-4.32715e-05
7.35189e-05
-4.97073e-05
7.22623e-05
-5.74881e-05
7.02278e-05
-6.68873e-05
6.72667e-05
-7.82268e-05
6.31993e-05
-9.18812e-05
5.78333e-05
-0.000108286
-0.000127956
5.09451e-05
5.80036e-05
-1.74132e-05
5.99331e-05
-1.80558e-05
6.18209e-05
-1.88546e-05
6.36331e-05
-1.97837e-05
6.53917e-05
-2.09151e-05
6.70411e-05
-2.22377e-05
6.85691e-05
-2.38509e-05
6.99731e-05
-2.57816e-05
7.11847e-05
-2.811e-05
7.21906e-05
-3.09102e-05
7.29179e-05
-3.42698e-05
7.3312e-05
-3.83457e-05
7.3287e-05
-4.32466e-05
7.27587e-05
-4.91791e-05
7.16152e-05
-5.63446e-05
6.97141e-05
-6.49862e-05
6.69021e-05
-7.54148e-05
6.3005e-05
-8.79842e-05
5.78116e-05
-0.000103093
-0.000121233
5.10886e-05
5.70421e-05
-1.93963e-05
5.89938e-05
-2.00074e-05
6.08892e-05
-2.07501e-05
6.27213e-05
-2.16158e-05
6.44635e-05
-2.26573e-05
6.61296e-05
-2.39038e-05
6.76726e-05
-2.5394e-05
6.90824e-05
-2.71914e-05
7.02989e-05
-2.93265e-05
7.13046e-05
-3.19158e-05
7.20506e-05
-3.50158e-05
7.24631e-05
-3.87582e-05
7.24822e-05
-4.32657e-05
7.20123e-05
-4.87092e-05
7.09364e-05
-5.52686e-05
6.91328e-05
-6.31826e-05
6.64426e-05
-7.27247e-05
6.26816e-05
-8.42232e-05
5.7646e-05
-9.80574e-05
-0.00011468
5.1093e-05
5.61666e-05
-2.13914e-05
5.81286e-05
-2.19695e-05
6.00337e-05
-2.26552e-05
6.18724e-05
-2.34544e-05
6.36288e-05
-2.44136e-05
6.52885e-05
-2.55635e-05
6.68379e-05
-2.69435e-05
6.82384e-05
-2.85919e-05
6.94702e-05
-3.05583e-05
7.04757e-05
-3.29213e-05
7.12372e-05
-3.57773e-05
7.16704e-05
-3.91914e-05
7.17144e-05
-4.33097e-05
7.12754e-05
-4.82702e-05
7.02527e-05
-5.42459e-05
6.85166e-05
-6.14465e-05
6.59176e-05
-7.01257e-05
6.22742e-05
-8.05798e-05
5.73713e-05
-9.31545e-05
-0.000108274
5.09651e-05
5.53488e-05
-2.34098e-05
5.73107e-05
-2.39313e-05
5.92145e-05
-2.4559e-05
6.10619e-05
-2.53018e-05
6.28329e-05
-2.61847e-05
6.45045e-05
-2.72351e-05
6.60475e-05
-2.84864e-05
6.74505e-05
-2.99949e-05
6.86775e-05
-3.17853e-05
6.96998e-05
-3.39436e-05
7.04514e-05
-3.6529e-05
7.0895e-05
-3.9635e-05
7.09538e-05
-4.33684e-05
7.05393e-05
-4.78558e-05
6.95543e-05
-5.32609e-05
6.7874e-05
-5.97662e-05
6.53452e-05
-6.7597e-05
6.17948e-05
-7.70294e-05
5.70081e-05
-8.83678e-05
-0.000102006
5.07399e-05
5.4537e-05
-2.54327e-05
5.65164e-05
-2.59108e-05
5.84386e-05
-2.64812e-05
6.02885e-05
-2.71517e-05
6.20566e-05
-2.79528e-05
6.37249e-05
-2.89034e-05
6.52792e-05
-3.00408e-05
6.66839e-05
-3.13996e-05
6.79174e-05
-3.30189e-05
6.89343e-05
-3.49606e-05
6.96938e-05
-3.72884e-05
7.0141e-05
-4.00823e-05
7.02037e-05
-4.34311e-05
6.98093e-05
-4.74613e-05
6.88474e-05
-5.2299e-05
6.72041e-05
-5.81229e-05
6.47356e-05
-6.51285e-05
6.12559e-05
-7.35497e-05
5.65739e-05
-8.36857e-05
-9.58596e-05
5.0428e-05
5.37442e-05
-2.74704e-05
5.57305e-05
-2.78971e-05
5.7658e-05
-2.84087e-05
5.95146e-05
-2.90083e-05
6.12881e-05
-2.97263e-05
6.29644e-05
-3.05797e-05
6.4518e-05
-3.15943e-05
6.5924e-05
-3.28056e-05
6.71546e-05
-3.42495e-05
6.81742e-05
-3.59801e-05
6.89361e-05
-3.80503e-05
6.93837e-05
-4.05299e-05
6.94553e-05
-4.35028e-05
6.90679e-05
-4.70739e-05
6.81284e-05
-5.13595e-05
6.65161e-05
-5.65106e-05
6.40884e-05
-6.27008e-05
6.0679e-05
-7.01403e-05
5.60775e-05
-7.90842e-05
-8.98263e-05
5.00442e-05
5.29429e-05
-2.95172e-05
5.49404e-05
-2.98946e-05
5.68749e-05
-3.03433e-05
5.87403e-05
-3.08737e-05
6.0521e-05
-3.1507e-05
6.2197e-05
-3.22557e-05
6.37516e-05
-3.31489e-05
6.51568e-05
-3.42108e-05
6.63891e-05
-3.54819e-05
6.74079e-05
-3.69988e-05
6.81674e-05
-3.88099e-05
6.86185e-05
-4.09809e-05
6.86951e-05
-4.35795e-05
6.83163e-05
-4.6695e-05
6.73913e-05
-5.04345e-05
6.58051e-05
-5.49244e-05
6.3416e-05
-6.03117e-05
6.00573e-05
-6.67816e-05
5.55314e-05
-7.45583e-05
-8.38972e-05
4.96024e-05
5.21313e-05
-3.15737e-05
5.4138e-05
-3.19013e-05
5.60804e-05
-3.22857e-05
5.7952e-05
-3.27453e-05
5.97335e-05
-3.32885e-05
6.14139e-05
-3.3936e-05
6.29695e-05
-3.47045e-05
6.438e-05
-3.56213e-05
6.56119e-05
-3.67137e-05
6.66264e-05
-3.80134e-05
6.73876e-05
-3.95711e-05
6.784e-05
-4.14333e-05
6.79174e-05
-4.36568e-05
6.75499e-05
-4.63275e-05
6.66362e-05
-4.95209e-05
6.50653e-05
-5.33535e-05
6.27096e-05
-5.7956e-05
5.94026e-05
-6.34746e-05
5.49416e-05
-7.00973e-05
-7.80543e-05
4.90987e-05
5.13054e-05
-3.36411e-05
5.33181e-05
-3.3914e-05
5.52682e-05
-3.42358e-05
5.71446e-05
-3.46216e-05
5.89311e-05
-3.50751e-05
6.06159e-05
-3.56208e-05
6.21727e-05
-3.62613e-05
6.35826e-05
-3.70312e-05
6.48116e-05
-3.79427e-05
6.58307e-05
-3.90324e-05
6.6594e-05
-4.03344e-05
6.70423e-05
-4.18816e-05
6.71262e-05
-4.37407e-05
6.67569e-05
-4.59583e-05
6.58563e-05
-4.86202e-05
6.43107e-05
-5.18079e-05
6.19765e-05
-5.56219e-05
5.87038e-05
-6.02019e-05
5.43045e-05
-6.5698e-05
-7.22891e-05
4.85393e-05
5.04546e-05
-3.57121e-05
5.24783e-05
-3.59377e-05
5.44348e-05
-3.61922e-05
5.63123e-05
-3.64992e-05
5.81086e-05
-3.68714e-05
5.9789e-05
-3.73013e-05
6.13523e-05
-3.78246e-05
6.2764e-05
-3.84429e-05
6.39981e-05
-3.91767e-05
6.50125e-05
-4.00469e-05
6.57729e-05
-4.10948e-05
6.62285e-05
-4.23372e-05
6.63129e-05
-4.38251e-05
6.59506e-05
-4.5596e-05
6.50605e-05
-4.77301e-05
6.35226e-05
-5.027e-05
6.12215e-05
-5.33208e-05
5.79864e-05
-5.69668e-05
5.36336e-05
-6.13453e-05
-6.65959e-05
4.79404e-05
4.95951e-05
-3.77949e-05
5.1617e-05
-3.79596e-05
5.35796e-05
-3.81548e-05
5.54678e-05
-3.83874e-05
5.72573e-05
-3.86608e-05
5.89493e-05
-3.89933e-05
6.05102e-05
-3.93855e-05
6.19239e-05
-3.98566e-05
6.31558e-05
-4.04086e-05
6.41735e-05
-4.10646e-05
6.49343e-05
-4.18556e-05
6.53876e-05
-4.27906e-05
6.54715e-05
-4.39089e-05
6.51235e-05
-4.5248e-05
6.42344e-05
-4.6841e-05
6.27119e-05
-4.87475e-05
6.04291e-05
-5.1038e-05
5.72301e-05
-5.37677e-05
5.29177e-05
-5.70329e-05
-6.09674e-05
4.72892e-05
4.87165e-05
-3.98837e-05
5.0743e-05
-3.9986e-05
5.27044e-05
-4.01162e-05
5.45921e-05
-4.02752e-05
5.63923e-05
-4.0461e-05
5.80862e-05
-4.06871e-05
5.96552e-05
-4.09545e-05
6.10624e-05
-4.12638e-05
6.22941e-05
-4.16403e-05
6.33219e-05
-4.20924e-05
6.40763e-05
-4.261e-05
6.45372e-05
-4.32515e-05
6.46251e-05
-4.39968e-05
6.42733e-05
-4.48962e-05
6.34001e-05
-4.59678e-05
6.18926e-05
-4.724e-05
5.96192e-05
-4.87646e-05
5.64383e-05
-5.05868e-05
5.21751e-05
-5.27697e-05
-5.53868e-05
4.65945e-05
4.7818e-05
-4.19659e-05
4.98567e-05
-4.20247e-05
5.18197e-05
-4.20792e-05
5.37112e-05
-4.21667e-05
5.55111e-05
-4.22609e-05
5.72063e-05
-4.23824e-05
5.8773e-05
-4.25212e-05
6.01893e-05
-4.26801e-05
6.14204e-05
-4.28714e-05
6.24416e-05
-4.31137e-05
6.32113e-05
-4.33797e-05
6.36569e-05
-4.3697e-05
6.37551e-05
-4.4095e-05
6.34102e-05
-4.45513e-05
6.25356e-05
-4.50932e-05
6.10403e-05
-4.57447e-05
5.87921e-05
-4.65165e-05
5.56478e-05
-4.74425e-05
5.14201e-05
-4.8542e-05
-4.98458e-05
4.58791e-05
4.69377e-05
-4.40597e-05
4.89681e-05
-4.40551e-05
5.09454e-05
-4.40565e-05
5.28331e-05
-4.40544e-05
5.46337e-05
-4.40615e-05
5.63178e-05
-4.40666e-05
5.78841e-05
-4.40874e-05
5.93007e-05
-4.40968e-05
6.05386e-05
-4.41093e-05
6.15467e-05
-4.41218e-05
6.23116e-05
-4.41446e-05
6.27742e-05
-4.41596e-05
6.2863e-05
-4.41839e-05
6.25292e-05
-4.42175e-05
6.16704e-05
-4.42344e-05
6.01861e-05
-4.42604e-05
5.79571e-05
-4.42874e-05
5.48264e-05
-4.43118e-05
5.06256e-05
-4.43412e-05
4.51473e-05
-4.43676e-05
1.8003e-06
0.000190283
-0.000197896
5.81283e-06
7.84005e-06
0.00015816
-0.000164199
1.24367e-05
0.000131292
-0.000135889
1.58061e-05
0.000108732
-0.000112101
1.81273e-05
8.98406e-05
-9.21617e-05
1.95699e-05
7.39872e-05
-7.54299e-05
2.01888e-05
6.08564e-05
-6.14754e-05
2.02067e-05
4.99335e-05
-4.99514e-05
1.96984e-05
4.09714e-05
-4.04633e-05
1.8822e-05
3.35723e-05
-3.26959e-05
1.76456e-05
2.75487e-05
-2.63728e-05
1.6236e-05
2.26144e-05
-2.12047e-05
1.46093e-05
1.85792e-05
-1.69528e-05
1.27934e-05
1.52556e-05
-1.34395e-05
1.07963e-05
1.25848e-05
-1.05876e-05
8.56048e-06
1.04379e-05
-8.20201e-06
6.07092e-06
8.72917e-06
-6.23941e-06
3.31578e-06
7.39231e-06
-4.63718e-06
3.44128e-07
6.38203e-06
-3.41029e-06
5.62858e-06
-2.70219e-06
-2.5823e-06
1.57762e-06
0.000182717
5.98898e-06
7.48522e-06
0.000152252
1.19943e-05
0.000126783
1.53136e-05
0.000105412
1.76111e-05
8.75431e-05
1.90038e-05
7.25946e-05
1.97271e-05
6.0133e-05
1.98733e-05
4.97874e-05
1.95891e-05
4.12555e-05
1.88849e-05
3.42767e-05
1.78519e-05
2.85817e-05
1.64363e-05
2.40301e-05
1.46715e-05
2.0344e-05
1.25552e-05
1.7372e-05
1.01171e-05
1.50228e-05
7.43135e-06
1.31237e-05
4.57789e-06
1.15826e-05
1.60173e-06
1.03685e-05
-1.35329e-06
9.33709e-06
8.50821e-06
-4.23291e-06
1.25137e-06
0.000175244
6.22142e-06
7.05314e-06
0.00014645
1.14768e-05
0.00012236
1.46701e-05
0.000102219
1.68628e-05
8.53504e-05
1.8243e-05
7.12145e-05
1.89626e-05
5.94134e-05
1.90645e-05
4.96856e-05
1.86045e-05
4.17155e-05
1.76525e-05
3.52288e-05
1.61978e-05
3.00363e-05
1.43899e-05
2.58381e-05
1.22931e-05
2.24408e-05
9.9422e-06
1.97228e-05
7.46116e-06
1.75039e-05
4.9097e-06
1.56752e-05
2.31603e-06
1.41763e-05
-2.70504e-07
1.2955e-05
-2.86183e-06
1.19284e-05
1.10911e-05
-5.44469e-06
8.65706e-07
0.000167864
6.51385e-06
6.56883e-06
0.000140747
1.08206e-05
0.000118108
1.39299e-05
9.91098e-05
1.60886e-05
8.31917e-05
1.74289e-05
6.98742e-05
1.80008e-05
5.88415e-05
1.79134e-05
4.9773e-05
1.71998e-05
4.24291e-05
1.59428e-05
3.64858e-05
1.43257e-05
3.16534e-05
1.23917e-05
2.77722e-05
1.02694e-05
2.45631e-05
8.01198e-06
2.19802e-05
5.679e-06
1.98369e-05
3.26145e-06
1.80927e-05
8.18692e-07
1.66191e-05
-1.63344e-06
1.54072e-05
-4.13729e-06
1.44323e-05
1.35766e-05
-6.62282e-06
4.30749e-07
0.000160592
6.84124e-06
5.98956e-06
0.000135189
1.01688e-05
0.000113929
1.32309e-05
9.60477e-05
1.53144e-05
8.11082e-05
1.65157e-05
6.8673e-05
1.69084e-05
5.84487e-05
1.65695e-05
5.0112e-05
1.56606e-05
4.3338e-05
1.43316e-05
3.78149e-05
1.26816e-05
3.33035e-05
1.08119e-05
2.96418e-05
8.76958e-06
2.66055e-05
6.60679e-06
2.41431e-05
4.34902e-06
2.20947e-05
2.03512e-06
2.04067e-05
-3.36874e-07
1.89911e-05
-2.75161e-06
1.78219e-05
-5.17513e-06
1.68558e-05
1.60509e-05
-7.64944e-06
-2.89429e-08
0.000153439
7.18275e-06
5.44688e-06
0.000129713
9.61006e-06
0.000109766
1.25943e-05
9.30635e-05
1.45411e-05
7.91614e-05
1.55536e-05
6.76605e-05
1.57564e-05
5.82458e-05
1.5333e-05
5.05354e-05
1.44088e-05
4.42622e-05
1.30985e-05
3.91251e-05
1.1501e-05
3.4901e-05
9.67946e-06
3.14634e-05
7.7074e-06
2.85775e-05
5.6094e-06
2.62411e-05
3.40667e-06
2.42974e-05
1.1573e-06
2.2656e-05
-1.18103e-06
2.13294e-05
-3.57186e-06
2.02127e-05
-5.9987e-06
1.92827e-05
1.85168e-05
-8.46455e-06
-5.03648e-07
0.000146364
7.57802e-06
4.98948e-06
0.00012422
9.06316e-06
0.000105692
1.19566e-05
9.01701e-05
1.37745e-05
7.73434e-05
1.4638e-05
6.67971e-05
1.4789e-05
5.80948e-05
1.43266e-05
5.09978e-05
1.34042e-05
4.51846e-05
1.21403e-05
4.03891e-05
1.05988e-05
3.64424e-05
8.85421e-06
3.3208e-05
6.93388e-06
3.04979e-05
4.88012e-06
2.82948e-05
2.73328e-06
2.64443e-05
4.71878e-07
2.49174e-05
-1.84631e-06
2.36476e-05
-4.22359e-06
2.259e-05
-6.64233e-06
2.17014e-05
2.09594e-05
-9.08496e-06
-8.80266e-07
0.000139309
7.93531e-06
4.54195e-06
0.000118797
8.57838e-06
0.000101655
1.1334e-05
8.74145e-05
1.30304e-05
7.5647e-05
1.38798e-05
6.59477e-05
1.39753e-05
5.79993e-05
1.35538e-05
5.14193e-05
1.26916e-05
4.60468e-05
1.14753e-05
4.16054e-05
9.96128e-06
3.79564e-05
8.28176e-06
3.48875e-05
6.37888e-06
3.24008e-05
4.3562e-06
3.03175e-05
2.21341e-06
2.85871e-05
-1.0129e-08
2.7141e-05
-2.31615e-06
2.59536e-05
-4.66591e-06
2.49398e-05
-7.08145e-06
2.41169e-05
2.34222e-05
-9.54424e-06
-1.22103e-06
0.000132262
8.2684e-06
4.14919e-06
0.000113427
8.07688e-06
9.77277e-05
1.07736e-05
8.47178e-05
1.24206e-05
7.4e-05
1.32348e-05
6.51335e-05
1.33874e-05
5.78467e-05
1.29769e-05
5.18298e-05
1.2134e-05
4.68897e-05
1.09596e-05
4.27799e-05
9.52618e-06
3.93898e-05
7.83973e-06
3.6574e-05
5.98566e-06
3.42548e-05
3.98554e-06
3.23176e-05
1.85969e-06
3.07129e-05
-3.51651e-07
2.93523e-05
-2.64992e-06
2.82519e-05
-5.01579e-06
2.73057e-05
-7.43044e-06
2.65316e-05
2.58666e-05
-9.87483e-06
-1.52863e-06
0.000125217
8.5739e-06
3.80812e-06
0.00010809
7.67191e-06
9.38639e-05
1.03025e-05
8.20872e-05
1.19554e-05
7.23471e-05
1.27567e-05
6.43322e-05
1.29347e-05
5.76687e-05
1.2558e-05
5.22065e-05
1.17727e-05
4.7675e-05
1.06122e-05
4.39405e-05
9.18922e-06
4.08128e-05
7.55005e-06
3.82132e-05
5.71746e-06
3.60874e-05
3.73397e-06
3.43011e-05
1.64092e-06
3.28059e-05
-5.82824e-07
3.15761e-05
-2.85576e-06
3.05248e-05
-5.21994e-06
2.96698e-05
-7.63542e-06
2.89471e-05
2.83343e-05
-1.01031e-05
-1.79383e-06
0.00011822
8.79044e-06
3.47024e-06
0.000102826
7.29411e-06
9.00401e-05
9.92834e-06
7.94529e-05
1.15624e-05
7.0713e-05
1.24258e-05
6.34689e-05
1.25886e-05
5.75059e-05
1.22434e-05
5.25517e-05
1.14895e-05
4.84288e-05
1.03999e-05
4.503e-05
9.0019e-06
4.22108e-05
7.36241e-06
3.98526e-05
5.54624e-06
3.79036e-05
3.57518e-06
3.62722e-05
1.47025e-06
3.49109e-05
-7.27321e-07
3.37736e-05
-3.01802e-06
3.28155e-05
-5.38199e-06
3.20338e-05
-7.77871e-06
3.13438e-05
3.08058e-05
-1.02503e-05
-2.0249e-06
0.000111241
9.00405e-06
3.20766e-06
9.75937e-05
7.03504e-06
8.62127e-05
9.64558e-06
7.68424e-05
1.12924e-05
6.90662e-05
1.21562e-05
6.2605e-05
1.2389e-05
5.72732e-05
1.20714e-05
5.28693e-05
1.13225e-05
4.91777e-05
1.02352e-05
4.61173e-05
8.85712e-06
4.35889e-05
7.25493e-06
4.14548e-05
5.45143e-06
3.97071e-05
3.48969e-06
3.82339e-05
1.391e-06
3.70096e-05
-8.02902e-07
3.59675e-05
-3.09238e-06
3.5105e-05
-5.43647e-06
3.43779e-05
-7.87714e-06
3.37845e-05
3.3261e-05
-1.03324e-05
-2.22718e-06
0.000104318
9.14975e-06
3.02994e-06
9.23366e-05
6.80645e-06
8.24362e-05
9.44588e-06
7.4203e-05
1.1131e-05
6.73811e-05
1.1995e-05
6.17411e-05
1.22302e-05
5.70379e-05
1.19579e-05
5.31416e-05
1.12522e-05
4.98835e-05
1.0184e-05
4.71855e-05
8.82184e-06
4.49511e-05
7.21126e-06
4.30654e-05
5.41753e-06
4.15008e-05
3.46277e-06
4.01887e-05
1.38949e-06
3.90829e-05
-8.23199e-07
3.81802e-05
-3.11257e-06
3.73944e-05
-5.47906e-06
3.67444e-05
-7.88155e-06
3.6187e-05
3.57417e-05
-1.03622e-05
-2.32549e-06
9.73969e-05
9.24675e-06
2.87265e-06
8.71385e-05
6.67073e-06
7.86381e-05
9.31997e-06
7.15537e-05
1.09997e-05
6.57013e-05
1.19055e-05
6.08353e-05
1.21832e-05
5.67602e-05
1.19092e-05
5.34156e-05
1.12e-05
5.05927e-05
1.01473e-05
4.82381e-05
8.79797e-06
4.63005e-05
7.21873e-06
4.46447e-05
5.43256e-06
4.3287e-05
3.48298e-06
4.21382e-05
1.39171e-06
4.11741e-05
-7.98976e-07
4.03709e-05
-3.06808e-06
3.96635e-05
-5.43693e-06
3.91132e-05
-7.86389e-06
3.86139e-05
3.82273e-05
-1.03496e-05
-2.39511e-06
9.04959e-05
9.2961e-06
2.79598e-06
8.19474e-05
6.61939e-06
7.48147e-05
9.25719e-06
6.89159e-05
1.09523e-05
6.40062e-05
1.18972e-05
5.98903e-05
1.21489e-05
5.65086e-05
1.1913e-05
5.36514e-05
1.124e-05
5.12657e-05
1.01782e-05
4.92999e-05
8.86048e-06
4.76182e-05
7.26781e-06
4.62373e-05
5.48738e-06
4.50674e-05
3.54152e-06
4.40841e-05
1.45207e-06
4.32636e-05
-7.17278e-07
4.25403e-05
-3.02979e-06
4.1976e-05
-5.40142e-06
4.14849e-05
-7.83242e-06
4.10449e-05
4.06973e-05
-1.03024e-05
-2.41634e-06
8.36087e-05
9.30355e-06
2.79395e-06
7.67371e-05
6.57779e-06
7.10309e-05
9.24824e-06
6.62455e-05
1.09789e-05
6.22755e-05
1.18948e-05
5.89744e-05
1.22046e-05
5.61988e-05
1.19604e-05
5.38956e-05
1.12775e-05
5.19486e-05
1.02687e-05
5.03087e-05
8.91595e-06
4.8971e-05
7.35072e-06
4.78026e-05
5.57453e-06
4.68436e-05
3.6312e-06
4.60274e-05
1.5639e-06
4.53309e-05
-6.48221e-07
4.47524e-05
-2.94161e-06
4.42694e-05
-5.29531e-06
4.38386e-05
-7.73064e-06
4.34803e-05
4.31937e-05
-1.0227e-05
-2.39425e-06
7.67234e-05
9.27962e-06
2.79327e-06
7.15496e-05
6.62722e-06
6.71969e-05
9.28515e-06
6.35875e-05
1.10056e-05
6.05551e-05
1.19559e-05
5.80241e-05
1.22558e-05
5.58989e-05
1.2044e-05
5.41074e-05
1.1392e-05
5.26006e-05
1.03478e-05
5.13529e-05
9.04428e-06
5.02745e-05
7.46217e-06
4.93847e-05
5.68903e-06
4.86167e-05
3.74727e-06
4.79692e-05
1.6589e-06
4.74192e-05
-5.33183e-07
4.69445e-05
-2.82896e-06
4.65651e-05
-5.18606e-06