/*--------------------------------*- C++ -*----------------------------------*\
| =========                 |                                                 |
| \\      /  F ield         | OpenFOAM: The Open Source CFD Toolbox           |
|  \\    /   O peration     | Version:  2.3.0                                 |
|   \\  /    A nd           | Web:      www.OpenFOAM.org                      |
|    \\/     M anipulation  |                                                 |
\*---------------------------------------------------------------------------*/
FoamFile
{
    version     2.0;
    format      ascii;
    class       volScalarField;
    location    "7000";
    object      p;
}
// * * * * * * * * * * * * * * * * * * * * * * * * * * * * * * * * * * * * * //

dimensions      [0 2 -2 0 0 0 0];

internalField   nonuniform List<scalar> 
6694
(
3.79348e-05
-7.41018
-13.207
-18.1207
-22.2288
-25.501
-27.4511
-26.8019
-22.2939
-15.0165
-5.11354
20.9271
17.0298
13.9669
12.5149
12.7347
15.208
20.4544
28.8004
40.2585
54.5115
71.1185
89.9885
110.513
31.8124
32.3726
34.2895
37.3873
41.6369
47.0066
53.4724
60.9555
69.2944
78.2798
87.6788
97.1894
42.7168
44.6839
47.6264
51.4978
56.3022
61.9798
68.4291
75.5022
83.0203
90.7749
98.5451
106.104
51.4124
53.9137
57.1056
60.8786
65.2161
70.0671
75.3697
81.0376
86.9716
93.0534
99.1565
105.158
58.1431
60.7238
63.8574
67.4134
71.3886
75.7457
80.4376
85.4009
90.5608
95.8307
101.118
106.33
63.3973
65.8384
68.7748
72.0263
75.5961
79.4665
83.6078
87.9763
92.521
97.178
101.868
106.524
67.3049
69.6584
72.408
75.4105
78.6708
82.1766
85.9125
89.8445
93.933
98.1521
102.407
106.673
70.9875
72.9953
75.4168
78.135
81.0895
84.2664
87.683
91.3282
95.1587
99.0707
103.009
107.022
74.5213
76.3973
78.2577
80.5624
83.118
85.9425
89.1095
92.5606
96.3586
100.147
103.875
107.753
80.8996
111.808
134.841
154.011
169.874
182.009
190.273
194.794
195.986
194.491
191.296
187.589
129.24
144.447
156.565
166.038
173.109
177.974
180.914
182.263
182.353
181.463
179.94
178.148
106.66
116.225
125.661
134.645
142.913
150.242
156.447
161.399
165.04
167.394
168.64
169.046
113.372
120.429
127.25
133.685
139.604
144.907
149.525
153.418
156.567
158.974
160.706
161.85
111.041
116.868
122.593
128.106
133.305
138.102
142.429
146.235
149.485
152.16
154.272
155.838
111.435
116.459
121.366
126.081
130.531
134.661
138.428
141.798
144.758
147.299
149.403
151.071
111.109
115.615
120.006
124.218
128.197
131.901
135.308
138.381
141.125
143.53
145.58
147.308
110.905
115.052
119.077
122.917
126.528
129.895
133.026
135.85
138.387
140.615
142.549
144.251
110.956
114.779
118.523
122.097
125.455
128.59
131.475
133.999
136.238
138.234
140.002
141.668
111.341
114.781
118.235
121.539
124.671
127.69
130.447
132.398
134.389
136.264
137.884
139.42
93.443
93.8
94.0259
94.1643
94.2229
94.2157
94.1623
94.0837
93.997
93.9276
93.9284
94.3668
94.0961
94.2853
94.3894
94.4742
94.5466
94.6104
94.6701
94.7291
94.7987
94.935
95.233
95.7408
94.6587
94.7976
94.8926
94.9894
95.0856
95.1759
95.2588
95.3372
95.4325
95.6167
96.0382
96.7262
95.2726
95.4443
95.5758
95.6966
95.8045
95.8979
95.9797
96.0596
96.1681
96.375
96.8166
97.516
95.8236
95.9632
96.086
96.1981
96.2987
96.3887
96.473
96.5634
96.6932
96.9279
97.3824
98.0716
96.1699
96.3231
96.4365
96.541
96.6338
96.7191
96.8052
96.9061
97.0569
97.3191
97.7902
98.4824
96.6001
96.6509
96.7452
96.8378
96.9164
96.9866
97.0664
97.1651
97.326
97.6042
98.0833
98.7739
96.895
96.9029
96.9919
97.084
97.1479
97.1915
97.2534
97.3288
97.5043
97.8293
98.3696
99.13
97.2654
97.1591
97.2422
97.3572
97.4129
97.3821
97.4667
97.4605
97.5943
97.8903
98.3994
99.1383
97.105
96.8313
97.1178
97.4778
97.5645
97.3922
97.3689
97.1584
97.3978
98.0345
98.9763
100.278
95.8006
96.6806
97.8709
98.9236
99.9421
100.905
101.831
102.762
103.742
104.794
105.907
107.09
96.6067
96.9692
97.6114
98.2836
99.1382
100.091
101.11
102.157
103.214
104.272
105.337
106.473
97.61
98.1107
98.7071
99.2765
99.9591
100.697
101.502
102.357
103.249
104.161
105.087
106.102
98.3513
98.9117
99.4875
100.042
100.662
101.3
101.973
102.676
103.414
104.178
104.974
105.872
98.8743
99.4407
99.9719
100.497
101.071
101.656
102.269
102.901
103.558
104.232
104.927
105.742
99.2893
99.8739
100.387
100.894
101.431
101.975
102.539
103.116
103.711
104.317
104.933
105.62
99.5927
100.213
100.742
101.258
101.778
102.294
102.816
103.344
103.883
104.428
104.977
105.587
100.022
100.659
101.152
101.636
102.121
102.596
103.077
103.561
104.052
104.545
105.038
105.553
100.007
100.681
101.275
101.898
102.384
102.844
103.296
103.748
104.201
104.652
105.097
105.578
101.582
101.963
102.073
102.48
102.758
103.102
103.499
103.923
104.356
104.787
105.203
105.642
-406.881
-371.526
-329.536
-293.658
-255.033
-212.113
-169.028
-129.044
-94.059
-65.0144
-41.854
-22.8305
-215.635
-214.192
-210.282
-204.78
-195.9
-182.191
-163.473
-140.221
-113.923
-86.9559
-61.719
-38.7294
-182.28
-182.322
-181.426
-177.785
-170.803
-160.646
-147.287
-130.698
-111.28
-89.99
-68.2806
-46.3269
-145.649
-145.687
-145.53
-144.644
-142.304
-137.757
-130.282
-119.362
-105.024
-87.9546
-69.5174
-49.6354
-122.674
-122.822
-122.938
-122.642
-121.358
-118.53
-113.644
-106.182
-95.789
-82.5169
-67.2702
-49.6873
-101.661
-101.79
-101.928
-101.89
-101.345
-99.8262
-96.8255
-91.822
-84.4007
-74.3648
-62.2055
-47.5865
-84.6036
-84.7387
-84.9177
-84.9908
-84.7277
-83.7969
-81.81
-78.3194
-72.8935
-65.2432
-55.569
-43.6743
-69.8095
-69.934
-70.1131
-70.2461
-70.178
-69.6568
-68.3665
-65.9374
-61.955
-56.0822
-48.3282
-38.4294
-57.0946
-57.2098
-57.3852
-57.5412
-57.5673
-57.276
-56.4158
-54.6937
-51.7504
-47.2293
-41.0296
-32.9102
-45.9842
-46.0891
-46.2549
-46.4199
-46.5036
-46.3631
-45.7935
-44.5571
-42.3618
-38.8749
-33.9413
-27.3092
-36.2252
-36.3205
-36.4755
-36.6398
-36.7541
-36.7093
-36.3376
-35.4431
-33.7891
-31.0879
-27.1674
-21.7694
-27.5853
-27.6711
-27.8154
-27.9746
-28.1041
-28.1204
-27.8854
-27.2342
-25.9706
-23.8495
-20.6836
-16.2451
-19.889
-19.9659
-20.0999
-20.2514
-20.3866
-20.4411
-20.3004
-19.8234
-18.8444
-17.1529
-14.5505
-10.8301
-12.9892
-13.058
-13.1825
-13.3255
-13.4611
-13.5395
-13.4655
-13.1169
-12.3525
-10.9903
-8.83384
-5.71508
-6.77092
-6.83244
-6.94792
-7.08227
-7.21558
-7.30932
-7.28426
-7.03458
-6.43973
-5.34555
-3.57017
-0.97289
-1.13731
-1.1939
-1.30042
-1.42596
-1.55526
-1.65799
-1.66781
-1.49254
-1.02761
-0.142547
1.32396
3.60045
3.98598
3.93292
3.83532
3.71863
3.59451
3.48701
3.45143
3.56734
3.92435
4.62998
5.80454
7.4841
8.66351
8.61408
8.5249
8.41677
8.29892
8.1906
8.13824
8.21141
8.48886
9.06097
10.0346
11.6066
12.9549
12.9089
12.8273
12.7273
12.6163
12.5101
12.4483
12.4927
12.7156
13.2022
14.0547
15.4169
16.9062
16.8633
16.7883
16.6956
16.591
16.4876
16.4189
16.4392
16.6136
17.0173
17.7388
18.8435
20.5563
20.5164
20.4474
20.3613
20.2627
20.1623
20.0886
20.089
20.221
20.5502
21.1566
22.0713
23.9395
23.9033
23.8399
23.76
23.6673
23.5708
23.4944
23.48
23.5788
23.8486
24.3615
25.1213
27.0876
27.0554
26.9969
26.9225
26.8355
26.7432
26.6661
26.6411
26.7147
26.9384
27.3772
28.0273
30.0262
29.9977
29.9434
29.8742
29.7926
29.7047
29.6285
29.5965
29.6515
29.8412
30.2287
30.8046
32.777
32.751
32.7007
32.6361
32.5594
32.4759
32.4009
32.3633
32.4018
32.56
32.8943
33.3663
35.3574
35.3331
35.2865
35.2261
35.1542
35.075
35.0019
34.9609
34.9875
35.1215
35.4157
35.8593
37.783
37.76
37.717
37.6607
37.5932
37.5183
37.4478
37.4046
37.4219
37.5373
37.8008
38.1697
40.0689
40.0472
40.0073
39.9546
39.8911
39.8201
39.7518
39.707
39.7155
39.812
40.0425
40.3778
42.2272
42.2069
42.1699
42.1206
42.0609
41.9936
41.9277
41.8815
41.8824
41.9626
42.1657
42.4577
44.2711
44.252
44.2176
44.1712
44.1148
44.0506
43.9864
43.9385
43.931
43.9925
44.1615
44.3891
46.2099
46.1921
46.1601
46.1166
46.0634
46.0025
45.9407
45.8926
45.8806
45.9294
46.0751
46.3647
48.0541
48.0377
48.0079
47.9671
47.917
47.8593
47.7999
47.7516
47.7354
47.7754
47.8937
47.9938
49.8107
49.7959
49.7681
49.7297
49.6823
49.627
49.569
49.519
49.4946
49.5163
49.6096
49.6405
51.4905
51.4772
51.4514
51.4156
51.3712
51.3194
51.265
51.2183
51.1966
51.2201
51.3256
51.5798
53.0988
53.0869
53.0629
53.0292
52.9872
52.938
52.8856
52.8387
52.8124
52.8255
52.8918
52.7933
54.6416
54.6308
54.6085
54.5769
54.5374
54.4909
54.4408
54.3949
54.3662
54.3701
54.4368
54.5713
56.126
56.1159
56.0951
56.0655
56.0285
55.9847
55.9374
55.8935
55.8652
55.8665
55.9121
55.891
57.5567
57.547
57.5276
57.5
57.4653
57.4244
57.3802
57.3395
57.314
57.3172
57.3709
57.4558
58.9357
58.9266
58.9085
58.8827
58.8504
58.8123
58.7711
58.7332
58.7096
58.7156
58.776
58.7803
60.2668
60.2581
60.2411
60.2169
60.1864
60.1505
60.1115
60.0751
60.051
60.0519
60.1028
60.1413
61.5539
61.5455
61.5296
61.5068
61.4782
61.4446
61.4083
61.3748
61.3538
61.3587
61.4153
61.5065
62.7984
62.7905
62.7756
62.7541
62.7272
62.6953
62.6607
62.628
62.6056
62.604
62.6392
62.6606
64.0037
63.9963
63.9823
63.9619
63.9365
63.9064
63.8734
63.8421
63.8206
63.8189
63.8498
63.9124
65.1734
65.1664
65.1532
65.1341
65.1101
65.0816
65.0504
65.0207
65.0002
65.0005
65.0371
65.0517
66.3095
66.3028
66.2903
66.2721
66.2491
66.2216
66.1912
66.1613
66.1379
66.1282
66.1414
66.127
67.4135
67.4073
67.3956
67.3785
67.3569
67.3311
67.3022
67.2736
67.2512
67.2432
67.2566
67.1897
68.4896
68.4837
68.4727
68.4566
68.4363
68.4119
68.3848
68.3577
68.3359
68.3275
68.3488
68.2751
69.5392
69.5337
69.5234
69.5083
69.4895
69.4671
69.4426
69.4194
69.4035
69.4024
69.4392
69.5691
70.562
70.5568
70.5472
70.5331
70.5154
70.4944
70.4714
70.4494
70.4341
70.4343
70.4586
70.3638
71.5593
71.5544
71.5453
71.5319
71.5149
71.4947
71.4723
71.4501
71.4323
71.4248
71.4454
71.4353
72.5336
72.529
72.5204
72.5078
72.4919
72.4731
72.4525
72.4329
72.4191
72.4175
72.4473
72.562
73.4865
73.4822
73.4741
73.4622
73.4472
73.4295
73.4103
73.392
73.3798
73.3813
73.4033
73.368
74.4173
74.4131
74.4053
74.3938
74.3792
74.3616
74.3416
74.3211
74.3028
74.291
74.2935
74.2261
75.3297
75.3258
75.3185
75.3077
75.2939
75.2775
75.2592
75.2414
75.2286
75.2264
75.2521
75.4647
76.2253
76.2216
76.2146
76.2042
76.1908
76.1745
76.1556
76.1351
76.115
76.0976
76.0713
75.8162
77.1043
77.1009
77.0943
77.0844
77.0715
77.0555
77.0365
77.0149
76.9909
76.9627
76.936
76.9246
77.9732
77.97
77.964
77.9553
77.9441
77.9308
77.9162
77.9023
77.8933
77.896
77.9311
78.0739
78.8285
78.8255
78.8199
78.8118
78.8015
78.7892
78.7757
78.7624
78.7517
78.7473
78.7487
78.5884
79.6677
79.6649
79.6598
79.6522
79.6426
79.6311
79.6186
79.6064
79.5972
79.5939
79.6122
79.7447
80.4944
80.4917
80.4868
80.4796
80.4706
80.4599
80.4483
80.4373
80.4302
80.4317
80.4448
80.3661
81.3078
81.3052
81.3006
81.2937
81.285
81.2745
81.263
81.2513
81.2414
81.2363
81.2446
81.2199
82.1084
82.106
82.1017
82.0952
82.087
82.077
82.0658
82.0544
82.0444
82.0382
82.0461
82.0517
82.8988
82.8966
82.8925
82.8863
82.8785
82.869
82.8582
82.8468
82.8361
82.8264
82.8192
82.7872
83.68
83.6778
83.674
83.6683
83.661
83.6522
83.6423
83.6322
83.6235
83.6181
83.619
83.6109
84.452
84.45
84.4465
84.4412
84.4346
84.4267
84.418
84.4095
84.4028
84.4007
84.4089
84.3853
85.2139
85.212
85.2088
85.204
85.198
85.1909
85.1829
85.1749
85.1675
85.1611
85.1579
85.103
85.9673
85.9656
85.9627
85.9585
85.9533
85.9474
85.9415
85.9367
85.9348
85.9374
85.9526
86.0051
86.7121
86.7105
86.7077
86.7039
86.6996
86.695
86.6911
86.6893
86.6918
86.7014
86.7188
86.6736
87.4425
87.441
87.4387
87.4355
87.4321
87.4291
87.4275
87.4288
87.4351
87.449
87.4773
87.4685
88.1618
88.1605
88.1585
88.156
88.1538
88.1526
88.1537
88.1584
88.1685
88.1843
88.2098
88.1811
88.8534
88.8521
88.8504
88.849
88.8494
88.8529
88.8611
88.8759
88.8989
88.9299
88.9709
88.9925
89.5475
89.547
89.547
89.5485
89.5533
89.5634
89.5808
89.6072
89.6429
89.6854
89.7311
89.6882
90.099
90.0947
90.0965
90.1065
90.129
90.1654
90.2166
90.2814
90.3559
90.4317
90.5001
90.4784
90.8332
90.8474
90.8627
90.8966
90.9477
91.0144
91.094
91.1813
91.2684
91.3445
91.4047
91.3822
90.3592
90.2429
90.4425
90.6919
90.939
91.1756
91.4021
91.6145
91.8077
91.9766
92.1224
92.1765
418.913
401.31
379.148
355.145
329.709
303.541
278.202
255.235
235.659
219.684
207.078
197.711
260.791
261.994
262.708
261.77
259.321
255.184
249.153
241.217
231.725
221.331
210.972
201.865
227.327
229.003
230.017
230.586
230.686
230.049
228.422
225.579
221.35
215.685
208.896
201.963
235.757
235.73
234.559
233.058
231.145
228.719
225.706
222.055
217.719
212.632
206.849
200.988
226.663
226.432
225.718
224.858
223.65
222.01
219.843
217.059
213.578
209.345
204.391
199.228
214.58
214.494
214.295
214.015
213.525
212.766
211.635
210.013
207.771
204.787
200.995
196.765
207.487
207.416
207.285
207.054
206.679
206.116
205.294
204.121
202.489
200.274
197.353
193.902
202.301
202.23
202.104
201.882
201.545
201.057
200.361
199.39
198.06
196.272
193.903
190.995
197.3
197.247
197.156
196.988
196.735
196.362
195.824
195.061
194
192.553
190.61
188.126
192.765
192.728
192.663
192.539
192.35
192.068
191.655
191.063
190.231
189.08
187.524
185.601
188.842
188.814
188.762
188.662
188.51
188.28
187.945
187.464
186.785
185.842
184.538
182.848
185.357
185.336
185.294
185.21
185.081
184.888
184.606
184.202
183.629
182.83
181.717
180.202
182.177
182.165
182.131
182.061
181.953
181.791
181.553
181.211
180.725
180.043
179.098
177.812
179.272
179.266
179.238
179.179
179.088
178.95
178.748
178.457
178.041
177.455
176.636
175.509
176.612
176.609
176.584
176.535
176.457
176.338
176.164
175.912
175.553
175.046
174.334
173.336
174.158
174.157
174.135
174.093
174.025
173.923
173.772
173.553
173.241
172.802
172.186
171.308
171.88
171.879
171.86
171.824
171.765
171.675
171.543
171.353
171.08
170.695
170.157
169.376
169.753
169.751
169.735
169.704
169.653
169.574
169.458
169.291
169.053
168.717
168.255
167.603
167.756
167.755
167.742
167.714
167.669
167.599
167.497
167.348
167.136
166.836
166.417
165.825
165.873
165.873
165.862
165.839
165.798
165.736
165.644
165.511
165.32
165.049
164.668
164.125
164.094
164.094
164.086
164.066
164.03
163.974
163.892
163.772
163.6
163.357
163.02
162.547
162.407
162.409
162.403
162.386
162.353
162.303
162.229
162.121
161.966
161.746
161.433
161.027
160.805
160.807
160.802
160.787
160.758
160.714
160.647
160.55
160.412
160.217
159.938
159.581
159.277
159.28
159.276
159.262
159.236
159.196
159.135
159.048
158.922
158.746
158.491
158.12
157.816
157.818
157.815
157.803
157.779
157.742
157.686
157.605
157.49
157.327
157.095
156.737
156.415
156.416
156.413
156.402
156.38
156.346
156.295
156.22
156.112
155.961
155.749
155.411
155.069
155.07
155.067
155.057
155.037
155.005
154.957
154.888
154.789
154.647
154.451
154.134
153.771
153.772
153.77
153.761
153.743
153.714
153.67
153.606
153.514
153.382
153.201
152.911
152.524
152.524
152.521
152.513
152.496
152.469
152.429
152.37
152.286
152.168
152.005
151.747
151.312
151.313
151.311
151.304
151.289
151.265
151.228
151.174
151.097
150.988
150.839
150.578
150.139
150.14
150.139
150.133
150.119
150.097
150.063
150.013
149.941
149.839
149.701
149.449
149.004
149.005
149.003
148.998
148.985
148.964
148.932
148.885
148.817
148.721
148.592
148.352
147.897
147.898
147.897
147.893
147.882
147.862
147.833
147.789
147.727
147.638
147.521
147.303
146.819
146.82
146.82
146.817
146.807
146.789
146.762
146.722
146.666
146.585
146.482
146.291
145.768
145.77
145.77
145.768
145.759
145.743
145.717
145.68
145.627
145.551
145.455
145.271
144.745
144.746
144.746
144.744
144.735
144.72
144.695
144.66
144.609
144.536
144.442
144.265
143.742
143.743
143.743
143.741
143.733
143.718
143.695
143.661
143.612
143.541
143.449
143.281
142.757
142.759
142.76
142.758
142.751
142.738
142.716
142.684
142.638
142.571
142.482
142.319
141.799
141.8
141.8
141.799
141.792
141.779
141.759
141.729
141.687
141.626
141.547
141.392
140.856
140.857
140.857
140.856
140.85
140.838
140.82
140.792
140.754
140.699
140.631
140.508
139.928
139.929
139.929
139.928
139.923
139.912
139.895
139.869
139.833
139.781
139.716
139.578
139.017
139.018
139.018
139.016
139.011
139
138.984
138.959
138.923
138.871
138.805
138.666
138.116
138.117
138.117
138.116
138.111
138.101
138.085
138.063
138.03
137.983
137.925
137.811
137.226
137.227
137.227
137.226
137.222
137.213
137.2
137.179
137.15
137.109
137.059
136.952
136.343
136.345
136.345
136.345
136.342
136.335
136.322
136.304
136.277
136.24
136.196
136.097
135.474
135.475
135.475
135.474
135.472
135.465
135.453
135.435
135.41
135.373
135.331
135.226
134.609
134.609
134.61
134.609
134.607
134.601
134.589
134.572
134.548
134.513
134.473
134.37
133.748
133.749
133.749
133.75
133.748
133.743
133.732
133.716
133.694
133.661
133.625
133.528
132.896
132.897
132.897
132.897
132.896
132.89
132.881
132.866
132.846
132.815
132.784
132.69
132.045
132.046
132.047
132.047
132.046
132.042
132.033
132.019
132.001
131.973
131.946
131.855
131.197
131.198
131.198
131.199
131.199
131.195
131.187
131.175
131.159
131.134
131.112
131.027
130.35
130.351
130.352
130.353
130.352
130.349
130.342
130.332
130.317
130.295
130.278
130.198
129.503
129.504
129.505
129.506
129.506
129.503
129.497
129.488
129.476
129.457
129.445
129.375
128.654
128.655
128.656
128.657
128.657
128.655
128.65
128.643
128.633
128.618
128.61
128.55
127.8
127.801
127.802
127.804
127.804
127.803
127.799
127.794
127.786
127.775
127.772
127.722
126.944
126.944
126.945
126.946
126.946
126.946
126.943
126.939
126.934
126.926
126.928
126.888
126.077
126.077
126.078
126.079
126.08
126.08
126.078
126.076
126.073
126.069
126.076
126.045
125.199
125.199
125.2
125.202
125.203
125.204
125.204
125.203
125.203
125.202
125.213
125.195
124.313
124.313
124.313
124.314
124.315
124.317
124.317
124.318
124.321
124.324
124.34
124.335
123.405
123.406
123.407
123.408
123.411
123.414
123.416
123.419
123.426
123.433
123.456
123.465
122.483
122.483
122.484
122.486
122.489
122.494
122.498
122.504
122.514
122.528
122.556
122.581
121.543
121.543
121.544
121.545
121.549
121.554
121.561
121.57
121.585
121.606
121.643
121.673
120.574
120.575
120.575
120.578
120.583
120.59
120.6
120.613
120.635
120.666
120.72
120.762
119.574
119.575
119.576
119.579
119.585
119.595
119.609
119.628
119.658
119.701
119.774
119.867
118.537
118.537
118.539
118.543
118.551
118.563
118.581
118.607
118.646
118.704
118.797
118.918
117.456
117.457
117.458
117.462
117.471
117.487
117.509
117.542
117.591
117.662
117.771
117.93
116.317
116.317
116.319
116.324
116.336
116.356
116.384
116.426
116.489
116.577
116.706
116.932
115.105
115.106
115.109
115.117
115.132
115.158
115.196
115.252
115.333
115.449
115.602
115.907
113.814
113.815
113.818
113.828
113.848
113.882
113.933
114.007
114.116
114.271
114.467
114.832
112.41
112.412
112.417
112.43
112.458
112.504
112.574
112.676
112.822
113.029
113.287
113.701
110.852
110.854
110.862
110.882
110.922
110.989
111.089
111.234
111.435
111.712
112.056
112.553
109.101
109.105
109.117
109.148
109.209
109.308
109.456
109.665
109.948
110.323
110.777
111.395
106.987
106.995
107.022
107.08
107.189
107.361
107.606
107.935
108.353
108.873
109.474
110.224
104.517
104.535
104.581
104.704
104.909
105.207
105.605
106.104
106.703
107.402
108.178
109.056
100.6
100.539
100.825
101.237
101.788
102.477
103.274
104.138
105.047
105.997
106.977
108.049
67.7439
71.1722
80.2776
170.269
75.7999
120.105
106.969
103.386
107.012
174.302
104.859
154.68
49.9787
112.182
53.1731
109.904
38.2374
107.207
125.508
105.501
123.977
120.787
125.005
147.967
129.952
110.359
120.302
105.4
84.7882
111.758
32.3709
127.732
112.674
106.522
85.0259
120.191
97.2699
58.4664
111.564
107.756
96.7493
84.8888
97.8155
144.626
105.212
116.505
140.864
110.299
126.757
104.421
92.2253
113.925
108.473
152.525
149.231
85.1648
109.881
93.7356
111.062
100.553
151.551
53.8852
90.2365
78.5506
107.599
141.364
71.0376
109.039
138.142
101.496
145.31
97.6144
41.9363
86.6099
151.09
98.5254
106.273
110.484
110.727
71.7722
74.1558
123.666
108.764
99.2476
100.354
120.759
85.1902
63.7527
83.0349
75.9223
109.735
52.5831
146.88
114.214
102.175
101.683
99.624
105.844
160.796
108.11
108.144
135.223
96.4683
0.915913
101.42
106.618
18.2128
110.274
102.43
65.5414
101.782
111.029
171.059
68.2578
65.8056
74.8878
50.7612
119.905
102.877
99.6003
96.099
86.4693
105.421
96.3031
120.539
46.9277
108.761
94.0678
135.824
116.59
109.658
94.1058
95.3818
74.107
110.018
111.786
109.293
104.308
68.8296
105.819
109.165
131.599
93.4629
29.2031
41.3982
109.637
164.684
123.33
151.089
80.8382
116.28
87.747
23.8455
97.5897
136.095
81.8705
75.7483
120.083
127.805
117.31
111.255
32.5887
107.436
128.192
27.6235
99.8272
83.5018
144.945
27.9355
109.857
187.565
104.732
102.414
106.774
157.108
163.441
79.1117
53.9221
157.769
114.171
95.7927
88.4959
112.411
96.0006
113.174
129.52
104.987
135.475
167.402
99.6016
102.354
108.811
133.019
148.842
106.521
136.886
103.212
115.513
36.4042
126.058
106.536
108.297
99.8471
118.985
20.8797
66.2365
126.975
100.555
117.729
96.0772
100.938
59.7797
104.828
66.041
115.669
104.822
147.522
171.512
27.0562
95.575
118.751
114.464
107.294
126.27
127.644
70.033
158.629
103.813
119.647
107.297
114.697
80.8475
86.991
110.728
71.2584
-22.3863
150.924
155.127
114.132
108.328
72.8767
84.876
113.271
135.019
96.5824
95.8888
91.7506
98.9133
92.6321
109.172
98.6157
119.466
98.8774
101.44
151.241
111.864
108.186
80.5346
108.447
90.9953
107.564
107.505
118.858
112.867
43.9654
94.9939
171.988
110.17
192.076
117.993
158.611
85.2923
48.6055
25.2533
151.311
101.444
105.608
101.224
111.185
51.8126
108.385
131.168
164.251
46.5972
108.619
119.298
84.4047
63.6585
163.86
83.7427
118.492
98.5424
103.998
54.7889
54.6411
132.54
91.1087
93.9836
161.981
89.2401
69.4624
104.759
137.568
116.577
45.4124
45.3907
166.551
133.551
112.168
94.1305
51.1542
162.464
112.031
71.7942
108.485
101.066
104.019
148.787
90.9047
108.501
136.719
83.4611
133.712
103.715
149.365
108.371
107.48
107.452
105.125
115.521
120.641
-6.45416
109.286
111.237
102.564
107.503
101.985
93.4496
83.3028
161.415
102.645
113.476
121.768
106.949
117.746
90.2075
118.973
126.938
133.85
87.7433
109.076
94.7858
106.855
149.075
101.608
94.4915
123.716
111.637
94.628
102.856
193.891
105.982
179.413
141.672
84.8996
110.514
109.11
83.1349
125.409
115.558
12.8551
74.7642
43.2272
105.122
145.472
94.922
134.39
95.1003
35.7445
127.406
8.98215
172.303
151.58
124.524
21.1717
97.7799
158.055
79.2783
124.408
111.777
146.627
98.8725
131.234
93.2173
51.6819
137.228
99.8124
84.4157
92.6031
110.438
102.333
102.45
107.467
125.234
110.401
120.381
62.3781
151.569
112.85
93.3823
111.515
64.3897
102.783
101.273
69.6994
190.028
153.958
86.8598
103.065
126.048
92.8021
108.472
-2.09951
102.332
142.238
102.686
109.436
85.9068
103.005
119.648
50.079
110.434
107.488
61.6299
108.363
148.07
1.85199
79.0554
103.797
114.383
122.63
111.548
96.0933
92.1197
74.8527
97.6518
-13.2741
118.772
95.6694
94.8538
117.166
105.677
86.5995
32.4074
49.1909
109.362
121.813
136.489
109.366
97.3987
157.114
163.655
126.899
123.584
93.2655
107.917
122.841
96.51
111.195
112.914
77.796
122.289
162.014
166.861
143.01
110.841
124.567
70.1217
17.4898
89.5685
91.9105
108.922
110.697
106.37
114.715
123.933
99.3201
114.931
178.401
99.3309
114
104.038
134.755
32.2869
94.3155
96.5652
109.811
108.746
103.726
77.6236
105.942
135.588
100.044
94.1973
107.011
102.044
37.0466
110.968
108.053
83.5494
131.934
98.6
122.193
139.694
93.7321
98.5975
109.852
71.5689
135.939
101.997
117.57
155.779
106.23
101.579
112.658
106.117
158.318
97.808
92.3543
114.54
101.623
127.762
101.046
109.912
42.613
49.3546
119.405
101.878
104.084
113.92
69.7903
86.808
143.82
117.887
149.97
96.1742
80.3356
141.145
111.876
98.5749
103.356
92.106
108.001
118.057
98.7069
101.426
113.024
178.211
100.135
98.4834
68.0038
109.09
89.7875
41.9423
105.816
32.0647
117.108
107.298
130.27
62.4348
110.024
71.8697
77.3693
106.503
111.181
10.3207
102.22
125.073
107.463
145.647
92.7706
151.268
101.425
103.213
121.953
101.388
110.093
106.834
100.71
97.9716
107.269
176.655
103.061
101.34
90.9475
66.8696
74.0158
110.53
109.532
109.227
95.7744
-1.72554
99.4157
135.068
101.663
88.8675
47.1304
108.678
121.832
48.4527
97.9278
16.7795
109.718
37.0105
88.1192
149.167
110.129
80.5483
132.101
101.663
106.588
96.5274
87.1953
111.445
101.971
110.314
78.2501
88.4993
123.357
135.448
102.104
103.286
136.279
-12.6519
115.515
80.9899
152.156
107.213
132.337
131.094
121.85
124.542
110.414
105.529
110.644
119.089
142.119
92.8457
147.085
104.722
99.6445
63.207
158.493
107.823
92.4115
101.937
75.6073
117.652
101.392
120.208
111.524
111.483
101.176
93.9376
100.741
179.338
159.763
103.009
65.9407
63.0808
168.468
125.152
41.4157
103.298
67.5355
141.663
110.474
103.778
148.201
83.5345
145.245
106.811
142.878
100.015
90.7674
80.7017
100.888
108.152
78.6293
103.931
109.646
114.964
111.007
69.7782
100.268
99.7302
88.8366
25.3913
104.296
104
85.0856
110.097
103.068
111.042
132.806
92.446
80.4663
185.956
91.4612
60.2976
118.57
105.708
104.584
126.928
131.032
114.941
50.4126
159.745
107.73
144.163
100.972
105.546
110.097
111.782
172.675
68.0882
42.3697
155.242
131.107
93.7493
110.853
34.5025
83.5933
95.1976
154.198
161.452
122.715
144.547
107.546
45.0944
61.3871
102.037
64.665
108.897
97.9018
114.662
155.66
129.5
137.805
90.5296
67.6509
100.869
85.2731
105.846
113.473
108.394
107.67
60.8748
107.55
150.501
159.509
144.832
95.7475
95.9788
104.429
58.427
168.804
109.285
128.485
96.5685
145.101
133.473
148.917
94.3621
85.858
113.788
93.9771
79.4481
111.267
104.304
132.299
87.9955
-12.7546
117.527
118.072
112.979
144.15
107.102
95.9735
95.3233
124.95
109.745
108.599
55.7742
90.4853
101.621
185.092
99.5535
80.2807
140.908
164.893
131.398
109.563
104.456
98.9878
146.944
125.461
47.0357
93.5742
55.9313
54.1281
33.8514
102.193
105.482
121.806
105.741
137.377
147.65
109.763
99.2223
117.214
166.573
83.1834
113.888
104.486
113.608
130.373
113.64
53.1581
83.8835
59.6326
91.0435
70.2239
3.1048
95.4103
69.3486
101.824
67.0061
85.7218
38.557
170.308
29.3665
93.1614
94.7059
87.0374
109.022
108.994
31.1196
114.809
101.651
110.216
152.509
137.233
116.925
113.467
85.055
103.871
137.48
91.7512
132.606
133.042
132.054
7.14372
107.532
133.498
7.02541
155.635
107.177
121.104
107.513
104.54
147.57
143.631
101.906
108.032
146.791
104.05
109.089
128.536
148.374
122.775
128.116
137.824
93.6342
59.4443
175.417
91.4348
96.895
112.112
68.5438
80.7717
82.5791
108.367
119.354
123.744
118.975
120.126
93.1577
107.525
142.769
123.915
82.8075
100.763
176.321
101.97
96.7189
47.3276
116.295
103.428
183.457
107.128
35.8533
88.2097
153.91
69.7522
167.046
64.9665
92.1476
96.73
96.1631
158.397
107.558
179.737
35.6777
132.486
36.7704
82.3919
102.648
108.658
61.7443
79.6338
134.81
99.8029
103.63
55.3445
84.7734
88.5623
145.306
158.916
107.586
43.0743
91.2948
145.265
115.772
140.569
74.8716
128.123
48.8224
143.55
93.5511
166.809
92.2681
111.088
108.364
109.959
111.131
98.5292
41.7421
111.625
114.274
100.972
111.247
75.0904
55.2965
76.7058
122.374
102.197
132.73
122.678
56.2553
69.6268
26.4327
135.632
72.4241
71.397
23.7246
100.111
100.717
91.8721
100.472
101.804
141.148
128.044
112.016
58.683
90.8628
49.6579
45.7211
68.4187
154.943
39.0822
103.841
14.2141
105.03
155.31
127.207
139.053
70.1888
132.643
101.288
132.739
126.906
125.266
131.795
108.772
109.187
148.794
153.807
100.803
94.9937
111.135
91.64
112.219
97.2253
108.887
91.2841
107.608
106.758
91.3962
99.6518
189.723
106.43
110.066
94.5808
136.096
92.3726
112.902
100.58
82.6462
110.201
128.881
39.7768
113.382
110.682
114.648
106.66
87.5557
112.582
106.895
106.979
90.4383
162.58
78.6647
104.252
93.8212
114.436
110.129
129.121
114.736
110.13
114.975
110.724
53.2777
89.1756
110.301
115.511
104.108
113.321
101.454
108.584
100.842
-22.3265
112.395
163.343
130.37
122.927
73.1818
104.979
61.6324
103.031
74.7167
110.2
59.6724
123.862
98.8929
112.083
104.869
107.597
125.36
96.65
114.117
138.216
106.701
44.0646
107.274
97.6631
152.953
116.393
107.471
92.025
121.214
86.4713
70.3866
28.3918
146.403
143.224
116.929
90.9908
156.06
109.143
99.3739
114.962
58.3033
87.3621
133.721
110.131
121.723
111.341
122.904
112.294
84.5171
44.7481
107.507
62.2555
114.1
98.1958
102.192
142.196
79.3858
108.049
108.927
33.0143
99.5705
114.137
82.1648
112.994
134.522
101.903
136.382
103.036
117.317
101.777
187.157
95.8073
140.593
105.753
156.419
100.707
147.492
114.31
100.789
123.709
115.894
109.09
95.925
133.573
102.464
108.646
107.055
103.298
116.455
95.8922
91.2994
96.4406
48.2863
139.36
39.1867
121.712
116.756
112.769
107.207
101.081
100.403
89.4495
111.231
153.755
44.4101
134.435
92.0529
79.7246
154.737
97.2974
93.9004
148.513
62.6769
108.522
167.395
92.9729
102.772
79.6922
96.7996
106.911
93.1505
112.466
137.022
108.818
107.85
96.2984
32.5472
126.873
101.171
110.018
111.9
73.5034
134.944
157.83
104.217
106.448
95.9555
115.657
125.033
123.284
105.046
85.3668
110.936
37.957
99.7811
158.966
89.9557
129.422
116.659
120.508
109.912
75.233
145.554
98.4697
102.901
61.534
101.43
180.672
88.4108
102.511
109.369
127.877
114.641
103.162
99.9677
93.3887
99.1812
89.6669
105.581
99.3764
97.467
102.282
79.1708
96.6694
134.41
106.997
151.204
100.854
95.0641
93.7104
111.143
86.4024
103.5
103.995
107.504
97.6829
63.3661
93.875
60.8704
107.518
123.15
75.5535
142.338
110.437
99.1755
94.6856
159.386
101.072
120.062
104.792
175.368
111.874
109.116
140.31
66.9756
106.497
116.389
97.8152
22.5176
154.978
102.877
109.321
102.846
67.6723
115.721
125.469
97.68
115.506
124.295
79.1723
113.033
93.5306
104.034
108.308
122.018
100.487
90.4356
108.705
114.626
97.972
91.5947
123.265
89.7399
89.7949
165.679
108.181
62.4429
82.8045
94.3263
108.53
101.806
50.9173
110.093
149.72
83.4757
101.005
116.848
142.579
97.1225
138.624
186.997
69.6194
97.0331
113.454
130.658
102.755
137.212
92.2899
111.026
103.732
109.17
88.5227
110.816
109.802
161.413
97.9974
128.58
114.591
107.263
109.56
125.583
86.7541
92.572
118.307
100.023
64.685
-24.2235
0.234608
157.483
90.7855
142.96
116.653
134.205
103.346
61.7241
115.53
116.85
86.9659
133.292
73.8327
114.189
111.664
30.6491
111.134
98.6525
95.0518
94.1014
43.946
114.996
132.072
-17.2937
109.73
82.3715
107.361
74.2022
50.6814
113.838
108.982
133.711
103.921
98.5982
104.337
104.775
80.865
99.4857
103.77
117.789
99.1581
96.4401
96.341
108.01
106.89
146.454
108.481
105.273
131.615