/*--------------------------------*- C++ -*----------------------------------*\
| =========                 |                                                 |
| \\      /  F ield         | OpenFOAM: The Open Source CFD Toolbox           |
|  \\    /   O peration     | Version:  2.3.0                                 |
|   \\  /    A nd           | Web:      www.OpenFOAM.org                      |
|    \\/     M anipulation  |                                                 |
\*---------------------------------------------------------------------------*/
FoamFile
{
    version     2.0;
    format      ascii;
    class       volScalarField;
    location    "10000";
    object      nut;
}
// * * * * * * * * * * * * * * * * * * * * * * * * * * * * * * * * * * * * * //

dimensions      [0 2 -1 0 0 0 0];

internalField   nonuniform List<scalar> 
6692
(
0.0536099
0.0483594
0.0440493
0.0407164
0.0376355
0.0345941
0.0317112
0.0290027
0.0264523
0.0240344
0.02178
0.0200878
0.0614697
0.0574448
0.0539099
0.0509102
0.0484582
0.0465411
0.0451208
0.0441508
0.0435795
0.043353
0.0434193
0.0437273
0.0682688
0.0653928
0.0629288
0.0608829
0.0592432
0.0579854
0.0570794
0.0564881
0.0561729
0.0560944
0.0562161
0.0565018
0.0739495
0.0718655
0.0700981
0.068643
0.0674835
0.0665973
0.065961
0.0655494
0.0653387
0.0653049
0.0654261
0.0656812
0.0786816
0.0771364
0.0758253
0.0747437
0.0738784
0.0732137
0.0727338
0.072424
0.0722693
0.0722566
0.0723727
0.0726051
0.0826263
0.0814502
0.0804463
0.0796105
0.078935
0.078411
0.0780295
0.0777815
0.0776598
0.0776566
0.0777654
0.0779782
0.0859248
0.0850068
0.084215
0.0835473
0.0829999
0.0825701
0.0822543
0.0820482
0.0819476
0.0819494
0.0820506
0.0822475
0.0886925
0.0879637
0.0873224
0.0867749
0.0863175
0.085952
0.0856825
0.0855069
0.085422
0.0854262
0.0855201
0.0857034
0.0910306
0.0904466
0.0899094
0.0894527
0.0890636
0.0887397
0.0885026
0.0883512
0.0882815
0.0882866
0.0883722
0.0885435
0.0930285
0.092559
0.0920792
0.0916951
0.0913723
0.0910645
0.0908487
0.0907146
0.090666
0.0906715
0.0907445
0.0909048
0.0217219
0.0254611
0.0279407
0.0305176
0.0336042
0.0373093
0.0416242
0.0464986
0.0518658
0.0576503
0.0637687
0.0701781
0.0441995
0.044885
0.0459048
0.0473139
0.0491603
0.0514795
0.054289
0.0575868
0.0613492
0.0655348
0.0700918
0.075002
0.0569146
0.0574854
0.0582798
0.0593286
0.0606622
0.0623091
0.0642925
0.066628
0.0693212
0.0723663
0.0757485
0.0794782
0.0660505
0.0665517
0.0672213
0.0680769
0.0691358
0.0704157
0.0719331
0.0737012
0.0757299
0.078025
0.0805886
0.0834453
0.0729415
0.073393
0.07398
0.0747125
0.0755995
0.0766506
0.0778744
0.0792799
0.0808743
0.0826647
0.0846584
0.0868826
0.0782879
0.0787006
0.0792281
0.0798748
0.0806448
0.0815418
0.0825692
0.0837304
0.0850292
0.0864699
0.0880592
0.0898295
0.0825352
0.0829172
0.0833994
0.083983
0.0846685
0.0854555
0.0863435
0.0873321
0.0884214
0.0896121
0.0909067
0.092325
0.0859728
0.0863297
0.0867763
0.0873114
0.0879335
0.0886391
0.0894245
0.0902855
0.0912214
0.0922285
0.0933087
0.0944734
0.0887975
0.0891336
0.0895509
0.0900476
0.0906212
0.0912648
0.0919723
0.0927344
0.0935552
0.0944221
0.0953416
0.0963192
0.091144
0.0914628
0.0918558
0.0923215
0.0928561
0.0934454
0.0940912
0.0947693
0.095505
0.0962617
0.0970591
0.097892
0.0754486
0.065264
0.0561359
0.0478008
0.040191
0.0333965
0.0276357
0.0232515
0.0198373
0.0165742
0.0131761
0.00938831
0.0831262
0.0754384
0.0688306
0.0627424
0.0569701
0.0514051
0.0459657
0.0406417
0.0353873
0.0300886
0.0246061
0.0188022
0.0918416
0.0863687
0.0809215
0.0754227
0.069874
0.0642629
0.0585534
0.0526906
0.0466127
0.0402547
0.0335512
0.0264426
0.0997974
0.0949945
0.0899747
0.084729
0.0792687
0.0735866
0.0676526
0.0614182
0.0548248
0.0478098
0.0403135
0.032281
0.106091
0.101636
0.0968707
0.0917953
0.0864069
0.0806881
0.0746037
0.0681041
0.0611311
0.0536205
0.0455068
0.0367262
0.111041
0.106829
0.102263
0.0973309
0.0920158
0.0862871
0.0801006
0.0734028
0.0661299
0.0582124
0.0495773
0.0401533
0.114966
0.110962
0.10657
0.101771
0.0965311
0.0908083
0.0845501
0.0776952
0.0701735
0.0619085
0.0528196
0.0428306
0.118125
0.114303
0.110072
0.105397
0.100232
0.0945251
0.0882132
0.0812275
0.0734923
0.0649232
0.0554334
0.0449433
0.120693
0.117038
0.112959
0.108402
0.103304
0.0976214
0.0912686
0.0841722
0.0762488
0.0674067
0.0575535
0.0466079
0.122817
0.119298
0.115359
0.110928
0.105877
0.100223
0.0938434
0.0866587
0.0785684
0.0694744
0.0592766
0.0478753
0.00508683
0.00190509
0.0018637
0.00250912
0.00335286
0.00460141
0.00632917
0.00851701
0.0112379
0.01457
0.0185956
0.0234096
0.0123572
0.005666
0.00267965
0.00323526
0.00432085
0.00574774
0.00758321
0.0098097
0.0124882
0.0156809
0.0194616
0.0239173
0.0186537
0.0100708
0.00419964
0.0040923
0.00538996
0.0069773
0.00890523
0.0111594
0.0137861
0.0168374
0.0203791
0.0244937
0.0234747
0.0137547
0.006047
0.00503925
0.00648076
0.00820942
0.0102135
0.0124855
0.0150591
0.0179778
0.0212936
0.0250533
0.0270795
0.0165291
0.00779578
0.00603498
0.0075554
0.00940611
0.0114727
0.0137541
0.0162754
0.01907
0.0221784
0.0256548
0.0297824
0.0185708
0.00927207
0.0070331
0.00859872
0.0105476
0.0126649
0.0149499
0.0174206
0.020102
0.0230264
0.0262392
0.031827
0.0200714
0.0104645
0.00799533
0.00959497
0.0116231
0.0137814
0.0160663
0.0184896
0.0210686
0.0238259
0.0267884
0.0333828
0.0211811
0.0114256
0.00890168
0.0105367
0.0126288
0.0148201
0.0171023
0.0194811
0.0219663
0.0245698
0.0273042
0.0345528
0.022002
0.0122204
0.00973137
0.011398
0.0135472
0.0157729
0.0180549
0.0203946
0.022795
0.025258
0.027784
0.0352681
0.0222821
0.0126625
0.0105267
0.0123509
0.0145765
0.0167867
0.0190364
0.0213227
0.0236399
0.0259751
0.0283352
0.000907279
0.00311217
0.00680614
0.0109817
0.015337
0.0198085
0.0243477
0.0288813
0.0332993
0.0376209
0.0422371
0.047054
0.000680985
0.00189351
0.00476798
0.00832608
0.0119683
0.0157892
0.0198874
0.0242398
0.0287602
0.0333533
0.0380718
0.0429312
0.000394144
0.00117883
0.0030186
0.00586812
0.0100158
0.0144176
0.0186703
0.0228612
0.0270567
0.0313006
0.0356548
0.0402237
0.000413935
0.000939333
0.00240674
0.00469095
0.00807817
0.0127354
0.0175414
0.0222556
0.0267453
0.0309455
0.034927
0.0389517
0.00037205
0.000825502
0.00209196
0.00406804
0.00698582
0.0111597
0.0162765
0.0214401
0.02647
0.0311383
0.0352579
0.0389497
0.000361771
0.000738579
0.0018636
0.00362614
0.00622704
0.00994883
0.0150183
0.0204791
0.0259477
0.0311904
0.0358562
0.0396888
0.000348817
0.000680158
0.00170668
0.0033222
0.00570327
0.00910961
0.013872
0.0194928
0.0252821
0.0309915
0.0362709
0.0406296
0.000342948
0.000638397
0.00159109
0.00309479
0.00530744
0.00847098
0.0129083
0.0185409
0.0245483
0.0306102
0.0364163
0.0414457
0.000340018
0.000611936
0.00151432
0.00293794
0.00502763
0.00800767
0.0121833
0.0177186
0.0238631
0.0301871
0.0364097
0.0420788
0.000340565
0.000596288
0.00146733
0.00283763
0.00484549
0.00769977
0.01169
0.0170923
0.0233309
0.0298677
0.0364219
0.0426114
0.000343271
0.000587146
0.00143904
0.00277605
0.00473226
0.00750516
0.0113716
0.0166552
0.0229784
0.0297141
0.0365548
0.0431722
0.000347257
0.000581629
0.00142178
0.00273752
0.0046611
0.00738179
0.0111665
0.0163558
0.0227682
0.0297045
0.0368031
0.043752
0.000351577
0.00057762
0.00140977
0.00271022
0.00461119
0.00729581
0.0110237
0.0161391
0.0226456
0.0298013
0.0371725
0.0444623
0.000355532
0.000573659
0.00139882
0.00268534
0.00456659
0.00722055
0.0109008
0.0159476
0.0225256
0.0299063
0.0375491
0.0451047
0.000358607
0.000569046
0.00138646
0.00265781
0.00451807
0.00714062
0.0107739
0.0157523
0.0223572
0.0299586
0.0379003
0.0458108
0.000360643
0.000563682
0.00137155
0.00262523
0.00446064
0.00704629
0.0106255
0.0155253
0.0220933
0.0298716
0.0380919
0.0463096
0.000361796
0.000558061
0.00135478
0.00258913
0.00439684
0.00694118
0.01046
0.0152722
0.0217524
0.0296391
0.0381023
0.0466247
0.000362413
0.000552848
0.00133716
0.0025519
0.00433109
0.00683238
0.0102874
0.0150065
0.0213716
0.0292902
0.037936
0.0467308
0.000362916
0.000548723
0.00132033
0.00251695
0.00426994
0.00673165
0.0101276
0.0147598
0.021009
0.0289155
0.0377051
0.0467373
0.00036349
0.000545797
0.00130446
0.00248457
0.00421417
0.00664127
0.00998632
0.0145437
0.0206889
0.0285566
0.037455
0.0467116
0.000364243
0.000543987
0.00128974
0.00245473
0.00416322
0.0065597
0.00986088
0.0143558
0.0204167
0.0282445
0.0372305
0.0466744
0.000365207
0.000543077
0.00127648
0.0024277
0.00411699
0.00648585
0.00974808
0.014189
0.020179
0.0279729
0.0370442
0.0466746
0.000366328
0.000542838
0.00126466
0.00240335
0.00407496
0.00641812
0.00964383
0.0140339
0.019956
0.0277075
0.0368479
0.046631
0.000367587
0.000543104
0.00125438
0.00238193
0.00403763
0.0063573
0.00954918
0.0138916
0.019749
0.027452
0.0366534
0.0466131
0.000368979
0.000543766
0.00124559
0.00236337
0.00400498
0.00630351
0.00946437
0.013762
0.019557
0.0272024
0.0364379
0.0465193
0.000370459
0.000544712
0.00123822
0.00234764
0.00397712
0.00625727
0.00939079
0.0136485
0.0193864
0.0269734
0.0362305
0.0464233
0.000372007
0.000545866
0.00123215
0.00233457
0.00395378
0.00621821
0.00932819
0.0135512
0.0192395
0.026774
0.0360506
0.046361
0.000373643
0.000547138
0.00122732
0.0023239
0.00393457
0.00618569
0.00927553
0.0134686
0.0191135
0.026601
0.0358965
0.0463274
0.000375359
0.000548473
0.0012236
0.00231543
0.00391911
0.00615932
0.00923217
0.0133994
0.019006
0.026449
0.0357559
0.0463009
0.000377126
0.000549924
0.00122082
0.00230892
0.00390702
0.00613829
0.00919712
0.0133428
0.0189166
0.0263192
0.0356253
0.0462419
0.000378939
0.000551466
0.00121891
0.00230418
0.00389798
0.00612221
0.00916983
0.0132981
0.0188456
0.0262158
0.0355249
0.0462085
0.000380774
0.000553068
0.00121789
0.00230126
0.00389204
0.00611105
0.00915012
0.0132648
0.0187921
0.0261403
0.0354672
0.0462543
0.000382651
0.000554684
0.00121783
0.00230022
0.00388902
0.00610438
0.00913712
0.0132409
0.0187504
0.0260779
0.0354236
0.0463159
0.000384631
0.000556227
0.00121896
0.00230113
0.003889
0.0061023
0.0091313
0.0132282
0.0187246
0.0260307
0.0353705
0.0462854
0.000386679
0.000557697
0.00122138
0.00230428
0.00389214
0.00610454
0.00913139
0.013225
0.0187168
0.0260217
0.0353944
0.0463977
0.000388777
0.000559152
0.00122535
0.00231024
0.00389935
0.00611174
0.00913684
0.013227
0.0187152
0.0260242
0.035449
0.0465507
0.000390893
0.000560593
0.00123086
0.00231923
0.00391135
0.00612562
0.00915017
0.0132359
0.0187153
0.0260187
0.0355024
0.0468133
0.000392975
0.000562031
0.00123779
0.00233116
0.00392843
0.00614748
0.00917498
0.0132589
0.018727
0.0260039
0.0354717
0.0468313
0.000395029
0.000563417
0.00124609
0.00234575
0.00395007
0.00617682
0.00921183
0.0133011
0.0187685
0.0260336
0.0354988
0.0469366
0.000397091
0.000564523
0.00125569
0.00236289
0.003976
0.00621319
0.00925965
0.0133604
0.0188376
0.0261102
0.0356054
0.0471305
0.000399104
0.000565365
0.00126653
0.00238244
0.00400595
0.00625569
0.00931654
0.0134328
0.0189256
0.0262149
0.0357578
0.0474392
0.000401018
0.000565987
0.00127843
0.00240406
0.00403941
0.00630368
0.00938149
0.0135165
0.0190282
0.0263352
0.0359173
0.0477427
0.000402778
0.000566382
0.00129123
0.00242745
0.00407589
0.00635659
0.00945412
0.0136114
0.0191462
0.0264745
0.0360915
0.0480438
0.000404398
0.000566614
0.00130492
0.00245246
0.00411501
0.00641371
0.00953355
0.0137171
0.0192809
0.0266381
0.0362948
0.0483885
0.000405953
0.000566962
0.00131967
0.00247902
0.00415631
0.00647382
0.00961733
0.0138299
0.0194276
0.0268217
0.0365225
0.0487316
0.000407513
0.000568028
0.00133554
0.0025073
0.00419992
0.00653687
0.00970442
0.0139464
0.0195802
0.0270187
0.0367844
0.0491613
0.000409175
0.00057067
0.00135274
0.00253771
0.00424642
0.00660322
0.0097947
0.0140649
0.0197317
0.0272098
0.0370346
0.049618
0.000410917
0.000575485
0.00137144
0.00257065
0.00429654
0.00667411
0.00988985
0.0141876
0.0198837
0.0273898
0.0372351
0.0498785
0.000412634
0.000582334
0.00139181
0.00260666
0.00435127
0.0067513
0.00999291
0.0143192
0.0200457
0.0275824
0.0374616
0.0502186
0.000414285
0.000590688
0.00141379
0.00264583
0.00441139
0.0068363
0.0101064
0.0144633
0.0202207
0.0277852
0.0376861
0.0505122
0.000415765
0.000600232
0.00143787
0.00268889
0.00447755
0.00693033
0.0102324
0.0146238
0.0204149
0.0280079
0.037925
0.0507761
0.000416921
0.000610687
0.00146375
0.00273549
0.00454986
0.00703427
0.010373
0.0148042
0.0206345
0.0282608
0.0382002
0.0510865
0.000417741
0.000621829
0.00149136
0.00278534
0.00462775
0.00714744
0.0105281
0.0150062
0.0208839
0.0285498
0.0385093
0.0514211
0.000418153
0.000633588
0.00152053
0.00283794
0.00471031
0.00726822
0.0106957
0.0152283
0.0211655
0.0288852
0.0388635
0.0516671
0.000418151
0.000646178
0.00155144
0.00289362
0.00479748
0.0073954
0.0108728
0.0154659
0.0214746
0.0292779
0.0393546
0.0522964
0.000417698
0.000659397
0.00158397
0.00295237
0.00488941
0.00752877
0.0110572
0.0157117
0.0217926
0.0296808
0.039862
0.0529606
0.00041678
0.000673781
0.00161901
0.00301493
0.00498674
0.0076696
0.0112504
0.0159657
0.0221147
0.0300753
0.0403287
0.0534927
0.000415319
0.000689218
0.00165646
0.00308173
0.00509075
0.00781997
0.011456
0.0162352
0.0224537
0.0304841
0.0407969
0.0539861
0.000413191
0.000705802
0.00169646
0.0031529
0.00520156
0.00798039
0.0116758
0.0165233
0.0228163
0.030922
0.0413041
0.054553
0.000410264
0.000723561
0.00173906
0.00322851
0.00531934
0.00815082
0.0119095
0.0168296
0.0232021
0.0313888
0.0418393
0.0551127
0.000406437
0.000742611
0.0017845
0.00330916
0.00544459
0.00833127
0.0121564
0.0171528
0.0236097
0.0318847
0.0424207
0.05577
0.000401639
0.000763259
0.00183332
0.00339525
0.00557794
0.00852254
0.0124166
0.0174918
0.0240343
0.0323968
0.0430148
0.0564298
0.000395682
0.00078582
0.00188611
0.00348782
0.00572084
0.00872691
0.0126929
0.0178489
0.0244768
0.0329224
0.0436132
0.0570952
0.000388267
0.00081055
0.00194348
0.00358803
0.00587515
0.00894699
0.012989
0.0182292
0.0249444
0.0334703
0.0442135
0.0576534
0.000378818
0.00083781
0.00200629
0.00369726
0.00604283
0.00918537
0.0133085
0.0186374
0.0254431
0.0340548
0.0448787
0.0584348
0.00036625
0.000867909
0.00207562
0.00381744
0.00622632
0.00944534
0.0136555
0.0190772
0.0259738
0.0346605
0.0455164
0.0589969
0.00034854
0.000901349
0.00215293
0.00395173
0.00642889
0.00973084
0.0140354
0.0195568
0.0265508
0.0353197
0.0462261
0.0597177
0.000322282
0.000938448
0.00223998
0.0041028
0.0066559
0.0100478
0.0144537
0.0200814
0.0271758
0.0360238
0.0469659
0.0604195
0.000282742
0.000980966
0.00234155
0.0042789
0.00691992
0.01041
0.0149253
0.0206657
0.0278633
0.036787
0.0477538
0.0611545
0.000240541
0.00103345
0.00246328
0.00448996
0.00723737
0.0108456
0.0154819
0.0213429
0.0286463
0.0376407
0.0486159
0.0619319
0.000225948
0.00110867
0.00261569
0.00475071
0.00763004
0.0113875
0.0161779
0.0221781
0.0295894
0.0386477
0.0496112
0.0628023
0.000222922
0.00120727
0.00281096
0.00508365
0.0081315
0.0120809
0.0170724
0.0232608
0.0308142
0.0399274
0.0508518
0.0638869
0.00024181
0.0013158
0.00306284
0.00552653
0.00880522
0.0130134
0.0182739
0.0247134
0.0324615
0.0416636
0.0525202
0.0653429
0.000271545
0.00147839
0.00345598
0.00622502
0.00986166
0.0144528
0.0200911
0.0268694
0.0348641
0.044155
0.054869
0.067264
0.000358848
0.00214194
0.0047599
0.00816487
0.0123796
0.017502
0.0236216
0.0307675
0.0389587
0.0482077
0.0585844
0.0703171
0.000956692
0.00407535
0.00808597
0.0128168
0.0181184
0.0239266
0.030178
0.0368087
0.043757
0.0509457
0.0583129
0.0658286
0.000353507
0.00206312
0.0048956
0.0086238
0.0131939
0.0185536
0.0246366
0.031347
0.0385774
0.0462062
0.0541105
0.0621833
0.000573202
0.00179314
0.0041109
0.00721794
0.0111445
0.0159068
0.0214968
0.0278702
0.0349448
0.0426019
0.0506961
0.0590883
0.000610946
0.00156071
0.0035714
0.00628926
0.00978027
0.0140962
0.0192689
0.0252969
0.0321341
0.0396851
0.0478081
0.056332
0.000624159
0.00135733
0.00314178
0.00558156
0.00875405
0.0127275
0.0175574
0.0232716
0.0298557
0.0372424
0.0453047
0.0538607
0.000632358
0.00121172
0.00282611
0.00505499
0.00797811
0.0116732
0.0162108
0.0216397
0.0279717
0.0351672
0.0431228
0.0516794
0.000636166
0.00110525
0.00258591
0.00464812
0.00736911
0.0108325
0.0151186
0.0202916
0.0263841
0.0333798
0.0411996
0.0496979
0.000638671
0.00102254
0.00239495
0.00431911
0.0068724
0.0101399
0.0142086
0.0191538
0.0250242
0.0318251
0.0395029
0.0479481
0.000641206
0.00095639
0.00223888
0.00404624
0.00645754
0.00955726
0.0134364
0.0181785
0.0238453
0.0304603
0.0379923
0.0463466
0.000643594
0.000902139
0.0021083
0.00381565
0.00610516
0.0090592
0.0127716
0.0173317
0.0228117
0.0292493
0.0366305
0.0448697
0.000645608
0.000856649
0.00199686
0.00361744
0.00580106
0.00862728
0.0121916
0.0165879
0.0218957
0.028165
0.0353959
0.0435197
0.000647407
0.000817951
0.00190033
0.00344465
0.00553513
0.00824809
0.01168
0.0159278
0.0210771
0.0271878
0.0342741
0.0422894
0.000649081
0.000784592
0.00181568
0.00329221
0.00530011
0.00791188
0.0112245
0.0153372
0.0203407
0.0263033
0.0332538
0.0411701
0.000650628
0.000755662
0.00174119
0.00315802
0.00509063
0.00761129
0.0108159
0.0148052
0.019674
0.025498
0.032316
0.0401112
0.000652357
0.000733248
0.00167523
0.0030386
0.0049025
0.00734056
0.0104467
0.0143228
0.0190669
0.0247602
0.0314502
0.0391298
0.000655442
0.000724911
0.00161632
0.00293126
0.00473244
0.00709526
0.0101114
0.0138834
0.0185122
0.024085
0.0306618
0.0382692
0.000660003
0.000727837
0.00156337
0.00283407
0.00457777
0.00687173
0.00980518
0.0134811
0.0180026
0.0234607
0.0299181
0.0373692
0.000665113
0.000734553
0.00151558
0.00274554
0.00443631
0.00666695
0.00952412
0.013111
0.0175322
0.0228825
0.0292326
0.0366178
0.00067004
0.000741209
0.00147227
0.00266452
0.00430634
0.00647856
0.00926509
0.012769
0.017096
0.0223432
0.0285821
0.0358222
0.00067452
0.000746752
0.00143285
0.00259001
0.00418631
0.00630447
0.00902532
0.0124516
0.0166898
0.0218387
0.0279739
0.0351306
0.000678543
0.00075116
0.00139683
0.00252134
0.0040756
0.00614301
0.00880253
0.0121561
0.0163105
0.021367
0.0274076
0.0344841
0.000682157
0.000754579
0.00136386
0.00245803
0.00397349
0.00599279
0.00859485
0.0118801
0.0159559
0.0209263
0.026881
0.0338878
0.000685437
0.000757306
0.00133385
0.00239954
0.0038788
0.00585263
0.00840077
0.0116219
0.0156241
0.0205139
0.0263864
0.0333097
0.000688474
0.000759642
0.00130839
0.00234533
0.00379061
0.00572148
0.00821894
0.0113799
0.0153128
0.0201264
0.0259183
0.0327539
0.000691398
0.000762806
0.00129326
0.00229516
0.00370819
0.00559851
0.00804829
0.0111525
0.0150201
0.0197607
0.0254731
0.032221
0.000694482
0.000767933
0.00129049
0.0022489
0.00363093
0.00548293
0.0078878
0.0109385
0.0147437
0.0194139
0.0250469
0.0317037
0.000697807
0.00077489
0.00129531
0.00220633
0.00355846
0.0053741
0.00773649
0.0107364
0.0144824
0.0190849
0.0246451
0.0312437
0.000701242
0.000782743
0.00130272
0.00216703
0.00349034
0.00527145
0.00759366
0.0105455
0.0142349
0.0187735
0.0242655
0.0307957
0.000704635
0.000790553
0.00130993
0.00213054
0.00342615
0.0051744
0.00745857
0.0103647
0.0140005
0.0184782
0.0239031
0.030355
0.000707907
0.000797856
0.00131595
0.00209655
0.00336567
0.00508258
0.0073305
0.0101932
0.0137777
0.0181963
0.0235537
0.0299236
0.000711039
0.000804412
0.00132054
0.00206474
0.00330869
0.00499628
0.00720909
0.0100302
0.0135656
0.0179278
0.0232238
0.0295493
0.000714092
0.000810349
0.00132383
0.00203491
0.00325493
0.00491475
0.00709367
0.00987507
0.0133636
0.0176719
0.0229089
0.0291649
0.000717034
0.000815511
0.0013259
0.00200686
0.0032042
0.00483752
0.00698389
0.00972738
0.0131711
0.0174277
0.0226062
0.0287906
0.000719753
0.00082006
0.00132695
0.00198044
0.00315624
0.00476425
0.00687939
0.00958657
0.012987
0.0171927
0.0223093
0.0284059
0.000722335
0.000824085
0.00132714
0.00195552
0.00311075
0.00469456
0.00677971
0.00945208
0.0128112
0.0169688
0.0220359
0.028131
0.000724808
0.000827722
0.00132668
0.00193225
0.00306766
0.00462817
0.00668452
0.00932354
0.0126429
0.016754
0.0217673
0.0277662
0.000727219
0.000831033
0.00132585
0.00191122
0.0030268
0.00456504
0.00659368
0.00920063
0.0124821
0.01655
0.0215219
0.0275374
0.000729666
0.000834285
0.00132524
0.00189428
0.00298805
0.00450477
0.00650681
0.00908317
0.0123286
0.016356
0.0212836
0.0272148
0.000732142
0.000837471
0.00132567
0.0018838
0.00295155
0.00444727
0.00642381
0.00897099
0.012182
0.0161703
0.021054
0.0269439
0.000734566
0.000840908
0.00132795
0.00188045
0.00291744
0.00439248
0.00634456
0.00886381
0.0120419
0.0159924
0.020832
0.0266631
0.000737052
0.00084478
0.00133235
0.00188258
0.00288563
0.00434024
0.00626874
0.00876136
0.011908
0.0158212
0.0206146
0.0263817
0.000739635
0.000849174
0.00133859
0.00188796
0.00285613
0.00429056
0.00619659
0.00866364
0.0117801
0.0156582
0.0204185
0.0262129
0.000742341
0.000853969
0.00134608
0.00189471
0.00282871
0.00424346
0.00612803
0.00857009
0.011658
0.015504
0.0202349
0.0259902
0.000745222
0.000859145
0.00135426
0.00190175
0.00280304
0.00419859
0.00606264
0.00848055
0.0115413
0.0153573
0.0200551
0.0257499
0.000748204
0.000864303
0.00136254
0.00190839
0.00277893
0.00415596
0.00600056
0.00839525
0.0114298
0.0152165
0.019878
0.0255137
0.000751085
0.000869299
0.00137058
0.00191444
0.00275624
0.00411539
0.00594122
0.0083136
0.0113231
0.0150802
0.0197018
0.025272
0.000753974
0.000874339
0.00137842
0.00191982
0.00273486
0.00407703
0.0058848
0.00823554
0.0112208
0.0149483
0.0195323
0.0250714
0.000756954
0.000879021
0.00138559
0.00192443
0.0027148
0.00404058
0.0058309
0.00816105
0.0111226
0.014821
0.0193692
0.0248654
0.000760046
0.000883622
0.00139227
0.00192842
0.0026959
0.00400599
0.00577957
0.00808968
0.0110284
0.0146986
0.0192118
0.0246631
0.000763176
0.000887975
0.00139848
0.00193178
0.00267804
0.0039731
0.00573059
0.00802133
0.0109378
0.0145805
0.0190589
0.0244638
0.000766276
0.000892131
0.00140422
0.00193459
0.0026612
0.00394193
0.00568416
0.0079562
0.0108507
0.0144667
0.0189121
0.0242855
0.000769378
0.000896033
0.00140948
0.00193689
0.00264537
0.00391232
0.0056398
0.00789381
0.0107674
0.0143576
0.0187726
0.024117
0.00077251
0.000899851
0.00141448
0.00193894
0.00263074
0.00388443
0.00559771
0.00783418
0.0106876
0.0142533
0.01864
0.0239548
0.000775801
0.000903599
0.0014191
0.00194065
0.00261762
0.00385818
0.00555769
0.00777749
0.0106116
0.014154
0.018514
0.0237991
0.000779258
0.000907319
0.00142352
0.00194242
0.0026064
0.00383336
0.00551968
0.0077235
0.0105395
0.0140597
0.0183943
0.0236495
0.000782826
0.000910941
0.00142782
0.00194443
0.00259772
0.00381014
0.00548375
0.00767228
0.0104709
0.0139705
0.0182801
0.0235023
0.000786447
0.00091456
0.00143216
0.00194704
0.00259217
0.00378865
0.0054502
0.00762425
0.0104062
0.0138861
0.0181729
0.0233777
0.00079017
0.000918139
0.00143663
0.00195051
0.00258998
0.0037689
0.00541869
0.00757927
0.0103454
0.0138069
0.0180732
0.0232591
0.000794032
0.000921883
0.00144154
0.00195518
0.00259095
0.00375117
0.0053896
0.00753744
0.0102886
0.0137331
0.01798
0.0231393
0.000798184
0.000925827
0.00144682
0.00196084
0.00259454
0.00373536
0.00536279
0.00749903
0.0102364
0.0136646
0.0178922
0.0230278
0.000802649
0.000930015
0.0014526
0.00196765
0.00260015
0.00372154
0.00533852
0.00746388
0.0101883
0.0136022
0.0178167
0.0229666
0.000807387
0.000934368
0.00145889
0.00197536
0.00260707
0.00370968
0.00531682
0.00743226
0.0101449
0.0135461
0.0177453
0.0228484
0.000812355
0.000938929
0.00146564
0.00198375
0.00261488
0.00369988
0.00529815
0.00740465
0.0101066
0.013497
0.0176893
0.0228383
0.000817616
0.00094361
0.00147272
0.00199262
0.00262328
0.00369214
0.00528231
0.00738104
0.010074
0.0134555
0.0176382
0.0227265
0.000823234
0.000948556
0.00148022
0.00200196
0.0026321
0.00368673
0.00526982
0.00736181
0.0100473
0.0134213
0.0175947
0.0226892
0.00082939
0.00095375
0.00148791
0.00201142
0.00264134
0.00368377
0.00526086
0.00734765
0.0100272
0.013395
0.0175602
0.0226316
0.000836158
0.000959203
0.00149583
0.00202115
0.0026509
0.00368335
0.00525588
0.00733895
0.0100144
0.0133776
0.0175354
0.022596
0.000843567
0.000964845
0.00150394
0.00203102
0.00266087
0.00368597
0.00525562
0.00733667
0.0100097
0.01337
0.0175217
0.0225673
0.000851637
0.000970633
0.00151222
0.00204106
0.00267134
0.00369218
0.00526105
0.00734195
0.0100145
0.0133738
0.0175222
0.0225766
0.000860647
0.000976803
0.00152079
0.00205141
0.0026826
0.00370281
0.00527311
0.00735623
0.0100307
0.0133914
0.0175412
0.0225989
0.000870988
0.000983239
0.00152962
0.0020621
0.00269484
0.00371899
0.00529353
0.00738145
0.0100607
0.0134259
0.0175788
0.0226283
0.000883271
0.000991492
0.00154017
0.0020742
0.00270936
0.00374419
0.00532643
0.00742253
0.0101096
0.013482
0.017643
0.0227178
0.000896207
0.00099392
0.00154622
0.00208334
0.00272277
0.0037727
0.00536749
0.00747678
0.0101771
0.0135618
0.0177309
0.0227666
0.000944873
0.00103689
0.00157891
0.00211579
0.00276281
0.00385422
0.00546836
0.00759264
0.0103042
0.0136951
0.0178665
0.0229433
0.000490795
0.000858837
0.0015153
0.0020504
0.0026905
0.00379143
0.00541981
0.00756515
0.0103057
0.0137368
0.0179541
0.0230201
0.155988
0.136194
0.125564
0.150185
0.0493819
0.0987131
0.137071
0.135351
0.0464238
0.0479504
0.154452
0.139265
0.117083
0.137246
0.121574
0.053591
0.106567
0.142513
0.13524
0.0835169
0.13944
0.137082
0.119842
0.094788
0.0960445
0.0375656
0.0660475
0.152967
0.140749
0.115486
0.120994
0.14444
0.0553917
0.0790401
0.126384
0.139041
0.129564
0.177918
0.0568783
0.10899
0.115251
0.149219
0.0806347
0.058422
0.129055
0.101955
0.136188
0.13708
0.138146
0.138208
0.133122
0.0993374
0.1957
0.0762131
0.137367
0.130176
0.175228
0.140076
0.133893
0.175167
0.129415
0.10877
0.107768
0.115515
0.170637
0.066498
0.117494
0.18104
0.211761
0.110365
0.146254
0.11742
0.137952
0.138981
0.0451667
0.119676
0.125847
0.112533
0.0835791
0.131415
0.0646929
0.104379
0.139591
0.146019
0.0670901
0.138698
0.135477
0.136675
0.133393
0.0986032
0.0731413
0.134665
0.13646
0.138318
0.106168
0.138037
0.068014
0.0627251
0.137982
0.114463
0.106948
0.137983
0.0385707
0.130973
0.0825815
0.121214
0.107449
0.0759004
0.108974
0.105423
0.135485
0.116284
0.127581
0.135013
0.138899
0.120564
0.140042
0.137638
0.132294
0.0469376
0.118699
0.134746
0.125185
0.134497
0.153078
0.0628152
0.160208
0.0759567
0.137767
0.0683943
0.0988046
0.0817611
0.0833429
0.138005
0.0918489
0.148821
0.0780516
0.138511
0.131617
0.124872
0.139896
0.177217
0.132172
0.120717
0.109936
0.105998
0.071746
0.0800496
0.095859
0.110893
0.101469
0.140039
0.113924
0.146323
0.171795
0.0350017
0.0888287
0.126639
0.101031
0.136543
0.132963
0.0968526
0.136872
0.13777
0.0905146
0.145632
0.037301
0.139936
0.132255
0.164999
0.13915
0.139467
0.132087
0.138881
0.136566
0.131186
0.133546
0.138121
0.130667
0.121123
0.139436
0.0526583
0.119842
0.0546702
0.108221
0.16452
0.0942399
0.135668
0.0845223
0.130243
0.131045
0.0540304
0.356688
0.0999798
0.028276
0.140092
0.129286
0.12015
0.135327
0.0858678
0.103971
0.0639883
0.135517
0.0831852
0.0956607
0.127024
0.112536
0.0838754
0.0967629
0.290378
0.123535
0.140086
0.202853
0.139375
0.130843
0.0840445
0.0562794
0.0499037
0.113083
0.124325
0.0913225
0.140088
0.04422
0.0785539
0.117487
0.138853
0.13901
0.0742847
0.133177
0.106136
0.0575689
0.103471
0.093269
0.0547761
0.138808
0.134296
0.139185
0.0190624
0.0789061
0.151721
0.073677
0.127705
0.0932275
0.13313
0.107308
0.136688
0.0797406
0.121846
0.0555011
0.051151
0.111805
0.0709623
0.0505883
0.10313
0.139467
0.0616856
0.0642691
0.123017
0.136126
0.138694
0.133802
0.243709
0.131705
0.137687
0.136557
0.0436961
0.124082
0.125848
0.123585
0.125089
0.131568
0.108673
0.0599397
0.0629604
0.0292004
0.0880683
0.135865
0.133793
0.101435
0.136523
0.134784
0.0506432
0.139343
0.114887
0.139567
0.116061
0.139534
0.0974104
0.121062
0.0820211
0.362934
0.140011
0.139811
0.0984811
0.148732
0.0917957
0.140015
0.0422471
0.111493
0.109198
0.139017
0.0826793
0.0915031
0.0701437
0.0911494
0.134086
0.124523
0.135017
0.119557
0.139907
0.388944
0.13384
0.0416737
0.13196
0.129073
0.178591
0.117289
0.191552
0.128248
0.132318
0.23289
0.120538
0.0860919
0.137929
0.0959228
0.132039
0.121364
0.0940543
0.128385
0.125739
0.128395
0.151987
0.112945
0.137857
0.12213
0.132897
0.0662912
0.138107
0.162649
0.0859602
0.129689
0.0986445
0.057896
0.0555787
0.0946969
0.187326
0.137015
0.137437
0.0586303
0.113094
0.102107
0.0828105
0.1159
0.329723
0.0753636
0.139759
0.0965894
0.103597
0.140074
0.140078
0.0333897
0.0601005
0.140023
0.102769
0.0963492
0.140071
0.124145
0.138263
0.130408
0.0829806
0.139409
0.133416
0.110709
0.139037
0.132001
0.114605
0.137384
0.153404
0.145757
0.0898482
0.13469
0.106525
0.066893
0.0982507
0.132415
0.123002
0.124489
0.0773353
0.135728
0.136113
0.104255
0.059143
0.0355615
0.053353
0.138831
0.0596735
0.138255
0.139885
0.140017
0.0486159
0.0835599
0.0624835
0.138085
0.124137
0.135837
0.155092
0.128733
0.0660939
0.0922071
0.139135
0.124859
0.123685
0.11151
0.127308
0.119609
0.0377246
0.126843
0.0770496
0.035663
0.187459
0.0723373
0.123876
0.10856
0.133239
0.113896
0.136789
0.115305
0.0929214
0.0441079
0.0953074
0.0407095
0.13254
0.130845
0.120455
0.121115
0.112212
0.139104
0.123728
0.0992605
0.140333
0.134644
0.154619
0.130486
0.137326
0.102475
0.132663
0.0463496
0.163811
0.042737
0.101863
0.187555
0.177213
0.0854033
0.0437011
0.137213
0.134091
0.133405
0.0757076
0.110248
0.0476645
0.139136
0.0868736
0.139765
0.128283
0.0967152
0.116645
0.130747
0.100516
0.119447
0.0829564
0.137836
0.140088
0.14006
0.0918245
0.117878
0.0857614
0.0594361
0.117573
0.132639
0.0720437
0.183169
0.132238
0.139945
0.180512
0.113136
0.0762169
0.0592603
0.139116
0.0591213
0.0942341
0.116253
0.0876124
0.220497
0.136358
0.132166
0.131739
0.138657
0.0565336
0.104561
0.135667
0.118836
0.0826409
0.128481
0.139534
0.138357
0.0667208
0.137021
0.0471622
0.0628303
0.052628
0.139757
0.0282357
0.0329133
0.129397
0.0718213
0.259067
0.0327541
0.118977
0.191724
0.029791
0.144718
0.104777
0.137773
0.130593
0.0711314
0.208589
0.0319029
0.0422583
0.13699
0.110605
0.1401
0.136939
0.084799
0.0705427
0.0769621
0.111079
0.0369888
0.158688
0.028334
0.137395
0.134374
0.136784
0.0282447
0.136252
0.0882191
0.13113
0.162823
0.136853
0.107073
0.150385
0.140069
0.0572222
0.127223
0.0941274
0.171021
0.139679
0.137183
0.118922
0.11102
0.121095
0.133113
0.119173
0.2283
0.15221
0.181553
0.137681
0.124932
0.0859321
0.139917
0.117718
0.109957
0.112976
0.0434956
0.117752
0.137536