/*--------------------------------*- C++ -*----------------------------------*\
| =========                 |                                                 |
| \\      /  F ield         | OpenFOAM: The Open Source CFD Toolbox           |
|  \\    /   O peration     | Version:  2.3.0                                 |
|   \\  /    A nd           | Web:      www.OpenFOAM.org                      |
|    \\/     M anipulation  |                                                 |
\*---------------------------------------------------------------------------*/
FoamFile
{
    version     2.0;
    format      ascii;
    class       volScalarField;
    location    "3000";
    object      nut;
}
// * * * * * * * * * * * * * * * * * * * * * * * * * * * * * * * * * * * * * //

dimensions      [0 2 -1 0 0 0 0];

internalField   nonuniform List<scalar> 
37387
(
0.0672599
0.0655244
0.0637912
0.0620578
0.0603242
0.0585905
0.0568575
0.0551256
0.0533959
0.0516694
0.0499473
0.0482308
0.0465212
0.04482
0.0431288
0.0414491
0.0397824
0.0381304
0.0364952
0.0348787
0.0332834
0.0317118
0.0301676
0.0286547
0.0271796
0.0257503
0.0243752
0.0230613
0.0218166
0.0206517
0.0195658
0.0185151
0.0174629
0.0164042
0.0153426
0.0142801
0.013214
0.0121373
0.0110396
0.00990702
0.00872778
0.00752728
0.00656097
0.0685837
0.067061
0.0655371
0.0640134
0.0624903
0.0609677
0.0594462
0.0579257
0.0564069
0.0548903
0.0533766
0.0518665
0.0503607
0.0488603
0.0473661
0.045879
0.0444003
0.0429313
0.0414732
0.0400274
0.0385948
0.0371775
0.035777
0.0343943
0.0330319
0.0316918
0.0303771
0.0290908
0.0278358
0.0266169
0.0254383
0.0243029
0.0232139
0.0221781
0.0212035
0.0203019
0.0194852
0.0187692
0.0181699
0.0177034
0.0173867
0.0172357
0.0172663
0.0698083
0.0684616
0.0671135
0.0657653
0.0644175
0.0630699
0.0617229
0.0603762
0.0590301
0.0576846
0.0563403
0.0549978
0.0536572
0.052319
0.0509841
0.049653
0.0483266
0.0470059
0.0456919
0.0443862
0.0430901
0.0418049
0.0405327
0.0392749
0.038034
0.0368119
0.0356108
0.0344345
0.0332867
0.0321707
0.0310911
0.0300534
0.0290644
0.0281318
0.0272642
0.0264717
0.0257645
0.0251554
0.0246566
0.0242804
0.0240357
0.0239293
0.0239654
0.0709348
0.0697373
0.0685378
0.0673381
0.0661382
0.0649381
0.0637372
0.0625353
0.0613325
0.0601285
0.0589241
0.0577194
0.0565144
0.0553099
0.0541059
0.0529027
0.0517012
0.0505022
0.0493062
0.0481146
0.0469288
0.0457506
0.0445819
0.0434245
0.0422801
0.0411522
0.040043
0.0389552
0.0378936
0.0368619
0.0358642
0.034907
0.0339964
0.0331393
0.0323445
0.0316212
0.0309784
0.0304271
0.029977
0.0296376
0.0294165
0.0293183
0.0293456
0.0719672
0.0708963
0.0698237
0.0687503
0.0676764
0.0666007
0.0655228
0.0644425
0.0633596
0.0622739
0.0611855
0.0600947
0.0590018
0.0579073
0.0568115
0.055714
0.0546156
0.0535169
0.0524187
0.0513214
0.0502263
0.0491354
0.0480505
0.0469737
0.0459073
0.0448541
0.0438171
0.0427994
0.0418051
0.0408382
0.0399036
0.0390071
0.0381548
0.0373533
0.03661
0.0359338
0.0353339
0.0348191
0.0343985
0.0340801
0.0338705
0.0337741
0.0337927
0.0729091
0.0719474
0.0709834
0.0700179
0.069051
0.0680812
0.0671077
0.06613
0.0651484
0.0641618
0.0631701
0.062174
0.061174
0.0601707
0.059164
0.0581537
0.0571407
0.0561253
0.0551082
0.0540899
0.0530706
0.052052
0.0510362
0.0500254
0.0490219
0.0480294
0.0470505
0.0460886
0.0451471
0.0442308
0.0433449
0.0424949
0.0416867
0.0409268
0.0402222
0.0395801
0.03901
0.0385198
0.0381179
0.0378126
0.0376089
0.037512
0.0375229
0.0737678
0.0728997
0.0720282
0.0711548
0.0702794
0.0694006
0.0685158
0.0676248
0.0667291
0.0658267
0.0649168
0.064
0.0630771
0.0621492
0.0612166
0.0602789
0.0593361
0.0583894
0.0574404
0.0564883
0.0555331
0.0545761
0.0536184
0.0526625
0.0517108
0.0507671
0.0498366
0.0489202
0.048021
0.0471439
0.0462952
0.0454816
0.0447084
0.0439813
0.0433064
0.0426905
0.042142
0.0416686
0.0412795
0.0409823
0.0407823
0.0406843
0.0406891
0.0745494
0.073762
0.0729693
0.072174
0.0713769
0.070577
0.0697692
0.0689497
0.0681269
0.0672978
0.0664575
0.0656079
0.0647497
0.0638832
0.0630126
0.0621365
0.0612521
0.0603607
0.0594681
0.0585725
0.0576723
0.0567666
0.0558624
0.0549501
0.0540453
0.0531374
0.0522473
0.0513699
0.0505079
0.0496622
0.0488406
0.0480548
0.047309
0.046608
0.045957
0.0453628
0.0448319
0.0443706
0.0439902
0.0436977
0.0434998
0.0434009
0.0434019
0.0752665
0.0745484
0.0738202
0.0730888
0.0723538
0.0716198
0.0708857
0.0701214
0.06936
0.068597
0.0678156
0.0670219
0.0662224
0.065402
0.0645802
0.0637552
0.0629255
0.0620745
0.061226
0.0603759
0.0595289
0.0586565
0.057821
0.0569285
0.0560853
0.0551912
0.0543375
0.0534896
0.0526621
0.0518504
0.0510445
0.0502777
0.0495505
0.0488679
0.0482377
0.0476627
0.0471507
0.0466993
0.0463261
0.0460379
0.0458421
0.0457436
0.0457439
0.00735587
0.00926585
0.0104517
0.0116061
0.0128211
0.0140959
0.0154203
0.0167812
0.0181683
0.0195741
0.020995
0.022426
0.0238654
0.0253118
0.0267634
0.0282203
0.0296818
0.0311475
0.0326167
0.0340903
0.0355673
0.037048
0.0385319
0.0400196
0.0415101
0.0430041
0.044501
0.0460008
0.0475032
0.0490078
0.0505146
0.0520232
0.0535334
0.0550448
0.0565571
0.0580697
0.0595823
0.0610941
0.0626047
0.0641136
0.0656198
0.0671223
0.0686228
0.017485
0.0178917
0.0184688
0.0191994
0.0200625
0.0210346
0.0220946
0.0232239
0.0244069
0.0256323
0.0268886
0.028169
0.0294674
0.0307791
0.0321018
0.0334321
0.0347681
0.0361078
0.0374512
0.0387971
0.0401445
0.0414929
0.0428424
0.0441923
0.0455429
0.0468937
0.0482449
0.0495959
0.0509464
0.052297
0.0536473
0.0549971
0.0563466
0.0576953
0.0590434
0.0603906
0.0617366
0.0630812
0.0644242
0.0657653
0.0671041
0.0684407
0.0697792
0.0241416
0.0244591
0.0249168
0.0255061
0.0262138
0.0270237
0.0279218
0.0288923
0.029923
0.0310017
0.0321182
0.0332652
0.0344351
0.0356233
0.036825
0.0380371
0.0392557
0.0404801
0.0417078
0.0429373
0.0441681
0.0453989
0.046629
0.0478587
0.0490871
0.0503137
0.0515384
0.0527612
0.0539819
0.0552004
0.0564168
0.0576311
0.0588431
0.0600531
0.061261
0.0624669
0.0636705
0.0648718
0.0660707
0.0672673
0.0684611
0.0696523
0.0708445
0.0294959
0.0297693
0.0301647
0.0306763
0.0312943
0.0320073
0.0328033
0.0336701
0.0345961
0.0355707
0.0365852
0.0376315
0.0387025
0.0397933
0.0408991
0.0420151
0.0431388
0.0442676
0.0453993
0.0465326
0.047666
0.0487983
0.0499291
0.051058
0.0521838
0.0533059
0.0544245
0.0555396
0.0566506
0.0577577
0.0588611
0.0599608
0.0610568
0.0621491
0.0632381
0.0643236
0.0654056
0.0664843
0.0675595
0.0686313
0.0696992
0.0707631
0.0718236
0.0339241
0.0341677
0.0345232
0.0349849
0.0355448
0.0361928
0.036919
0.0377126
0.0385635
0.0394619
0.0403998
0.0413693
0.0423638
0.0433781
0.044407
0.0454463
0.0464927
0.0475431
0.0485962
0.0496501
0.050703
0.0517543
0.0528029
0.0538476
0.0548874
0.0559224
0.0569524
0.0579769
0.0589959
0.0600095
0.0610179
0.0620211
0.0630191
0.0640118
0.0649997
0.0659828
0.0669613
0.0679351
0.0689043
0.0698685
0.0708278
0.0717822
0.0727342
0.0376399
0.0378624
0.0381891
0.0386149
0.0391329
0.0397349
0.0404107
0.0411502
0.0419447
0.0427856
0.0436649
0.044575
0.0455098
0.0464635
0.0474313
0.0484083
0.0493916
0.0503783
0.0513667
0.0523554
0.0533427
0.0543273
0.0553075
0.0562818
0.0572501
0.0582121
0.0591677
0.0601165
0.0610581
0.0619931
0.0629216
0.0638435
0.0647587
0.065667
0.0665689
0.0674648
0.0683551
0.0692395
0.0701175
0.0709892
0.0718544
0.0727132
0.073567
0.0407955
0.041002
0.0413067
0.0417045
0.0421912
0.042759
0.0433965
0.0440942
0.0448453
0.0456409
0.0464737
0.0473371
0.0482251
0.0491307
0.0500485
0.0509744
0.0519052
0.0528389
0.0537739
0.0547096
0.0556427
0.0565721
0.0574955
0.0584108
0.0593184
0.0602191
0.0611126
0.0619975
0.0628738
0.0637426
0.0646036
0.0654572
0.0663024
0.0671384
0.0679667
0.0687886
0.0696038
0.070412
0.0712116
0.072003
0.0727869
0.0735625
0.0743312
0.0435017
0.0436946
0.0439826
0.0443553
0.0448188
0.0453617
0.0459685
0.0466303
0.0473479
0.0481066
0.0489025
0.0497291
0.0505807
0.0514456
0.0523225
0.0532053
0.0540915
0.0549808
0.0558724
0.0567654
0.0576526
0.058538
0.0594126
0.0602755
0.0611313
0.0619826
0.0628239
0.0636539
0.0644745
0.0652879
0.0660917
0.0668889
0.0676734
0.0684463
0.0692119
0.0699719
0.0707232
0.0714664
0.0721976
0.0729194
0.0736337
0.0743371
0.0750304
0.0458412
0.0460189
0.0463002
0.046642
0.047093
0.0476174
0.0481958
0.0488214
0.0495193
0.0502431
0.0510118
0.0518078
0.052633
0.053458
0.054303
0.0551442
0.0559927
0.056845
0.0577027
0.0585671
0.0594081
0.0602611
0.0610853
0.0619021
0.0627181
0.0635331
0.0643262
0.065108
0.0658825
0.0666535
0.0674057
0.0681585
0.0688856
0.0696049
0.0703209
0.0710322
0.0717259
0.0724141
0.0730826
0.0737461
0.0744042
0.075048
0.0756751
0.0396511
0.0384196
0.0371886
0.0359587
0.0347304
0.0335038
0.0322792
0.0310561
0.0298341
0.0286129
0.027392
0.0261707
0.0249487
0.0237257
0.0225022
0.0212788
0.0200576
0.0188419
0.0176363
0.0164473
0.0152829
0.014153
0.0130667
0.0120307
0.0110481
0.0101185
0.00924024
0.00841061
0.00762785
0.00688952
0.00619368
0.00553816
0.0049224
0.0043444
0.0038035
0.00329948
0.00283193
0.00240293
0.00201985
0.00169785
0.00145314
0.00117559
0.000785283
0.0397661
0.0386388
0.0375112
0.0363838
0.0352569
0.0341306
0.0330047
0.0318791
0.030753
0.0296261
0.0284977
0.0273672
0.0262337
0.0250968
0.0239561
0.0228112
0.0216628
0.0205123
0.0193616
0.018214
0.0170754
0.0159531
0.0148559
0.0137925
0.0127713
0.0117963
0.0108689
0.00998925
0.00915541
0.00836624
0.00761949
0.00691546
0.00625277
0.00563186
0.00505368
0.0045211
0.00404217
0.00362468
0.00328855
0.00293418
0.00253355
0.00204146
0.00136723
0.0398826
0.0388525
0.0378211
0.0367888
0.0357555
0.0347213
0.033686
0.0326491
0.0316104
0.0305691
0.0295245
0.0284761
0.0274229
0.0263642
0.0252994
0.0242281
0.0231497
0.0220645
0.020973
0.0198769
0.0187783
0.017682
0.0165934
0.0155203
0.0144717
0.0134571
0.0124843
0.0115565
0.0106743
0.00983682
0.00904397
0.00829539
0.00759272
0.00693896
0.0063415
0.0058111
0.00536294
0.00494332
0.00450663
0.00402214
0.00345291
0.00274395
0.00182307
0.0399974
0.039055
0.03811
0.0371626
0.0362127
0.0352603
0.034305
0.0333465
0.0323846
0.0314183
0.0304471
0.0294703
0.0284869
0.0274964
0.0264979
0.0254905
0.0244739
0.0234474
0.022411
0.0213645
0.0203092
0.019247
0.0181804
0.0171142
0.0160556
0.0150147
0.0140031
0.0130309
0.0121032
0.0112212
0.0103848
0.00959602
0.00885809
0.0081791
0.00757178
0.00705078
0.00657195
0.00607889
0.00554295
0.00493405
0.00421196
0.00331476
0.00219079
0.0401102
0.039246
0.038378
0.037506
0.0366301
0.0357498
0.0348651
0.0339755
0.0330807
0.03218
0.0312726
0.0303577
0.0294347
0.0285026
0.0275605
0.0266079
0.0256438
0.0246676
0.0236786
0.0226763
0.0216605
0.0206316
0.0195907
0.01854
0.0174842
0.0164304
0.015391
0.0143818
0.0134147
0.0124928
0.0116179
0.0107934
0.0100253
0.00932551
0.00870267
0.00816717
0.00762829
0.00705779
0.00642773
0.0057054
0.00484729
0.00378735
0.00249019
0.040219
0.0394246
0.0386254
0.0378207
0.0370102
0.0361937
0.0353709
0.0345416
0.0337055
0.032862
0.0320103
0.0311494
0.0302784
0.0293962
0.0285022
0.0275958
0.0266761
0.0257419
0.0247929
0.0238278
0.0228457
0.0218468
0.0208305
0.0197976
0.0187497
0.0176924
0.0166362
0.0155986
0.0145987
0.0136431
0.012736
0.0118816
0.0110904
0.0103765
0.00975584
0.00916474
0.00855973
0.00791283
0.00719408
0.0063683
0.00538773
0.00418346
0.00273534
0.0403213
0.0395905
0.0388531
0.0381084
0.0373562
0.0365959
0.0358273
0.0350504
0.0342653
0.0334717
0.0326688
0.0318556
0.0310301
0.0301909
0.0293377
0.0284704
0.0275878
0.0266891
0.0257731
0.0248389
0.0238855
0.022912
0.0219176
0.0209013
0.0198637
0.0188079
0.0177416
0.0166829
0.0156565
0.0146741
0.0137401
0.0128617
0.0120514
0.0113199
0.0106808
0.0100437
0.00937995
0.00866324
0.00786336
0.00694317
0.00585183
0.00451845
0.00293583
0.0404161
0.0397442
0.039062
0.0383709
0.0376709
0.0369606
0.036239
0.0355074
0.0347658
0.0340153
0.0332554
0.032485
0.0317014
0.0309004
0.0300809
0.0292462
0.0283956
0.0275258
0.026637
0.025729
0.0247992
0.0238465
0.0228705
0.0218699
0.0208437
0.0197922
0.0187208
0.0176463
0.0165983
0.0155929
0.0146372
0.0137409
0.0129182
0.0121804
0.0115045
0.010822
0.0101051
0.00932565
0.00845173
0.00744521
0.00625264
0.00480257
0.00310278
0.0405121
0.0398878
0.0392535
0.0386093
0.0379569
0.037293
0.0366115
0.0359183
0.0352125
0.034498
0.0337749
0.0330435
0.0323019
0.0315394
0.0307451
0.0299346
0.0291141
0.028269
0.0274001
0.0265141
0.0256056
0.0246681
0.0237066
0.0227201
0.0217052
0.0206624
0.0195922
0.0185043
0.0174353
0.0164089
0.0154354
0.0145268
0.0136946
0.0129513
0.0122382
0.0115129
0.010748
0.00991449
0.0089745
0.0078872
0.00659926
0.00503557
0.00319363
0.000452221
0.000494069
0.000682301
0.000860493
0.00102984
0.00119336
0.00135485
0.00152017
0.00169735
0.00189699
0.00212802
0.00239065
0.00268327
0.00300309
0.00334867
0.00371873
0.00411322
0.00453217
0.00497553
0.00544424
0.00593871
0.00645936
0.00700647
0.00758073
0.0081824
0.00881241
0.00947151
0.0101601
0.0108791
0.0116293
0.0124114
0.0132265
0.0140755
0.0149592
0.0158784
0.016834
0.0178272
0.018859
0.0199301
0.0210414
0.0221939
0.0233891
0.0246299
0.000713348
0.000658214
0.000841884
0.00102897
0.00120977
0.00138939
0.00157517
0.00177562
0.00199909
0.00225235
0.00254076
0.00285915
0.00320299
0.00357019
0.00395957
0.00437074
0.00480348
0.00525784
0.00573399
0.006232
0.00675249
0.00729544
0.00786108
0.00844983
0.00906203
0.00969801
0.0103587
0.0110443
0.0117558
0.0124935
0.0132582
0.0140505
0.0148712
0.0157213
0.0166012
0.0175116
0.0184538
0.0194282
0.0204357
0.0214772
0.0225536
0.0236668
0.0248198
0.00096077
0.000809112
0.000990507
0.00118965
0.00138829
0.00159393
0.00181579
0.00206142
0.00233574
0.00264151
0.00298182
0.00334881
0.00373767
0.00414697
0.00457614
0.00502463
0.00549214
0.00597877
0.00648418
0.00700871
0.00755221
0.00811485
0.00869649
0.00929754
0.00991814
0.0105589
0.0112198
0.0119016
0.0126046
0.0133293
0.0140763
0.0148461
0.0156391
0.0164561
0.0172975
0.0181642
0.0190565
0.0199754
0.0209214
0.0218955
0.0228985
0.0239324
0.0250006
0.0011696
0.000942688
0.00112632
0.00134187
0.00156477
0.00180408
0.00206773
0.0023602
0.00268269
0.00303632
0.00342242
0.00383109
0.00425945
0.00470619
0.00517042
0.0056519
0.00615019
0.00666509
0.00719631
0.00774361
0.00830688
0.00888608
0.00948122
0.0100924
0.0107195
0.0113631
0.0120233
0.0127003
0.0133947
0.0141065
0.0148363
0.0155845
0.0163513
0.0171373
0.0179428
0.0187684
0.0196148
0.0204821
0.0213712
0.0222827
0.0232173
0.0241747
0.0251521
0.00133992
0.00106075
0.00125196
0.00148823
0.00174049
0.00201706
0.00232315
0.00265974
0.00302579
0.00342285
0.00384864
0.00429443
0.00475775
0.00523749
0.00573296
0.00624367
0.00676925
0.00730914
0.00786269
0.00842971
0.00901001
0.0096032
0.0102094
0.0108288
0.011461
0.0121065
0.0127652
0.0134373
0.0141229
0.0148224
0.0155357
0.0162635
0.017006
0.0177633
0.0185356
0.0193235
0.0201275
0.0209476
0.0217844
0.0226383
0.0235093
0.0243975
0.0253025
0.001478
0.00116566
0.0013698
0.00163027
0.00191467
0.00222912
0.00257547
0.00295188
0.00335689
0.00379381
0.00425443
0.00473294
0.0052274
0.00573682
0.00626027
0.00679701
0.00734661
0.00790838
0.00848145
0.00906549
0.00966055
0.010266
0.0108819
0.0115079
0.0121442
0.0127907
0.0134474
0.0141142
0.0147916
0.0154793
0.0161773
0.0168861
0.0176059
0.0183367
0.0190786
0.0198319
0.020597
0.021374
0.0221628
0.0229637
0.0237768
0.0246014
0.025436
0.00158978
0.00126125
0.00148328
0.00177015
0.00208717
0.00243775
0.00282058
0.00323257
0.0036732
0.00414477
0.00463648
0.00514434
0.00566697
0.00620278
0.00675128
0.00731151
0.00788249
0.00846357
0.00905401
0.00965329
0.0102612
0.0108774
0.0115015
0.0121333
0.0127725
0.0134194
0.0140738
0.0147355
0.0154047
0.0160814
0.0167653
0.0174566
0.0181553
0.0188616
0.0195757
0.0202974
0.0210269
0.021764
0.0225088
0.0232612
0.0240213
0.0247881
0.0255604
0.00168734
0.00134598
0.00158507
0.00189813
0.00224641
0.00263163
0.00304866
0.00349419
0.00396876
0.00447127
0.00499131
0.00552696
0.00607618
0.006637
0.00720841
0.0077899
0.00838113
0.00898063
0.00958673
0.0101996
0.0108192
0.0114448
0.0120754
0.0127112
0.0133522
0.0139984
0.0146498
0.0153062
0.0159674
0.0166336
0.0173041
0.0179791
0.0186584
0.0193423
0.0200307
0.0207239
0.0214207
0.0221209
0.0228251
0.0235331
0.0242447
0.0249595
0.0256769
0.00172608
0.00143412
0.00171399
0.00206184
0.00245203
0.00286627
0.00331412
0.00378576
0.00428963
0.00481449
0.00536642
0.00593312
0.00650371
0.00708301
0.00766722
0.00826989
0.00888539
0.00949949
0.0101113
0.0107335
0.0113631
0.0119928
0.0126226
0.0132563
0.0138938
0.0145367
0.0151837
0.0158332
0.0164865
0.0171432
0.0178004
0.0184588
0.0191199
0.0197829
0.0204488
0.0211177
0.0217838
0.0224481
0.0231144
0.0237816
0.0244491
0.0251158
0.0257813
0.000358832
0.00139665
0.0029003
0.00438813
0.00583597
0.00723901
0.00859749
0.0099133
0.0111891
0.0124278
0.013633
0.0148085
0.0159611
0.0171057
0.018259
0.0194255
0.0205964
0.0218025
0.0231443
0.0246026
0.0261474
0.0277558
0.0294141
0.0311112
0.03284
0.0345953
0.0363724
0.0381681
0.039979
0.041803
0.043638
0.0454821
0.0473334
0.0491901
0.0510507
0.0529138
0.0547784
0.0566432
0.0585073
0.06037
0.062231
0.0640911
0.065953
0.000345351
0.00107301
0.00243493
0.00376711
0.00498123
0.0061358
0.00726852
0.00839468
0.00951883
0.0106422
0.0117645
0.0128853
0.014005
0.0151258
0.0162515
0.0173866
0.018537
0.0197213
0.0209721
0.0222948
0.0236706
0.0251167
0.0267014
0.028389
0.0301476
0.0319568
0.0338032
0.0356777
0.0375731
0.0394842
0.0414078
0.0433408
0.0452802
0.0472241
0.0491705
0.0511176
0.053064
0.0550088
0.056951
0.0588893
0.0608239
0.0627542
0.0646795
0.000250512
0.000794869
0.00182249
0.00315047
0.00458567
0.00590481
0.00710826
0.00822389
0.00927771
0.0102905
0.0112795
0.0122588
0.0132393
0.0142296
0.0152366
0.016267
0.017329
0.018433
0.0195904
0.0208104
0.0220948
0.0234506
0.0248884
0.0263929
0.0280126
0.0297612
0.0315988
0.0334963
0.0354346
0.0374011
0.0393871
0.0413866
0.0433946
0.0454082
0.0474242
0.0494405
0.051455
0.0534667
0.0554739
0.0574761
0.0594721
0.0614613
0.0634411
0.000278837
0.000739794
0.00167305
0.00286674
0.00427842
0.00569713
0.00702735
0.00825863
0.0093974
0.0104534
0.0114394
0.0123711
0.0132658
0.0141416
0.0150159
0.0159052
0.016825
0.0177895
0.018811
0.0199003
0.0210655
0.0223114
0.0236386
0.0250449
0.0265364
0.0281086
0.0297945
0.0316173
0.0335336
0.0355105
0.037527
0.0395693
0.0416279
0.0436961
0.0457693
0.0478442
0.0499177
0.0519879
0.0540532
0.0561125
0.0581644
0.0602074
0.0622391
0.000273403
0.000704507
0.00158732
0.00270605
0.00405304
0.00551429
0.00693926
0.00827586
0.00951694
0.0106663
0.0117286
0.0127103
0.013621
0.0144743
0.0152877
0.0160818
0.0168786
0.0177004
0.0185682
0.0195005
0.0205122
0.0216136
0.0228091
0.0240994
0.0254814
0.0269497
0.0285055
0.0301484
0.0319344
0.0338482
0.0358463
0.0378978
0.0399828
0.042088
0.0442047
0.0463267
0.04845
0.0505709
0.0526875
0.0547979
0.0569005
0.0589942
0.0610811
0.000280117
0.000689319
0.00154492
0.00262035
0.00391407
0.00537432
0.00686082
0.00828487
0.00961973
0.0108613
0.0120113
0.0130719
0.0140466
0.0149419
0.0157681
0.0165401
0.017278
0.0180054
0.0187487
0.0195342
0.0203861
0.0213243
0.0223625
0.0235075
0.0247599
0.026115
0.0275661
0.0291062
0.0307419
0.0324867
0.0343888
0.0363983
0.0384752
0.0405934
0.042736
0.0448922
0.0470546
0.0492178
0.0513783
0.0535334
0.0556809
0.0578194
0.0599463
0.000281222
0.000676806
0.00151304
0.00255901
0.00381322
0.00525415
0.00677878
0.00827683
0.00969735
0.0110266
0.0122623
0.0134053
0.0144568
0.015419
0.0162964
0.0170975
0.0178356
0.0185293
0.0192027
0.0198839
0.0206027
0.0213878
0.0222633
0.0232467
0.024347
0.0255658
0.0268977
0.0283344
0.0298673
0.0314922
0.0332205
0.0351125
0.0371302
0.0392274
0.0413729
0.0435467
0.0457356
0.0479312
0.0501277
0.0523207
0.0545077
0.0566861
0.0588528
0.000283109
0.000669467
0.00149279
0.00251816
0.0037439
0.00515987
0.006701
0.00825536
0.0097518
0.0111624
0.0124801
0.0137036
0.0148328
0.0158679
0.0168106
0.0176649
0.0184382
0.019143
0.0197973
0.0204252
0.0210558
0.0217213
0.0224531
0.023279
0.0242192
0.0252847
0.0264776
0.0277927
0.0292197
0.0307476
0.0323695
0.0340985
0.0359857
0.0380129
0.0401287
0.0422978
0.0444978
0.0467144
0.0489379
0.0511619
0.0533826
0.0555967
0.0578028
0.00028329
0.00066312
0.00147625
0.00248571
0.00368946
0.00508105
0.0066234
0.00821883
0.0097808
0.011267
0.0126626
0.0139636
0.0151687
0.0162774
0.0172896
0.0182067
0.0190322
0.0197738
0.0204436
0.0210598
0.0216469
0.022235
0.0228578
0.0235491
0.0243385
0.0252482
0.0262904
0.0274674
0.0287732
0.0301965
0.0317251
0.0333518
0.0350871
0.0369806
0.0390218
0.0411567
0.043348
0.0455714
0.0478114
0.0500587
0.0523064
0.0545499
0.0567856
0.000282747
0.000658157
0.00146308
0.00245982
0.00364568
0.00501576
0.00654949
0.00817086
0.00978707
0.0113416
0.0128103
0.0141853
0.0154638
0.0166446
0.0177265
0.0187095
0.0195947
0.0203862
0.0210918
0.0217243
0.0223025
0.022852
0.023404
0.0239934
0.0246554
0.0254211
0.0263132
0.027344
0.0285154
0.0298205
0.031247
0.0327823
0.0344182
0.0361648
0.0380766
0.0401383
0.0422944
0.044507
0.0467513
0.0490124
0.0512803
0.0535486
0.0558147
0.000281159
0.00065363
0.00145119
0.00243688
0.00360755
0.00495856
0.00647822
0.0081129
0.00977212
0.0113872
0.0129241
0.0143693
0.0157183
0.0169688
0.0181192
0.0191684
0.0201161
0.0209639
0.0217165
0.0223824
0.0229755
0.023516
0.0240308
0.0245523
0.025117
0.0257607
0.0265147
0.0274016
0.0284327
0.0296088
0.0309218
0.0323584
0.033905
0.0355535
0.0373186
0.0392603
0.0413487
0.0435279
0.0457614
0.0480257
0.0503058
0.0525934
0.0548869
0.000278895
0.000649344
0.00144021
0.00241598
0.00357317
0.00490692
0.00641053
0.00804806
0.00973893
0.0114064
0.0130058
0.0145173
0.0159334
0.0172509
0.0184678
0.0195822
0.0205927
0.0214996
0.022305
0.0230144
0.0236376
0.0241901
0.0246939
0.0251774
0.0256747
0.0262233
0.0268593
0.0276134
0.0285068
0.0295493
0.0307396
0.032068
0.0335203
0.0350825
0.0367486
0.0385423
0.0405235
0.0426425
0.0448465
0.0471009
0.0493837
0.0516816
0.0539863
0.000276009
0.000645166
0.0014296
0.00239616
0.00354098
0.00485893
0.00634582
0.00797859
0.00969057
0.0114016
0.0130574
0.0146309
0.0161108
0.0174926
0.0187735
0.0199512
0.0210239
0.0219904
0.0228514
0.02361
0.0242728
0.0248515
0.0253633
0.0258322
0.0262889
0.0267691
0.0273107
0.0279496
0.0287152
0.0296262
0.03069
0.0319027
0.033253
0.034726
0.0363082
0.0379984
0.0398352
0.0418605
0.0440123
0.0462414
0.0485161
0.0508165
0.0531307
0.000272531
0.00064096
0.00141901
0.00237687
0.00351003
0.00481321
0.00628355
0.00790643
0.00962994
0.0113759
0.0130816
0.0147124
0.0162526
0.0176956
0.0190379
0.0202769
0.0214101
0.0224358
0.0233534
0.0241641
0.0248723
0.0254863
0.0260196
0.0264918
0.0269295
0.0273653
0.0278362
0.0283806
0.0290333
0.029821
0.0307597
0.0318532
0.0330953
0.0344729
0.0359709
0.0375777
0.0392995
0.0411942
0.043266
0.0454513
0.0477053
0.0499996
0.0523177
0.000268531
0.000636628
0.00140852
0.00235776
0.00347971
0.00476899
0.00622307
0.00783287
0.00956002
0.0113322
0.013081
0.0147642
0.016361
0.0178622
0.0192632
0.0205611
0.021753
0.0228366
0.0238105
0.0246747
0.0254314
0.0260867
0.0266507
0.0271393
0.0275748
0.0279862
0.0284082
0.0288791
0.0294366
0.0301136
0.0309336
0.0319086
0.0330391
0.0343161
0.0357252
0.0372516
0.0388872
0.040652
0.0426149
0.0447352
0.0469537
0.0492319
0.0515446
0.00026408
0.000632257
0.00139784
0.00233866
0.00344974
0.00472552
0.00616379
0.00775876
0.00948304
0.0112732
0.0130583
0.0147888
0.0164384
0.0179945
0.0194516
0.0208058
0.0220543
0.0231943
0.0242237
0.0251414
0.0259485
0.0266486
0.0272495
0.0277637
0.0282098
0.028613
0.0290048
0.0294217
0.0299026
0.0304838
0.0311953
0.0320566
0.0330754
0.0342484
0.0355643
0.0370078
0.0385657
0.040237
0.0420673
0.0440985
0.0462652
0.0485168
0.0508227
0.000259181
0.000627703
0.00138691
0.0023192
0.00341966
0.00468238
0.00610511
0.00768434
0.00940089
0.0112017
0.0130162
0.0147887
0.0164869
0.0180949
0.0196053
0.0210134
0.0223163
0.0235108
0.0245942
0.025565
0.0264229
0.02717
0.0278119
0.0283582
0.0288244
0.029232
0.0296091
0.0299895
0.0304114
0.0309129
0.0315283
0.0322837
0.0331941
0.0342624
0.035482
0.0368394
0.0383197
0.0399128
0.0416315
0.0435478
0.0456433
0.047854
0.0501361
0.00025389
0.000622955
0.00137565
0.00229965
0.00338952
0.00463931
0.00604686
0.00760994
0.00931529
0.0111203
0.0129573
0.0147663
0.0165091
0.0181657
0.0197265
0.0211861
0.022541
0.023788
0.024924
0.0259468
0.0268554
0.0276504
0.0283357
0.0289188
0.0294121
0.0298338
0.0302086
0.0305674
0.0309463
0.0313839
0.031917
0.0325767
0.0333845
0.0343501
0.0354721
0.0367407
0.0381414
0.0396605
0.0412954
0.0430863
0.0450916
0.0472487
0.049508
0.000248276
0.000618146
0.00136431
0.00227977
0.00335902
0.00459623
0.00598892
0.00753564
0.00922742
0.0110309
0.0128842
0.0147242
0.0165072
0.0182091
0.0198175
0.0213261
0.0227308
0.0240282
0.0252151
0.0262886
0.0272471
0.0280903
0.0288205
0.0294433
0.0299687
0.0304119
0.0307943
0.0311438
0.031494
0.0318823
0.032347
0.0329225
0.0336358
0.0345028
0.0355282
0.0367064
0.0380252
0.0394703
0.0410317
0.0427211
0.0446134
0.0466978
0.048905
0.000242339
0.000613147
0.00135264
0.00225949
0.0033284
0.00455298
0.00593105
0.00746132
0.00913797
0.0109356
0.0127991
0.0146646
0.0164835
0.0182272
0.0198804
0.0214356
0.0228879
0.0242337
0.0254694
0.0265922
0.0275996
0.0284907
0.0292664
0.0299309
0.0304918
0.030962
0.0313599
0.0317102
0.0320437
0.0323962
0.0328058
0.0333091
0.0339371
0.0347116
0.0356431
0.036731
0.0379666
0.0393362
0.0408273
0.042438
0.0442114
0.0462075
0.0483615
0.000236121
0.000608046
0.00134076
0.0022391
0.00329744
0.00450954
0.00587311
0.00738709
0.00904775
0.0108359
0.0127043
0.0145899
0.0164403
0.0182222
0.0199175
0.0215167
0.0230143
0.0244064
0.0256893
0.0268596
0.0279148
0.0288529
0.0296743
0.0303815
0.0309804
0.0314817
0.0319011
0.0322603
0.0325873
0.0329157
0.0332826
0.0337255
0.0342785
0.0349678
0.0358097
0.036809
0.0379608
0.0392537
0.0406746
0.0422152
0.0438906
0.0457785
0.0478587
0.000229639
0.000602893
0.00132869
0.00221834
0.00326612
0.00446598
0.00581511
0.00731296
0.00895693
0.010733
0.0126015
0.0145022
0.0163796
0.0181963
0.0199308
0.0215716
0.0231123
0.0245486
0.0258766
0.0270929
0.0281943
0.0291788
0.0300454
0.0307957
0.0314343
0.0319696
0.032415
0.0327896
0.0331186
0.033433
0.0337684
0.0341623
0.0346505
0.035263
0.036021
0.0369346
0.0380033
0.039219
0.0405692
0.0420426
0.0436404
0.0454122
0.047405
0.000222888
0.000597533
0.00131641
0.00219732
0.0032347
0.00442216
0.00575705
0.00723884
0.00886589
0.010628
0.0124925
0.0144033
0.0163033
0.0181513
0.019922
0.021602
0.0231837
0.0246623
0.0260336
0.0272941
0.0284403
0.0294698
0.0303811
0.0311746
0.0318537
0.0324251
0.0329
0.0332952
0.033633
0.0339421
0.0342559
0.0346113
0.0350448
0.0355893
0.0362699
0.0371018
0.0380895
0.0392281
0.0405066
0.0419136
0.0434425
0.045115
0.0470156
0.000215931
0.000592165
0.00130398
0.00217625
0.00320304
0.00437819
0.00569901
0.00716493
0.00877478
0.0105215
0.0123786
0.0142952
0.0162136
0.0180891
0.0198933
0.02161
0.0232305
0.0247493
0.0261622
0.0274651
0.0286547
0.0297279
0.030683
0.0315194
0.0322394
0.0328482
0.0333553
0.033775
0.0341274
0.0344383
0.0347393
0.0350657
0.0354541
0.0359394
0.0365499
0.0373052
0.0382144
0.0392768
0.0404839
0.0418241
0.0432879
0.0448819
0.0466754
0.000208739
0.000586702
0.00129147
0.00215491
0.00317121
0.00433407
0.00564093
0.00709091
0.00868383
0.0104142
0.0122612
0.0141794
0.0161122
0.0180118
0.0198463
0.0215974
0.0232546
0.0248117
0.0262641
0.0276078
0.0288392
0.0299549
0.0309527
0.0318315
0.0325924
0.0332395
0.0337806
0.0342279
0.0345993
0.0349182
0.0352138
0.0355197
0.0358722
0.0363068
0.0368547
0.037539
0.0383735
0.0393614
0.0404971
0.0417705
0.0431706
0.0446946
0.0463787
0.000201307
0.000581177
0.00127881
0.00213348
0.00313925
0.00428995
0.0055828
0.00701729
0.00859307
0.0103066
0.0121412
0.0140576
0.0160008
0.0179208
0.0197828
0.0215658
0.0232576
0.0248511
0.0263413
0.0277242
0.0289957
0.0301526
0.0311919
0.0321122
0.0329139
0.0335997
0.0341761
0.0346534
0.0350475
0.0353793
0.0356758
0.0359689
0.0362937
0.036686
0.0371787
0.0377982
0.0385622
0.0394779
0.0405433
0.0417501
0.0430863
0.0445434
0.0461329
0.000193696
0.000575632
0.00126612
0.00211197
0.00310728
0.00424581
0.00552489
0.00694378
0.00850265
0.0101989
0.0120197
0.013931
0.0158807
0.0178178
0.0197045
0.0215169
0.0232412
0.0248692
0.0263955
0.0278158
0.029126
0.0303226
0.0314023
0.0323633
0.0332052
0.0339298
0.0345422
0.0350514
0.0354709
0.0358198
0.0361228
0.0364096
0.0367141
0.0370718
0.0375167
0.0380778
0.038776
0.0396227
0.0406193
0.0417598
0.0430334
0.04443
0.0459572
0.000185863
0.000570072
0.00125331
0.00209044
0.00307528
0.00420175
0.0054671
0.00687062
0.00841267
0.0100914
0.0118971
0.0138006
0.0157537
0.0177046
0.0196128
0.0214523
0.023207
0.0248676
0.0264283
0.0278844
0.0292318
0.0304666
0.0315856
0.0325862
0.0334676
0.0342309
0.0348798
0.035422
0.0358693
0.0362387
0.0365525
0.0368388
0.0371297
0.03746
0.0378642
0.0383732
0.039011
0.0397922
0.0407222
0.0417978
0.0430099
0.0443492
0.0458181
0.000177798
0.000564429
0.00124054
0.00206887
0.00304335
0.0041578
0.00540953
0.00679791
0.00832322
0.00998451
0.011774
0.0136677
0.0156208
0.0175822
0.0195095
0.0213734
0.0231563
0.0248479
0.0264413
0.0279317
0.0293146
0.0305864
0.0317432
0.0327825
0.0337027
0.0345042
0.0351899
0.0357659
0.0362426
0.0366351
0.0369638
0.0372544
0.0375376
0.0378471
0.0382174
0.0386806
0.039263
0.039983
0.0408492
0.0418617
0.0430137
0.0442974
0.0457116
0.000169534
0.000558885
0.00122771
0.00204732
0.00301145
0.00411403
0.00535226
0.00672564
0.00823437
0.00987813
0.011651
0.0135329
0.0154833
0.0174523
0.0193955
0.0212816
0.0230909
0.0248115
0.0264359
0.027959
0.0293762
0.0306833
0.0318768
0.0329536
0.0339118
0.0347509
0.0354732
0.0360836
0.036591
0.0370088
0.0373554
0.0376547
0.0379354
0.03823
0.0385726
0.0389961
0.0395289
0.0401919
0.0409976
0.041949
0.0430424
0.0442706
0.045628
0.000161038
0.000553324
0.00121495
0.00202586
0.0029797
0.00407044
0.00529537
0.0066538
0.00814624
0.00977251
0.0115284
0.0133969
0.0153423
0.0173158
0.0192724
0.0211784
0.0230119
0.0247597
0.0264136
0.0279679
0.0294177
0.030759
0.0319879
0.033101
0.0340961
0.0349724
0.035731
0.0363761
0.036915
0.0373598
0.037727
0.0380384
0.0383211
0.0386062
0.038927
0.0393167
0.0398052
0.040416
0.0411646
0.0420576