/*--------------------------------*- C++ -*----------------------------------*\
| =========                 |                                                 |
| \\      /  F ield         | OpenFOAM: The Open Source CFD Toolbox           |
|  \\    /   O peration     | Version:  2.3.0                                 |
|   \\  /    A nd           | Web:      www.OpenFOAM.org                      |
|    \\/     M anipulation  |                                                 |
\*---------------------------------------------------------------------------*/
FoamFile
{
    version     2.0;
    format      ascii;
    class       volScalarField;
    location    "3000";
    object      p;
}
// * * * * * * * * * * * * * * * * * * * * * * * * * * * * * * * * * * * * * //

dimensions      [0 2 -2 0 0 0 0];

internalField   nonuniform List<scalar> 
37387
(
0.000170217
-3.16162
-6.74776
-10.3722
-14.025
-17.7071
-21.4304
-25.1943
-28.998
-32.8386
-36.716
-40.6311
-44.5808
-48.5594
-52.5601
-56.5829
-60.6161
-64.6503
-68.6735
-72.6825
-76.6527
-80.5699
-84.4513
-88.2615
-91.9932
-95.6309
-99.1812
-102.614
-105.864
-108.895
-111.613
-113.919
-115.578
-116.44
-116.186
-114.511
-111.139
-105.521
-95.7529
-79.8803
-64.3872
-60.4281
-33.8229
8.001
5.72367
3.03052
0.321235
-2.36547
-5.02296
-7.65641
-10.2557
-12.8225
-15.3444
-17.8207
-20.2425
-22.6145
-24.9163
-27.1567
-29.3329
-31.43
-33.4476
-35.3715
-37.195
-38.8986
-40.4528
-41.8519
-43.0226
-43.9297
-44.5196
-44.6905
-44.3437
-43.3595
-41.5902
-38.8789
-35.0204
-29.7107
-22.6945
-13.5703
-2.01227
12.4171
30.1915
51.9212
78.1885
109.156
145.396
187.046
15.4648
13.7356
11.733
9.71529
7.72119
5.76601
3.84282
1.96918
0.136203
-1.6412
-3.35233
-4.99734
-6.56081
-8.03563
-9.41331
-10.6759
-11.8041
-12.8046
-13.6384
-14.2974
-14.7623
-14.9994
-14.9941
-14.7135
-14.1175
-13.1678
-11.8164
-9.99317
-7.62281
-4.62301
-0.89588
3.68011
9.2606
15.9903
24.0592
33.5928
44.8107
57.8527
72.8572
89.8389
108.742
129.737
152.515
22.1462
20.825
19.3529
17.87
16.4151
15.011
13.6492
12.3516
11.1084
9.9385
8.85451
7.84174
6.93496
6.13144
5.44101
4.8807
4.45533
4.18968
4.10071
4.20114
4.52578
5.09565
5.957
7.11988
8.65043
10.602
13.0008
15.953
19.5167
23.7534
28.7862
34.7082
41.6206
49.6346
58.8717
69.4045
81.3198
94.6432
109.338
125.294
142.228
159.819
177.507
28.1613
27.1282
26.0577
24.9751
23.923
22.9175
21.9593
21.0667
20.2305
19.4703
18.7958
18.2039
17.713
17.3358
17.0709
16.9459
16.9615
17.1455
17.5015
18.0592
18.8345
19.8618
21.1611
22.7496
24.6958
27.011
29.7454
32.9784
36.7532
41.127
46.1775
51.9781
58.6156
66.1629
74.69
84.2597
94.8988
106.605
119.325
132.942
147.255
161.987
176.766
33.5062
32.7414
31.975
31.1942
30.4385
29.7321
29.0841
28.4999
27.9634
27.5053
27.135
26.852
26.6648
26.5915
26.6263
26.8048
27.1227
27.5974
28.2583
29.1136
30.1977
31.5216
33.1308
35.0415
37.2761
39.8771
42.8744
46.346
50.3361
54.8943
60.0773
65.9362
72.5375
79.9375
88.1677
97.2986
107.318
118.175
129.839
142.143
154.949
168.011
181.04
38.0423
37.7267
37.2075
36.6481
36.1139
35.6189
35.2009
34.8605
34.5292
34.2989
34.1572
34.1019
34.1459
34.2964
34.5359
34.9402
35.4717
36.1536
36.9918
38.0268
39.2896
40.7507
42.497
44.602
46.9643
49.769
52.8286
56.39
60.4063
64.9628
70.1102
75.8894
82.3925
89.5975
97.5018
106.149
115.567
125.646
136.429
147.713
159.413
171.289
183.079
42.5181
42.3923
41.9124
41.4645
41.0741
40.6717
40.3804
40.2293
40.0461
40.0108
40.0398
40.1546
40.363
40.689
41.0202
41.5786
42.315
43.1744
44.0759
45.209
46.6246
48.1613
49.9208
52.1369
54.5135
57.5164
60.5398
64.2029
68.222
72.8156
77.8446
83.346
89.6212
96.5181
104.121
112.321
121.308
130.784
140.923
151.496
162.419
173.519
184.512
46.6429
46.7189
46.1558
45.7236
45.3613
44.9019
44.7387
45.0436
44.7882
44.6852
44.7404
44.8346
45.0092
45.4611
45.6803
46.0906
46.8869
47.9042
48.7596
49.8294
51.4218
53.8832
55.1027
58.3697
59.6584
63.5609
65.871
69.1615
72.9028
77.6161
82.5142
87.1418
92.302
98.0318
104.808
112.335
121.153
130.348
140.238
150.404
160.645
171.189
182.091
100.691
174.968
216.58
244.44
264.786
280.157
292.02
301.244
308.414
313.975
318.248
321.516
323.975
325.765
327.028
327.846
328.294
328.441
328.343
328.03
327.55
326.928
326.196
325.365
324.465
323.5
322.496
321.455
320.389
319.305
318.207
317.099
315.984
314.862
313.738
312.609
311.48
310.35
309.221
308.089
306.942
305.841
305.299
225.172
250.688
269.82
284.795
296.564
305.752
312.822
318.154
322.089
324.893
326.81
328.026
328.691
328.932
328.842
328.502
327.971
327.304
326.53
325.678
324.771
323.827
322.854
321.864
320.86
319.847
318.825
317.797
316.765
315.731
314.693
313.655
312.617
311.581
310.548
309.518
308.494
307.476
306.466
305.456
304.438
303.479
303.093
175.482
196.83
215.931
232.57
246.808
258.884
269.012
277.459
284.463
290.232
294.98
298.848
301.994
304.532
306.563
308.161
309.41
310.354
311.039
311.514
311.801
311.931
311.929
311.81
311.589
311.284
310.909
310.469
309.975
309.435
308.856
308.241
307.598
306.929
306.238
305.528
304.801
304.061
303.309
302.538
301.745
300.965
300.443
194.638
210.625
225.205
238.224
249.641
259.543
268.033
275.24
281.32
286.404
290.642
294.138
297.015
299.359
301.255
302.77
303.969
304.896
305.595
306.1
306.442
306.647
306.736
306.724
306.624
306.452
306.218
305.925
305.585
305.205
304.788
304.339
303.862
303.361
302.837
302.295
301.739
301.169
300.588
299.994
299.386
298.803
298.575
191.211
205.01
217.894
229.672
240.25
249.643
257.877
265.027
271.185
276.463
280.957
284.765
287.988
290.699
292.968
294.858
296.423
297.709
298.758
299.593
300.256
300.764
301.14
301.4
301.563
301.636
301.631
301.559
301.427
301.246
301.017
300.749
300.446
300.113
299.751
299.366
298.963
298.542
298.108
297.655
297.181
296.73
296.535
193.774
205.963
217.451
228.028
237.64
246.296
253.973
260.7
266.566
271.647
276.016
279.769
282.985
285.725
288.049
290.017
291.674
293.056
294.204
295.152
295.923
296.552
297.052
297.44
297.721
297.911
298.025
298.069
298.053
297.989
297.875
297.727
297.545
297.327
297.074
296.804
296.515
296.208
295.891
295.549
295.183
294.83
294.68
194.65
205.694
216.278
226.005
234.927
243.066
250.404
256.819
262.474
267.38
271.654
275.367
278.6
281.374
283.767
285.805
287.547
289.013
290.239
291.3
292.186
292.941
293.553
294.04
294.413
294.701
294.917
295.059
295.132
295.169
295.16
295.12
295.029
294.886
294.705
294.532
294.343
294.136
293.914
293.649
293.362
293.108
293.086
195.417
205.702
215.696
224.764
233.067
240.858
248.095
254.18
259.53
264.198
268.375
272.023
275.281
278.061
280.484
282.542
284.309
285.806
287.07
288.269
289.235
290.046
290.695
291.233
291.662
292.023
292.301
292.5
292.626
292.788
292.866
292.885
292.823
292.705
292.58
292.542
292.464
292.322
292.149
291.934
291.735
291.638
291.857
194.211
203.592
214.436
222.414
230.37
239.118
246.616
251.335
257.163
261.751
265.877
269.442
272.814
275.516
277.848
279.874
281.606
283.095
284.385
285.67
286.254
287.107
287.926
288.631
289.133
289.497
289.803
290.056
290.283
290.583
290.485
290.539
290.623
290.635
290.679
290.86
290.716
290.495
290.498
290.419
290.309
290.343
290.571
137.147
136.947
136.738
136.522
136.297
136.064
135.821
135.57
135.311
135.043
134.767
134.483
134.191
133.891
133.585
133.272
132.954
132.631
132.305
131.977
131.647
131.32
130.994
130.673
130.355
130.043
129.736
129.436
129.143
128.856
128.575
128.302
128.036
127.776
127.523
127.281
127.052
126.852
126.707
126.66
126.773
127.273
128.933
137.733
137.417
137.08
136.74
136.4
136.062
135.727
135.396
135.068
134.745
134.428
134.118
133.815
133.519
133.229
132.947
132.672
132.403
132.14
131.882
131.63
131.383
131.14
130.903
130.67
130.442
130.217
129.996
129.778
129.562
129.35
129.141
128.938
128.742
128.561
128.403
128.286
128.238
128.311
128.64
129.5
131.224
133.689
138.343
138.076
137.774
137.475
137.18
136.89
136.606
136.326
136.05
135.777
135.508
135.243
134.98
134.721
134.463
134.206
133.949
133.692
133.436
133.179
132.921
132.665
132.409
132.154
131.901
131.651
131.404
131.161
130.922
130.688
130.46
130.241
130.033
129.844
129.683
129.564
129.517
129.592
129.876
130.522
131.78
133.855
136.707
138.961
138.733
138.47
138.206
137.943
137.68
137.421
137.163
136.905
136.645
136.386
136.129
135.874
135.621
135.37
135.119
134.87
134.62
134.371
134.121
133.872
133.623
133.373
133.124
132.876
132.631
132.389
132.151
131.918
131.692
131.476
131.272
131.087
130.928
130.809
130.75
130.793
130.995
131.451
132.307
133.73
135.79
138.447
139.442
139.306
139.072
138.832
138.59
138.345
138.105
137.869
137.631
137.388
137.143
136.897
136.654
136.415
136.179
135.941
135.704
135.466
135.229
134.989
134.748
134.507
134.265
134.022
133.78
133.539
133.302
133.07
132.843
132.625
132.418
132.228
132.063
131.933
131.854
131.855
131.977
132.285
132.872
133.865
135.385
137.444
139.958
140.107
139.842
139.624
139.406
139.181
138.948
138.722
138.512
138.298
138.073
137.84
137.601
137.363
137.133
136.911
136.686
136.455
136.227
136.004
135.772
135.541
135.311
135.078
134.842
134.605
134.369
134.137
133.911
133.69
133.478
133.28
133.101
132.953
132.846
132.801
132.85
133.036
133.421
134.096
135.178
136.749
138.815
141.267
140.553
140.303
140.121
139.929
139.725
139.496
139.275
139.091
138.907
138.7
138.477
138.242
138.007
137.79
137.594
137.393
137.161
136.93
136.721
136.489
136.262
136.04
135.82
135.592
135.362
135.131
134.905
134.686
134.475
134.268
134.073
133.899
133.762
133.673
133.652
133.738
133.972
134.413
135.176
136.369
138.004
140.087
142.57
140.92
140.717
140.585
140.432
140.247
139.987
139.72
139.576
139.46
139.284
139.062
138.795
138.491
138.21
138.032
137.919
137.718
137.478
137.335
137.108
136.863
136.64
136.443
136.222
135.994
135.76
135.533
135.334
135.153
134.963
134.775
134.601
134.469
134.405
134.403
134.516
134.776
135.217
136.003
137.274
138.911
140.868
143.13
140.743
140.688
140.834
140.982
141.08
140.723
140.131
139.966
140.125
140.252
140.314
140.264
140.02
139.449
138.87
138.833
138.575
138.069
138.115
138.007
137.746
137.489
137.367
137.189
136.963
136.691
136.364
136.087
135.913
135.739
135.551
135.328
135.134
135.065
135.053
135.192
135.465
135.89
136.993
138.818
140.679
142.598
145.462
135.083
139.191
142.964
146.257
149.258
151.977
154.461
156.747
158.868
160.849
162.714
164.481
166.167
167.786
169.351
170.869
172.349
173.796
175.215
176.611
177.984
179.339
180.675
181.995
183.299
184.589
185.865
187.126
188.374
189.609
190.83
192.039
193.234
194.417
195.586
196.741
197.884
199.012
200.128
201.229
202.305
203.385
204.567
137.348
139.547
142.158
144.806
147.502
150.138
152.684
155.123
157.451
159.666
161.779
163.795
165.722
167.566
169.335
171.037
172.674
174.254
175.779
177.256
178.687
180.076
181.426
182.74
184.019
185.267
186.487
187.679
188.847
189.992
191.115
192.219
193.305
194.374
195.427
196.466
197.49
198.501
199.501
200.488
201.452
202.418
203.503
140.002
142.392
144.846
147.2
149.584
151.93
154.232
156.47
158.636
160.723
162.73
164.658
166.509
168.288
169.997
171.641
173.223
174.75
176.222
177.647
179.026
180.363
181.66
182.922
184.149
185.346
186.513
187.654
188.77
189.863
190.935
191.986
193.017
194.03
195.025
196.004
196.967
197.914
198.849
199.768
200.666
201.566
202.553
141.378
143.841
146.215
148.517
150.829
153.091
155.298
157.439
159.508
161.503
163.421
165.267
167.041
168.746
170.386
171.967
173.49
174.96
176.38
177.753
179.083
180.373
181.625
182.843
184.028
185.183
186.311
187.412
188.489
189.544
190.577
191.59
192.583
193.558
194.516
195.455
196.379
197.287
198.181
199.061
199.922
200.768
201.659
142.669
145.046
147.274
149.501
151.742
153.942
156.094
158.182
160.201
162.149
164.025
165.829
167.563
169.232
170.837
172.384
173.875
175.313
176.7
178.04
179.337
180.592
181.809
182.989
184.135
185.25
186.336
187.396
188.431
189.443
190.431
191.399
192.346
193.273
194.182
195.073
195.948
196.806
197.65
198.483
199.305
200.105
200.841
143.926
146.273
148.422
150.592
152.763
154.897
156.987
159.017
160.985
162.885
164.717
166.48
168.176
169.806
171.375
172.89
174.35
175.755
177.107
178.411
179.673
180.89
182.067
183.206
184.313
185.388
186.435
187.456
188.453
189.426
190.373
191.298
192.2
193.083
193.947
194.791
195.616
196.425
197.221
198.007
198.785
199.541
200.195
145.237
147.512
149.584
151.691
153.787
155.85
157.87
159.834
161.744
163.595
165.378
167.095
168.745
170.329
171.863
173.351
174.782
176.15
177.464
178.736
179.966
181.15
182.293
183.399
184.472
185.515
186.53
187.521
188.488
189.427
190.338
191.223
192.083
192.927
193.755
194.554
195.333
196.098
196.853
197.597
198.331
199.04
199.637
146.185
148.407
150.432
152.548
154.619
156.649
158.635
160.553
162.43
164.262
166.008
167.704
169.312
170.856
172.371
173.867
175.277
176.601
177.878
179.13
180.339
181.479
182.575
183.643
184.675
185.681
186.663
187.627
188.569
189.47
190.343
191.188
192.009
192.821
193.624
194.371
195.101
195.82
196.536
197.24
197.922
198.586
199.166
148.734
149.794
151.642
153.619
155.584
157.455
159.384
161.17
162.995
164.824
166.471
168.137
169.654
171.129
172.651
174.188
175.512
176.737
178.001
179.252
180.431
181.496
182.58
183.656
184.689
185.696
186.682
187.657
188.606
189.462
190.318
191.134
191.916
192.708
193.517
194.16
194.841
195.544
196.251
196.943
197.594
198.25
198.91
-445.512
-430.055
-413.779
-399.08
-381.983
-362.12
-341.433
-320.825
-300.553
-280.827
-261.91
-244.047
-227.265
-211.639
-197.194
-183.885
-171.654
-160.434
-150.164
-140.751
-132.061
-123.976
-116.407
-109.269
-102.504
-96.0433
-89.8372
-83.8476
-78.0453
-72.4056
-66.9035
-61.5225
-56.2566
-51.0923
-46.0275
-41.0554
-36.1685
-31.3641
-26.6411
-21.998
-17.4402
-12.96
-9.13037
-352.569
-351.562
-348.83
-345.76
-343.491
-341.535
-338.582
-333.955
-327.57
-319.523
-309.893
-298.917
-286.767
-273.705
-260.06
-246.09
-232.074
-218.249
-204.821
-191.909
-179.61
-167.939
-156.924
-146.537
-136.725
-127.442
-118.635
-110.264
-102.292
-94.6793
-87.3875
-80.3839
-73.6497
-67.1533
-60.8795
-54.812
-48.9348
-43.2334
-37.7002
-32.3255
-27.1093
-22.027
-17.56
-371.883
-371.341
-371.189
-370.765
-369.377
-366.939
-363.716
-359.882
-355.153
-349.22
-341.922
-333.273
-323.295
-312.081
-299.809
-286.662
-272.893
-258.763
-244.513
-230.361
-216.517
-203.091
-190.196
-177.863
-166.119
-154.96
-144.35
-134.259
-124.654
-115.504
-106.771
-98.4234
-90.4349
-82.7747
-75.4198
-68.3484
-61.5428
-54.9839
-48.6566
-42.5466
-36.6416
-30.9053
-25.764
-360.304
-360.01
-359.484
-358.819
-358.021
-357.028
-355.743
-354.021
-351.838
-349.121
-345.607
-341.067
-335.292
-328.176
-319.656
-309.755
-298.6
-286.402
-273.378
-259.812
-245.98
-232.117
-218.431
-205.064
-192.134
-179.689
-167.763
-156.362
-145.467
-135.066
-125.13
-115.635
-106.554
-97.8634
-89.5339
-81.5458
-73.8751
-66.5082
-59.4201
-52.596
-46.0227
-39.6604
-34.0702
-360.439
-360.303
-360.176
-359.989
-359.689
-359.205
-358.451
-357.339
-355.771
-353.678
-350.991
-347.577
-343.29
-338.012
-331.608
-323.98
-315.09
-304.967
-293.723
-281.518
-268.595
-255.192
-241.56
-227.914
-214.437
-201.265
-188.486
-176.153
-164.292
-152.914
-142.004
-131.555
-121.55
-111.969
-102.79
-93.9922
-85.5523
-77.4571
-69.6819
-62.2122
-55.0356
-48.1272
-42.3815
-355.134
-355.019
-354.849
-354.621
-354.321
-353.925
-353.39
-352.667
-351.693
-350.393
-348.68
-346.457
-343.588
-339.942
-335.381
-329.777
-323.024
-315.05
-305.861
-295.513
-284.131
-271.904
-259.078
-245.86
-232.496
-219.172
-206.038
-193.209
-180.754
-168.713
-157.107
-145.938
-135.211
-124.911
-115.031
-105.549
-96.452
-87.723
-79.3451
-71.3025
-63.5866
-56.1664
-50.0787
-350.726
-350.639
-350.551
-350.437
-350.276
-350.045
-349.707
-349.214
-348.516
-347.555
-346.265
-344.568
-342.375
-339.575
-336.058
-331.697
-326.38
-320.008
-312.501
-303.852
-294.069
-283.266
-271.608
-259.273
-246.492
-233.478
-220.421
-207.473
-194.763
-182.361
-170.324
-158.674
-147.43
-136.59
-126.162
-116.133
-106.495
-97.2342
-88.333
-79.7769
-71.5519
-63.5503
-56.4892
-344.807
-344.736
-344.663
-344.572
-344.447
-344.273
-344.026
-343.668
-343.159
-342.453
-341.499
-340.234
-338.586
-336.461
-333.761
-330.374
-326.187
-321.092
-314.986
-307.817
-299.537
-290.187
-279.839
-268.638
-256.75
-244.39
-231.751
-219.011
-206.337
-193.843
-181.609
-169.696
-158.13
-146.929
-136.109
-125.673
-115.613
-105.93
-96.6095
-87.6331
-79.0041
-70.6285
-63.3207
-338.448
-338.385
-338.343
-338.296
-338.23
-338.129
-337.972
-337.729
-337.361
-336.828
-336.089
-335.092
-333.78
-332.08
-329.914
-327.185
-323.793
-319.641
-314.611
-308.634
-301.636
-293.598
-284.531
-274.523
-263.687
-252.19
-240.215
-227.943
-215.559
-203.2
-190.986
-178.997
-167.288
-155.896
-144.832
-134.121
-123.765
-113.768
-104.129
-94.8259
-85.8696
-77.179
-69.7061
-331.366
-331.303
-331.28
-331.261
-331.23
-331.174
-331.08
-330.918
-330.655
-330.255
-329.683
-328.896
-327.847
-326.478
-324.721
-322.495
-319.714
-316.287
-312.109
-307.096
-301.165
-294.265
-286.371
-277.513
-267.759
-257.23
-246.072
-234.454
-222.559
-210.534
-198.523
-186.628
-174.932
-163.49
-152.325
-141.465
-130.929
-120.724
-110.855
-101.315
-92.1109
-83.1614
-75.5313
-323.803
-323.744
-323.741
-323.749
-323.753
-323.742
-323.701
-323.609
-323.433
-323.141
-322.7
-322.073
-321.22
-320.095
-318.641
-316.79
-314.468
-311.593
-308.076
-303.831
-298.774
-292.834
-285.971
-278.163
-269.453
-259.91
-249.639
-238.788
-227.513
-215.975
-204.317
-192.666
-181.119
-169.749
-158.606
-147.716
-137.104
-126.793
-116.795
-107.11
-97.764
-88.6621
-80.8631
-315.785
-315.735
-315.748
-315.779
-315.811
-315.834
-315.836
-315.799
-315.695
-315.492
-315.158
-314.662
-313.969
-313.039
-311.827
-310.273
-308.315
-305.88
-302.891
-299.267
-294.926
-289.791
-283.813
-276.944
-269.194
-260.598
-251.223
-241.189
-230.624
-219.68
-208.496
-197.208
-185.926
-174.741
-163.718
-152.896
-142.31
-131.977
-121.925
-112.157
-102.704
-93.4704
-85.2452
-307.435
-307.394
-307.422
-307.472
-307.528
-307.581
-307.62
-307.63
-307.586
-307.458
-307.214
-306.827
-306.265
-305.496
-304.479
-303.163
-301.495
-299.414
-296.849
-293.725
-289.973
-285.512
-280.287
-274.239
-267.354
-259.642
-251.135
-241.923
-232.107
-221.821
-211.194
-200.364
-189.444
-178.537
-167.722
-157.054
-146.571
-136.3
-126.267
-116.485
-106.984
-97.6851
-89.3057
-298.823
-298.788
-298.828
-298.895
-298.971
-299.048
-299.118
-299.166
-299.172
-299.107
-298.942
-298.648
-298.198
-297.562
-296.706
-295.588
-294.161
-292.37
-290.155
-287.449
-284.185
-280.291
-275.704
-270.37
-264.252
-257.341
-249.65
-241.237
-232.178
-222.579
-212.565
-202.256
-191.773
-181.221
-170.689
-160.246
-149.938
-139.799
-129.858
-120.131
-110.662
-101.394
-93.0544
-290.013
-289.987
-290.038
-290.121
-290.216
-290.314
-290.411
-290.493
-290.542
-290.531
-290.433
-290.219
-289.865
-289.345
-288.627
-287.675
-286.448
-284.898
-282.974
-280.615
-277.761
-274.346
-270.305
-265.587
-260.144
-253.956
-247.015
-239.357
-231.035
-222.132
-212.755
-203.011
-193.018
-182.884
-172.695
-162.537
-152.462
-142.511
-132.717
-123.097
-113.69
-104.443
-96.0418
-281.085
-281.066
-281.127
-281.223
-281.332
-281.449
-281.568
-281.678
-281.762
-281.798
-281.757
-281.614
-281.345
-280.923
-280.323
-279.514
-278.457
-277.115
-275.438
-273.373
-270.865
-267.857
-264.287
-260.102
-255.254
-249.708
-243.45
-236.495
-228.875
-220.652
-211.915
-202.76
-193.289
-183.616
-173.821
-163.996
-154.202
-144.49
-134.892
-125.436
-116.152
-106.994
-98.4934
-272.097
-272.083
-272.152
-272.257
-272.38
-272.512
-272.649
-272.782
-272.897
-272.972
-272.982
-272.9
-272.704
-272.37
-271.874
-271.189
-270.279
-269.112
-267.645
-265.833
-263.624
-260.964
-257.8
-254.077
-249.747
-244.775
-239.132
-232.822
-225.861
-218.293
-210.188
-201.625
-192.7
-183.511
-174.147
-164.694
-155.22
-145.784
-136.422
-127.163
-118.035
-109.011
-100.309
-263.089
-263.082
-263.159
-263.275
-263.409
-263.555
-263.707
-263.859
-264
-264.109
-264.163
-264.135
-264.003
-263.746
-263.342
-262.764
-261.985
-260.972
-259.688
-258.094
-256.142
-253.784
-250.971
-247.65
-243.779
-239.312
-234.223
-228.501
-222.151
-215.202
-207.704
-199.726
-191.351
-182.663
-173.752
-164.703
-155.58
-146.456
-137.366
-128.351
-119.443
-110.667
-102.336
-254.121
-254.119
-254.203
-254.326
-254.469
-254.625
-254.791
-254.96
-255.122
-255.259
-255.351
-255.371
-255.296
-255.107
-254.782
-254.298
-253.633
-252.754
-251.631
-250.226
-248.498
-246.403
-243.898
-240.932
-237.463
-233.447
-228.855
-223.664
-217.878
-211.506
-204.588
-197.178
-189.344
-181.164
-172.718
-164.09
-155.343
-146.55
-137.751
-128.992
-120.295
-111.65
-102.874
-245.226
-245.229
-245.317
-245.447
-245.598
-245.764
-245.941
-246.124
-246.303
-246.464
-246.587
-246.649
-246.626
-246.496
-246.243
-245.844
-245.278
-244.519
-243.537
-242.298
-240.768
-238.905
-236.669
-234.012
-230.897
-227.281
-223.134
-218.426
-213.155
-207.319
-200.947
-194.08
-186.775
-179.096
-171.122
-162.925
-154.57
-146.128
-137.642
-129.162
-120.713
-112.319
-103.659
-236.44
-236.447
-236.541
-236.676
-236.832
-237.006
-237.193
-237.387
-237.582
-237.763
-237.913
-238.01
-238.031
-237.955
-237.765
-237.442
-236.965
-236.31
-235.453
-234.363
-233.006
-231.347
-229.348
-226.968
-224.167
-220.908
-217.156
-212.883
-208.079
-202.739
-196.879
-190.526
-183.729
-176.543
-169.037
-161.274
-153.322
-145.246
-137.095
-128.917
-120.747
-112.65
-104.149
-227.794
-227.806
-227.903
-228.041
-228.202
-228.383
-228.577
-228.78
-228.985
-229.184
-229.357
-229.485
-229.544
-229.516
-229.383
-229.127
-228.729
-228.169
-227.422
-226.462
-225.259
-223.78
-221.992
-219.856
-217.335
-214.394
-211
-207.121
-202.744
-197.856
-192.47
-186.601
-180.29
-173.578
-166.53
-159.2
-151.654
-143.95
-136.142
-128.276
-120.384
-112.543
-104.117
-219.307
-219.322
-219.422
-219.563
-219.729
-219.914
-220.115
-220.326
-220.541
-220.753
-220.946
-221.1
-221.193
-221.207
-221.125
-220.929
-220.602
-220.125
-219.477
-218.634
-217.569
-216.252
-214.651
-212.732
-210.46
-207.803
-204.727
-201.203
-197.213
-192.742
-187.793
-182.378
-176.524
-170.269
-163.665
-156.76
-149.616
-142.29
-134.83
-127.292
-119.706
-112.182
-104.035
-211.006
-211.022
-211.125
-211.27
-211.438
-211.627
-211.832
-212.049
-212.272
-212.495
-212.703
-212.878
-213.002
-213.054
-213.016
-212.873
-212.61
-212.208
-211.648
-210.909
-209.966
-208.792
-207.358
-205.634
-203.587
-201.183
-198.394
-195.19
-191.55
-187.46
-182.916
-177.923
-172.5
-166.678
-160.5
-154.008
-147.261
-140.308
-133.196
-125.982
-118.694
-111.457
-103.55
-202.899
-202.919
-203.025
-203.172
-203.342
-203.533
-203.742
-203.963
-204.192
-204.423
-204.643
-204.838
-204.987
-205.072
-205.074
-204.978
-204.773
-204.439
-203.958
-203.313
-202.481
-201.435
-200.152
-198.601
-196.754
-194.578
-192.047
-189.133
-185.812
-182.067
-177.894
-173.291
-168.27
-162.859
-157.087
-150.996
-144.633
-138.046
-131.28
-124.381
-117.376
-110.38
-102.695
-195.01
-195.032
-195.139
-195.285
-195.456
-195.648
-195.859
-196.083
-196.318
-196.554
-196.785
-196.996
-197.167
-197.28
-197.318
-197.265
-197.109
-196.836
-196.427
-195.865
-195.13
-194.2
-193.051
-191.656
-189.989
-188.019
-185.721
-183.067
-180.037
-176.609
-172.775
-168.533
-163.888
-158.861
-153.475
-147.767
-141.777
-135.547
-129.122
-122.542
-115.836
-109.113
-101.741
-187.335
-187.36
-187.468
-187.616
-187.788
-187.981
-188.193
-188.42
-188.658
-188.899
-189.138
-189.361
-189.55
-189.687
-189.756
-189.742
-189.632
-189.413
-189.068
-188.581
-187.936
-187.109
-186.082
-184.828
-183.321
-181.536
-179.448
-177.03
-174.261
-171.122
-167.601
-163.691
-159.395
-154.728
-149.709
-144.365
-138.734
-132.854
-126.767
-120.512
-114.122
-107.715
-100.771
-179.893
-179.919
-180.028
-180.175
-180.347
-180.541
-180.752
-180.98
-181.219
-181.465
-181.71
-181.942
-182.147
-182.305
-182.402
-182.422
-182.352
-182.181
-181.893
-181.475
-180.909
-180.177
-179.258
-178.13
-176.769
-175.152
-173.254
-171.05
-168.519
-165.642
-162.406
-158.803
-154.83
-150.498
-145.822
-140.824
-135.536
-129.993
-124.23
-118.285
-112.19
-106.045
-99.4082
-172.679
-172.708
-172.818
-172.964
-173.135
-173.329
-173.541
-173.768
-174.009
-174.256
-174.505
-174.746
-174.963
-175.139
-175.259
-175.309
-175.276
-175.148
-174.912
-174.555
-174.061
-173.412
-172.592
-171.578
-170.35
-168.883
-167.156
-165.146
-162.831
-160.194
-157.219
-153.897
-150.224
-146.205
-141.851
-137.181
-132.22
-126.998
-121.546
-115.9
-110.086
-104.188
-97.8057
-165.703
-165.734
-165.843
-165.988
-166.158
-166.35
-166.561
-166.788
-167.029
-167.277
-167.529
-167.776
-168.003
-168.194
-168.335
-168.411
-168.411
-168.322
-168.132
-167.83
-167.402
-166.831
-166.097
-165.185
-164.074
-162.745
-161.174
-159.339
-157.222
-154.802
-152.066
-149.002
-145.606
-141.877
-137.823
-133.459
-128.808
-123.892
-118.742
-113.384
-107.846
-102.201
-95.9928
-158.961
-158.993
-159.102
-159.246
-159.415
-159.605
-159.815
-160.04
-160.28
-160.528
-160.781
-161.032
-161.267
-161.472
-161.629
-161.728
-161.756
-161.703
-161.556
-161.303
-160.932
-160.428
-159.776
-158.959
-157.956
-156.75
-155.319
-153.644
-151.706
-149.486
-146.968
-144.141
-140.998
-137.538
-133.766
-129.691
-125.333
-120.711
-115.852
-110.782
-105.532
-100.185
-94.26
-152.456
-152.489
-152.597
-152.739
-152.906
-153.094
-153.301
-153.525
-153.763
-154.011
-154.264
-154.517
-154.758
-154.972
-155.146
-155.265
-155.319
-155.296
-155.186
-154.978
-154.66
-154.218
-153.638
-152.904
-151.998
-150.903
-149.601
-148.071
-146.295
-144.256
-141.938
-139.329
-136.422
-133.211
-129.7
-125.896
-121.814
-117.469
-112.887
-108.09
-103.1
-98.0044
-92.2848
-146.179
-146.213
-146.321
-146.462
-146.627
-146.812
-147.018
-147.24
-147.475
-147.721
-147.974
-148.228
-148.473
-148.696
-148.882
-149.019
-149.095
-149.099
-149.022
-148.854
-148.583
-148.197
-147.682
-147.025
-146.209
-145.217
-144.03
-142.632
-141.005
-139.13
-136.995
-134.585
-131.892
-128.912
-125.644
-122.093
-118.269
-114.187
-109.869
-105.335
-100.603
-95.7643
-90.3182
-140.134
-140.169
-140.276
-140.415
-140.578
-140.76
-140.962
-141.181
-141.414
-141.658
-141.91
-142.163
-142.411
-142.64
-142.837
-142.988
-143.083
-143.112
-143.066
-142.934
-142.706
-142.371
-141.915
-141.326
-140.588
-139.687
-138.606
-137.327
-135.834
-134.112
-132.143
-129.918
-127.424
-124.657
-121.613
-118.298
-114.719
-110.886
-106.815
-102.529
-98.043
-93.4495
-88.2731
-134.314
-134.349
-134.455
-134.592
-134.751
-134.931
-135.13
-135.346
-135.575
-135.817
-136.067
-136.32
-136.569
-136.802
-137.007
-137.171
-137.283
-137.333
-137.313
-137.212
-137.022
-136.733
-136.332
-135.806
-135.141
-134.324
-133.337
-132.167
-130.797
-129.213
-127.397
-125.339
-123.028
-120.458
-117.623
-114.526
-111.172
-107.572
-103.739
-99.6914
-95.4446
-91.0839
-86.2037
-128.712
-128.748
-128.853
-128.988
-129.144
-129.321
-129.516
-129.729
-129.955
-130.193
-130.441
-130.692
-130.941
-131.178
-131.389
-131.563
-131.69
-131.76
-131.763
-131.692
-131.537
-131.287
-130.934
-130.464
-129.866
-129.124
-128.225
-127.154
-125.896
-124.436
-122.761
-120.856
-118.713
-116.323
-113.682
-110.789
-107.646
-104.262
-100.651
-96.8231
-92.7908
-88.6261
-83.9283
-123.328
-123.363
-123.466
-123.598
-123.752
-123.925
-124.117
-124.326
-124.548
-124.783
-125.026
-125.275
-125.524
-125.762
-125.979
-126.162
-126.301
-126.387
-126.41
-126.364
-126.24
-126.029
-125.719
-125.301
-124.761
-124.088
-123.268
-122.287
-121.132
-119.787
-118.239
-116.476
-114.487
-112.264
-109.802
-107.098
-104.156
-100.978
-97.5726
-93.9544
-90.1361
-86.1874
-81.7259
-118.148
-118.184
-118.286
-118.416
-118.567
-118.737
-118.925
-119.129
-119.347
-119.578
-119.818
-120.064
-120.311
-120.55
-120.77
-120.96
-121.109
-121.21
-121.252
-121.229
-121.133
-120.954
-120.684
-120.311
-119.826
-119.215
-118.467
-117.569
-116.506
-115.266
-113.836
-112.202
-110.355
-108.285
-105.988
-103.458
-100.697
-97.707
-94.499
-91.0803
-87.4559
-83.6868
-79.4006
-113.172
-113.21
-113.31
-113.437
-113.584
-113.751
-113.934
-114.134
-114.348
-114.575
-114.811
-115.053
-115.298
-115.536
-115.758
-115.953
-116.112
-116.224
-116.284
-116.281
-116.209
-116.06
-115.825
-115.494
-115.058
-114.505
-113.823
-112.998
-112.021
-110.877
-109.552
-108.037
-106.321
-104.394
-102.249
-99.8822
-97.2957
-94.488
-91.4624
-88.2287
-84.7956
-81.2208
-77.0252
-108.389
-108.431
-108.529
-108.653
-108.797
-108.959
-109.139
-109.334
-109.544
-109.766
-109.997
-110.236
-110.478
-110.715
-110.938
-111.137
-111.303
-111.427
-111.499
-111.514
-111.464
-111.343
-111.139
-110.847
-110.454
-109.953
-109.33
-108.574
-107.674
-106.616
-105.39
-103.984
-102.387
-100.59
-98.5861
-96.3705
-93.9408
-91.2985
-88.448
-85.3969
-82.1516
-78.7741
-74.8613
-103.795
-103.84
-103.936
-104.057
-104.198
-104.356
-104.531
-104.722
-104.928
-105.145
-105.372
-105.606
-105.844
-106.079
-106.303
-106.505
-106.676
-106.808
-106.894
-106.925
-106.894
-106.796
-106.622
-106.363
-106.011
-105.556
-104.987
-104.294
-103.465
-102.488
-101.351
-100.045
-98.5586
-96.8817
-95.0082
-92.9332
-90.6538
-88.1709
-85.483
-82.6014
-79.54
-76.3604
-72.6941
-99.3833
-99.4322
-99.5265
-99.6442
-99.7805
-99.9348
-100.106
-100.293
-100.493
-100.705
-100.928
-101.158
-101.392
-101.624
-101.847
-102.051
-102.227
-102.366
-102.462
-102.506
-102.494
-102.416
-102.268
-102.041
-101.725
-101.312
-100.793
-100.155
-99.3903
-98.4866
-97.4322
-96.2169
-94.8311
-93.2653
-91.5117
-89.5663
-87.425
-85.0847
-82.5481
-79.8241
-76.9125
-73.8684
-70.349
-95.1476
-95.1986
-95.2913
-95.4056
-95.5386
-95.6895
-95.8563
-96.0385
-96.2339
-96.441
-96.6583
-96.8836
-97.1136
-97.3428
-97.5639
-97.7683
-97.9472
-98.0929
-98.1976
-98.2539
-98.2565
-98.199
-98.0734
-97.8732
-97.591
-97.2169
-96.7417
-96.1565
-95.45
-94.612
-93.6334
-92.5026
-91.2094
-89.7451
-88.1029
-86.2763
-84.2597
-82.0558
-79.6614
-77.077
-74.3118
-71.4105
-68.1018
-91.0836
-91.1347
-91.2251
-91.3364
-91.466
-91.6127
-91.7755
-91.9526
-92.1432
-92.3454
-92.5575
-92.7776
-93.0032
-93.2289
-93.4476
-93.652
-93.8335
-93.9833
-94.0952
-94.1623
-94.1783
-94.1373
-94.0325
-93.8571
-93.6039
-93.2647
-92.8301
-92.2915
-91.6395
-90.8632
-89.9532
-88.8987
-87.6908
-86.3211
-84.781
-83.0649
-81.1682
-79.0861
-76.8182
-74.3697
-71.7418
-68.9666
-65.7732
-87.1817
-87.232
-87.3201
-87.4284