/*--------------------------------*- C++ -*----------------------------------*\
| =========                 |                                                 |
| \\      /  F ield         | OpenFOAM: The Open Source CFD Toolbox           |
|  \\    /   O peration     | Version:  2.3.0                                 |
|   \\  /    A nd           | Web:      www.OpenFOAM.org                      |
|    \\/     M anipulation  |                                                 |
\*---------------------------------------------------------------------------*/
FoamFile
{
    version     2.0;
    format      ascii;
    class       volVectorField;
    location    "3000";
    object      U;
}
// * * * * * * * * * * * * * * * * * * * * * * * * * * * * * * * * * * * * * //

dimensions      [0 1 -1 0 0 0 0];

internalField   nonuniform List<vector> 
37387
(
(25.6701 10.3624 2.2979e-21)
(25.6734 10.6781 1.99112e-21)
(25.6717 10.9837 -2.60858e-21)
(25.6635 11.2963 -7.59488e-21)
(25.6484 11.6152 0)
(25.6259 11.9408 1.13242e-20)
(25.5953 12.2732 0)
(25.5561 12.6127 -7.84023e-21)
(25.5079 12.9596 0)
(25.4502 13.3142 -9.36583e-21)
(25.3826 13.6771 0)
(25.3049 14.0484 0)
(25.2166 14.4288 0)
(25.1172 14.8186 5.37827e-21)
(25.0059 15.2184 1.44204e-20)
(24.8821 15.6288 1.92137e-19)
(24.745 16.0506 -2.09014e-19)
(24.5935 16.4845 2.39839e-19)
(24.4267 16.9316 -2.48357e-19)
(24.2435 17.3927 6.23338e-21)
(24.0426 17.8689 2.99235e-19)
(23.8225 18.3607 -2.92904e-19)
(23.5817 18.869 7.57067e-21)
(23.3181 19.3935 6.2519e-21)
(23.0283 19.9335 -8.54603e-21)
(22.7086 20.4871 0)
(22.3538 21.0514 4.35314e-19)
(21.9575 21.6219 -4.48436e-19)
(21.5112 22.1921 4.81186e-19)
(21.0055 22.7543 -1.0294e-18)
(20.4282 23.2988 5.44382e-19)
(19.7646 23.8147 -2.00424e-20)
(18.9954 24.2905 -1.56247e-20)
(18.0992 24.7122 -5.82307e-21)
(17.0505 25.0653 -3.29487e-19)
(15.8204 25.3342 3.66342e-19)
(14.3766 25.5047 0)
(12.6834 25.5601 -3.7697e-21)
(10.7014 25.4612 0)
(8.39465 25.1566 6.89451e-20)
(5.75289 24.705 -5.87123e-20)
(2.7967 24.3108 5.28516e-20)
(-0.338174 23.5487 -7.97951e-20)
(25.361 10.3843 4.12983e-22)
(25.3446 10.6602 9.45669e-22)
(25.3265 10.9332 -2.85842e-21)
(25.3025 11.2121 0)
(25.2722 11.4963 -1.41181e-21)
(25.235 11.7857 1.19584e-20)
(25.1902 12.0804 -1.18332e-20)
(25.1375 12.3805 -3.46018e-20)
(25.0762 12.686 4.21507e-20)
(25.006 12.9971 0)
(24.9261 13.3141 0)
(24.8364 13.6372 0)
(24.7363 13.9667 8.45789e-20)
(24.6254 14.3026 -1.68926e-19)
(24.5029 14.6452 9.25356e-20)
(24.3683 14.9945 -1.08247e-19)
(24.2204 15.3507 1.08783e-19)
(24.0581 15.7139 0)
(23.8799 16.0841 8.55382e-21)
(23.6844 16.4617 -6.22734e-21)
(23.4698 16.8469 -1.41611e-19)
(23.2341 17.2399 1.43689e-19)
(22.9752 17.6413 -4.16039e-21)
(22.6909 18.0514 1.7993e-19)
(22.3782 18.4701 -1.67513e-19)
(22.0343 18.8978 0)
(21.6555 19.3338 0)
(21.2378 19.7772 6.29891e-21)
(20.7767 20.2261 0)
(20.2672 20.6776 0)
(19.7041 21.1276 -5.59677e-21)
(19.0821 21.5701 8.67278e-20)
(18.3954 21.9961 -8.39629e-20)
(17.6392 22.394 5.44261e-20)
(16.8099 22.7487 -7.20913e-20)
(15.9059 23.0411 2.23807e-20)
(14.9282 23.2482 3.21905e-20)
(13.8812 23.3408 -9.39942e-20)
(12.7747 23.2839 1.1889e-19)
(11.6292 23.0364 -5.42891e-20)
(10.481 22.5584 -1.16459e-20)
(9.35786 21.8078 0)
(8.25216 20.7348 2.33541e-20)
(25.0862 10.3788 0)
(25.0594 10.6259 -2.34694e-21)
(25.0294 10.8708 -6.21413e-21)
(24.9938 11.1204 -6.80127e-21)
(24.9522 11.3744 1.43444e-20)
(24.9042 11.6327 -3.68258e-21)
(24.8492 11.8951 -1.44331e-20)
(24.7866 12.1616 7.30991e-21)
(24.716 12.4324 -3.27711e-21)
(24.6367 12.7074 0)
(24.548 12.9867 0)
(24.4495 13.2705 2.12496e-20)
(24.3408 13.5593 -4.69898e-20)
(24.2215 13.853 5.74415e-20)
(24.091 14.1519 -3.12805e-20)
(23.9489 14.456 -5.63106e-22)
(23.7944 14.7653 0)
(23.6268 15.0798 0)
(23.4447 15.3992 4.84562e-20)
(23.247 15.7233 -5.17932e-20)
(23.0322 16.0518 0)
(22.7985 16.3844 0)
(22.544 16.7205 -6.11294e-20)
(22.2665 17.0595 1.16117e-19)
(21.9638 17.4005 -1.1354e-19)
(21.633 17.7423 5.66937e-20)
(21.2713 18.0837 0)
(20.8753 18.4224 4.11436e-21)
(20.4413 18.7558 1.38044e-20)
(19.9657 19.0808 -7.84883e-21)
(19.4445 19.393 -4.41445e-21)
(18.8736 19.687 1.61698e-20)
(18.2491 19.956 2.00469e-20)
(17.5677 20.1914 1.97305e-20)
(16.8274 20.3833 -5.5333e-20)
(16.028 20.5204 -4.67046e-20)
(15.1722 20.5897 -2.376e-20)
(14.2659 20.5764 7.81788e-20)
(13.3207 20.4657 0)
(12.3551 20.2435 -2.90759e-20)
(11.3967 19.9001 6.34267e-20)
(10.4815 19.4265 1.67387e-20)
(9.65796 18.8185 -3.54944e-20)
(24.8427 10.36 1.14969e-20)
(24.8085 10.5803 8.69148e-21)
(24.7706 10.8008 0)
(24.7274 11.0248 2.36482e-20)
(24.6787 11.2528 -2.15494e-20)
(24.6243 11.4843 0)
(24.5637 11.7193 0)
(24.4964 11.9578 -2.20114e-20)
(24.4218 12.1998 2.31743e-20)
(24.3395 12.4451 -2.07572e-20)
(24.2485 12.6938 1.39627e-20)
(24.1483 12.946 -4.0127e-22)
(24.0382 13.2018 1.18413e-20)
(23.9178 13.4614 -1.45418e-20)
(23.7867 13.7251 1.8683e-20)
(23.6443 13.9929 -1.81623e-20)
(23.4902 14.2649 -2.51248e-21)
(23.3237 14.5408 0)
(23.1439 14.8206 1.28899e-21)
(22.9497 15.104 -1.77209e-20)
(22.7398 15.3905 1.80324e-20)
(22.5129 15.6798 1.98265e-20)
(22.2673 15.971 -2.00534e-20)
(22.0013 16.2636 -1.39222e-20)
(21.7132 16.5567 1.59032e-20)
(21.4007 16.8486 0)
(21.0619 17.1381 0)
(20.6944 17.4233 2.95055e-21)
(20.2957 17.7011 0)
(19.8637 17.9689 4.81126e-21)
(19.396 18.2227 3.52927e-21)
(18.8904 18.4575 0)
(18.3453 18.6673 1.13669e-19)
(17.7598 18.8454 -2.03885e-19)
(17.1341 18.9834 7.48038e-20)
(16.4701 19.0721 1.11724e-19)
(15.7717 19.1017 -1.04834e-19)
(15.0457 19.0613 -1.90553e-20)
(14.3022 18.9409 -9.11968e-20)
(13.555 18.7316 5.7008e-20)
(12.822 18.4282 -1.28204e-20)
(12.1239 18.0304 -1.50356e-20)
(11.4849 17.545 1.73684e-20)
(24.6268 10.3305 -7.79527e-21)
(24.5883 10.5279 7.54987e-21)
(24.5454 10.7268 -7.27382e-21)
(24.4973 10.9286 -2.41589e-20)
(24.4442 11.1338 2.22103e-20)
(24.3859 11.3423 2.17172e-20)
(24.3223 11.5539 -2.14859e-20)
(24.2525 11.7683 0)
(24.1761 11.9859 5.70744e-21)
(24.0928 12.2066 4.46429e-20)
(24.0018 12.4299 -3.27505e-21)
(23.9023 12.6561 -2.88228e-20)
(23.7935 12.8852 0)
(23.6746 13.1172 2.75548e-21)
(23.5453 13.3524 3.12141e-20)
(23.4052 13.591 -2.62177e-20)
(23.2538 13.8329 2.5475e-21)
(23.0906 14.0782 0)
(22.9149 14.3267 -1.30824e-21)
(22.726 14.5779 1.3634e-21)
(22.5229 14.8316 -1.44959e-21)
(22.304 15.0869 -3.55066e-20)
(22.0682 15.3433 8.31374e-20)
(21.8139 15.6 -4.67096e-20)
(21.5394 15.856 0)
(21.243 16.1097 6.0544e-20)
(20.923 16.3598 -6.70954e-20)
(20.5773 16.604 7.48662e-20)
(20.2038 16.8398 -7.42425e-20)
(19.801 17.0646 -4.87311e-21)
(19.3671 17.2748 2.38723e-21)
(18.901 17.4661 0)
(18.4016 17.6334 0)
(17.8687 17.7709 1.04603e-19)
(17.3033 17.8723 -2.08236e-19)
(16.7078 17.9301 -4.45794e-20)
(16.0864 17.9369 5.7869e-20)
(15.4458 17.8854 1.17024e-19)
(14.7949 17.7687 7.40428e-20)
(14.1458 17.5816 -7.49429e-20)
(13.5125 17.3215 0)
(12.9109 16.9899 1.0454e-19)
(12.3575 16.5932 -7.12877e-20)
(24.4348 10.2939 2.80782e-22)
(24.3944 10.472 -8.66312e-21)
(24.3487 10.6521 -8.53621e-21)
(24.298 10.8346 1.57355e-20)
(24.2424 11.0202 6.75153e-21)
(24.1822 11.2089 -2.87164e-20)
(24.1175 11.4004 4.84245e-20)
(24.0471 11.5944 -3.51649e-20)
(23.9704 11.7914 -5.83639e-20)
(23.8878 11.9914 4.66156e-20)
(23.7985 12.194 1.26302e-20)
(23.7014 12.399 -5.29741e-21)
(23.5958 12.6064 7.10565e-21)
(23.4807 12.8161 0)
(23.3553 13.0285 4.96806e-20)
(23.2195 13.2436 -5.50219e-20)
(23.0725 13.4614 5.13561e-20)
(22.9139 13.6822 -5.1764e-20)
(22.7434 13.9058 3.92144e-21)
(22.5607 14.1319 0)
(22.3647 14.3599 0)
(22.1543 14.5893 6.12071e-20)
(21.9284 14.8194 -6.5623e-20)
(21.6859 15.0493 0)
(21.4248 15.278 5.59708e-21)
(21.1443 15.5043 6.09432e-21)
(20.8424 15.7267 5.07488e-21)
(20.5183 15.943 -1.02796e-19)
(20.1696 16.1505 1.06783e-19)
(19.7948 16.3467 -6.01805e-20)
(19.3927 16.5287 1.31017e-19)
(18.9628 16.6929 7.95893e-21)
(18.5051 16.8345 -9.11727e-20)
(18.0194 16.9484 0)
(17.5067 17.0292 -1.13466e-19)
(16.9694 17.0708 2.97484e-19)
(16.4113 17.067 -2.56063e-19)
(15.838 17.0126 8.77296e-20)
(15.2579 16.9026 2.43887e-20)
(14.6806 16.7332 5.87426e-20)
(14.1171 16.5031 -3.03407e-20)
(13.5796 16.2135 -7.05596e-20)
(13.0797 15.87 3.67711e-20)
(24.2654 10.2526 -2.01569e-20)
(24.2237 10.4154 -4.7738e-21)
(24.1766 10.5789 4.74146e-21)
(24.1246 10.7446 9.8356e-21)
(24.068 10.9132 0)
(24.007 11.0848 0)
(23.9424 11.2593 -2.62515e-20)
(23.8729 11.4358 4.14754e-20)
(23.7965 11.6151 0)
(23.715 11.7978 0)
(23.6278 11.9831 1.51624e-21)
(23.5337 12.1707 6.4222e-20)
(23.4319 12.3607 -7.00131e-21)
(23.3214 12.5525 -6.42795e-20)
(23.2008 12.7464 0)
(23.0701 12.9427 -6.65405e-20)
(22.9286 13.1411 6.69383e-20)
(22.7753 13.3418 7.01062e-20)
(22.6098 13.5453 -1.47475e-19)
(22.433 13.7514 7.86674e-20)
(22.2441 13.9589 0)
(22.0414 14.1674 -5.63509e-21)
(21.824 14.3768 0)
(21.592 14.5855 0)
(21.3416 14.7931 -5.66884e-21)
(21.0743 14.9983 1.06281e-19)
(20.7857 15.1995 -1.23171e-19)
(20.4788 15.3955 -7.42423e-21)
(20.1499 15.5823 -7.41363e-20)
(19.7974 15.7577 -1.50351e-20)
(19.4192 15.9191 9.4641e-20)
(19.0152 16.064 1.01836e-19)
(18.587 16.1883 -1.19072e-19)
(18.1346 16.2867 1.58804e-20)
(17.6592 16.3547 5.51194e-20)
(17.163 16.387 -7.34846e-20)
(16.6494 16.3778 2.06926e-20)
(16.1221 16.3233 -1.47427e-19)
(15.5899 16.2204 7.38821e-20)
(15.0608 16.0658 2.77396e-20)
(14.5445 15.859 -1.05065e-21)
(14.0508 15.6 -3.45778e-20)
(13.5884 15.2936 3.85126e-20)
(24.1097 10.2071 1.01313e-20)
(24.0707 10.3593 1.14611e-20)
(24.0248 10.5084 0)
(23.9732 10.6598 -2.09331e-20)
(23.9169 10.8138 0)
(23.8558 10.9706 -1.06181e-20)
(23.7922 11.1305 0)
(23.7256 11.2926 -2.86021e-20)
(23.6499 11.4561 3.86753e-20)
(23.5692 11.624 -4.84742e-20)
(23.484 11.7947 2.92466e-20)
(23.3926 11.9677 -2.80992e-20)
(23.2943 12.1434 3.8157e-20)
(23.1894 12.3213 0)
(23.0737 12.5001 -5.16376e-21)
(22.9483 12.6815 0)
(22.8128 12.8645 -4.10673e-20)
(22.6658 13.049 3.58833e-20)
(22.5051 13.2356 0)
(22.3333 13.4258 -4.47678e-20)
(22.1512 13.6173 -1.483e-21)
(21.9572 13.8094 9.75706e-20)
(21.7454 14.0013 -5.77604e-20)
(21.526 14.1938 -7.32861e-21)
(21.2824 14.3829 0)
(21.0294 14.5725 8.37646e-21)
(20.7496 14.7562 8.03488e-21)
(20.4563 14.9381 7.66944e-20)
(20.1437 15.1101 -7.86442e-20)
(19.8109 15.2705 1.14806e-20)
(19.4543 15.4154 0)
(19.0711 15.545 1.11333e-19)
(18.667 15.6568 -1.00201e-19)
(18.2408 15.7448 5.23807e-20)
(17.7944 15.8055 -5.18573e-20)
(17.3301 15.8341 2.01529e-20)
(16.8527 15.8229 2.23124e-20)
(16.3597 15.7689 2.42019e-20)
(15.863 15.6718 -2.6783e-20)
(15.3678 15.5288 0)
(14.8849 15.3404 0)
(14.4229 15.1056 -1.34044e-21)
(13.9873 14.8275 -9.91276e-22)
(23.9566 10.1579 5.99473e-21)
(23.931 10.3061 -1.15588e-20)
(23.8898 10.4421 -5.66656e-21)
(23.8402 10.5808 4.67686e-20)
(23.7861 10.7233 -2.35395e-20)
(23.7259 10.8683 4.92629e-21)
(23.6621 11.0146 -1.64021e-20)
(23.601 11.1655 1.15609e-20)
(23.5269 11.3136 5.08687e-20)
(23.4465 11.4688 -3.41638e-20)
(23.3642 11.6282 4.40019e-20)
(23.2768 11.7886 -5.93441e-20)
(23.1806 11.9511 0)
(23.0828 12.1203 4.37286e-20)
(22.9736 12.2869 -3.29218e-20)
(22.855 12.4566 0)
(22.725 12.6267 4.60471e-20)
(22.5871 12.8002 -8.85059e-20)
(22.4326 12.9716 1.04097e-19)
(22.2654 13.1493 -5.60604e-20)
(22.0859 13.3282 0)
(21.9036 13.5093 1.41742e-20)
(21.6871 13.6826 -5.23835e-20)
(21.4853 13.8668 6.77974e-20)
(21.2417 14.0337 6.71521e-20)
(21.0074 14.2152 -6.72907e-20)
(20.7335 14.3799 0)
(20.4534 14.5529 -8.41064e-20)
(20.1559 14.7145 -1.66087e-20)
(19.8381 14.8659 7.99857e-20)
(19.5052 14.9996 0)
(19.1428 15.1154 -1.48329e-20)
(18.7674 15.2183 0)
(18.3728 15.2987 -8.67548e-20)
(17.9571 15.3538 3.28042e-20)
(17.52 15.3832 6.2683e-20)
(17.0773 15.373 -1.06482e-19)
(16.6084 15.318 -2.57397e-20)
(16.1382 15.2234 2.80086e-20)
(15.6656 15.0868 -1.33244e-20)
(15.2075 14.9119 -1.55252e-20)
(14.7707 14.6963 -3.5136e-20)
(14.3446 14.4456 0)
(-2.86847 20.965 -2.22316e-20)
(-1.8391 18.6568 0)
(-0.787566 16.8694 -2.50392e-20)
(0.15705 15.4795 0)
(1.00571 14.3617 -1.18126e-18)
(1.7758 13.4254 1.13973e-18)
(2.48865 12.6408 0)
(3.15213 11.9753 0)
(3.76943 11.4042 4.24595e-20)
(4.34303 10.9092 0)
(4.87608 10.4761 2.22143e-18)
(5.37069 10.0931 -4.26415e-18)
(5.82999 9.751 2.04575e-18)
(6.25697 9.44297 2.03148e-18)
(6.65427 9.16299 -1.96493e-18)
(7.02498 8.90678 1.88259e-18)
(7.37161 8.67061 -3.71705e-18)
(7.69648 8.45142 1.83867e-18)
(8.00177 8.24664 3.47866e-18)
(8.28972 8.05465 -6.80227e-18)
(8.56195 7.87335 3.38816e-18)
(8.82013 7.70142 -2.0233e-21)
(9.06567 7.53753 -5.18125e-20)
(9.29993 7.38086 0)
(9.52386 7.23025 -3.1623e-18)
(9.73855 7.08522 3.07144e-18)
(9.94471 6.94492 0)
(10.1431 6.80883 2.98863e-18)
(10.3344 6.67646 -3.06572e-18)
(10.519 6.54738 -9.36945e-20)
(10.6974 6.4213 1.37549e-18)
(10.8701 6.29793 -3.34428e-21)
(11.0374 6.17703 -1.47015e-18)
(11.1997 6.05844 -1.5604e-18)
(11.3572 5.94193 2.8536e-18)
(11.5104 5.82743 -1.48168e-18)
(11.6594 5.7147 1.84412e-19)
(11.8044 5.60363 0)
(11.9457 5.4941 1.6467e-18)
(12.0835 5.38599 -1.62884e-18)
(12.2177 5.27951 0)
(12.3484 5.17548 -1.74445e-19)
(12.4779 5.06198 1.71108e-19)
(7.21302 19.3967 -4.35419e-19)
(6.56658 18.0402 9.27659e-19)
(6.22821 16.8346 -5.17919e-19)
(6.0972 15.7732 -1.09319e-18)
(6.10256 14.8382 1.08346e-18)
(6.19777 14.0119 1.13495e-18)
(6.35231 13.2801 2.23231e-20)
(6.54574 12.6306 -1.10594e-18)
(6.76367 12.0529 0)
(6.99632 11.5376 0)
(7.23595 11.0759 -3.23727e-20)
(7.47784 10.6606 2.0447e-18)
(7.71852 10.2851 -3.91053e-18)
(7.95571 9.9438 -4.57928e-22)
(8.18815 9.63198 1.87351e-18)
(8.41473 9.34553 -5.50718e-20)
(8.63504 9.08086 1.09147e-19)
(8.84869 8.835 1.67048e-18)
(9.05595 8.60559 -1.63522e-18)
(9.25686 8.39048 0)
(9.45149 8.18776 0)
(9.64005 7.99593 -4.97154e-20)
(9.82292 7.81372 0)
(10.0002 7.63997 0)
(10.1723 7.47378 -1.45587e-18)
(10.3394 7.31429 2.96559e-18)
(10.5016 7.16083 -4.70788e-21)
(10.6592 7.01276 -1.3623e-18)
(10.8122 6.86958 -1.52812e-18)
(10.9611 6.73094 4.70879e-21)
(11.1058 6.59641 4.38495e-18)
(11.2468 6.46568 -5.6408e-18)
(11.3841 6.33848 2.96505e-18)
(11.5179 6.21451 1.34913e-18)
(11.6486 6.09357 -1.54111e-18)
(11.7762 5.9754 0)
(11.9009 5.85981 -2.74476e-19)
(12.023 5.74655 0)
(12.1425 5.63539 1.80686e-19)
(12.2594 5.5262 1.80715e-19)
(12.3736 5.41908 -8.85869e-19)
(12.4849 5.31456 6.98341e-19)
(12.5942 5.20191 -1.66304e-19)
(8.9834 18.0934 -3.19979e-19)
(8.49284 17.2974 3.01715e-19)
(8.15803 16.4826 2.65562e-20)
(7.9513 15.6849 8.67484e-19)
(7.84612 14.9252 -8.37206e-19)
(7.81941 14.2138 0)
(7.85339 13.5549 0)
(7.93269 12.9489 0)
(8.04564 12.3938 9.38072e-19)
(8.18254 11.8863 -8.58257e-19)
(8.336 11.4224 0)
(8.50058 10.9981 1.87301e-18)
(8.67173 10.6093 -1.82674e-18)
(8.84646 10.2522 0)
(9.02229 9.92313 0)
(9.19752 9.61903 -1.62754e-18)
(9.37067 9.33682 1.53791e-18)
(9.54124 9.07419 0)
(9.70847 8.82888 -5.06422e-20)
(9.87199 8.5989 0)
(10.0317 8.38254 -4.73625e-20)
(10.1875 8.17835 0)
(10.3394 7.98494 -1.48441e-18)
(10.4874 7.80128 1.46157e-18)
(10.6316 7.6263 -1.39403e-18)
(10.7719 7.45911 1.42222e-18)
(10.9085 7.29895 -1.40638e-18)
(11.0416 7.14517 1.48458e-18)
(11.1712 6.99722 8.7778e-20)
(11.2976 6.85463 -2.68416e-18)
(11.4208 6.71689 4.15852e-18)
(11.541 6.58368 -1.47551e-18)
(11.6585 6.45456 -8.77159e-20)
(11.7734 6.32927 8.80939e-20)
(11.8858 6.2075 1.40637e-18)
(11.9959 6.08901 -1.41928e-18)
(12.1038 5.9735 1.78309e-19)
(12.2097 5.86068 0)
(12.3136 5.75029 6.20421e-19)
(12.4156 5.64212 -7.07652e-19)
(12.5156 5.53598 5.24675e-19)
(12.6137 5.43186 -3.44685e-19)
(12.7117 5.32111 1.66817e-19)
(10.9262 16.9879 1.31312e-19)
(10.4606 16.3809 -1.52128e-19)
(10.0893 15.749 -4.78136e-20)
(9.80788 15.114 -2.54238e-20)
(9.60664 14.4921 0)
(9.47434 13.8941 0)
(9.39975 13.3262 8.5594e-19)
(9.37221 12.7921 -8.95014e-19)
(9.38231 12.2931 0)
(9.42214 11.8288 -1.1236e-19)
(9.48519 11.3981 0)
(9.56612 10.9988 -1.34032e-21)
(9.66038 10.6288 0)
(9.76467 10.2856 0)
(9.87609 9.96676 0)
(9.99218 9.66993 0)
(10.1113 9.39309 5.08443e-20)
(10.2322 9.13424 -1.53532e-18)
(10.3538 8.89157 -3.06459e-21)
(10.4755 8.66358 1.52402e-18)
(10.5966 8.44867 4.7278e-20)
(10.7167 8.24553 0)
(10.8356 8.05301 -1.40628e-18)
(10.9529 7.87007 1.42642e-18)
(11.0684 7.6957 -8.7821e-20)
(11.1817 7.52909 -1.38839e-18)
(11.293 7.36961 1.18189e-21)
(11.4021 7.21663 1.36495e-18)
(11.509 7.06964 1.27388e-18)
(11.6138 6.92814 -8.70503e-20)
(11.7166 6.79174 -1.92429e-21)
(11.8174 6.66 -2.62942e-18)
(11.9164 6.53255 2.72439e-18)
(12.0135 6.4091 -6.86302e-19)
(12.1089 6.28938 -6.895e-19)
(12.2028 6.17315 0)
(12.2952 6.06004 -7.85686e-19)
(12.3861 5.94982 7.00966e-19)
(12.4757 5.8422 6.10513e-19)
(12.5638 5.73704 -6.9631e-19)
(12.6502 5.63428 8.58844e-20)
(12.7348 5.53432 3.403e-19)
(12.8173 5.43229 -5.08864e-19)
(11.8647 16.1421 -1.27536e-19)
(11.4393 15.649 -2.36845e-19)
(11.0848 15.1289 4.11696e-19)
(10.8 14.5974 4.91867e-20)
(10.5808 14.0675 3.67683e-19)
(10.4201 13.5489 -8.43997e-19)
(10.3104 13.048 4.78441e-19)
(10.2434 12.5694 -5.39262e-20)
(10.212 12.1164 0)
(10.2099 11.69 1.09366e-19)
(10.2319 11.2903 8.71e-19)
(10.2733 10.9164 -9.04606e-19)
(10.3301 10.5671 5.23123e-20)
(10.3989 10.2405 8.86417e-19)
(10.4767 9.93523 -1.58437e-18)
(10.5613 9.6495 1.60634e-18)
(10.6506 9.38181 -7.86964e-19)
(10.7434 9.13061 7.27365e-19)
(10.8387 8.89449 -1.52255e-18)
(10.9356 8.67206 7.94122e-19)
(11.0334 8.46202 0)
(11.1317 8.26317 -1.44879e-18)
(11.2297 8.07447 1.33158e-18)
(11.3271 7.89492 0)
(11.4233 7.72367 1.42301e-18)
(11.5183 7.56008 -1.32075e-18)
(11.6118 7.40354 0)
(11.7038 7.25348 -1.08574e-21)
(11.7942 7.10945 1.03681e-21)
(11.8831 6.97099 5.82746e-19)
(11.9706 6.83767 -6.65706e-19)
(12.0567 6.70907 -5.83317e-19)
(12.1414 6.5848 7.52361e-19)
(12.2247 6.4646 5.88205e-19)
(12.3066 6.34829 -5.92768e-19)
(12.3875 6.23555 -6.81053e-19)
(12.4674 6.12602 6.86791e-19)
(12.5461 6.0194 -6.02443e-19)
(12.6238 5.91543 6.88553e-19)
(12.7002 5.81391 -3.42591e-19)
(12.7753 5.71471 -8.49095e-20)
(12.8488 5.61775 5.89602e-19)
(12.9214 5.51728 -8.29534e-20)
(12.6268 15.4807 0)
(12.2261 15.0553 4.40183e-20)
(11.8828 14.6046 -3.8257e-19)
(11.5963 14.1405 3.81496e-19)
(11.3656 13.6738 5.08888e-20)
(11.1871 13.2118 -4.21932e-19)
(11.0541 12.7602 4.16282e-19)
(10.9587 12.3245 -3.779e-19)
(10.8965 11.9086 4.23642e-19)
(10.863 11.5143 -5.38987e-20)
(10.8541 11.1421 0)
(10.8654 10.7916 0)
(10.8935 10.462 -1.03927e-19)
(10.9346 10.152 -5.16234e-20)
(10.9858 9.86067 -5.07957e-20)
(11.0448 9.58704 -8.44211e-19)
(11.1099 9.32987 1.55799e-18)
(11.1798 9.08795 -7.16393e-19)
(11.2535 8.86015 0)
(11.3304 8.64507 -9.25538e-20)
(11.4093 8.44159 0)
(11.4895 8.24865 0)
(11.5703 8.06525 -6.57345e-19)
(11.651 7.89052 6.89592e-19)
(11.7313 7.72387 0)
(11.8109 7.56467 -4.23014e-20)
(11.8895 7.41232 0)
(11.9672 7.26642 5.78663e-19)
(12.0438 7.12655 -1.2344e-18)
(12.1197 6.99225 1.64379e-19)
(12.1946 6.863 6.56301e-19)
(12.2685 6.73841 -8.25225e-20)
(12.3413 6.61811 4.94087e-19)
(12.4128 6.50193 -5.793e-19)
(12.4835 6.3898 5.82282e-19)
(12.5536 6.28128 -6.71393e-19)
(12.6231 6.1759 -6.75566e-19)
(12.6916 6.07345 1.01728e-18)
(12.7593 5.97371 -3.77989e-22)
(12.8259 5.87641 -4.23137e-19)
(12.8914 5.78154 0)
(12.9562 5.68887 -8.37106e-20)
(13.0204 5.59388 -8.32772e-20)
(13.1655 14.9458 4.1256e-20)
(12.7842 14.5663 4.37447e-20)
(12.4538 14.163 -4.60072e-20)
(12.1702 13.7461 -4.87866e-19)
(11.9372 13.3261 3.89288e-19)
(11.7536 12.9065 0)
(11.6103 12.491 4.18766e-19)
(11.4972 12.0881 -8.34337e-19)
(11.4163 11.7023 4.66654e-19)
(11.3631 11.3346 0)
(11.3349 10.9859 0)
(11.3274 10.6557 8.81593e-19)
(11.3374 10.3431 -7.09327e-19)
(11.3601 10.0477 -8.08839e-19)
(11.3927 9.76917 -5.5503e-20)
(11.4336 9.507 8.27575e-19)
(11.4815 9.26027 0)
(11.5352 9.02772 -5.89733e-22)
(11.5937 8.80849 -7.91133e-19)
(11.6565 8.60089 7.75529e-19)
(11.7215 8.40399 0)
(11.7883 8.21708 0)
(11.8563 8.03922 0)
(11.9245 7.86984 0)
(11.9925 7.7082 -4.18452e-20)
(12.0601 7.55368 0)
(12.1272 7.40589 4.10015e-20)
(12.1936 7.26454 0)
(12.2594 7.12934 0)
(12.3252 6.99949 -7.30432e-19)
(12.39 6.87452 8.07645e-20)
(12.4541 6.75411 1.37849e-18)
(12.5172 6.638 -5.69057e-19)
(12.5791 6.52623 0)
(12.6406 6.41868 -8.18415e-20)
(12.7023 6.31458 -3.3077e-19)
(12.7632 6.21343 3.33408e-19)
(12.8231 6.11533 2.50704e-19)
(12.8824 6.0201 -6.70134e-19)
(12.9406 5.92734 4.18722e-19)
(12.998 5.83723 -8.30909e-20)
(13.0553 5.7497 8.25124e-20)
(13.1124 5.66008 8.36078e-20)
(13.5892 14.5079 -5.36715e-23)
(13.2178 14.1616 -4.30442e-20)
(12.9023 13.7898 4.5251e-20)
(12.6173 13.4075 9.3817e-20)
(12.385 13.0248 1.96851e-19)
(12.2046 12.637 -1.94987e-19)
(12.0559 12.2461 -3.58023e-19)
(11.9247 11.8704 4.02405e-19)
(11.8335 11.5098 -4.13083e-19)
(11.7666 11.1642 4.0492e-19)
(11.7257 10.8352 -5.06008e-20)
(11.7057 10.5221 -5.07538e-20)
(11.7037 10.2229 -5.22001e-22)
(11.7114 9.93981 -3.96703e-19)
(11.7295 9.67255 4.36974e-19)
(11.7563 9.42114 0)
(11.7911 9.18439 0)
(11.8327 8.96077 -4.67906e-20)
(11.8797 8.7496 -6.88448e-19)
(11.9323 8.54791 7.1882e-19)
(11.9853 8.3574 0)
(12.0423 8.1763 -4.31712e-20)
(12.1003 8.00432 7.26464e-19)
(12.1584 7.84035 -6.31034e-19)
(12.2165 7.68365 4.17484e-20)
(12.2747 7.53336 -1.27514e-18)
(12.3323 7.39009 6.50586e-19)
(12.3895 7.2536 1.29411e-18)
(12.4468 7.12317 -6.8362e-19)
(12.5046 6.99718 3.99521e-20)
(12.5607 6.87654 -1.20298e-19)
(12.617 6.76024 -8.04571e-20)
(12.6722 6.64863 0)
(12.7262 6.54152 0)
(12.7804 6.43856 8.13768e-20)
(12.8355 6.33836 0)
(12.8887 6.24117 3.28968e-19)
(12.9411 6.14747 -6.61192e-19)
(12.9937 6.05725 8.27441e-20)
(13.0449 5.969 1.65685e-19)
(13.095 5.88351 1.65171e-19)
(13.1454 5.80108 1.63818e-19)
(13.1956 5.71644 -8.25366e-20)
(13.958 14.1413 -7.86844e-20)
(13.5751 13.8265 8.49992e-20)
(13.2788 13.4688 -8.6317e-20)
(12.9796 13.1146 -9.27961e-20)
(12.7483 12.7671 0)
(12.5727 12.4012 -4.63869e-20)
(12.4172 12.0208 -2.32269e-22)
(12.2631 11.6794 4.54437e-19)
(12.1728 11.339 -3.84621e-19)
(12.0911 11.0091 4.00554e-19)
(12.0443 10.6951 -2.93528e-19)
(12.0161 10.397 -3.45697e-19)
(12.0063 10.1058 3.85415e-19)
(11.9997 9.83605 3.41297e-19)
(12.008 9.57837 -7.22271e-19)
(12.0236 9.33863 4.32791e-19)
(12.0499 9.11091 -3.35401e-19)
(12.083 8.89492 7.49237e-19)
(12.1225 8.69 -3.63672e-19)
(12.1688 8.48996 0)
(12.2113 8.30948 3.01375e-19)
(12.2639 8.13427 -2.8878e-19)
(12.3113 7.96929 -4.21044e-20)
(12.3611 7.8091 2.929e-19)
(12.4115 7.6563 -3.29131e-19)
(12.4627 7.5087 -4.07307e-20)
(12.5118 7.371 -3.67119e-19)
(12.5615 7.23939 3.26291e-19)
(12.6122 7.11244 4.09091e-20)
(12.6639 6.98822 -4.08189e-19)
(12.7123 6.87377 3.57827e-19)
(12.7638 6.76155 0)
(12.8106 6.65531 0)
(12.8574 6.55183 4.10591e-20)
(12.9056 6.45174 0)
(12.9553 6.35342 3.72437e-19)
(13.0009 6.26097 -6.04945e-19)
(13.0478 6.17274 3.58689e-19)
(13.0952 6.08856 -1.23093e-19)
(13.1394 6.00318 -1.23728e-19)
(13.1822 5.92061 1.24552e-19)
(13.2269 5.84102 -4.32824e-20)
(13.2746 5.75715 8.47973e-20)
(7.51268 -2.70765 2.64442e-18)
(7.17799 -2.6635 -5.63026e-19)
(6.8542 -2.62057 -5.60802e-19)
(6.54114 -2.57901 5.68823e-19)
(6.2388 -2.53881 2.86294e-19)
(5.94707 -2.49994 8.61348e-19)
(5.66582 -2.46236 -5.7594e-19)
(5.39486 -2.426 0)
(5.134 -2.39082 5.74967e-19)
(4.883 -2.35679 5.7781e-19)
(4.64161 -2.32387 8.75412e-19)
(4.40956 -2.29205 -5.90047e-19)
(4.18656 -2.2613 5.97894e-19)
(3.9723 -2.23159 0)
(3.76651 -2.20292 6.18089e-19)
(3.56884 -2.17519 -6.37144e-19)
(3.37895 -2.14841 0)
(3.19652 -2.12249 1.00811e-18)
(3.02123 -2.09737 -7.01055e-19)
(2.85271 -2.07303 -3.64863e-19)
(2.69067 -2.04938 1.89161e-19)
(2.53493 -2.02645 1.99129e-19)
(2.38529 -2.00423 0)
(2.24164 -1.98274 4.48122e-19)
(2.10391 -1.96202 -2.33455e-21)
(1.97208 -1.94213 -5.11661e-19)
(1.84615 -1.92317 -2.76857e-19)
(1.72619 -1.90518 2.97665e-19)
(1.6123 -1.88834 3.21067e-19)
(1.50462 -1.8727 -8.69513e-20)
(1.40332 -1.85835 6.64589e-19)
(1.30868 -1.84534 -2.08622e-19)
(1.22117 -1.83374 6.84911e-19)
(1.14154 -1.82336 -1.51825e-18)
(1.07111 -1.81384 5.63832e-19)
(1.01246 -1.80431 0)
(0.970817 -1.79308 3.18472e-18)
(0.957668 -1.77766 -3.20675e-18)
(1.0009 -1.75546 0)
(1.17159 -1.72722 -2.58166e-19)
(1.66258 -1.71232 9.53836e-18)
(3.02168 -1.82702 -1.08752e-17)
(7.07652 -2.61183 -1.19124e-17)
(7.40821 -2.70952 -5.50178e-19)
(7.10359 -2.66963 5.67643e-19)
(6.8069 -2.63256 0)
(6.51895 -2.59669 -5.77e-19)
(6.23977 -2.56195 -5.78874e-19)
(5.96923 -2.52825 -1.42976e-19)
(5.7072 -2.49557 7.26201e-19)
(5.45355 -2.46385 0)
(5.20809 -2.43305 0)
(4.97062 -2.40308 -2.93447e-19)
(4.7409 -2.37393 8.94509e-22)
(4.51871 -2.34556 0)
(4.30375 -2.31799 3.00523e-19)
(4.09583 -2.29122 0)
(3.89468 -2.26525 -1.11033e-21)
(3.70009 -2.24005 0)
(3.51178 -2.21563 0)
(3.32952 -2.19197 3.34436e-19)
(3.15303 -2.16904 3.43958e-19)
(2.98201 -2.1468 -3.57887e-19)
(2.81627 -2.12521 3.74327e-19)
(2.65556 -2.10426 3.92364e-19)
(2.49967 -2.08393 2.07421e-19)
(2.34845 -2.06417 2.18517e-19)
(2.20186 -2.04506 -1.16736e-18)
(2.05988 -2.02657 1.49691e-18)
(1.92263 -2.00872 -5.348e-19)
(1.79037 -1.99151 0)
(1.66337 -1.97489 1.56507e-19)
(1.5421 -1.95877 1.67898e-19)
(1.42733 -1.94288 -3.6339e-19)
(1.32032 -1.92697 1.97969e-19)
(1.22307 -1.91041 4.33895e-19)
(1.13898 -1.89232 -9.54761e-19)
(1.07398 -1.87134 -7.85498e-19)
(1.03879 -1.84556 1.23171e-21)
(1.05332 -1.81284 6.34827e-19)
(1.15526 -1.77163 -2.78694e-18)
(1.41652 -1.72502 -4.82904e-21)
(1.97672 -1.69298 3.39259e-18)
(3.12448 -1.75008 4.91797e-19)
(5.47004 -2.12786 -5.42971e-19)
(10.2741 -3.32471 1.55128e-20)
(7.31354 -2.70468 1.74678e-21)
(7.03067 -2.66897 5.75086e-19)
(6.75469 -2.63518 5.79885e-19)
(6.48599 -2.60215 -1.16817e-18)
(6.22447 -2.56999 2.94069e-19)
(5.97 -2.53866 -8.76695e-19)
(5.72242 -2.50817 -2.9339e-19)
(5.48161 -2.47856 0)
(5.24754 -2.4498 0)
(5.02009 -2.4218 2.93068e-19)
(4.79903 -2.39449 -1.46858e-19)
(4.58415 -2.36785 -2.99146e-19)
(4.37522 -2.3419 -4.50096e-19)
(4.17205 -2.31668 -3.05837e-19)
(3.97448 -2.29222 6.193e-19)
(3.78236 -2.26852 -3.17141e-19)
(3.59545 -2.24556 1.48149e-21)
(3.41364 -2.2233 3.3432e-19)
(3.23669 -2.20175 -3.42439e-19)
(3.06441 -2.18085 -9.81065e-22)
(2.89657 -2.16054 -1.8657e-19)
(2.73309 -2.14077 0)
(2.57379 -2.12147 -2.0396e-19)
(2.41851 -2.10255 -2.15425e-19)
(2.26729 -2.08394 8.77948e-22)
(2.12018 -2.06553 2.46991e-19)
(1.97752 -2.04726 0)
(1.83975 -2.02894 0)
(1.70763 -2.01035 2.47834e-21)
(1.5823 -1.99112 0)
(1.46556 -1.97075 0)
(1.36015 -1.94854 5.80294e-19)
(1.27051 -1.92344 -1.05133e-18)
(1.20389 -1.89411 4.53968e-19)
(1.17225 -1.85887 5.00596e-19)
(1.19555 -1.81598 -5.44041e-19)
(1.30666 -1.76478 -8.81474e-19)
(1.55995 -1.70834 6.32286e-19)
(2.04966 -1.65908 0)
(2.94234 -1.65467 -3.90387e-19)
(4.5353 -1.7959 -4.35486e-19)
(7.349 -2.31365 0)
(11.9911 -3.60822 -4.39775e-19)
(7.2263 -2.7015 1.18021e-18)
(6.96428 -2.66723 0)
(6.7075 -2.6359 0)
(6.45667 -2.60539 2.91903e-19)
(6.21168 -2.5757 -5.87502e-19)
(5.97241 -2.54667 1.03029e-18)
(5.73856 -2.5183 1.46378e-19)
(5.51009 -2.49075 0)
(5.28706 -2.46405 3.68845e-20)
(5.06945 -2.43805 -3.3413e-19)
(4.85711 -2.4126 0)
(4.6498 -2.38759 -1.81477e-21)
(4.44722 -2.36303 -1.51265e-19)
(4.24917 -2.33899 4.592e-19)
(4.05558 -2.31556 -3.10624e-19)
(3.86633 -2.29274 -7.2401e-22)
(3.6813 -2.2705 2.71214e-21)
(3.50038 -2.24881 3.3438e-19)
(3.32346 -2.22766 2.2954e-21)
(3.15038 -2.20699 1.07081e-18)
(2.98109 -2.18673 -1.86734e-19)
(2.81553 -2.16686 0)
(2.6536 -2.14722 -2.04759e-19)
(2.49527 -2.12767 2.15754e-19)
(2.34068 -2.10805 -6.85428e-19)
(2.19012 -2.08819 7.30685e-19)
(2.04398 -2.06785 -5.2147e-19)
(1.90311 -2.04675 0)
(1.76881 -2.02448 -2.99298e-19)
(1.64307 -2.0005 0)
(1.52876 -1.97402 0)
(1.4303 -1.94409 -5.67978e-19)
(1.35454 -1.90952 6.1638e-19)
(1.3123 -1.8689 4.44841e-19)
(1.3205 -1.82097 -4.83398e-19)
(1.40551 -1.76524 1.03996e-18)
(1.60787 -1.70385 -1.68694e-18)
(1.99177 -1.64468 -6.24858e-21)
(2.66245 -1.60848 -6.68695e-19)
(3.79198 -1.64511 -3.76148e-19)
(5.65672 -1.86409 8.1305e-19)
(8.68421 -2.47896 8.34256e-19)
(13.1291 -3.78261 3.23322e-18)
(7.14805 -2.69652 -5.94529e-19)
(6.90478 -2.6645 2.94715e-19)
(6.66539 -2.63568 8.79486e-22)
(6.43086 -2.6075 5.92444e-19)
(6.20105 -2.58003 2.97361e-19)
(5.97578 -2.55297 -1.46872e-19)
(5.75458 -2.52623 2.22594e-19)
(5.53721 -2.50016 -7.42837e-20)
(5.32398 -2.47503 0)
(5.11516 -2.45066 3.72066e-19)
(4.9107 -2.42673 7.47545e-20)
(4.71034 -2.40301 3.01057e-19)
(4.51369 -2.3794 3.0573e-19)
(4.32043 -2.35603 1.55286e-19)
(4.13045 -2.33311 0)
(3.9439 -2.31072 0)
(3.76077 -2.28875 -6.54031e-19)
(3.58089 -2.26713 3.36753e-19)
(3.40419 -2.24591 -3.44506e-19)
(3.23077 -2.22501 -3.58686e-19)
(3.06049 -2.2043 -3.72933e-19)
(2.89335 -2.18375 1.9459e-19)
(2.7295 -2.16326 2.03698e-19)
(2.56911 -2.14267 -2.15179e-19)
(2.41239 -2.12168 2.28208e-19)
(2.25974 -2.10002 -2.41764e-19)
(2.11182 -2.07737 2.58261e-19)
(1.96981 -2.0534 0)
(1.83562 -2.02761 0)
(1.71197 -1.99925 4.01779e-20)
(1.60289 -1.96736 2.61711e-19)
(1.5143 -1.93081 4.69848e-20)
(1.45507 -1.88837 0)
(1.43885 -1.83886 4.40792e-19)
(1.48605 -1.78166 4.71269e-19)
(1.62692 -1.71783 -5.0835e-19)
(1.9067 -1.65202 1.09071e-18)
(2.39567 -1.596 -2.78783e-21)
(3.20352 -1.57672 1.93122e-18)
(4.49971 -1.65161 7.09458e-19)
(6.5391 -1.93166 -7.58191e-19)
(9.6707 -2.61338 -7.6299e-19)
(13.9702 -3.90844 0)
(7.07527 -2.6906 -2.90418e-19)
(6.85011 -2.66244 -2.96059e-19)
(6.62714 -2.63489 -2.97365e-19)
(6.4074 -2.60852 1.49145e-19)
(6.19133 -2.58302 -4.47549e-19)
(5.97907 -2.55773 -2.9802e-19)
(5.76966 -2.53216 -2.6196e-19)
(5.56232 -2.50692 -3.73812e-20)
(5.35774 -2.48287 -3.00142e-19)
(5.15667 -2.45985 -3.01221e-19)
(4.95933 -2.43736 0)
(4.76551 -2.41492 1.52082e-19)
(4.57465 -2.39217 -4.60786e-19)
(4.38604 -2.36915 1.55828e-21)
(4.19947 -2.34637 -1.58278e-19)
(4.01536 -2.32418 -8.82361e-22)
(3.8342 -2.30237 -3.30427e-19)
(3.65557 -2.28058 2.80734e-22)
(3.47932 -2.25903 2.20619e-21)
(3.30589 -2.23775 5.41519e-19)
(3.13507 -2.21633 1.87629e-19)
(2.96686 -2.19482 1.96398e-19)
(2.80155 -2.17327 4.10859e-19)
(2.63963 -2.15151 -2.16408e-19)
(2.48141 -2.12909 2.2796e-19)
(2.32749 -2.10563 -2.42527e-19)
(2.17867 -2.08074 -3.88375e-19)
(2.03634 -2.05408 1.38528e-19)
(1.90296 -2.02518 0)
(1.78224 -1.99329 -3.20919e-19)
(1.6793 -1.95723 -3.43733e-19)
(1.60125 -1.91572 0)
(1.55862 -1.86751 2.00591e-19)