/*--------------------------------*- C++ -*----------------------------------*\
| =========                 |                                                 |
| \\      /  F ield         | OpenFOAM: The Open Source CFD Toolbox           |
|  \\    /   O peration     | Version:  2.3.0                                 |
|   \\  /    A nd           | Web:      www.OpenFOAM.org                      |
|    \\/     M anipulation  |                                                 |
\*---------------------------------------------------------------------------*/
FoamFile
{
    version     2.0;
    format      ascii;
    class       volScalarField;
    location    "4000";
    object      nut;
}
// * * * * * * * * * * * * * * * * * * * * * * * * * * * * * * * * * * * * * //

dimensions      [0 2 -1 0 0 0 0];

internalField   nonuniform List<scalar> 
39548
(
0.0533832
0.0517617
0.050154
0.0485597
0.0469802
0.0454158
0.0438681
0.0423377
0.0408256
0.0393332
0.0378612
0.0364113
0.0349842
0.0335816
0.0322041
0.0308532
0.0295312
0.0282409
0.0269854
0.0257687
0.0245915
0.0234562
0.0223675
0.0213315
0.0203476
0.0193964
0.0184586
0.0175308
0.0166172
0.0157206
0.0148447
0.0139887
0.0131521
0.0123327
0.0115272
0.0107315
0.00993994
0.00914878
0.00835202
0.00754492
0.00672386
0.00591018
0.00529814
0.0551933
0.0537823
0.052373
0.0509733
0.0495851
0.0482098
0.0468471
0.0454974
0.044162
0.0428408
0.0415347
0.0402447
0.0389713
0.0377148
0.0364762
0.0352557
0.0340539
0.0328711
0.0317086
0.0305669
0.0294474
0.0283495
0.0272758
0.0262262
0.0252029
0.0242039
0.0232296
0.0222795
0.0213559
0.0204611
0.0195998
0.0187762
0.0179956
0.017264
0.0165882
0.0159779
0.0154427
0.0149938
0.0146451
0.0144104
0.0143043
0.0143415
0.0145347
0.0568625
0.0556102
0.054364
0.0531266
0.0518989
0.050681
0.049473
0.0482749
0.0470873
0.0459098
0.0447432
0.043588
0.0424451
0.041315
0.040198
0.0390947
0.0380058
0.0369312
0.0358714
0.0348276
0.0338003
0.0327907
0.031799
0.0308274
0.0298763
0.0289483
0.0280437
0.0271652
0.026315
0.0254962
0.0247128
0.02397
0.0232727
0.0226276
0.0220422
0.0215248
0.0210844
0.0207313
0.0204752
0.0203268
0.0202931
0.0203814
0.0205934
0.0583733
0.057259
0.0561515
0.0550513
0.0539585
0.0528737
0.0517963
0.0507263
0.0496629
0.0486063
0.0475569
0.0465152
0.0454818
0.0444572
0.0434425
0.0424376
0.0414434
0.0404607
0.0394895
0.0385303
0.0375844
0.0366522
0.0357356
0.0348354
0.0339532
0.0330915
0.0322524
0.0314377
0.030651
0.029895
0.0291735
0.0284915
0.0278548
0.0272692
0.0267411
0.0262797
0.0258926
0.0255887
0.0253762
0.0252636
0.0252558
0.0253581
0.0255717
0.0597377
0.0587445
0.0577556
0.0567719
0.055794
0.0548221
0.0538553
0.0528931
0.051935
0.0509807
0.0500306
0.0490842
0.0481422
0.0472061
0.0462758
0.045353
0.0444381
0.0435314
0.042634
0.0417459
0.0408679
0.0400015
0.0391473
0.0383071
0.037482
0.0366751
0.0358891
0.0351263
0.0343901
0.0336833
0.0330102
0.0323754
0.0317834
0.0312406
0.0307533
0.0303296
0.0299772
0.0297038
0.0295175
0.0294249
0.0294313
0.0295399
0.0297526
0.060971
0.0600826
0.0591953
0.0583111
0.0574309
0.0565548
0.0556813
0.0548104
0.0539414
0.0530744
0.0522079
0.0513425
0.0504784
0.0496162
0.048757
0.0479016
0.0470519
0.046209
0.0453727
0.0445434
0.0437222
0.0429102
0.0421084
0.0413186
0.0405416
0.0397795
0.0390359
0.038314
0.0376178
0.0369504
0.0363158
0.0357177
0.0351611
0.0346509
0.034194
0.0337974
0.0334688
0.033216
0.0330464
0.0329658
0.0329804
0.0330925
0.0333031
0.0620888
0.0612889
0.0604882
0.0596884
0.0588912
0.0580962
0.0573022
0.0565086
0.0557154
0.0549225
0.0541279
0.0533316
0.0525341
0.0517356
0.050936
0.0501369
0.0493404
0.0485495
0.0477643
0.0469845
0.0462104
0.0454435
0.0446853
0.0439377
0.0432019
0.0424784
0.0417691
0.0410793
0.0404143
0.0397781
0.0391742
0.0386062
0.038078
0.0375942
0.0371613
0.0367855
0.036474
0.0362353
0.0360767
0.036004
0.0360235
0.0361376
0.0363464
0.0631048
0.0623773
0.0616497
0.060922
0.0601944
0.0594685
0.0587428
0.0580146
0.0572847
0.0565549
0.0558229
0.0550855
0.0543444
0.0536018
0.0528541
0.052104
0.0513497
0.0506008
0.0498576
0.0491196
0.0483857
0.0476561
0.0469333
0.0462208
0.0455205
0.0448322
0.0441533
0.0434878
0.0428473
0.0422345
0.0416551
0.0411117
0.0406085
0.0401474
0.0397332
0.0393756
0.0390776
0.0388483
0.038696
0.0386283
0.0386513
0.0387671
0.038975
0.064031
0.0633614
0.062693
0.0620246
0.0613523
0.0606818
0.0600145
0.0593415
0.058662
0.0579824
0.057305
0.056621
0.0559246
0.0552356
0.0545297
0.0538311
0.0531081
0.0523932
0.0516804
0.0509758
0.0502768
0.0495808
0.0488866
0.0482004
0.0475278
0.0468725
0.046231
0.0455836
0.0449635
0.0443662
0.0438061
0.043282
0.0427996
0.0423648
0.0419674
0.0416278
0.0413419
0.0411202
0.0409727
0.0409059
0.0409335
0.0410531
0.0412617
0.00610435
0.00783058
0.00896159
0.0100863
0.0112808
0.012542
0.013857
0.0152142
0.0166041
0.0180199
0.0194564
0.02091
0.022378
0.023859
0.0253517
0.0268549
0.0283683
0.0298909
0.0314221
0.0329621
0.0345105
0.0360668
0.0376308
0.039202
0.0407804
0.0423655
0.0439571
0.045555
0.0471585
0.0487672
0.0503809
0.0519988
0.0536204
0.0552449
0.056872
0.0585007
0.0601302
0.0617599
0.0633888
0.0650161
0.0666417
0.0682662
0.0699022
0.0148895
0.0154083
0.0160789
0.0168879
0.0178189
0.0188522
0.0199691
0.0211536
0.0223917
0.0236724
0.0249868
0.0263275
0.0276886
0.0290664
0.0304579
0.0318601
0.0332707
0.0346884
0.0361124
0.0375416
0.0389752
0.0404124
0.0418532
0.0432968
0.0447428
0.0461914
0.047642
0.0490947
0.0505491
0.0520047
0.0534617
0.0549195
0.0563777
0.0578362
0.0592946
0.0607524
0.062209
0.0636642
0.0651176
0.0665682
0.068015
0.0694558
0.0708915
0.0209277
0.0213882
0.0219765
0.0226847
0.0235014
0.0244139
0.0254082
0.0264717
0.0275923
0.0287594
0.0299642
0.0311988
0.0324573
0.0337345
0.0350261
0.0363286
0.0376397
0.038957
0.0402791
0.0416043
0.0429312
0.0442596
0.0455883
0.046917
0.0482453
0.049573
0.0508998
0.0522256
0.0535502
0.0548732
0.0561946
0.0575143
0.0588319
0.0601474
0.0614605
0.0627713
0.0640793
0.0653845
0.0666866
0.0679851
0.0692789
0.0705663
0.071847
0.0258947
0.0263299
0.0268769
0.0275306
0.0282832
0.0291234
0.0300404
0.0310236
0.0320626
0.0331475
0.0342703
0.035423
0.0365999
0.0377954
0.0390047
0.0402247
0.0414524
0.0426847
0.0439202
0.0451567
0.046393
0.0476282
0.0488612
0.0500919
0.0513196
0.0525443
0.0537657
0.0549836
0.0561978
0.057408
0.058614
0.0598159
0.0610135
0.0622068
0.0633957
0.0645804
0.0657609
0.0669373
0.0681093
0.0692767
0.0704395
0.071597
0.0727519
0.0300679
0.0304862
0.0310078
0.0316274
0.0323377
0.0331296
0.0339936
0.0349199
0.0358995
0.0369235
0.0379837
0.0390725
0.0401844
0.0413142
0.0424571
0.0436095
0.0447678
0.0459295
0.0470926
0.0482547
0.0494145
0.0505712
0.0517235
0.052871
0.0540138
0.0551517
0.0562841
0.0574108
0.0585316
0.0596462
0.0607545
0.0618563
0.0629516
0.0640406
0.0651234
0.0662003
0.0672714
0.0683369
0.0693968
0.0704512
0.0715004
0.0725446
0.0735881
0.0336117
0.0340181
0.0345218
0.0351177
0.0357976
0.0365546
0.0373797
0.0382638
0.0391987
0.0401758
0.0411867
0.0422253
0.0432857
0.0443624
0.0454514
0.0465485
0.0476499
0.0487532
0.0498562
0.0509564
0.0520519
0.0531419
0.054226
0.0553037
0.056375
0.0574397
0.0584973
0.0595473
0.0605895
0.0616232
0.0626483
0.0636648
0.0646728
0.0656729
0.0666652
0.06765
0.0686271
0.069597
0.0705602
0.0715167
0.0724666
0.0734107
0.0743523
0.0366493
0.0370466
0.0375365
0.0381143
0.0387724
0.0395026
0.0402976
0.0411489
0.0420485
0.0429881
0.04396
0.044958
0.0459764
0.0470103
0.048055
0.0491066
0.0501616
0.0512161
0.0522691
0.0533173
0.0543579
0.0553909
0.0564169
0.057436
0.0584476
0.0594508
0.0604452
0.0614309
0.0624063
0.0633714
0.0643256
0.0652688
0.0662018
0.0671258
0.0680411
0.0689471
0.0698434
0.0707308
0.0716103
0.0724815
0.0733447
0.0742005
0.0750504
0.0392738
0.0396625
0.0401414
0.0407052
0.0413472
0.0420544
0.0428253
0.0436513
0.0445217
0.0454311
0.0463708
0.0473354
0.0483188
0.0493175
0.0503262
0.0513399
0.0523576
0.0533695
0.0543828
0.0553856
0.0563772
0.0573613
0.0583384
0.059309
0.0602705
0.0612218
0.0621627
0.0630949
0.0640123
0.06492
0.0658127
0.0666921
0.0675607
0.0684197
0.0692701
0.070108
0.0709341
0.0717502
0.0725576
0.0733544
0.0741417
0.0749209
0.0756934
0.041559
0.0419363
0.0424079
0.0429609
0.0435902
0.04427
0.0450249
0.0458328
0.046676
0.0475618
0.0484716
0.0494085
0.0503618
0.0513329
0.0523122
0.0532898
0.0542771
0.0552484
0.0562458
0.0571934
0.0581404
0.0590849
0.0600213
0.0609534
0.0618718
0.0627794
0.0636754
0.0645684
0.0654279
0.0662921
0.0671264
0.0679523
0.0687659
0.0695705
0.0703688
0.0711448
0.0719099
0.072666
0.0734133
0.0741442
0.0748661
0.0755793
0.0762836
0.0731935
0.0702331
0.0673947
0.0646658
0.062036
0.0594967
0.0570389
0.0546553
0.0523389
0.0500845
0.0478872
0.0457424
0.0436473
0.0415986
0.0395939
0.0376322
0.0357113
0.0338309
0.0319909
0.0301895
0.0284277
0.0267054
0.0250216
0.0233789
0.0217756
0.0202136
0.0186946
0.0172182
0.0157858
0.0143989
0.0130578
0.0117647
0.0105207
0.00932826
0.00819071
0.00711141
0.00609443
0.00514499
0.00426727
0.00348673
0.0028772
0.00223897
0.00145937
0.0739548
0.0713085
0.068762
0.0663053
0.0639303
0.0616296
0.0593961
0.0572228
0.0551039
0.0530347
0.0510109
0.0490278
0.0470819
0.0451708
0.0432918
0.0414431
0.0396228
0.0378307
0.0360657
0.0343264
0.0326137
0.0309267
0.0292666
0.0276324
0.0260263
0.0244486
0.0229006
0.0213829
0.0198989
0.0184499
0.017039
0.0156692
0.0143448
0.0130709
0.0118516
0.010694
0.00961897
0.00866063
0.00774177
0.0067836
0.00575537
0.00461173
0.00327026
0.0747328
0.0723636
0.0700762
0.0678624
0.0657161
0.0636308
0.0616004
0.0596194
0.0576825
0.0557855
0.0539244
0.0520946
0.0502936
0.0485177
0.0467655
0.0450342
0.0433218
0.041628
0.0399512
0.0382911
0.0366472
0.0350194
0.0334076
0.0318143
0.030238
0.0286811
0.0271445
0.0256308
0.0241437
0.0226854
0.0212598
0.0198723
0.0185305
0.0172466
0.016033
0.0148738
0.0137233
0.0125499
0.0113259
0.0100172
0.00858838
0.00699685
0.00518703
0.0755114
0.0733876
0.07133
0.0693328
0.0673906
0.0654978
0.0636499
0.0618424
0.0600702
0.0583302
0.0566182
0.0549313
0.0532654
0.0516184
0.0499879
0.048371
0.0467662
0.0451726
0.0435891
0.0420145
0.0404488
0.0388919
0.0373446
0.0358071
0.0342796
0.032765
0.031265
0.0297814
0.0283187
0.0268824
0.0254774
0.0241101
0.0227764
0.0214636
0.0201562
0.0188362
0.0174804
0.0160651
0.0145628
0.0129464
0.011183
0.00923212
0.0070511
0.076277
0.0743707
0.0725171
0.0707119
0.0689507
0.0672297
0.0655448
0.0638921
0.062268
0.0606693
0.0590926
0.0575353
0.0559942
0.0544665
0.05295
0.0514421
0.0499413
0.0484457
0.0469542
0.0454663
0.043982
0.0425016
0.0410249
0.0395524
0.038086
0.036626
0.0351746
0.0337348
0.0323074
0.030892
0.0294867
0.0280862
0.0266847
0.0252693
0.023828
0.0223437
0.0207983
0.0191685
0.0174311
0.015557
0.0135146
0.0112676
0.00877858
0.0770196
0.075306
0.0736329
0.0719977
0.0703971
0.0688278
0.0672876
0.0657728
0.0642808
0.0628079
0.0613527
0.0599121
0.0584837
0.0570648
0.0556538
0.0542475
0.052844
0.0514419
0.0500393
0.0486359
0.0472311
0.0458253
0.0444186
0.0430115
0.041603
0.0401922
0.0387798
0.037364
0.035944
0.0345153
0.0330746
0.0316166
0.030133
0.0286141
0.0270485
0.0254208
0.0237129
0.0219027
0.0199652
0.0178732
0.0155953
0.0130963
0.0103426
0.0777316
0.0761884
0.0746751
0.07319
0.0717307
0.0702961
0.068884
0.0674916
0.0661156
0.0647554
0.063407
0.0620705
0.0607434
0.0594235
0.0581081
0.0567947
0.0554817
0.0541663
0.0528469
0.05152
0.0501858
0.0488452
0.0474966
0.0461397
0.044773
0.0433948
0.0420019
0.0405927
0.0391635
0.0377107
0.036229
0.0347116
0.0331513
0.0315414
0.0298688
0.0281202
0.0262758
0.0243121
0.022205
0.0199266
0.0174453
0.0147281
0.0117426
0.0784017
0.0770152
0.0756436
0.0742904
0.0729554
0.0716386
0.0703403
0.0690561
0.0677817
0.0665221
0.0652676
0.0640236
0.0627865
0.0615546
0.0603254
0.0590967
0.0578639
0.0566246
0.0553804
0.0541201
0.052841
0.0515512
0.0502441
0.0489227
0.0475837
0.046226
0.0448436
0.0434325
0.0419906
0.0405129
0.038992
0.0374223
0.0357948
0.034104
0.0323408
0.0304914
0.0285337
0.0264388
0.0241871
0.0217475
0.0190899
0.0161807
0.0129888
0.0790474
0.0777922
0.0765423
0.0753045
0.0740764
0.0728601
0.0716613
0.0704781
0.0692854
0.0681241
0.0669478
0.0657833
0.0646248
0.0634709
0.0623172
0.061163
0.0600059
0.0588221
0.0576424
0.056449
0.0552015
0.0539547
0.0526749
0.0513814
0.0500565
0.0487127
0.047339
0.0459252
0.0444701
0.0429724
0.0414149
0.0398042
0.038114
0.0363508
0.0345079
0.0325777
0.0305345
0.0283179
0.0259437
0.0233666
0.0205545
0.0174782
0.0140995
0.000651429
0.000559984
0.000790969
0.0010093
0.00121441
0.001409
0.00159542
0.00177575
0.00195288
0.00213041
0.0023134
0.00250898
0.00272705
0.00297901
0.00326956
0.00359751
0.00395914
0.00435093
0.00477126
0.00521926
0.0056949
0.00619813
0.0067292
0.00728893
0.00787782
0.00849661
0.0091458
0.00982615
0.0105382
0.011283
0.0120613
0.0128738
0.0137216
0.0146056
0.0155267
0.0164861
0.0174847
0.0185235
0.0196035
0.0207253
0.0218894
0.0230967
0.0243502
0.0017252
0.0008889
0.000978335
0.00119857
0.00141093
0.00161274
0.00180705
0.00199787
0.0021901
0.00239035
0.00260612
0.00284605
0.00311911
0.00343221
0.00378062
0.00415899
0.00456415
0.00499462
0.00544909
0.00592737
0.00642956
0.00695559
0.00750584
0.00808065
0.00868063
0.0093061
0.00995745
0.0106351
0.0113399
0.0120722
0.0128328
0.0136223
0.0144416
0.0152914
0.0161727
0.0170861
0.0180327
0.019013
0.0200276
0.0210775
0.0221634
0.0232867
0.0244487
0.00314396
0.0014824
0.00117375
0.00136997
0.00158939
0.00180057
0.00200722
0.00221565
0.00243328
0.00266813
0.00292784
0.00321882
0.00354667
0.00391343
0.0043091
0.00472933
0.00517202
0.00563601
0.00612085
0.00662632
0.00715224
0.0076987
0.00826588
0.00885394
0.00946329
0.010094
0.0107464
0.0114204
0.012117
0.0128367
0.0135797
0.0143466
0.0151381
0.0159549
0.0167974
0.0176662
0.0185622
0.019486
0.020438
0.0214191
0.0224305
0.023475
0.0245591
0.00461825
0.00230477
0.00141015
0.00152278
0.00174756
0.00197104
0.00219509
0.00242816
0.00267887
0.00295468
0.00326077
0.00360087
0.00397853
0.00438927
0.00482399
0.00527938
0.00575418
0.00624745
0.0067586
0.00728748
0.00783387
0.00839779
0.00897925
0.00957842
0.010195
0.0108293
0.0114813
0.0121515
0.0128399
0.0135469
0.0142729
0.0150183
0.0157836
0.0165693
0.0173758
0.0182034
0.0190526
0.0199241
0.0208186
0.0217367
0.0226795
0.0236484
0.0246421
0.00601961
0.00322896
0.00170905
0.00166299
0.00188962
0.00212819
0.00237439
0.00263728
0.0029249
0.00324255
0.00359274
0.0039772
0.00439827
0.00484577
0.00531358
0.0057994
0.00630199
0.00682073
0.00735489
0.00790423
0.00846845
0.0090475
0.00964124
0.0102492
0.0108716
0.0115083
0.0121593
0.0128248
0.0135049
0.0141999
0.01491
0.0156353
0.0163764
0.0171332
0.0179064
0.0186961
0.0195027
0.0203265
0.0211682
0.0220285
0.0229079
0.0238063
0.0247227
0.00730382
0.0041505
0.00206527
0.001796
0.00201915
0.00227563
0.00254727
0.00284261
0.00316785
0.00352549
0.00391578
0.00434018
0.0047977
0.00527687
0.00577351
0.00628593
0.006813
0.00735407
0.00790849
0.00847584
0.0090557
0.00964781
0.0102518
0.0108673
0.011494
0.0121324
0.0127819
0.0134428
0.014115
0.0147985
0.0154937
0.0162003
0.0169188
0.0176492
0.0183917
0.0191468
0.0199144
0.0206949
0.0214885
0.0222958
0.0231166
0.0239502
0.0247944
0.00846019
0.00501328
0.00245272
0.00192564
0.00214005
0.00241638
0.00271533
0.00304346
0.00340453
0.00379843
0.00422446
0.00468476
0.00517292
0.00567976
0.00620188
0.00673799
0.00728705
0.00784799
0.00842045
0.0090037
0.00959742
0.0102008
0.0108138
0.0114357
0.0120664
0.0127057
0.0133537
0.01401
0.0146746
0.0153472
0.0160282
0.0167173
0.0174148
0.0181209
0.0188356
0.0195588
0.0202909
0.0210317
0.0217813
0.0225397
0.023307
0.0240821
0.024864
0.00948832
0.00579627
0.00286162
0.00206079
0.00224783
0.00254473
0.00287138
0.00323147
0.00362612
0.00405329
0.00451197
0.00500492
0.00552109
0.00605327
0.00659912
0.00715722
0.0077266
0.00830633
0.00889583
0.00949416
0.0101004
0.010714
0.0113345
0.0119618
0.012596
0.0132365
0.0138827
0.0145341
0.0151903
0.0158515
0.0165181
0.0171905
0.0178684
0.0185522
0.0192415
0.0199362
0.0206359
0.02134
0.0220488
0.0227624
0.0234808
0.0242036
0.02493
0.010384
0.00642317
0.00310199
0.00213173
0.00237804
0.00270186
0.00306078
0.00345434
0.00388108
0.0043423
0.00483462
0.00535624
0.00589556
0.00644857
0.00701322
0.00758994
0.00817774
0.0087745
0.00937935
0.0099887
0.0106011
0.0112197
0.0118427
0.0124724
0.0131093
0.0137497
0.0143915
0.0150333
0.0156752
0.0163199
0.0169696
0.0176246
0.0182839
0.018947
0.0196142
0.020284
0.020954
0.0216227
0.0222926
0.0229645
0.0236389
0.0243147
0.0249895
0.000238956
0.000909929
0.00195528
0.00302672
0.00405661
0.00505633
0.00603532
0.00699522
0.00793814
0.00886738
0.00978724
0.0107023
0.0116171
0.0125358
0.0134621
0.014398
0.015345
0.0163035
0.0172758
0.0182685
0.0192905
0.0203448
0.0214272
0.0225296
0.0236681
0.0248904
0.0261877
0.0275433
0.0289451
0.0303866
0.0318649
0.0333771
0.03492
0.0364906
0.0380874
0.039708
0.0413505
0.043013
0.0446946
0.0463936
0.0481093
0.0498412
0.0515921
0.000171154
0.000605929
0.00136468
0.00233834
0.00327702
0.00417015
0.00502702
0.00586347
0.00669143
0.0075187
0.00834844
0.00918339
0.010026
0.010879
0.0117448
0.0126258
0.013524
0.0144413
0.0153798
0.0163421
0.0173318
0.0183519
0.0194033
0.0204864
0.0216088
0.0227864
0.0240225
0.0253066
0.0266263
0.0280103
0.0294738
0.0309976
0.0325678
0.0341787
0.0358246
0.0375015
0.0392048
0.0409321
0.0426807
0.0444483
0.0462341
0.0480369
0.0498588
3.08073e-05
0.000383767
0.000894036
0.00157404
0.00241348
0.00341014
0.00440757
0.00534585
0.00623127
0.00707468
0.00788765
0.00868018
0.00946037
0.0102358
0.0110132
0.0117989
0.0125985
0.0134174
0.0142602
0.0151313
0.0160345
0.0169735
0.0179518
0.0189724
0.0200396
0.021159
0.0223344
0.0235644
0.0248458
0.0261839
0.0275803
0.0290227
0.030522
0.0321045
0.03375
0.0354439
0.0371782
0.0389458
0.0407413
0.0425612
0.0444025
0.0462641
0.0481491
3.77148e-05
0.000319244
0.00074004
0.00129381
0.00198072
0.00280359
0.00376449
0.00476865
0.00574008
0.00666885
0.00755749
0.00840916
0.00922778
0.0100181
0.010786
0.0115381
0.012282
0.013026
0.0137786
0.0145481
0.0153426
0.0161699
0.0170369
0.0179502
0.0189159
0.0199392
0.0210243
0.0221735
0.0233875
0.0246656
0.026006
0.0274037
0.0288582
0.0303713
0.0319335
0.0335742
0.0352908
0.0370635
0.0388805
0.0407332
0.0426154
0.0445239
0.0464573
1.93543e-05
0.000274887
0.000641395
0.00112207
0.00171719
0.00242867
0.00325987
0.00421372
0.0052299
0.00622647
0.00718574
0.00810723
0.00899272
0.00984384
0.0106623
0.0114503
0.0122113
0.0129506
0.013675
0.014393
0.0151143
0.0158496
0.0166098
0.0174061
0.018249
0.0191482
0.0201115
0.0211456
0.0222542
0.0234389
0.0246986
0.0260303
0.0274301
0.0288935
0.0304148
0.031997
0.0336341
0.0353461
0.037139
0.038992
0.0408919
0.0428293
0.044797
1.71239e-05
0.000249325
0.000583821
0.00101636
0.00155192
0.00219121
0.00293783
0.00379614
0.00476718
0.00578792
0.00679605
0.00777397
0.00871869
0.00963043
0.0105093
0.0113552
0.0121684
0.0129497
0.0137015
0.0144282
0.0151362
0.0158341
0.0165327
0.0172445
0.0179834
0.018763
0.019597
0.0204974
0.0214739
0.0225333
0.0236789
0.0249109
0.0262265
0.027621
0.0290883
0.0306229
0.0322186
0.0338754
0.0355904
0.037388
0.0392658
0.0412039
0.043185
1.42032e-05
0.000229885
0.000539792
0.000937549
0.00143073
0.00201837
0.00270366
0.00349068
0.00438412
0.00537876
0.0064104
0.00743082
0.00842479
0.00938869
0.0103218
0.0112233
0.0120926
0.0129287
0.013731
0.0145
0.0152378
0.0159485
0.0166389
0.0173183
0.0179991
0.0186958
0.0194245
0.0202018
0.0210436
0.0219632
0.0229712
0.0240739
0.0252733
0.0265678
0.0279524
0.0294206
0.0309644
0.0325771
0.034252
0.0359904
0.0377922
0.0396873
0.0416568
1.32407e-05
0.000219102
0.000507856
0.000879628
0.00134092
0.00188982
0.00252904
0.00326254
0.00409495
0.00503045
0.00605023
0.00709311
0.00812421
0.00913148
0.0101113
0.0110622
0.0119829
0.0128721
0.013728
0.0145493
0.0153352
0.0160862
0.0168046
0.0174953
0.0181659
0.0188278
0.0194949
0.0201846
0.0209154
0.0217061
0.022574
0.0235332
0.0245935
0.0257595
0.027031
0.0284039
0.029871
0.0314234
0.0330517
0.0347488
0.0365087
0.0383351
0.040242
1.26687e-05
0.000213803
0.000482516
0.000833687
0.00126991
0.00178842
0.00239162
0.00308294
0.00386694
0.00474835
0.00572808
0.00677106
0.00782611
0.00886823
0.00988789
0.0108819
0.0118484
0.0127857
0.0136918
0.0145648
0.0154024
0.0162031
0.0169665
0.0176934
0.0183873
0.0190542
0.019704
0.0203503
0.0210102
0.0217036
0.0224515
0.0232745
0.02419
0.0252113
0.0263461
0.0275959
0.0289575
0.0304235
0.0319842
0.0336293
0.0353484
0.0371339
0.03898
1.24271e-05
0.000211006
0.000462654
0.000797616
0.00121304
0.00170696
0.00228102
0.00293845
0.00368325
0.00452022
0.00545374
0.00647494
0.00753838
0.00860547
0.00965834
0.0106897
0.0116966
0.012677
0.0136288
0.0145495
0.0154368
0.0162881
0.0171014
0.0178751
0.0186094
0.0193065
0.0199714
0.0206127
0.0212431
0.0218796
0.0225427
0.0232552
0.0240401
0.0249182
0.0259059
0.0270135
0.0282451
0.0295981
0.0310651
0.0326358
0.0342981
0.0360404
0.0378524
1.22518e-05
0.000209076
0.000446176
0.000767789
0.00116577
0.00163946
0.00218953
0.00281895
0.00353153
0.00433167
0.00522432
0.00621075
0.00726684
0.0083482
0.00942708
0.0104906
0.0115332
0.0125521
0.0135449
0.0145094
0.0154428
0.0163421
0.0172047
0.0180278
0.0188095
0.0195492
0.0202483
0.0209108
0.0215446
0.0221616
0.0227785
0.0234164
0.0240994
0.0248527
0.0256997
0.0266598
0.0277461
0.0289641
0.0303127
0.0317844
0.0333679
0.0350504
0.0368191
1.21481e-05
0.000207446
0.000432255
0.000742564
0.00112594
0.0015826
0.00211257
0.00271839
0.00340383
0.00417306
0.00503079
0.00598108
0.00701651
0.00810079
0.00919783
0.0102881
0.0113621
0.0124155
0.0134454
0.0144496
0.0154252
0.0163693
0.0172786
0.0181499
0.0189803
0.0197673
0.02051
0.0212089
0.0218677
0.0224934
0.0230976
0.0236972
0.0243133
0.0249715
0.0256987
0.0265209
0.02746
0.0285313
0.029742
0.0310916
0.0325729
0.0341739
0.0358817
1.20815e-05
0.000206082
0.000420278
0.000720918
0.00109182
0.00153387
0.00204656
0.00263236
0.00329455
0.00403729
0.0048651
0.00578258
0.00679034
0.00786669
0.00897372
0.0100849
0.0111861
0.0122704
0.0133341
0.0143743
0.0153885
0.0163738
0.0173267
0.0182438
0.0191215
0.0199565
0.0207462
0.0214891
0.0221853
0.0228383
0.0234546
0.0240457
0.0246286
0.0252252
0.0258622
0.0265683
0.0273717
0.0282965
0.0293598
0.0305702
0.0319276
0.0334254
0.035055
1.20169e-05
0.000204755
0.000409817
0.000702018
0.001062
0.00149141
0.00198915
0.00255756
0.00319976
0.00391955
0.00472136
0.00560989
0.00658864
0.00764853
0.00875734
0.00988334
0.0110073
0.012119
0.0132133
0.0142866
0.0153363
0.0163594
0.0173528
0.0183127
0.0192354
0.0201171
0.0209541
0.0217436
0.0224837
0.0231746
0.0238191
0.024424
0.025001
0.0255673
0.026146
0.0267648
0.0274545
0.028245
0.0291624
0.0302254
0.0314435
0.0328184
0.0343472
1.19641e-05
0.000203453
0.000400574
0.000685298
0.00103571
0.00145403
0.00193872
0.00249177
0.00311638
0.00381614
0.00459523
0.00545821
0.00640957
0.00744783
0.00855075
0.00968538
0.0108275
0.0119632
0.0130851
0.0141888
0.0152712
0.0163294
0.0173601
0.01836
0.019325
0.0202512
0.0211344
0.0219706
0.0227569
0.0234913
0.0241737
0.024807
0.0253983
0.0259596
0.0265091
0.0270709
0.0276744
0.0283521
0.0291358
0.0300531
0.0311244
0.0323611
0.0337692
1.19192e-05
0.000202147
0.000392322
0.000670443
0.00101232
0.00142077
0.0018938
0.00243335
0.00304231
0.00372427
0.00448322
0.00532363
0.00625019
0.00726486
0.00835567
0.00949282
0.0106484
0.0118046
0.0129513
0.0140827
0.0151953
0.016286
0.0173516
0.0183886
0.0193933
0.0203613
0.0212886
0.0221707
0.0230033
0.0237833
0.0245088
0.0251795
0.0257988
0.0263741
0.0269181
0.0274503
0.0279963
0.0285873
0.0292577
0.0300413
0.0309671
0.0320566
0.0333198
1.18801e-05
0.000200931
0.000384993
0.000657228
0.00099141
0.0013909
0.00185346
0.00238089
0.00297591
0.00364196
0.00438285
0.00520304
0.0061072
0.00709879
0.00817317
0.00930711
0.0104713
0.0116442
0.0128129
0.0139698
0.0151104
0.0162312
0.0173292
0.0184009
0.0194426
0.0204504
0.0214194
0.0223453
0.0232234
0.0240494
0.02482
0.0255332
0.026189
0.0267912
0.0273479
0.0278731
0.0283877
0.0289193
0.0295012
0.0301699
0.0309609
0.0319051
0.0330273
1.18444e-05
0.000199727
0.000378351
0.000645289
0.000972659
0.00136388
0.00181702
0.00233344
0.00291591
0.0035676
0.00429229
0.00509424
0.005978
0.00694784
0.00800352
0.00912943
0.0102975
0.0114833
0.0126711
0.0138512
0.0150176
0.0161666
0.0172947
0.018399
0.0194755
0.0205203
0.021529
0.0224966
0.0234185
0.0242898
0.0251061
0.0258639
0.0265613
0.0271988
0.0277809
0.0283167
0.0288218
0.029319
0.0298381
0.030415
0.0310886
0.0318969
0.0328745
1.18143e-05
0.000198552
0.000372302
0.000634432
0.000955663
0.00133921
0.00178372
0.0022902
0.00286118
0.00349985
0.00420985
0.00499533
0.00586062
0.00681032
0.00784658
0.00896069
0.0101282
0.0113233
0.0125272
0.0137279
0.0149181
0.0160934
0.0172499
0.0183845
0.0194937
0.0205734
0.0216194
0.0226268
0.0235905
0.0245056
0.025367
0.0261701
0.0269116
0.0275897
0.0282057
0.0287647
0.0292775
0.0297616
0.0302422
0.030752
0.0313297
0.0320175
0.0328587
1.17832e-05
0.000197412
0.000366739
0.000624507
0.000940095
0.00131662
0.00175314
0.00225052
0.00281101
0.00343783
0.00413436
0.00490472
0.00575322
0.00668436
0.00770174
0.00880132
0.00996437
0.0111649
0.0123819
0.0136009
0.0148129
0.0160126
0.0171958
0.018359
0.0194989
0.0206115
0.0216927
0.0227377
0.0237414
0.0246985
0.0256037
0.0264518
0.0272383
0.0279598
0.0286151
0.0292061
0.0297394
0.0302276
0.0306904
0.0311563
0.0316612
0.0322477
0.0329611
1.175e-05
0.000196272
0.000361568
0.000615244
0.000925612
0.00129569
0.00172496
0.00221391
0.00276485
0.00338069
0.00406494
0.0048214
0.0056544
0.00656846
0.00756767
0.00865149
0.00980678
0.0110092
0.0122361
0.013471
0.014703
0.0159254
0.0171334
0.0183236
0.0194924
0.0206362
0.0217506
0.0228311
0.0238728
0.0248703
0.0258178
0.0267099
0.0275412
0.0283072
0.029005
0.0296339
0.0301968
0.030702
0.0311645
0.031607
0.0320614
0.0325677
0.0331717
1.1721e-05
0.000195183
0.000356836
0.000606673
0.000912209
0.00127632
0.00169889
0.00218006
0.00272208
0.00332785
0.00400067
0.0047444
0.0055631
0.00646131
0.0074434
0.00851107
0.00965598
0.0108572
0.0120911
0.0133392
0.0145891
0.0158325
0.0170639
0.0182795
0.0194757
0.0206487
0.0217947
0.022909
0.0239867
0.0250225
0.0260107
0.0269454
0.0278209
0.0286316
0.0293734
0.0300437
0.0306426
0.0311745
0.0316499
0.0320864
0.0325107
0.0329584
0.0334739
1.17012e-05
0.000194154
0.000352516
0.000598776
0.000899804
0.00125832
0.00167455
0.00214855
0.00268231
0.0032787
0.00394095
0.00467281
0.00547832
0.00636187
0.00732806
0.0083796
0.00951239
0.0107094
0.0119474
0.0132064
0.014472
0.0157346
0.016988
0.0182275
0.0194496
0.0206504
0.0218262
0.0229725
0.0240846
0.025157
0.0261841
0.0271599
0.0280782
0.0289333
0.0297196
0.0304332
0.0310721
0.0316376
0.0321362
0.0325807
0.0329922
0.0334018
0.0338492
1.16878e-05
0.000193183
0.000348555
0.000591324
0.000888127
0.00124147
0.00165185
0.00211913
0.00264527
0.00323289
0.0038853
0.00460612
0.00539931
0.00626925
0.00722043
0.00825648
0.00937607
0.0105663
0.0118058
0.0130732
0.0143525
0.0156327
0.0169064
0.0181687
0.0194152
0.0206424
0.0218464
0.0230232
0.0241678
0.0252751
0.0263394
0.0273547
0.0283147
0.029213
0.0300436
0.0308015
0.0314827
0.0320865
0.0326158
0.0330791
0.0334927
0.033882
0.0342822
1.1681e-05
0.000192303
0.000345015
0.000584375
0.00087722
0.00122569
0.00163064
0.00209159
0.00261056
0.0031901
0.00383333
0.00454385
0.00532552
0.0061827
0.00711981
0.00814098
0.00924691
0.0104287
0.0116669
0.0129404
0.0142315
0.0155275
0.0168203
0.0181036
0.0193734
0.0206256
0.0218567
0.0230622
0.0242378
0.0253784
0.0264783
0.0275315
0.0285316
0.0294719
0.0303461
0.0311483
0.0318733
0.0325183
0.0330836
0.0335741
0.0340014
0.0343858
0.0347574
1.16796e-05
0.000191532
0.000341904
0.000577925
0.00086704
0.00121091
0.0016107
0.00206581
0.00257798
0.00314987
0.00378449
0.00448537
0.00525634
0.00610157
0.00702562
0.00803262
0.00912475
0.0102966
0.0115316
0.0128087
0.0141094
0.0154197
0.0167299
0.0180332
0.019325
0.0206011
0.0218576
0.0230908
0.024296
0.0254682
0.026602
0.0276915
0.0287302
0.0297113
0.0306282
0.0314741
0.0322433
0.0329313
0.0335362
0.03406
0.0345102
0.0349019
0.0352602
1.16877e-05
0.000190864
0.000339207
0.000571868
0.000857376
0.00119696
0.0015919
0.00204149
0.0025474
0.00311207
0.00373863
0.00443046
0.00519132
0.00602539
0.00693704
0.00793072
0.00900932
0.0101701
0.0114
0.0126788
0.0139872
0.0153098
0.016636
0.0179582
0.0192706
0.0205694
0.0218504
0.0231098
0.0243432
0.0255457
0.026712
0.0278362
0.0289119
0.0299325
0.0308907
0.0317798
0.0325929
0.0333248
0.0339717
0.0345329
0.0350127
0.0354218
0.035779
1.1708e-05
0.000190318
0.000336901
0.000566169
0.000848302
0.00118382
0.00157425
0.00201857
0.00251854
0.00307652
0.00369548
0.00437879
0.00513013
0.00595364
0.00685362
0.00783461
0.00890014
0.0100494
0.0112725
0.012551
0.0138652
0.0151987
0.0165395
0.017879
0.0192112
0.0205314
0.0218358
0.0231202
0.0243804
0.0256119
0.0268093
0.0279668
0.0290782
0.0301365
0.0311349
0.032066
0.0329228
0.0336986
0.0343887
0.0349904
0.0355049
0.0359388
0.0363055
1.17332e-05
0.000189879
0.000334961
0.000560859
0.00083979
0.00117144
0.00155751
0.00199697
0.00249125
0.00304284
0.00365465
0.00432993
0.00507236
0.00588593
0.00677501
0.00774396
0.0087968
0.00993443
0.0111496
0.0124259
0.0137441
0.0150867
0.0164407
0.0177964
0.0191472
0.0204879
0.0218145
0.0231229
0.0244089
0.025668
0.026895
0.0280845
0.02923
0.0303249
0.031362
0.0323339
0.0332333
0.0340529
0.0347867
0.0354305
0.0359831
0.0364476
0.0368336
1.1766e-05
0.000189524
0.000333332
0.000555866
0.000831679
0.00115967
0.00154167
0.00197649
0.00246551
0.00301105
0.00361607
0.00428377
0.00501773
0.00582195
0.00670062
0.00765827
0.00869898
0.0098248
0.0110311
0.0123038
0.0136242
0.0149744
0.0163401
0.0177109
0.0190791
0.0204394
0.0217871
0.0231184
0.0244291
0.0257147
0.0269702
0.0281902
0.0293685
0.0304985
0.031573
0.0325846
0.0335254
0.034388
0.0351655
0.0358522
0.036445
0.0369443
0.0373558
1.18073e-05
0.000189256
0.00033195
0.000551152
0.000824058
0.00114858
0.00152675
0.00195709
0.00244109
0.00298098
0.00357959
0.00424009
0.00496601
0.00576132
0.00663013
0.00757699
0.00860618
0.00972043
0.0109171
0.012185
0.013506
0.0148623
0.0162383