/*--------------------------------*- C++ -*----------------------------------*\
| =========                 |                                                 |
| \\      /  F ield         | OpenFOAM: The Open Source CFD Toolbox           |
|  \\    /   O peration     | Version:  2.3.0                                 |
|   \\  /    A nd           | Web:      www.OpenFOAM.org                      |
|    \\/     M anipulation  |                                                 |
\*---------------------------------------------------------------------------*/
FoamFile
{
    version     2.0;
    format      ascii;
    class       volVectorField;
    location    "1000";
    object      U;
}
// * * * * * * * * * * * * * * * * * * * * * * * * * * * * * * * * * * * * * //

dimensions      [0 1 -1 0 0 0 0];

internalField   nonuniform List<vector> 
14535
(
(22.3861 2.29445 -3.98341e-21)
(22.4809 2.45436 -2.07196e-20)
(22.5767 2.61167 2.59979e-20)
(22.6748 2.7839 6.2235e-20)
(22.7755 2.97146 -1.41016e-19)
(22.8796 3.17774 2.91571e-19)
(22.9883 3.40652 -2.02302e-19)
(23.1031 3.66206 -2.83298e-19)
(23.2257 3.94875 5.92217e-19)
(23.357 4.27054 -3.15406e-19)
(23.4969 4.63079 5.23413e-21)
(23.6431 5.03191 0)
(23.7901 5.47517 -4.52868e-19)
(23.9282 5.96019 -3.02683e-20)
(24.0428 6.48539 1.02148e-18)
(24.1125 7.04768 -5.34151e-19)
(24.1093 7.64251 0)
(23.9973 8.2635 3.26163e-19)
(23.7323 8.90224 -3.24756e-19)
(23.2606 9.54464 0)
(22.5226 10.1753 -1.62889e-19)
(21.4589 10.8061 3.40738e-19)
(20.0041 11.4547 -1.74578e-19)
(18.066 11.8913 4.14567e-21)
(22.2329 2.38605 6.77019e-22)
(22.2923 2.5369 0)
(22.3511 2.68474 -1.94091e-23)
(22.4075 2.84317 -3.51889e-22)
(22.4601 3.01087 -2.73389e-21)
(22.5072 3.18857 -9.11103e-22)
(22.547 3.37724 -6.21612e-20)
(22.5777 3.57835 6.28543e-20)
(22.5976 3.79385 0)
(22.6046 4.02609 2.10897e-19)
(22.5969 4.27771 -2.07041e-19)
(22.572 4.55121 -1.27708e-19)
(22.5275 4.84867 2.68484e-19)
(22.46 5.17119 -2.81547e-19)
(22.3657 5.51835 1.42683e-19)
(22.2398 5.88748 0)
(22.0766 6.27299 0)
(21.8702 6.66581 8.53382e-20)
(21.6143 7.05257 -8.59948e-20)
(21.3034 7.41456 0)
(20.9345 7.72842 8.30893e-22)
(20.5088 7.96607 -9.24454e-20)
(20.0278 8.08983 9.21345e-20)
(19.4945 8.05194 5.27675e-20)
(22.0854 2.43979 2.60731e-21)
(22.1238 2.58464 0)
(22.1592 2.72353 2.31947e-20)
(22.1909 2.87009 -4.60034e-20)
(22.2182 3.02413 6.51754e-21)
(22.2401 3.18619 1.33851e-20)
(22.2555 3.35655 -7.49749e-22)
(22.2634 3.53532 -1.95653e-21)
(22.2619 3.7225 1.95362e-21)
(22.2492 3.91783 0)
(22.2228 4.12097 3.47366e-21)
(22.1798 4.33128 -5.46359e-21)
(22.117 4.54783 -5.5298e-21)
(22.0309 4.76929 4.45833e-21)
(21.918 4.99367 2.33281e-20)
(21.7745 5.21817 -2.16535e-20)
(21.5971 5.43895 0)
(21.383 5.65106 0)
(21.1305 5.84828 1.15765e-22)
(20.8394 6.02301 -6.89665e-20)
(20.5122 6.16678 7.11401e-20)
(20.1543 6.2705 1.88183e-21)
(19.7752 6.32499 7.17994e-20)
(19.3908 6.32219 -6.98231e-20)
(21.9553 2.48643 1.96172e-20)
(21.974 2.60945 -2.07139e-20)
(21.9908 2.7331 2.81203e-21)
(22.0029 2.86245 0)
(22.0093 2.99709 0)
(22.009 3.1371 0)
(22.001 3.28265 3.83327e-20)
(21.9845 3.4338 -8.06062e-20)
(21.9583 3.59051 3.87318e-20)
(21.9213 3.75256 -1.87314e-21)
(21.8723 3.91955 2.58742e-21)
(21.8098 4.09067 7.00357e-22)
(21.7322 4.26488 4.33637e-22)
(21.6379 4.44058 -6.88368e-20)
(21.5251 4.61565 -1.38358e-20)
(21.3921 4.78739 8.27903e-20)
(21.2375 4.95234 0)
(21.0606 5.10649 7.80886e-20)
(20.8612 5.24508 -7.65465e-20)
(20.6404 5.36292 -2.58091e-21)
(20.4009 5.45463 1.262e-19)
(20.1467 5.51502 -1.37824e-19)
(19.8842 5.53998 -2.30224e-21)
(19.6213 5.52715 -5.82307e-21)
(21.8368 2.50558 -5.27414e-21)
(21.8449 2.61532 4.60973e-21)
(21.8497 2.7259 5.63956e-21)
(21.85 2.84029 3.82485e-20)
(21.8451 2.95841 -3.80386e-20)
(21.8342 3.08026 0)
(21.8164 3.2058 1.81757e-21)
(21.791 3.33496 1.79919e-21)
(21.7569 3.4675 -2.80606e-21)
(21.7134 3.60308 1.88195e-21)
(21.6591 3.74114 8.51983e-20)
(21.593 3.88095 -8.77508e-20)
(21.5139 4.0215 -1.04447e-19)
(21.4206 4.16145 1.05541e-19)
(21.3121 4.29905 2.18767e-21)
(21.1873 4.43215 0)
(21.0455 4.55813 0)
(20.8866 4.67401 -1.00314e-19)
(20.7108 4.77646 9.92694e-20)
(20.5196 4.86205 -1.27748e-19)
(20.3153 4.92746 1.33583e-19)
(20.1017 4.96961 4.70318e-21)
(19.8834 4.98633 0)
(19.6658 4.97665 3.12992e-20)
(21.7328 2.51472 -1.87494e-20)
(21.733 2.61045 1.87636e-20)
(21.7297 2.70843 -2.28321e-21)
(21.7221 2.80915 0)
(21.7097 2.91262 0)
(21.6916 3.01883 0)
(21.6674 3.12769 -4.95018e-20)
(21.6362 3.23916 1.00108e-19)
(21.5974 3.353 -5.14533e-20)
(21.5503 3.46886 0)
(21.494 3.58622 3.90392e-21)
(21.4277 3.70434 0)
(21.3506 3.82236 0)
(21.2618 3.93915 0)
(21.1608 4.05319 3.05334e-21)
(21.0468 4.16271 9.42232e-20)
(20.9197 4.26555 -1.94775e-19)
(20.7791 4.35923 2.17813e-19)
(20.6256 4.44116 -1.16075e-19)
(20.4599 4.50877 -4.38415e-21)
(20.2841 4.55972 0)
(20.101 4.59199 5.36062e-21)
(19.9142 4.60409 -4.26905e-20)
(19.7277 4.59535 4.91455e-20)
(21.6418 2.51519 0)
(21.6371 2.59931 1.076e-20)
(21.6286 2.68583 -3.63293e-20)
(21.6161 2.77471 3.27503e-20)
(21.5994 2.86589 0)
(21.5777 2.9592 3.89362e-21)
(21.5505 3.05459 0)
(21.5169 3.15194 0)
(21.4765 3.25113 7.75659e-21)
(21.4288 3.35183 6.64576e-20)
(21.3729 3.45357 -7.21611e-22)
(21.3084 3.55559 -7.07628e-20)
(21.2342 3.65708 5.1343e-21)
(21.1498 3.7572 8.67161e-20)
(21.0549 3.85465 -8.73911e-20)
(20.9491 3.94792 3.54325e-21)
(20.8324 4.03524 0)
(20.7049 4.11445 0)
(20.5666 4.18331 6.92529e-20)
(20.418 4.23966 -6.60069e-20)
(20.2605 4.28188 0)
(20.0967 4.30845 -5.46333e-21)
(19.9295 4.31817 -6.00045e-21)
(19.7623 4.31055 0)
(21.5631 2.50979 -1.66964e-20)
(21.5552 2.58422 1.24644e-20)
(21.5432 2.66072 3.87417e-21)
(21.5275 2.73952 -3.66416e-20)
(21.5081 2.82043 3.68851e-20)
(21.4845 2.90322 4.37628e-22)
(21.4559 2.98774 6.81054e-20)
(21.4215 3.07386 -6.35825e-20)
(21.3808 3.16151 -4.19466e-21)
(21.3336 3.25051 4.8401e-21)
(21.2791 3.34047 5.06117e-21)
(21.2171 3.43057 0)
(21.1463 3.51979 -5.17477e-21)
(21.0661 3.60774 -9.5988e-20)
(20.9767 3.69324 9.14274e-20)
(20.8776 3.77487 -6.54032e-21)
(20.7694 3.85129 0)
(20.6523 3.92059 0)
(20.5265 3.98062 -8.97591e-21)
(20.3915 4.02924 6.99648e-20)
(20.2474 4.06567 -7.04389e-20)
(20.098 4.08862 -1.15344e-20)
(19.9447 4.09681 5.11554e-20)
(19.7913 4.09009 -5.17789e-20)
(21.4941 2.50034 -3.33458e-22)
(21.4846 2.56689 -1.79296e-20)
(21.4706 2.63487 -1.80288e-20)
(21.4529 2.70517 3.55701e-20)
(21.4321 2.77758 -8.9628e-21)
(21.4077 2.85174 3.56233e-22)
(21.3789 2.92752 0)
(21.3448 3.00478 3.615e-22)
(21.3044 3.08323 5.04289e-21)
(21.2585 3.16302 7.22961e-20)
(21.2049 3.24368 -9.35657e-20)
(21.1456 3.32473 0)
(21.0785 3.40462 6.06845e-21)
(21.0019 3.48336 -5.14132e-20)
(20.9175 3.56008 1.07281e-19)
(20.8237 3.63316 -5.5984e-20)
(20.7217 3.70167 -7.2031e-20)
(20.6118 3.7638 5.66584e-20)
(20.4951 3.8175 8.4549e-20)
(20.3713 3.86042 -6.7065e-20)
(20.2368 3.89264 2.65693e-22)
(20.0986 3.91343 1.14991e-20)
(19.9555 3.92057 0)
(19.8124 3.91483 2.72376e-20)
(21.4319 2.48669 -9.84257e-21)
(21.4231 2.54863 2.49532e-20)
(21.4087 2.61001 -3.46541e-20)
(21.3904 2.67315 8.31205e-20)
(21.3688 2.73818 -7.25211e-20)
(21.3442 2.80513 3.88475e-20)
(21.3157 2.87369 0)
(21.2833 2.94453 -4.86846e-21)
(21.2432 3.01532 2.90564e-22)
(21.1982 3.08725 -3.25423e-20)
(21.144 3.1595 4.43505e-20)
(21.0863 3.23406 5.97847e-21)
(21.0246 3.30776 3.10218e-22)
(20.9516 3.37905 6.80183e-21)
(20.8723 3.44919 -7.26886e-21)
(20.7833 3.51587 7.75157e-21)
(20.6862 3.57809 1.63058e-20)
(20.5806 3.63331 1.7455e-20)
(20.4666 3.68196 9.25953e-21)
(20.3536 3.7224 -4.1868e-20)
(20.224 3.75125 -2.53638e-21)
(20.0958 3.77178 9.00781e-21)
(19.96 3.77761 7.55802e-20)
(19.8247 3.77282 -4.01417e-20)
(15.6797 11.4261 -7.93035e-21)
(14.7193 10.4034 0)
(14.3293 9.48342 0)
(14.2221 8.64665 -3.47265e-22)
(14.2684 7.87646 0)
(14.4056 7.16459 9.61679e-19)
(14.5975 6.51168 5.44891e-20)
(14.8217 5.91825 -1.0161e-18)
(15.0629 5.38211 1.09022e-18)
(15.3103 4.9013 -2.22229e-18)
(15.5558 4.47304 2.26028e-18)
(15.7934 4.09398 -3.22244e-18)
(16.0189 3.76009 4.20575e-18)
(16.2301 3.46662 -4.70344e-20)
(16.4263 3.20903 -2.03607e-18)
(16.6078 2.98258 2.95406e-20)
(16.7757 2.78274 -2.86944e-20)
(16.9314 2.60532 5.9777e-20)
(17.0768 2.44638 0)
(17.2134 2.30249 -8.56445e-19)
(17.3425 2.17086 7.92057e-19)
(17.465 2.04926 5.04219e-19)
(17.5817 1.93667 -4.80036e-19)
(17.6926 1.82345 8.67118e-20)
(18.936 7.84435 -5.04157e-20)
(18.4451 7.50403 0)
(18.0339 7.09493 0)
(17.7023 6.66454 4.11065e-19)
(17.4418 6.23585 -4.27814e-19)
(17.2436 5.82119 0)
(17.0993 5.42792 -1.32826e-20)
(17.0008 5.06034 1.00623e-18)
(16.9409 4.72042 -2.03157e-18)
(16.9132 4.40837 2.00902e-21)
(16.9119 4.12304 9.88805e-19)
(16.9321 3.86268 -1.51821e-20)
(16.9697 3.62513 1.48873e-20)
(17.0208 3.40814 -2.69546e-20)
(17.0826 3.20932 0)
(17.1526 3.0263 -2.80019e-20)
(17.2286 2.85694 2.74535e-20)
(17.3089 2.69939 0)
(17.392 2.55213 0)
(17.4767 2.41403 4.9528e-20)
(17.562 2.28422 4.44241e-19)
(17.6469 2.16204 -8.25501e-19)
(17.731 2.04731 4.68512e-19)
(17.8135 1.93369 0)
(19.0204 6.26008 -3.35076e-21)
(18.68 6.14157 0)
(18.3778 5.97467 1.32404e-19)
(18.1186 5.77161 -1.39943e-19)
(17.9029 5.54386 -3.03594e-19)
(17.729 5.30089 6.43894e-19)
(17.594 5.05033 -6.95254e-19)
(17.4942 4.79821 3.71107e-19)
(17.4254 4.54932 0)
(17.3832 4.30727 1.186e-20)
(17.3632 4.07448 -2.5259e-20)
(17.3618 3.85256 0)
(17.3754 3.64223 7.8331e-19)
(17.4009 3.44385 -7.50727e-19)
(17.4358 3.25733 -7.53689e-19)
(17.4779 3.08234 2.38647e-20)
(17.5255 2.91836 7.48169e-19)
(17.5772 2.76476 -7.65616e-19)
(17.632 2.6208 1.5264e-18)
(17.6891 2.48576 -7.62827e-19)
(17.7479 2.35888 -4.78847e-20)
(17.808 2.23942 4.70587e-20)
(17.8691 2.12696 -8.90324e-20)
(17.9307 2.01616 8.30489e-20)
(19.3645 5.47714 -1.34504e-20)
(19.1176 5.39204 7.05867e-21)
(18.8855 5.2754 -4.00601e-21)
(18.6737 5.13286 8.83269e-21)
(18.4853 4.97047 3.05409e-19)
(18.3217 4.79409 -6.39794e-19)
(18.1828 4.60881 7.0262e-19)
(18.0678 4.41912 -3.48235e-19)
(17.975 4.22866 0)
(17.9026 4.04024 -6.05991e-22)
(17.8484 3.85605 7.43741e-19)
(17.8104 3.67762 -7.23152e-19)
(17.7865 3.50595 0)
(17.7748 3.34167 2.20514e-20)
(17.7736 3.18502 -2.31409e-20)
(17.7816 3.03595 6.99685e-19)
(17.7973 2.89426 4.17435e-22)
(17.8196 2.75964 -7.21378e-19)
(17.8474 2.63171 -3.59321e-19)
(17.8799 2.51005 6.28726e-19)
(17.9161 2.39431 -3.59119e-19)
(17.9555 2.28409 4.37649e-20)
(17.9976 2.17925 0)
(18.0418 2.07548 0)
(19.4531 4.94106 -1.20753e-20)
(19.2476 4.88032 7.31815e-21)
(19.0525 4.79601 0)
(18.8719 4.6912 -1.40733e-19)
(18.7085 4.56951 2.81644e-19)
(18.5635 4.4349 -1.40118e-19)
(18.4375 4.29097 -2.01915e-20)
(18.33 4.14114 -1.06462e-20)
(18.2403 3.98842 -3.37312e-19)
(18.1669 3.83514 3.20949e-19)
(18.1086 3.6833 0)
(18.0639 3.53434 2.07644e-20)
(18.0313 3.38927 -3.40822e-19)
(18.0093 3.24885 3.15997e-19)
(17.9968 3.11348 0)
(17.9924 2.98335 2.09039e-20)
(17.9951 2.85849 -3.40494e-19)
(18.0038 2.73885 -4.18926e-22)
(18.0177 2.62429 3.42482e-19)
(18.036 2.51463 -2.99425e-19)
(18.0581 2.40966 2.14832e-19)
(18.0835 2.30921 -5.51959e-22)
(18.112 2.21322 8.43472e-20)
(18.143 2.11792 7.95347e-20)
(19.5445 4.56614 -6.91843e-21)
(19.3667 4.51705 -7.5235e-21)
(19.1968 4.44912 8.02142e-21)
(19.038 4.36439 1.49351e-19)
(18.8924 4.26545 -1.40958e-19)
(18.7611 4.15519 -2.49027e-22)
(18.6445 4.03639 1.95433e-20)
(18.5427 3.91181 0)
(18.4551 3.78387 -9.89651e-21)
(18.381 3.65459 0)
(18.3194 3.52565 3.07367e-19)
(18.2695 3.39832 -3.63322e-19)
(18.2301 3.27359 -3.47328e-19)
(18.2002 3.15213 3.23997e-19)
(18.1789 3.03436 3.27095e-19)
(18.1651 2.92049 -3.46192e-19)
(18.1579 2.81061 4.09356e-20)
(18.1565 2.70476 0)
(18.1601 2.60288 0)
(18.168 2.50487 0)
(18.1797 2.41064 -2.2849e-19)
(18.1947 2.32007 1.24113e-19)
(18.2129 2.23316 0)
(18.2342 2.14679 -3.86995e-20)
(19.5978 4.28571 0)
(19.438 4.24417 0)
(19.2852 4.18676 -8.26042e-20)
(19.1419 4.11502 -2.21542e-19)
(19.0098 4.03096 2.88555e-19)
(18.8898 3.93675 -1.60589e-19)
(18.7818 3.83481 1.21364e-19)
(18.6861 3.72751 0)
(18.6023 3.61685 9.89709e-21)
(18.5301 3.50458 -1.936e-20)
(18.4688 3.39221 5.4144e-22)
(18.4177 3.28084 3.36884e-19)
(18.376 3.17138 -2.73335e-19)
(18.3428 3.06446 3.16484e-19)
(18.3175 2.96044 -3.33257e-19)
(18.2991 2.85946 -3.16645e-19)
(18.2866 2.76168 3.15086e-19)
(18.2794 2.66724 0)
(18.2767 2.57611 1.97243e-20)
(18.2779 2.48819 0)
(18.2826 2.40349 2.03701e-20)
(18.2903 2.32193 0)
(18.3009 2.24357 1.97996e-20)
(18.3138 2.16631 5.85474e-20)
(19.6402 4.0682 1.43327e-20)
(19.4934 4.03167 1.52181e-20)
(19.3532 3.98133 8.08647e-21)
(19.2218 3.91839 0)
(19.1002 3.84454 1.75271e-20)
(18.9889 3.76136 0)
(18.8874 3.67126 1.88778e-19)
(18.7967 3.5763 4.16968e-21)
(18.7163 3.47815 3.63652e-21)
(18.646 3.37842 -1.31647e-19)
(18.5855 3.27835 3.27777e-19)
(18.5342 3.17905 -6.12121e-19)
(18.4914 3.08136 5.74009e-19)
(18.4566 2.98581 -3.23568e-19)
(18.429 2.8927 1.93784e-20)
(18.4079 2.80207 1.90074e-20)
(18.3919 2.7141 -3.89466e-22)
(18.3808 2.62918 1.73929e-19)
(18.3738 2.54714 -3.82932e-20)
(18.3705 2.46786 -1.55961e-19)
(18.3702 2.39145 0)
(18.3729 2.31785 -1.95692e-20)
(18.3781 2.24691 1.24521e-23)
(18.386 2.17676 -1.88035e-20)
(19.6711 3.89527 -2.81439e-20)
(19.534 3.86253 -1.51255e-20)
(19.4032 3.81705 3.2543e-20)
(19.2804 3.75986 -1.58645e-20)
(19.1667 3.69322 -3.47278e-20)
(19.0626 3.61786 1.45206e-19)
(18.9662 3.53669 -1.6179e-19)
(18.8801 3.45098 0)
(18.803 3.36228 0)
(18.7351 3.2721 0)
(18.676 3.1814 -1.50337e-19)
(18.6252 3.09143 1.48133e-19)
(18.5822 3.00303 3.74007e-20)
(18.5468 2.91646 1.69019e-19)
(18.5185 2.83212 1.34515e-21)
(18.4961 2.74979 -1.49491e-19)
(18.478 2.66959 -2.93617e-22)
(18.4644 2.59273 -1.70156e-19)
(18.4549 2.51828 1.89208e-19)
(18.4487 2.44635 -1.71734e-19)
(18.445 2.37706 1.72628e-19)
(18.4443 2.31054 1.94798e-20)
(18.4457 2.24633 3.86474e-20)
(18.4494 2.18352 -1.86895e-20)
(19.6902 3.75517 0)
(19.5592 3.72566 0)
(19.4341 3.68353 0)
(19.3163 3.62926 -1.01423e-19)
(19.2078 3.56952 1.56671e-19)
(19.1119 3.50052 -8.74359e-20)
(19.0188 3.42721 1.27229e-19)
(18.939 3.34882 -1.43099e-19)
(18.8654 3.26736 0)
(18.801 3.18436 -1.68312e-19)
(18.7439 3.10038 1.48398e-19)
(18.6939 3.01765 -1.32285e-19)
(18.6513 2.93707 1.47506e-19)
(18.6167 2.85759 1.84475e-20)
(18.5888 2.7804 0)
(18.5665 2.70481 1.48674e-19)
(18.5471 2.63025 -3.19574e-19)
(18.5327 2.56056 1.52156e-19)
(18.5222 2.49184 -1.53276e-19)
(18.5142 2.42621 1.7059e-19)
(18.5083 2.36279 -9.6534e-20)
(18.5059 2.30239 9.75874e-20)
(18.505 2.24352 1.93592e-20)
(18.5067 2.18603 1.93145e-20)
(19.2604 -0.500374 1.70775e-19)
(19.068 -0.507618 -8.86381e-20)
(18.8629 -0.513477 -7.30951e-19)
(18.6465 -0.518958 7.5158e-19)
(18.4205 -0.523544 4.81723e-20)
(18.186 -0.527244 4.9839e-20)
(17.9442 -0.530127 8.41334e-19)
(17.6959 -0.532286 -9.02089e-19)
(17.4413 -0.533783 2.81768e-20)
(17.1804 -0.5347 0)
(16.913 -0.53507 -3.12935e-20)
(16.638 -0.534964 0)
(16.3543 -0.534384 -1.80201e-20)
(16.0597 -0.533329 0)
(15.7517 -0.531814 0)
(15.4264 -0.529766 0)
(15.0785 -0.527077 1.26952e-20)
(14.7005 -0.523542 -1.45551e-20)
(14.2809 -0.518922 -2.17901e-18)
(13.8015 -0.51276 2.54219e-18)
(13.2303 -0.503929 0)
(12.5061 -0.491883 -9.60805e-19)
(11.5229 -0.431678 1.27799e-18)
(10.5804 -0.396184 -4.12097e-20)
(19.2564 -0.493603 0)
(19.081 -0.500245 -3.73784e-19)
(18.896 -0.505937 4.29972e-19)
(18.702 -0.511113 0)
(18.4996 -0.515571 0)
(18.2896 -0.519316 8.80082e-19)
(18.0727 -0.522374 -1.70974e-18)
(17.8491 -0.524777 8.85975e-19)
(17.619 -0.526546 0)
(17.3822 -0.52771 -3.01279e-20)
(17.1379 -0.528283 -3.16978e-20)
(16.8853 -0.528286 -3.35549e-20)
(16.623 -0.527717 1.8138e-20)
(16.3488 -0.526548 1.21081e-18)
(16.06 -0.524747 1.29402e-21)
(15.7527 -0.522241 -2.9079e-18)
(15.4217 -0.518915 -1.9815e-21)
(15.0593 -0.514579 1.17847e-20)
(14.6537 -0.508978 2.03766e-18)
(14.1863 -0.501755 0)
(13.6249 -0.491352 -7.01647e-19)
(12.9149 -0.478943 2.58863e-20)
(12.0154 -0.432763 1.10614e-18)
(11.4671 -0.349451 -7.0128e-19)
(19.2522 -0.490029 -1.38814e-19)
(19.0922 -0.495873 9.77925e-20)
(18.9244 -0.501472 -4.48757e-19)
(18.7487 -0.506571 4.06691e-19)
(18.5652 -0.510952 0)
(18.3744 -0.514616 -1.06765e-19)
(18.1766 -0.517577 0)
(17.9719 -0.519854 2.83343e-20)
(17.7601 -0.521461 0)
(17.5409 -0.522416 1.04243e-18)
(17.3136 -0.522728 -9.96073e-19)
(17.0771 -0.522392 3.3947e-20)
(16.8301 -0.521397 -1.81016e-20)
(16.5704 -0.519714 1.92835e-20)
(16.2954 -0.517301 -2.08791e-20)
(16.0012 -0.51409 1.46958e-18)
(15.6824 -0.509977 -1.58732e-18)
(15.3313 -0.504819 0)
(14.936 -0.49841 3.11981e-20)
(14.4775 -0.490533 0)
(13.9239 -0.479376 -4.18572e-20)
(13.2281 -0.463442 -2.524e-20)
(12.3937 -0.421579 1.59428e-19)
(12.0342 -0.322799 -1.56425e-19)
(19.2461 -0.485419 9.86084e-20)
(19.0997 -0.491093 -5.11029e-20)
(18.9458 -0.496343 5.21543e-20)
(18.7845 -0.501011 0)
(18.6161 -0.505051 0)
(18.4404 -0.508452 9.38909e-19)
(18.2578 -0.511199 -9.06276e-19)
(18.0679 -0.513302 0)
(17.8705 -0.514774 0)
(17.6651 -0.515627 -1.03972e-18)
(17.4511 -0.515864 1.0212e-18)
(17.2271 -0.515468 0)
(16.9919 -0.514415 1.19537e-18)
(16.7432 -0.512666 -1.27361e-18)
(16.4783 -0.510163 2.09645e-20)
(16.1934 -0.506828 -7.75834e-19)
(15.8831 -0.502561 7.72352e-19)
(15.5395 -0.497227 -8.81445e-19)
(15.1505 -0.490621 9.53904e-19)
(14.6969 -0.482515 0)
(14.1471 -0.471195 -2.54026e-22)
(13.4608 -0.452545 3.85789e-19)
(12.6703 -0.409887 -4.76037e-19)
(12.4128 -0.307372 0)
(19.2401 -0.480659 -5.22827e-20)
(19.1062 -0.486166 1.54636e-22)
(18.965 -0.491 -1.084e-19)
(18.8168 -0.495284 4.40004e-19)
(18.6616 -0.499086 -8.94087e-19)
(18.4995 -0.502361 4.55755e-19)
(18.3302 -0.505045 4.67242e-19)
(18.1533 -0.507109 -5.10089e-19)
(17.9686 -0.508565 0)
(17.7752 -0.509428 0)
(17.5724 -0.509699 -8.80165e-23)
(17.3591 -0.509351 -5.65606e-19)
(17.1336 -0.50834 5.9693e-19)
(16.8939 -0.506617 1.98118e-20)
(16.6371 -0.504117 0)
(16.3595 -0.500756 2.28848e-20)
(16.0555 -0.496415 8.48369e-19)
(15.7172 -0.490951 -8.762e-19)
(15.3325 -0.484142 4.56761e-19)
(14.8819 -0.475666 -1.09701e-18)
(14.3344 -0.463935 6.67969e-19)
(13.6549 -0.443354 0)
(12.8952 -0.398728 5.60925e-20)
(12.7011 -0.296644 -6.52019e-20)
(19.2351 -0.476634 5.48423e-20)
(19.1125 -0.481738 -2.23196e-19)
(18.9829 -0.486124 2.81143e-19)
(18.8463 -0.490056 -4.83729e-19)
(18.7028 -0.493687 4.3216e-19)
(18.5524 -0.496921 -2.93672e-20)
(18.3947 -0.499615 4.79744e-19)
(18.2293 -0.501677 3.12153e-20)
(18.0553 -0.503112 -5.07173e-19)
(17.8722 -0.503988 3.29007e-20)
(17.679 -0.50433 6.84968e-20)
(17.4746 -0.504084 3.591e-20)
(17.2573 -0.503176 -6.05219e-19)
(17.0251 -0.501559 6.40977e-19)
(16.775 -0.499182 -6.84686e-19)
(16.5034 -0.495946 1.47089e-18)
(16.2047 -0.491703 -8.21058e-19)
(15.8709 -0.486286 -4.35399e-19)
(15.4899 -0.479472 9.60928e-19)
(15.042 -0.470863 -5.37011e-19)
(14.497 -0.45885 0)
(13.8236 -0.437099 4.43624e-20)
(13.0863 -0.390774 -1.0596e-19)
(12.9342 -0.289386 6.04757e-20)
(19.2307 -0.473184 -1.14473e-19)
(19.1182 -0.477771 -2.89876e-20)
(18.9989 -0.481646 2.04014e-19)
(18.8723 -0.485133 -2.34777e-19)
(18.7387 -0.488621 5.93803e-20)
(18.5982 -0.491945 -6.6805e-23)
(18.4504 -0.494806 0)
(18.2945 -0.496947 0)
(18.1298 -0.498321 0)
(17.9551 -0.49913 -3.34545e-20)
(17.7698 -0.499548 -6.9635e-20)
(17.5727 -0.499501 -6.18723e-19)
(17.3622 -0.498801 5.73143e-19)
(17.136 -0.497341 -6.06456e-19)
(16.8913 -0.495148 6.87383e-19)
(16.6244 -0.49222 0)
(16.3298 -0.488376 3.97111e-19)
(15.9994 -0.483321 -4.31429e-19)
(15.621 -0.476835 2.95962e-20)
(15.1749 -0.468406 -5.26129e-19)
(14.632 -0.456366 5.92928e-19)
(13.9636 -0.433169 -1.70738e-19)
(13.2461 -0.383209 2.514e-19)
(13.1313 -0.280639 -5.65236e-20)
(19.2268 -0.470475 -2.97559e-20)
(19.1235 -0.474319 -5.44086e-23)
(19.0137 -0.477469 3.00533e-20)
(18.8958 -0.480185 -2.11857e-19)
(18.7707 -0.483452 2.13418e-19)
(18.6389 -0.486964 2.78226e-19)
(18.4999 -0.490265 2.20353e-19)
(18.3531 -0.492704 -1.02795e-18)
(18.197 -0.493952 5.60499e-19)
(18.03 -0.494548 0)
(17.8514 -0.495023 6.00722e-19)
(17.6608 -0.495242 -6.25779e-19)
(17.4565 -0.494797 3.85553e-20)
(17.236 -0.493568 -8.13058e-20)
(16.9959 -0.49165 -3.4522e-19)
(16.7328 -0.489081 3.67915e-19)
(16.4419 -0.485729 4.44827e-19)
(16.1153 -0.481201 -4.81067e-19)
(15.7398 -0.475188 0)
(15.2964 -0.46788 2.57729e-19)
(14.7558 -0.457112 -5.76788e-19)
(14.0958 -0.436213 4.52363e-19)
(13.3899 -0.388279 -1.91538e-19)
(13.2904 -0.281147 5.32548e-20)
(19.2232 -0.467445 3.07085e-20)
(19.1278 -0.47179 1.24118e-19)
(19.0268 -0.474001 -9.28661e-20)
(18.9159 -0.475292 2.17497e-19)
(18.7969 -0.478489 3.55227e-22)
(18.6707 -0.482625 -2.52501e-19)
(18.5373 -0.48685 3.20262e-20)
(18.3977 -0.490117 0)
(18.2485 -0.490989 -3.34312e-20)
(18.0876 -0.49035 3.45445e-20)
(17.914 -0.490548 3.57821e-20)
(17.7274 -0.491633 3.33689e-19)
(17.5268 -0.491741 -3.09737e-19)
(17.3101 -0.490078 -5.69784e-19)
(17.074 -0.487651 6.44557e-19)
(16.8133 -0.485786 3.6599e-19)
(16.5229 -0.483869 -8.31592e-19)
(16.1968 -0.480013 4.74192e-19)
(15.8208 -0.474307 0)
(15.3732 -0.467154 2.51451e-19)
(14.8328 -0.460129 -2.7979e-19)
(14.167 -0.437785 -7.95707e-20)
(13.4961 -0.380359 -9.13815e-20)
(13.4753 -0.264177 0)
(19.2127 -0.469609 3.15053e-20)
(19.1329 -0.469416 3.11757e-20)
(19.0462 -0.47018 -3.09652e-20)
(18.9398 -0.469349 6.34407e-20)
(18.8288 -0.471828 -2.27093e-19)
(18.7133 -0.475977 5.25981e-19)
(18.5902 -0.481825 3.34526e-20)
(18.4599 -0.486244 -2.99985e-19)
(18.3241 -0.488317 3.06769e-19)
(18.1681 -0.486877 -3.53662e-19)
(17.9973 -0.485893 -3.67087e-19)
(17.819 -0.487301 3.414e-19)
(17.6292 -0.489232 0)
(17.4182 -0.488845 2.88948e-19)
(17.1825 -0.485859 -3.03984e-19)
(16.9241 -0.482297 3.68567e-19)
(16.6432 -0.481924 -3.91084e-19)
(16.3271 -0.480333 -1.57556e-19)
(15.9592 -0.472838 2.27011e-19)
(15.5228 -0.467251 -6.1175e-20)
(14.9763 -0.460076 0)
(14.3698 -0.462909 1.33116e-21)
(13.6376 -0.449823 1.76002e-19)
(13.54 -0.314295 0)
(13.0649 -0.223586 -1.55421e-18)
(15.0684 -0.389842 1.08123e-18)
(16.3203 -0.408103 -2.56797e-20)
(17.1674 -0.44668 0)
(17.8138 -0.471943 -1.78375e-20)
(18.3355 -0.491966 1.5636e-20)
(18.7678 -0.507965 0)
(19.1295 -0.520931 -1.67399e-18)
(19.4317 -0.531264 1.54672e-18)
(19.6814 -0.539202 0)
(19.8836 -0.544893 2.03546e-20)
(20.0424 -0.54844 0)
(20.1618 -0.549912 0)
(20.2463 -0.549395 2.21312e-18)
(20.3016 -0.547085 -2.12991e-18)
(20.3337 -0.543268 0)
(20.3481 -0.538289 -5.9776e-20)
(20.3492 -0.532425 0)
(20.3403 -0.525879 8.8976e-19)
(20.3242 -0.518781 -8.58063e-19)
(20.303 -0.51122 5.22719e-20)
(20.2783 -0.503247 -5.06192e-20)
(20.2514 -0.495183 9.87099e-20)
(20.2233 -0.484134 0)
(13.5701 -0.238162 6.90287e-19)
(15.5839 -0.354048 -2.93474e-20)
(16.828 -0.383028 1.52089e-18)
(17.6534 -0.422848 -2.50272e-18)
(18.2677 -0.446512 1.09969e-18)
(18.7503 -0.466356 -3.03648e-20)
(19.1384 -0.482388 0)
(19.4523 -0.495476 3.76299e-20)
(19.705 -0.505913 -2.35172e-20)
(19.9053 -0.513901 0)
(20.0601 -0.519589 -1.32643e-18)
(20.1755 -0.523124 1.2288e-18)
(20.2572 -0.524655 0)
(20.3111 -0.524375 -3.4766e-20)
(20.3432 -0.522551 0)
(20.3588 -0.519479 0)
(20.362 -0.515458 3.07616e-20)
(20.356 -0.51071 0)
(20.3433 -0.505398 8.64801e-19)
(20.3257 -0.49962 -8.9285e-19)
(20.3046 -0.493427 0)
(20.2811 -0.486961 5.32167e-20)
(20.256 -0.480408 5.1841e-20)
(20.2302 -0.470908 0)
(13.968 -0.248536 -3.47432e-20)
(15.9683 -0.333756 -1.66347e-18)
(17.2012 -0.371501 -4.26822e-21)
(18.0053 -0.407765 1.19739e-18)
(18.5906 -0.428755 0)
(19.0395 -0.44637 1.48041e-20)
(19.391 -0.460193 -1.73148e-18)
(19.6669 -0.471346 1.56668e-18)
(19.8816 -0.480151 1.46611e-18)
(20.0453 -0.486891 -2.81098e-18)
(20.1665 -0.491788 1.33336e-18)
(20.2524 -0.495019 1.95613e-20)
(20.3099 -0.496771 0)
(20.3451 -0.497227 3.54149e-20)
(20.3636 -0.49658 3.3969e-20)
(20.3697 -0.495003 -1.04638e-18)
(20.3667 -0.492648 1.03746e-18)
(20.3571 -0.489624 0)
(20.3427 -0.486012 5.94326e-20)
(20.3248 -0.481868 -5.79145e-20)
(20.3044 -0.47722 0)
(20.2824 -0.47222 3.88881e-19)
(20.2592 -0.467032 -4.87742e-19)
(20.2352 -0.4591 -5.25939e-20)
(14.271 -0.247404 -6.33827e-20)
(16.2583 -0.316544 2.53251e-20)
(17.4814 -0.358775 0)
(18.2666 -0.391957 0)
(18.8266 -0.412028 3.26234e-20)
(19.2464 -0.428595 0)
(19.5668 -0.441414 -1.71333e-18)
(19.8113 -0.451729 3.2256e-18)
(19.9954 -0.459858 -2.9939e-18)
(20.131 -0.46612 1.43881e-18)
(20.2276 -0.470757 1.3236e-18)
(20.2932 -0.473955 -1.25092e-18)
(20.335 -0.475903 -1.25297e-18)
(20.359 -0.47677 3.18113e-20)
(20.3698 -0.47673 -3.89207e-20)
(20.3711 -0.475912 2.14283e-18)
(20.3653 -0.474426 -1.06692e-18)
(20.3544 -0.472346 0)
(20.3399 -0.469735 -9.82637e-19)
(20.3226 -0.46663 1.07688e-18)
(20.3034 -0.463044 -5.87076e-20)
(20.283 -0.459095 5.77013e-20)
(20.2615 -0.454942 0)
(20.2393 -0.448652 5.57128e-20)
(14.5227 -0.24282 5.82709e-20)
(16.4988 -0.303978 -4.72191e-20)
(17.7117 -0.347849 -6.05384e-19)
(18.4793 -0.378715 5.67259e-19)
(19.0164 -0.398275 -3.19424e-20)
(19.4105 -0.414093 0)
(19.704 -0.42636 -8.96501e-19)
(19.9218 -0.436259 -2.98276e-21)
(20.0806 -0.444064 7.59318e-19)
(20.1936 -0.450097 0)
(20.2709 -0.4546 0)
(20.3212 -0.45777 1.21551e-18)
(20.3515 -0.459795 -2.43107e-18)
(20.3672 -0.460851 1.14355e-18)
(20.3725 -0.461102 -3.55465e-20)
(20.3702 -0.460665 -3.43131e-20)
(20.3625 -0.459635 0)
(20.3508 -0.458082 3.23529e-20)
(20.3363 -0.456065 3.15887e-20)
(20.3198 -0.453612 -9.28498e-20)
(20.3018 -0.450734 3.21133e-23)
(20.2829 -0.447519 0)
(20.2631 -0.444047 5.90191e-20)
(20.2428 -0.438676 5.76227e-20)
(14.7356 -0.237265 -5.43584e-20)
(16.7018 -0.292972 0)
(17.9042 -0.336866 -6.20234e-19)
(18.6548 -0.366438 5.51422e-19)
(19.1708 -0.386007 1.00777e-18)
(19.5417 -0.401659 -9.26398e-19)
(19.8115 -0.413818 8.66104e-19)
(20.0064 -0.423539 -8.09436e-19)
(20.1444 -0.431139 0)
(20.2392 -0.436974 -7.25115e-19)
(20.3016 -0.441305 6.86662e-19)
(20.3404 -0.444367 4.09644e-20)
(20.3621 -0.446369 6.6753e-19)
(20.3718 -0.4475 -1.16644e-18)
(20.373 -0.447912 6.15395e-19)
(20.3682 -0.447721 3.50625e-20)
(20.3591 -0.447011 -5.11773e-19)
(20.3469 -0.445848 -1.64343e-21)
(20.3325 -0.444279 4.86624e-19)
(20.3167 -0.442331 5.43209e-19)
(20.2998 -0.44001 -4.39227e-19)
(20.2822 -0.437391 0)
(20.2641 -0.434572 -6.14378e-20)
(20.2453 -0.430387 -1.20765e-19)
(14.9238 -0.228958 5.10171e-20)
(16.8794 -0.281958 0)
(18.0664 -0.325759 -3.72829e-20)
(18.7989 -0.354771 0)
(19.294 -0.374829 -4.64572e-19)
(19.6441 -0.39069 4.58697e-19)
(19.8937 -0.403142 0)
(20.0696 -0.412958 -8.12622e-19)
(20.1905 -0.420443 4.54707e-20)
(20.2709 -0.426073 -2.39645e-21)
(20.322 -0.430206 -2.24901e-21)
(20.3521 -0.433127 -4.36541e-20)
(20.3677 -0.435068 5.55923e-19)
(20.3732 -0.436221 -6.51418e-19)
(20.3715 -0.436727 5.53267e-19)
(20.365 -0.436694 5.73811e-19)
(20.355 -0.436207 -5.9149e-19)
(20.3426 -0.435333 -3.40263e-20)
(20.3286 -0.434108 0)
(20.3135 -0.43255 0)
(20.2976 -0.430667 3.24184e-20)
(20.2813 -0.428488 0)
(20.2645 -0.42613 -9.57581e-20)
(20.2468 -0.42397 1.25811e-19)
(15.0711 -0.219997 -3.85893e-19)
(17.0135 -0.264458 3.2475e-19)
(18.1956 -0.308779 0)
(18.9133 -0.340569 -5.27094e-19)
(19.3928 -0.363246 9.43218e-19)
(19.7259 -0.381714 -4.54403e-19)
(19.9578 -0.395143 -4.29128e-19)
(20.1174 -0.404745 1.21622e-18)
(20.2245 -0.411799 -1.58674e-18)
(20.2935 -0.417082 7.31689e-19)
(20.3357 -0.420953 4.37932e-20)
(20.3593 -0.423689 4.18911e-20)
(20.3702 -0.42554 -6.05202e-19)
(20.3725 -0.426681 -1.79958e-21)
(20.3689 -0.42723 1.23977e-18)
(20.3612 -0.427281 3.81337e-20)
(20.3507 -0.426943 -5.68247e-19)
(20.3383 -0.426302 0)
(20.3247 -0.425349 3.4197e-20)
(20.3103 -0.424088 -2.70087e-19)
(20.2955 -0.422552 2.66628e-19)
(20.2802 -0.420748 -3.3129e-20)
(20.2646 -0.418725 -3.29914e-20)
(20.2483 -0.417464 -3.19465e-20)
(15.258 -0.194911 -1.83561e-19)
(17.1778 -0.248264 1.56176e-19)
(18.317 -0.299442 0)
(19.0146 -0.331472 5.16548e-19)
(19.4683 -0.357557 -4.79065e-19)
(19.7852 -0.376305 4.51104e-19)
(20.0065 -0.388925 -4.78241e-19)
(20.1548 -0.39809 0)
(20.2505 -0.404718 -4.3313e-19)
(20.3099 -0.409458 3.2077e-19)
(20.3451 -0.413 -4.39433e-20)
(20.3637 -0.415586 0)
(20.3711 -0.417377 -6.10996e-19)
(20.371 -0.418527 6.27848e-19)
(20.366 -0.419104 -3.81095e-20)
(20.3574 -0.419194 -3.70513e-20)
(20.3464 -0.418966 0)
(20.334 -0.418546 3.55165e-20)
(20.3209 -0.417798 -3.4944e-20)
(20.3071 -0.416756 0)
(20.2931 -0.415459 -3.43001e-19)
(20.2788 -0.413939 3.4088e-19)
(20.2644 -0.412156 0)
(20.2495 -0.410928 1.8621e-23)
(15.2849 -0.175751 2.603e-19)
(17.1261 -0.195027 -7.07684e-20)
(18.3729 -0.268017 0)
(19.0625 -0.314063 0)
(19.5273 -0.346135 0)
(19.8535 -0.375668 4.45304e-19)
(20.0565 -0.388462 -3.69863e-19)
(20.1862 -0.39428 4.02576e-19)
(20.2705 -0.398402 -7.2139e-19)
(20.323 -0.402741 4.16683e-19)
(20.3521 -0.406233 -4.45387e-20)
(20.3663 -0.408625 0)
(20.3708 -0.410365 -4.09911e-20)
(20.3689 -0.411542 -3.17627e-19)
(20.3627 -0.412062 6.60513e-19)
(20.3535 -0.412036 -3.04653e-19)
(20.3424 -0.411835 2.98782e-19)
(20.3301 -0.41167 -3.25618e-19)
(20.3181 -0.411168 -2.87523e-19)
(20.3044 -0.410174 5.68875e-19)
(20.292 -0.409192 -2.45765e-19)
(20.2777 -0.407785 -2.09477e-19)
(20.265 -0.406339 -2.96715e-22)
(20.2516 -0.405358 2.04402e-19)
(16.6856 3.123 3.88099e-18)
(21.9558 2.41684 -1.6712e-18)
(23.3981 2.64261 -2.21414e-20)
(24.2726 3.22482 6.27108e-19)
(24.9192 3.64918 -6.3864e-20)
(25.3685 3.93801 -5.5623e-20)
(25.6317 4.14416 -6.07502e-20)
(25.7272 4.27694 -4.09689e-20)
(25.6818 4.33791 -2.40382e-19)
(25.5275 4.33321 0)
(25.2969 4.2712 -1.36067e-19)
(25.0207 4.16243 2.42512e-19)
(24.7246 4.01809 -1.07557e-19)
(24.4284 3.8492 3.8773e-20)
(24.146 3.66556 4.99517e-21)
(23.8855 3.4756 -9.79779e-21)
(23.6502 3.2859 -3.84678e-20)
(23.4399 3.10119 3.02354e-20)
(23.2521 2.92428 -1.59263e-21)
(23.0833 2.75657 -2.25011e-20)
(22.9299 2.59842 -4.3256e-21)
(22.7885 2.44928 2.01809e-20)
(22.6567 2.3107 -1.24322e-20)
(22.5306 2.17038 2.97964e-21)
(1.30629 -0.232206 -5.13875e-18)
(12.46 -0.0405561 7.55634e-20)
(17.0786 0.309496 -8.06244e-19)
(19.6731 0.812596 2.88202e-20)
(21.4073 1.25677 3.07082e-20)
(22.667 1.64536 1.87593e-20)
(23.5915 1.99025 3.35621e-19)
(24.2442 2.288 0)
(24.6661 2.53375 2.08062e-19)
(24.8938 2.72483 -3.67285e-19)
(24.9637 2.86134 1.63724e-19)
(24.9123 2.94566 0)