/*--------------------------------*- C++ -*----------------------------------*\
| =========                 |                                                 |
| \\      /  F ield         | OpenFOAM: The Open Source CFD Toolbox           |
|  \\    /   O peration     | Version:  2.3.0                                 |
|   \\  /    A nd           | Web:      www.OpenFOAM.org                      |
|    \\/     M anipulation  |                                                 |
\*---------------------------------------------------------------------------*/
FoamFile
{
    version     2.0;
    format      ascii;
    class       volScalarField;
    location    "1000";
    object      nuTilda;
}
// * * * * * * * * * * * * * * * * * * * * * * * * * * * * * * * * * * * * * //

dimensions      [0 2 -1 0 0 0 0];

internalField   nonuniform List<scalar> 
14412
(
0.0703182
0.0673478
0.0643994
0.0614748
0.0585804
0.0557235
0.0529112
0.0501502
0.047447
0.0448081
0.0422395
0.0397482
0.0373413
0.035027
0.0328151
0.0307173
0.028747
0.0269183
0.0252425
0.0237176
0.0223077
0.0209019
0.0192298
0.0167008
0.0726691
0.0701863
0.0677257
0.0652965
0.0629048
0.0605566
0.0582578
0.056014
0.0538313
0.0517161
0.0496755
0.0477175
0.0458509
0.0440861
0.0424348
0.04091
0.0395262
0.0382982
0.0372405
0.0363654
0.035681
0.0351891
0.0348832
0.0347483
0.0748764
0.0727808
0.0707157
0.0686854
0.0666943
0.0647467
0.0628471
0.061
0.0592103
0.0574831
0.0558244
0.0542405
0.0527388
0.0513272
0.0500144
0.0488094
0.0477214
0.0467595
0.0459317
0.0452443
0.0447013
0.0443035
0.0440482
0.0439292
0.0768984
0.075127
0.0733861
0.0716781
0.0700061
0.0683733
0.066783
0.0652386
0.0637438
0.0623027
0.0609197
0.0596
0.0583495
0.0571745
0.0560818
0.0550786
0.054172
0.053369
0.0526757
0.0520972
0.0516371
0.0512966
0.0510752
0.0509697
0.0787304
0.0772309
0.0757543
0.074305
0.0728856
0.0714988
0.0701471
0.0688333
0.0675601
0.0663309
0.0651492
0.0640193
0.0629462
0.0619353
0.0609927
0.0601246
0.0593374
0.0586374
0.0580301
0.0575207
0.0571127
0.0568085
0.0566088
0.0565123
0.0803922
0.0791093
0.0778457
0.0766033
0.0753841
0.0741901
0.0730234
0.0718865
0.0707819
0.0697124
0.0686811
0.0676915
0.066748
0.0658557
0.0650203
0.0642478
0.0635444
0.062916
0.0623685
0.0619067
0.0615348
0.0612557
0.0610711
0.0609811
0.0818839
0.0807792
0.0796884
0.0786126
0.077553
0.076511
0.0754892
0.0744899
0.0735153
0.0725685
0.0716523
0.0707697
0.0699241
0.0691205
0.0683648
0.0676629
0.0670209
0.0664451
0.0659412
0.0655145
0.0651692
0.0649087
0.0647352
0.0646501
0.0832178
0.0822608
0.0813113
0.0803706
0.0794397
0.0785186
0.0776115
0.0767207
0.075848
0.0749964
0.0741705
0.0733722
0.0726032
0.0718676
0.071173
0.0705249
0.0699295
0.0693937
0.0689229
0.0685231
0.0681988
0.0679529
0.0677875
0.0677059
0.0844079
0.0835755
0.0827419
0.08191
0.0810859
0.0802611
0.0794458
0.0786416
0.0778509
0.0770728
0.0763181
0.0755887
0.0748837
0.0741998
0.0735527
0.0729475
0.0723874
0.0718845
0.0714385
0.0710596
0.0707527
0.0705202
0.0703591
0.0702806
0.0854743
0.084749
0.0840074
0.083255
0.0825236
0.0817792
0.0810412
0.080302
0.0795828
0.0788576
0.0781579
0.0774846
0.0768442
0.0761943
0.0755806
0.0750148
0.0744827
0.0740141
0.0735832
0.073218
0.0729248
0.072707
0.0725471
0.0724716
0.0167197
0.0192759
0.0209352
0.0223322
0.023738
0.0252624
0.0269398
0.0287711
0.0307445
0.0328452
0.0350599
0.0373765
0.0397854
0.0422783
0.0448481
0.047488
0.0501919
0.0529535
0.0557662
0.0586235
0.0615183
0.0644432
0.0673901
0.0703505
0.0347475
0.0348817
0.0351881
0.0356818
0.0363689
0.0372473
0.0383086
0.0395403
0.0409276
0.0424556
0.0441099
0.0458772
0.0477459
0.0497057
0.0517478
0.0538641
0.0560478
0.0582925
0.0605922
0.0629413
0.0653341
0.0677652
0.0702288
0.0727197
0.04393
0.0440509
0.0443082
0.0447083
0.0452538
0.0459437
0.0467741
0.0477386
0.0488289
0.050036
0.0513506
0.0527636
0.0542664
0.0558511
0.0575106
0.0592385
0.0610289
0.0628768
0.0647772
0.0667258
0.0687181
0.0707503
0.0728185
0.0749192
0.0509709
0.051079
0.051303
0.051646
0.0521088
0.0526898
0.0533853
0.0541904
0.0550986
0.0561031
0.0571967
0.0583722
0.059623
0.0609429
0.0623262
0.0637679
0.0652634
0.0668085
0.0683996
0.0700332
0.0717063
0.0734162
0.0751604
0.076937
0.0565138
0.0566133
0.056816
0.0571231
0.0575339
0.0580459
0.0586553
0.0593569
0.0601451
0.0610136
0.0619561
0.0629665
0.0640392
0.0651689
0.0663508
0.0675807
0.0688547
0.0701693
0.0715216
0.0729089
0.0743289
0.0757798
0.0772602
0.0787704
0.0609828
0.0610762
0.0612643
0.0615467
0.0619217
0.0623862
0.0629357
0.0635652
0.0642688
0.0650406
0.0658747
0.0667655
0.0677078
0.0686971
0.069729
0.0707996
0.0719053
0.073043
0.07421
0.0754041
0.0766232
0.077866
0.0791316
0.0804196
0.064652
0.0647409
0.0649183
0.0651828
0.0655317
0.0659614
0.0664671
0.0670434
0.0676844
0.0683841
0.0691369
0.0699376
0.0707816
0.0716647
0.0725827
0.0735313
0.0745069
0.0755069
0.0765287
0.0775699
0.0786285
0.0797038
0.0807951
0.0819013
0.067708
0.0677936
0.067963
0.0682141
0.0685431
0.068946
0.0694183
0.0699541
0.0705466
0.0711905
0.0718801
0.0726107
0.0733788
0.0741802
0.0750099
0.075863
0.0767364
0.0776279
0.0785349
0.0794537
0.0803828
0.0813225
0.0822722
0.0832314
0.0702825
0.0703654
0.070529
0.0707704
0.0710825
0.0714641
0.0719102
0.0724145
0.0729675
0.0735674
0.0742054
0.0748801
0.0755893
0.076328
0.0770879
0.0778646
0.0786562
0.0794615
0.0802779
0.0810963
0.0819192
0.0827487
0.0835827
0.084419
0.0724719
0.0725512
0.0727099
0.0729444
0.073238
0.0736014
0.0740249
0.0745043
0.075021
0.0755879
0.0761784
0.0768096
0.0774761
0.0781705
0.0788735
0.0795885
0.0803154
0.0810542
0.0818038
0.082533
0.0832671
0.0840084
0.0847512
0.085493
0.0175379
0.0156074
0.0138486
0.012253
0.010811
0.00951415
0.00835631
0.00733582
0.00646018
0.00575436
0.00518943
0.00471299
0.00429103
0.00390357
0.00353825
0.00318671
0.00284291
0.00250233
0.0021616
0.00181828
0.00147103
0.0011201
0.000764692
0.000491671
0.0175659
0.0157776
0.0141409
0.0126441
0.0112783
0.0100362
0.00891194
0.00790271
0.00701175
0.00626032
0.00564419
0.00512696
0.0046775
0.00427277
0.00389663
0.00353785
0.00318833
0.00284195
0.00249389
0.00214032
0.00177868
0.00140809
0.00102753
0.000679488
0.0175946
0.0159501
0.0144309
0.0130292
0.0117376
0.0105496
0.00946024
0.00846652
0.00756981
0.00678749
0.0061257
0.00556131
0.00507222
0.00463787
0.00424066
0.00386667
0.00350525
0.0031482
0.00278905
0.00242258
0.00204508
0.00165457
0.00124795
0.000852514
0.017626
0.016114
0.0147037
0.0133902
0.0121676
0.011031
0.00997601
0.00900016
0.00810425
0.007302
0.0066044
0.00599583
0.00546289
0.00499086
0.00456402
0.00416755
0.0037888
0.00341739
0.00304494
0.00266468
0.00227168
0.0018627
0.00143232
0.00100325
0.0176536
0.0162661
0.0149565
0.013724
0.0125652
0.0114763
0.0104542
0.00949704
0.00860554
0.0077904
0.00706577
0.0064196
0.00584445
0.00533177
0.00486988
0.00444531
0.00404461
0.00365568
0.00326821
0.00287374
0.00246589
0.00204008
0.00158857
0.00113295
0.0176988
0.0164099
0.0151898
0.0140312
0.0129309
0.0118862
0.0108951
0.00995646
0.0090712
0.0082478
0.00750253
0.00682553
0.00621259
0.00566008
0.00516098
0.00470467
0.00427846
0.00386934
0.00346536
0.00305629
0.0026342
0.00219299
0.00172272
0.00124473
0.0177267
0.0165427
0.0154049
0.0143134
0.0132665
0.0122625
0.0113002
0.0103794
0.00950123
0.00867276
0.00791127
0.0072091
0.00656346
0.00597407
0.00543809
0.00494847
0.00449441
0.00406307
0.00364135
0.00321737
0.00278154
0.00232617
0.00183911
0.00134152
0.0177646
0.0166658
0.0156024
0.014572
0.0135738
0.0126071
0.0116716
0.0107676
0.00989685
0.00906563
0.00829114
0.00756811
0.00689444
0.00627198
0.00570118
0.00517835
0.00469525
0.00424016
0.00379959
0.00336034
0.00291119
0.0024428
0.00194095
0.00142614
0.0178015
0.0167789
0.0157833
0.0148093
0.0138555
0.012923
0.0120127
0.0111242
0.0102595
0.00942615
0.00864148
0.00790213
0.00720467
0.00655182
0.00594805
0.00539374
0.00488298
0.00440446
0.003945
0.00349046
0.00302808
0.00254693
0.00203034
0.00149926
0.0178088
0.0168612
0.0159404
0.015031
0.0141205
0.0132163
0.0123379
0.0114824
0.0106216
0.00976848
0.00895711
0.00820274
0.00749612
0.00683039
0.00619403
0.00559823
0.0050491
0.00454448
0.00406444
0.00359552
0.00312349
0.00263488
0.00211239
0.00156969
0.000493256
0.000763931
0.00111714
0.00146484
0.00180777
0.00214584
0.00248056
0.00281457
0.00315144
0.00349596
0.00385452
0.00423613
0.00465442
0.00513199
0.00570731
0.00643518
0.00732447
0.0083538
0.00951879
0.0108229
0.0122736
0.0138807
0.0156567
0.0176199
0.000680689
0.00102489
0.00140178
0.00176797
0.00212431
0.00247184
0.00281334
0.00315287
0.00349555
0.00384793
0.00421876
0.00462037
0.00507051
0.00559414
0.00622404
0.00699543
0.00789696
0.00891373
0.0100448
0.0112943
0.0126692
0.0141784
0.0158321
0.0176367
0.000853318
0.00124349
0.00164508
0.00203013
0.00240145
0.0027612
0.00311339
0.00346356
0.00381867
0.00418757
0.00458184
0.00501653
0.00551025
0.00608398
0.00675989
0.0075601
0.00846563
0.00946619
0.0105623
0.011758
0.0130593
0.0144735
0.0160086
0.0176713
0.00100372
0.00142618
0.00185032
0.0022529
0.00263899
0.00301203
0.00337736
0.00374223
0.00411571
0.004509
0.00493566
0.00541117
0.0059513
0.00657028
0.00728153
0.00809966
0.00900352
0.00998596
0.0110478
0.0121926
0.013425
0.0147506
0.0161735
0.0176905
0.00113318
0.00158095
0.00202512
0.00244371
0.00284406
0.00323101
0.00361148
0.00399459
0.00439148
0.00481506
0.00527932
0.00579779
0.00638149
0.00703829
0.0077763
0.00860526
0.00950429
0.0104681
0.0114973
0.0125945
0.0137632
0.0150069
0.0163288
0.0177343
0.00124473
0.00171376
0.00217573
0.00260904
0.00302319
0.00342464
0.00382199
0.00422631
0.00465039
0.00510781
0.00561138
0.00617115
0.00679323
0.00748084
0.00823951
0.0090748
0.00996738
0.0109128
0.0119113
0.0129644
0.0140743
0.0152432
0.0164728
0.0177625
0.00134164
0.00182918
0.00230698
0.00275379
0.00318131
0.00359774
0.00401346
0.00444124
0.00489486
0.00538743
0.00592938
0.0065269
0.00718188
0.00789456
0.00866957
0.00950843
0.0103938
0.0113217
0.0122914
0.0133038
0.0143598
0.0154604
0.0166066
0.0178003
0.0014253
0.00192932
0.00242145
0.00288103
0.00332198
0.00375401
0.00418923
0.00464183
0.00512593
0.0056533
0.00623139
0.0068625
0.00754527
0.0082784
0.00906667
0.00990745
0.0107855
0.0116966
0.0126397
0.0136145
0.0146212
0.0156598
0.016731
0.0178365
0.00150254
0.00202163
0.00252673
0.00299771
0.00344986
0.00389619
0.00435114
0.00482929
0.00534418
0.005905
0.00651511
0.00717408
0.00788015
0.00863166
0.00943231
0.0102745
0.0111452
0.0120403
0.0129581
0.0138978
0.0148596
0.0158424
0.0168446
0.0178658
0.00155289
0.00208386
0.00259871
0.003079
0.00355131
0.00402307
0.00450242
0.00500743
0.00554996
0.00613549
0.0067735
0.00747354
0.00822217
0.00899779
0.00979865
0.0106292
0.0114817
0.0123524
0.0132394
0.0141453
0.0150731
0.016011
0.0169441
0.0178911
0.00140134
0.00416847
0.00686883
0.00948226
0.0120466
0.0145984
0.0171648
0.0197644
0.0224091
0.0251059
0.0278585
0.030669
0.0335374
0.0364631
0.0394444
0.0424785
0.0455623
0.0486913
0.0518604
0.0550638
0.0582948
0.061546
0.0648097
0.0680742
0.000290695
0.00118103
0.0031064
0.00517439
0.00741516
0.00979529
0.0122952
0.0149024
0.0176084
0.0204065
0.0232907
0.0262558
0.0292965
0.0324077
0.0355839
0.0388197
0.042109
0.0454454
0.048822
0.0522314
0.0556656
0.0591164
0.0625763
0.066042
0.000176236
0.000793073
0.0021421
0.00372226
0.00554267
0.00757115
0.00978512
0.0121675
0.0147042
0.0173833
0.0201936
0.0231247
0.0261665
0.0293093
0.0325433
0.0358588
0.0392461
0.0426952
0.046196
0.0497385
0.0533119
0.0569059
0.0605092
0.0641072
0.000310183
0.000768689
0.00180368
0.0030952
0.00462585
0.00637578
0.00833076
0.0104793
0.012811
0.0153162
0.0179845
0.0208059
0.0237695
0.0268641
0.0300782
0.0333996
0.0368161
0.040315
0.0438834
0.0475083
0.0511765
0.0548747
0.05859
0.0623105
0.000464238
0.000732497
0.0016053
0.00272226
0.00406231
0.00561407
0.00737033
0.00932548
0.0114743
0.0138109
0.0163289
0.0190203
0.0218765
0.0248873
0.0280415
0.0313267
0.0347298
0.0382367
0.0418328
0.045503
0.0492318
0.0530036
0.0568027
0.0606131
0.000488977
0.000680074
0.00145412
0.00245295
0.00365891
0.00506557
0.00667003
0.00847079
0.0104665
0.0126552
0.0150337
0.0175975
0.0203404
0.0232546
0.0263305
0.0295568
0.032921
0.0364086
0.0400047
0.0436927
0.0474559
0.0512765
0.0551365
0.0590162
0.000478161
0.000637924
0.00133199
0.0022425
0.00334686
0.00464147
0.00612605
0.0078017
0.00966979
0.0117312
0.0139855
0.0164311
0.0190644
0.0218802
0.0248711
0.0280275
0.031338
0.0347892
0.0383662
0.0420522
0.0458297
0.0496796
0.0535823
0.0575156
0.000467819
0.00061669
0.00123259
0.00207253
0.00309569
0.00429989
0.00568649
0.0072583
0.00901854
0.01097
0.0131147
0.015453
0.017984
0.0207046
0.0236096
0.0266916
0.0299407
0.0333449
0.0368901
0.04056
0.0443369
0.0482018
0.0521355
0.0561226
0.000461059
0.000605153
0.00115102
0.00193236
0.00288835
0.00401726
0.00532161
0.00680534
0.00847294
0.0103287
0.0123762
0.0146178
0.0170543
0.0196849
0.0225063
0.0255131
0.0286973
0.0320483
0.0355534
0.0391972
0.0429625
0.0468307
0.050783
0.0548029
0.000455775
0.000595981
0.00108314
0.00181475
0.00271382
0.00377866
0.00501255
0.00642026
0.00800718
0.00977871
0.0117396
0.0138937
0.0162435
0.0187898
0.0215312
0.0244641
0.0275823
0.0308771
0.0343368
0.0379476
0.0416929
0.0455547
0.0495132
0.0535462
0.000450907
0.000587134
0.00102578
0.00171457
0.00256461
0.00357403
0.00474664
0.00608782
0.00760365
0.00930032
0.0111835
0.0132583
0.0155285
0.0179962
0.0206618
0.0235232
0.0265761
0.0298132
0.0332246
0.0367975
0.0405168
0.0443648
0.0483223
0.0523693
0.000446205
0.00057835
0.000976792
0.0016281
0.00243534
0.00339618
0.00451485
0.00579716
0.00724972
0.00887933
0.0106925
0.012695
0.0148919
0.0172865
0.0198805
0.0226734
0.0256624
0.0288418
0.0322031
0.0357352
0.0394239
0.0432525
0.0472023
0.0512536
0.000441781
0.000570668
0.000940011
0.00155299
0.00232212
0.0032399
0.0043106
0.00554033
0.00693611
0.00850519
0.0102547
0.0121911
0.0143204
0.0166469
0.0191735
0.0219011
0.0248281
0.0279505
0.0312612
0.0347504
0.0384052
0.0422097
0.0461454
0.0501901
0.000437978
0.000566079
0.000921076
0.00148811
0.00222215
0.00310133
0.00412898
0.00531139
0.00665582
0.00816994
0.00986127
0.0117371
0.0138038
0.0160668
0.01853
0.0211954
0.0240627
0.0271292
0.0303894
0.0338346
0.0374532
0.0412301
0.0451472
0.0491816
0.000434863
0.000564306
0.000912537
0.00143197
0.00213328
0.00297749
0.00396621
0.0051057
0.00640344
0.00786734
0.00950534
0.0113252
0.0133339
0.0155376
0.0179411
0.0205473
0.0233573
0.0263695
0.0295796
0.0329804
0.0365612
0.0403082
0.0442046
0.048232
0.000432205
0.000563719
0.000906764
0.00138278
0.00205376
0.00286605
0.00381932
0.00491967
0.00617468
0.00759249
0.00918132
0.0109493
0.012904
0.0150522
0.0173994
0.0199495
0.0227045
0.025664
0.0288249
0.0321811
0.0357232
0.0394383
0.0433096
0.0473131
0.000429736
0.000563039
0.000900568
0.00133901
0.00198212
0.00276519
0.003686
0.00475045
0.00596617
0.00734147
0.00888481
0.0106046
0.012509
0.0146051
0.0168992
0.0193959
0.0220983
0.0250068
0.0281196
0.0314316
0.0349346
0.0386173
0.0424653
0.0464665
0.000427302
0.000561756
0.00089325
0.00129976
0.00191719
0.00267339
0.00356434
0.0045957
0.00577514
0.00711108
0.00861217
0.0102871
0.0121443
0.0141915
0.0164354
0.0188814
0.0215334
0.0243927
0.0274585
0.0307269
0.0341908
0.0378399
0.0416603
0.0456326
0.000424863
0.0005599
0.000885334
0.0012662
0.00185816
0.00258942
0.00345278
0.00445353
0.00559932
0.00689867
0.00836038
0.00999337
0.0118063
0.0138074
0.0160038
0.0184016
0.0210053
0.0238172
0.0268373
0.0300627
0.0334875
0.0371021
0.0408927
0.0448385
0.000422473
0.000557951
0.000878635
0.00124253
0.00180498
0.00251241
0.00335008
0.00432238
0.00543687
0.0067021
0.00812699
0.00972066
0.011492
0.0134496
0.015601
0.0179529
0.0205103
0.0232765
0.0262522
0.0294355
0.0328216
0.0364018
0.0401646
0.0440975
0.000420229
0.000556473
0.00087456
0.00122882
0.00175755
0.00244164
0.00325521
0.00420095
0.00528621
0.00651952
0.0079099
0.0094666
0.0111988
0.0131152
0.0152239
0.017532
0.0200452
0.0227672
0.0256999
0.0288421
0.0321899
0.0357361
0.0394702
0.0433793
0.000418185
0.000555666
0.000872853
0.00122062
0.0017152
0.0023765
0.0031673
0.00408816
0.00514601
0.00634938
0.00770732
0.00922919
0.0109243
0.0128017
0.0148699
0.0171362
0.0196069
0.0222865
0.0251775
0.0282796
0.0315897
0.0351018
0.0388063
0.0426896
0.000416326
0.000555342
0.00087238
0.00121421
0.00167697
0.00231635
0.00308562
0.00398307
0.00501519
0.00619038
0.00751775
0.00900673
0.0106668
0.0125072
0.0145367
0.0167631
0.0191932
0.0218319
0.0246824
0.0277454
0.0310186
0.0344966
0.0381706
0.0420268
0.000414593
0.000555169
0.000872096
0.00120779
0.00164206
0.0022606
0.00300952
0.00388491
0.00489277
0.0060414
0.00733989
0.00879776
0.0104246
0.0122299
0.0142225
0.0164108
0.0188018
0.0214011
0.0242125
0.0272373
0.0304741
0.0339183
0.0375618
0.0413922
0.000412926
0.000554881
0.000871406
0.00120087
0.00161034
0.00220878
0.00293841
0.00379297
0.00477792
0.00590143
0.0071726
0.00860097
0.0101963
0.011968
0.0139256
0.0160773
0.0184308
0.0209921
0.0237655
0.0267531
0.0299542
0.0333649
0.0369773
0.0407779
0.000411289
0.000554366
0.000870197
0.00119384
0.00158317
0.00216071
0.00287184
0.00370665
0.00466992
0.00576966
0.00701491
0.00841527
0.00998051
0.0117204
0.0136443
0.015761
0.0180785
0.0206031
0.0233398
0.0262913
0.0294574
0.0328355
0.0364198
0.040206
0.000409675
0.000553677
0.000868808
0.00118784
0.00156282
0.00211655
0.00280946
0.00362546
0.00456816
0.00564532
0.00686595
0.00823966
0.00977628
0.0114857
0.0133775
0.0154606
0.0177434
0.0202327
0.0229338
0.02585
0.028982
0.0323276
0.0358812
0.0396298
0.000408104
0.000552972
0.000867744
0.00118374
0.00154923
0.0020764
0.00275104
0.00354897
0.00447208
0.00552778
0.00672498
0.00807328
0.0095826
0.0112629
0.0131239
0.0151748
0.0174242
0.0198793
0.0225459
0.0254279
0.0285265
0.0318404
0.035365
0.0390946
0.000406601
0.000552397
0.000867309
0.00118149
0.00154003
0.00203994
0.00269632
0.00347681
0.00438122
0.00541646
0.00659132
0.00791539
0.0093986
0.011051
0.0128825
0.0149024
0.0171197
0.0195418
0.022175
0.0250235
0.0280894
0.0313717
0.0348659
0.0385616
0.00040518
0.000552005
0.000867472
0.00118043
0.00153282
0.00200658
0.00264498
0.00340864
0.00429516
0.00531086
0.00646439
0.00776529
0.00922353
0.0108492
0.0126523
0.0146425
0.0168287
0.0192189
0.0218197
0.0246357
0.0276695
0.0309202
0.0343831
0.0380458
0.000403837
0.000551753
0.00086799
0.00117983
0.00152615
0.0019758
0.00259672
0.00334414
0.00421351
0.00521054
0.00634366
0.0076224
0.0090567
0.0106567
0.0124326
0.0143941
0.0165504
0.0189097
0.021479
0.0242633
0.0272654
0.0304849
0.0339168
0.0375496
0.000402554
0.000551553
0.000868571
0.00117916
0.00151942
0.00194745
0.00255125
0.00328302
0.00413594
0.00511508
0.00622867
0.00748616
0.0088975
0.0104729
0.0122226
0.0141564
0.0162838
0.0186132
0.0211519
0.0239053
0.0268765
0.0300661
0.0334718
0.0370942
0.000401313
0.000551317
0.000869003
0.00117819
0.00151266
0.00192217
0.00250847
0.00322503
0.00406215
0.00502414
0.00611899
0.00735609
0.00874539
0.0102971
0.0120216
0.0139287
0.0160282
0.0183286
0.0208376
0.0235608
0.026502
0.0296624
0.0330401
0.0366287
0.0004001
0.000551001
0.000869213
0.00117703
0.00150644
0.0019013
0.00246849
0.00317
0.00399187
0.00493738
0.00601425
0.00723177
0.00859986
0.0101288
0.0118289
0.0137103
0.0157828
0.0180551
0.0205352
0.0232291
0.0261411
0.0292728
0.0326232
0.0361893
0.000398909
0.000550609
0.000869275
0.00117596
0.00150145
0.00188554
0.00243149
0.00311781
0.00392487
0.00485451
0.00591409
0.00711278
0.00846047
0.00996745
0.0116441
0.0135006
0.0155469
0.017792
0.020244
0.0229094
0.0257927
0.0288957
0.0322165
0.0357422
0.000397744
0.000550185
0.000869338
0.0011753
0.00149799
0.00187409
0.00239745
0.00306836
0.00386095
0.00477528
0.00581822
0.00699878
0.00832681
0.00981261
0.0114666
0.0132991
0.01532
0.0175387
0.0199634
0.0226011
0.0254565
0.0285329
0.0318323
0.0353662
0.000396613
0.000549779
0.000869535
0.00117517
0.00149584
0.00186537
0.00236608
0.00302151
0.00379995
0.00469947
0.00572635
0.00688943
0.00819851
0.00966386
0.0112959
0.0131051
0.0151016
0.0172946
0.0196929
0.0223036
0.0251324
0.0281836
0.0314616
0.0349747
0.00039552
0.000549426
0.000869918
0.00117552
0.00149453
0.00185801
0.002337
0.00297708
0.00374167
0.00462684
0.00563823
0.00678445
0.00807522
0.00952083
0.0111317
0.0129184
0.014891
0.0170592
0.0194318
0.0220165
0.0248193
0.0278453
0.0310977
0.0345727
0.000394469
0.000549131
0.000870458
0.00117614
0.00149358
0.00185115
0.00230994
0.00293488
0.00368596
0.00455722
0.00555363
0.00668356
0.00795666
0.00938317
0.0109736
0.0127384
0.014688
0.0168321
0.0191798
0.021739
0.0245163
0.0275166
0.0307409
0.0341808
0.000393455
0.000548872
0.000871072
0.00117685
0.00149263
0.00184443
0.0022849
0.00289477
0.00363264
0.00449041
0.00547233
0.00658652
0.00784252
0.00925056
0.0108211
0.0125648
0.014492
0.0166127
0.0189362
0.0214705
0.0242226
0.0271967
0.0303929
0.0338024
0.000392471
0.00054862
0.000871669
0.00117748
0.00149156
0.00183788
0.00226241
0.00285672
0.00358159
0.00442625
0.00539414
0.0064931
0.00773256
0.00912271
0.0106741
0.0123973
0.0143028
0.0164007
0.0187005
0.0212106
0.0239377
0.0268863
0.0300575
0.0334515
0.000391512
0.000548349
0.000872184
0.00117797
0.0014904
0.00183185
0.00224327
0.00282084
0.00353272
0.0043646
0.00531889
0.00640309
0.00762654
0.00899936
0.0105321
0.0122354
0.0141198
0.0161956
0.0184724
0.0209586
0.0236612
0.026585
0.029732
0.0331017
0.000390573
0.000548044
0.000872597
0.00117835
0.00148936
0.0018268
0.00222795
0.00278727
0.00348597
0.00430532
0.0052464
0.00631631
0.00752423
0.00888026
0.0103949
0.0120789
0.0139429
0.0159971
0.0182513
0.0207142
0.023393
0.0262929
0.0294174
0.0327705
0.00038965
0.000547709
0.000872936
0.00117873
0.00148864
0.00182295
0.00221605
0.00275603
0.00344131
0.00424832
0.00517654
0.00623258
0.00742545
0.00876519
0.0102623
0.0119275
0.0137715
0.0158048
0.018037
0.0204772
0.0231325
0.0260086
0.0291078
0.0324238
0.000388746
0.00054736
0.000873249
0.0011792
0.00148836
0.00182023
0.00220662
0.00272697
0.00339866
0.00419349
0.00510916
0.00615173
0.00732999
0.00865391
0.010134
0.011781
0.0136056
0.0156184
0.0178292
0.0202471
0.0228797
0.025733
0.0288121
0.0321274
0.000387863
0.000547014
0.000873588
0.00117983
0.00148851
0.00181835
0.00219869
0.00269985
0.00335792
0.00414072
0.00504416
0.00607362
0.00723769
0.00854626
0.0100098
0.011639
0.0134447
0.0154375
0.0176274
0.0200236
0.022634
0.0254649
0.0285207
0.0317993
0.000387002
0.000546686
0.000873979
0.00118062
0.00148898
0.00181695
0.00219153
0.00267446
0.00331897
0.00408993
0.0049814
0.00599811
0.00714839
0.00844202
0.00988944
0.0115014
0.0132887
0.015262
0.0174315
0.0198064
0.0223949
0.0252032
0.0282345
0.0314842
0.000386165
0.000546379
0.000874422
0.00118152
0.00148962
0.00181575
0.00218473
0.00265071
0.00328171
0.004041
0.00492079
0.00592508
0.00706194
0.00834105
0.0097728
0.0113679
0.0131373
0.0150916
0.0172411
0.0195953
0.0221622
0.0249481
0.0279562
0.0311858
0.000385351
0.00054609
0.000874895
0.00118246
0.00149031
0.00181457
0.00217816
0.0026288
0.00324609
0.00399385
0.0048622
0.0058544
0.0069782
0.00824317
0.00965966
0.0112384
0.0129903
0.0149261
0.0170561
0.0193898
0.0219356
0.0247002
0.0276887
0.0309096
0.000384556
0.000545808
0.000875366
0.00118339
0.00149095
0.00181336
0.00217191
0.00260918
0.00321214
0.00394842
0.00480556
0.00578595
0.00689704
0.00814824
0.00954987
0.0111126
0.0128475
0.0147651
0.016876
0.0191899
0.0217152
0.0244595
0.0274299
0.0306368
0.000383779
0.000545522
0.000875804
0.00118425
0.0014915
0.00181217
0.00216627
0.00259234
0.00317996
0.00390465
0.00475078
0.00571964
0.00681833
0.00805612
0.00944326
0.0109904
0.0127086
0.0146086
0.0167009
0.0189953
0.0215009
0.0242256
0.0271774
0.0303641
0.000383018
0.000545225
0.000876192
0.00118504
0.00149202
0.00181116
0.00216149
0.00257843
0.00314964
0.00386254
0.00469778
0.00565537
0.00674196
0.00796668
0.00933969
0.0108717
0.0125736
0.0144563
0.0165304
0.0188059
0.0212921
0.0239974
0.0269289
0.030088
0.000382269
0.000544915
0.000876528
0.00118577
0.00149257
0.00181046
0.00215769
0.00256711
0.0031212
0.00382207
0.0046465
0.00559305
0.00666784
0.0078798
0.00923903
0.0107562
0.0124423
0.0143081
0.0163645
0.0186216
0.021089
0.0237758
0.0266914
0.0298527
0.000381534
0.000544594
0.000876826
0.00118649
0.00149321
0.00181013
0.0021548
0.00255776
0.00309452
0.00378319
0.0045969
0.0055326
0.00659586
0.00779537
0.00914115
0.0106438
0.0123144
0.0141638
0.0162029
0.018442
0.0208911
0.0235594
0.0264548
0.0295771
0.000380812
0.000544269
0.000877107
0.00118723
0.00149399
0.00181017
0.00215263
0.0025497
0.00306944
0.00374583
0.00454889
0.00547395
0.00652592
0.00771327
0.00904593
0.0105345
0.0121899
0.0140233
0.0160454
0.0182671
0.0206983
0.0233487
0.026228
0.0293507
0.000380104
0.000543947
0.000877388
0.001188
0.00149492
0.00181051
0.00215093
0.00254241
0.00304581
0.00370992
0.00450243
0.00541702
0.00645795
0.00763343
0.00895326
0.010428
0.0120687
0.0138864
0.0158921
0.0180966
0.0205102
0.0231429
0.0260032
0.0290948
0.000379411
0.000543632
0.000877682
0.00118883
0.00149596
0.00181104
0.00214948
0.00253557
0.00302358
0.00367539
0.00445744
0.00536175
0.00639187
0.00755573
0.00886304
0.0103243
0.0119506
0.0137529
0.0157425
0.0179302
0.0203265
0.0229408
0.0257797
0.0288392
0.000378733
0.000543327
0.00087799
0.00118969
0.00149707
0.00181166
0.00214813
0.00252902
0.00300283
0.0036422
0.00441387
0.00530805
0.00632759
0.0074801
0.00877517
0.0102233
0.0118354
0.0136228
0.0155966
0.0177679
0.0201469
0.022743
0.0255628
0.0286115
0.000378069
0.00054303
0.000878304
0.00119057
0.0014982
0.00181228
0.00214681
0.00252278
0.00298384
0.00361036
0.00437168
0.00525589
0.00626505
0.00740646
0.00868956
0.0101248
0.0117232
0.0134959
0.0154543
0.0176093
0.0199713
0.0225493
0.0253504
0.028379
0.000377419
0.000542739
0.000878615
0.00119143
0.0014993
0.00181288
0.00214554
0.00251699
0.00296693
0.00357993
0.00433082
0.00520521
0.00620419
0.00733473
0.00860613
0.0100288
0.0116137
0.0133721
0.0153153
0.0174543
0.0197994
0.0223596
0.0251414
0.0281467
0.000376781
0.000542447
0.000878908
0.00119226
0.00150035
0.00181346
0.00214438
0.00251183
0.00295234
0.003551
0.0042913
0.00515594
0.00614493
0.00726483
0.00852479
0.00993512
0.0115068
0.0132512
0.0151794
0.0173027
0.0196311
0.0221735
0.0249365
0.0279227
0.000376153
0.000542153
0.000879175
0.00119304
0.00150136
0.00181404
0.00214344
0.00250746
0.00294
0.00352361
0.00425311
0.00510806
0.00608723
0.0071967
0.00844546
0.00984374
0.0114025
0.0131331
0.0150467
0.0171544
0.0194663
0.0219917
0.024738
0.0277144
0.000375536
0.000541853
0.000879414
0.00119378
0.00150235
0.00181469
0.0021428
0.0025039
0.00292961
0.00349774
0.00421624
0.00506154
0.00603103
0.00713028
0.00836806
0.00975454
0.0113007
0.0130177
0.0149169
0.0170093
0.0193051
0.0218135
0.0245419
0.0274934
0.000374929
0.000541548
0.000879626
0.00119449
0.00150333
0.00181545
0.00214249
0.00250106
0.00292069
0.00347329
0.00418064
0.00501632
0.00597627
0.00706549
0.00829252
0.00966744
0.0112012
0.0129049
0.0147899
0.0168672
0.0191471
0.0216386
0.0243487
0.0272794
0.000374331
0.00054124
0.000879819
0.00119519
0.00150435
0.00181633
0.0021425
0.0024988
0.00291281
0.00345016
0.00414629
0.00497239
0.00592292
0.00700229
0.00821878
0.00958235
0.0111039
0.0127946
0.0146656
0.0167281
0.0189924
0.0214675
0.0241616
0.0270841
0.000373742
0.000540932
0.000880002
0.00119589
0.0015054
0.00181735
0.00214275
0.00249694
0.0029056
0.00342826
0.00411312
0.00492968
0.00587093
0.00694062
0.00814676
0.00949921
0.0110088
0.0126866
0.014544
0.016592
0.0188409
0.0213003
0.0239794
0.0268887
0.000373163
0.000540626
0.000880181
0.00119659
0.0015065
0.00181848
0.00214319
0.00249532
0.00289883
0.00340754
0.0040811
0.00488817
0.00582025
0.00688041
0.0080764
0.00941793
0.0109158
0.012581
0.0144249
0.0164586
0.0186926
0.0211368
0.0238012
0.0266964
0.000372593
0.000540324
0.000880363
0.0011973
0.00150764
0.00181967
0.00214373
0.00249384
0.00289238
0.00338809
0.00405019
0.00484781
0.00577083
0.00682163
0.00800764
0.00933846
0.0108248
0.0124776
0.0143084
0.016328
0.0185473
0.0209764
0.0236242
0.0264942
0.000372034
0.000540027
0.000880546
0.00119803
0.0015088
0.0018209
0.00214431
0.00249243
0.00288624
0.00337006
0.0040204
0.00480857
0.00572263
0.00676422
0.00794044
0.00926073
0.0107357
0.0123764
0.0141942
0.0162001
0.0184051
0.0208195
0.0234535
0.0263213
0.000371484
0.000539734
0.00088073
0.00119875
0.00150996
0.00182213
0.00214489
0.00249109
0.00288049
0.00335369
0.00399178
0.00477043
0.00567562
0.00670813
0.00787472
0.00918467
0.0106485
0.0122773
0.0140823
0.0160748
0.0182658
0.0206659
0.0232857
0.0261354
0.000370943
0.000539444
0.000880908
0.00119946
0.0015111
0.00182334
0.00214548
0.00248986
0.00287524
0.00333916
0.00396438
0.00473338
0.00562976
0.00665333
0.00781045
0.00911024
0.0105632
0.0121803
0.0139728
0.0159521
0.0181293
0.0205152
0.0231199
0.02595
0.00037041
0.000539155
0.000881077
0.00120014
0.00151221
0.00182452
0.00214608
0.0024888
0.00287063
0.00332651
0.00393826
0.00469743
0.00558503
0.00659977
0.00774757
0.00903739
0.0104796
0.0120852
0.0138654
0.0158318
0.0179955
0.0203671
0.0229561
0.0257675
0.000369886
0.000538866
0.000881231
0.00120081
0.00151329
0.00182568
0.00214673
0.00248799
0.00286669
0.00331559
0.00391341
0.00466256
0.00554139
0.00654741
0.00768604
0.00896605
0.0103977
0.011992
0.0137602
0.0157139
0.0178641
0.0202214
0.022795
0.0255906
0.000369369
0.000538575
0.000881368
0.00120144
0.00151434
0.00182684
0.00214746
0.00248745
0.00286341
0.00330611
0.00388981
0.00462877
0.00549884
0.00649622
0.00762583
0.00889619
0.0103175
0.0119007
0.0136571
0.0155982
0.0177351
0.0200782
0.0226364
0.0254156
0.000368859
0.000538282
0.000881489
0.00120205
0.00151536
0.00182803
0.00214831
0.00248719
0.00286071
0.00329774
0.00386738
0.00459603
0.00545733
0.00644617
0.00756689
0.00882776
0.0102389
0.0118112
0.0135559
0.0154846
0.0176083
0.0199371
0.0224788
0.0252347
0.000368356
0.000537989
0.000881595
0.00120263
0.00151639
0.00182924
0.00214928
0.0024872
0.00285847
0.00329018
0.00384603
0.0045643
0.00541685
0.00639723
0.00750917
0.00876071
0.0101618
0.0117234
0.0134567
0.0153731
0.0174837
0.0197988
0.022328
0.0250868
0.00036786
0.000537695
0.00088169