/*--------------------------------*- C++ -*----------------------------------*\
| =========                 |                                                 |
| \\      /  F ield         | OpenFOAM: The Open Source CFD Toolbox           |
|  \\    /   O peration     | Version:  2.3.0                                 |
|   \\  /    A nd           | Web:      www.OpenFOAM.org                      |
|    \\/     M anipulation  |                                                 |
\*---------------------------------------------------------------------------*/
FoamFile
{
    version     2.0;
    format      ascii;
    class       volScalarField;
    location    "9000";
    object      nuTilda;
}
// * * * * * * * * * * * * * * * * * * * * * * * * * * * * * * * * * * * * * //

dimensions      [0 2 -1 0 0 0 0];

internalField   nonuniform List<scalar> 
14769
(
0.0520425
0.0489141
0.0458822
0.0429717
0.0402012
0.037592
0.035164
0.0329402
0.0309472
0.0291868
0.0275329
0.0259089
0.0243371
0.0228311
0.0213925
0.0200161
0.0186941
0.0174203
0.0161867
0.0149877
0.0138125
0.0126521
0.0115211
0.0106504
0.0559081
0.0533031
0.050789
0.0483724
0.046058
0.0438485
0.0417477
0.0397591
0.0378866
0.0361328
0.0344967
0.0329757
0.0315731
0.030295
0.0291486
0.0281397
0.0272753
0.0265606
0.026002
0.0256033
0.0253688
0.0252982
0.0253919
0.0256464
0.0593738
0.0571988
0.0551066
0.0531001
0.0511816
0.0493534
0.0476161
0.0459725
0.044425
0.0429753
0.041626
0.0403807
0.0392426
0.0382162
0.0373061
0.0365172
0.0358541
0.0353216
0.0349227
0.0346601
0.0345335
0.0345422
0.0346805
0.0349412
0.0624659
0.0606424
0.0588905
0.0572118
0.0556079
0.0540789
0.0526267
0.0512522
0.0499574
0.0487442
0.0476153
0.046574
0.0456238
0.0447678
0.0440113
0.0433579
0.0428119
0.0423776
0.0420577
0.0418546
0.0417681
0.041798
0.0419414
0.0421929
0.0652182
0.0636775
0.0621993
0.0607816
0.0594243
0.0581288
0.0568957
0.0557267
0.0546227
0.0535862
0.0526192
0.0517257
0.0509079
0.0501707
0.0495178
0.0489543
0.048484
0.0481109
0.0478386
0.0476698
0.0476056
0.0476458
0.0477891
0.0480322
0.0676503
0.0663466
0.0650901
0.0638803
0.062718
0.0616044
0.0605409
0.0595297
0.0585718
0.0576692
0.0568243
0.0560395
0.0553191
0.0546675
0.0540887
0.0535876
0.0531689
0.052837
0.0525955
0.0524479
0.0523965
0.0524416
0.0525827
0.0528182
0.0698062
0.0686945
0.0676168
0.0665741
0.0655668
0.0645966
0.0636655
0.062776
0.061931
0.0611316
0.0603804
0.0596795
0.0590331
0.0584452
0.0579211
0.0574657
0.057084
0.0567807
0.0565605
0.056427
0.0563833
0.0564308
0.0565693
0.0567979
0.0717175
0.0707617
0.0698284
0.0689206
0.0680385
0.067183
0.0663557
0.0655608
0.0648032
0.0640855
0.0634081
0.0627734
0.062185
0.061647
0.0611642
0.060744
0.0603903
0.0601078
0.0599014
0.0597777
0.059739
0.0597874
0.0599232
0.0601457
0.0734098
0.0725859
0.0717668
0.0709693
0.0701899
0.0694277
0.0686847
0.0679619
0.0672723
0.0666179
0.0660004
0.0654201
0.0648788
0.0643829
0.0639302
0.0635374
0.0632074
0.0629423
0.0627429
0.0626252
0.0625898
0.0626385
0.0627718
0.062989
0.0749151
0.0742104
0.0734681
0.0727597
0.0720671
0.0713814
0.0707147
0.0700414
0.0694008
0.0687926
0.0682209
0.0676907
0.0671875
0.0667422
0.0663055
0.0659329
0.0656214
0.0653788
0.0651783
0.0650649
0.0650305
0.0650789
0.065211
0.0654232
0.0116771
0.0139134
0.0154083
0.0168655
0.0184486
0.0201924
0.0220986
0.0241551
0.0263484
0.0286655
0.0310953
0.0336296
0.0362608
0.0389827
0.0417896
0.0446757
0.0476347
0.0506603
0.0537449
0.0568815
0.0600619
0.0632772
0.0665181
0.0697742
0.0260458
0.0266026
0.0273425
0.0282664
0.0293729
0.0306556
0.0321042
0.0337062
0.0354493
0.0373204
0.0393072
0.0413999
0.0435879
0.0458623
0.0482157
0.0506415
0.0531333
0.055685
0.0582909
0.0609451
0.0636419
0.0663754
0.0691392
0.0719351
0.0353131
0.035808
0.036445
0.0372271
0.0381528
0.0392184
0.0404182
0.0417444
0.0431886
0.0447423
0.0463961
0.0481419
0.0499717
0.0518785
0.0538554
0.0558971
0.0579978
0.0601527
0.062357
0.0646061
0.0668957
0.0692212
0.0715792
0.0739746
0.042546
0.0430074
0.043589
0.0442915
0.0451131
0.0460509
0.0470997
0.0482533
0.0495045
0.0508466
0.052272
0.0537738
0.0553449
0.0569798
0.0586733
0.0604201
0.0622162
0.0640573
0.06594
0.0678606
0.0698161
0.0718036
0.0738207
0.075874
0.0483709
0.0488089
0.0493534
0.0500034
0.0507561
0.0516083
0.0525553
0.0535904
0.0547072
0.0558995
0.0571605
0.0584838
0.0598634
0.0612945
0.0627723
0.0642925
0.0658516
0.067446
0.0690728
0.0707295
0.0724137
0.0741236
0.0758579
0.077625
0.0531445
0.0535642
0.0540804
0.0546914
0.0553943
0.0561848
0.0570579
0.0580073
0.059026
0.0601081
0.0612468
0.0624362
0.0636711
0.0649467
0.0662591
0.067604
0.0689779
0.070378
0.0718015
0.0732465
0.0747112
0.0761944
0.0776951
0.0792227
0.0571141
0.0575186
0.0580124
0.0585928
0.0592572
0.0600006
0.0608178
0.0617024
0.0626471
0.0636447
0.0646893
0.0657749
0.0668973
0.0680522
0.0692354
0.070443
0.0716709
0.0729164
0.0741772
0.0754514
0.0767377
0.0780355
0.0793442
0.0806694
0.0604533
0.0608453
0.0613202
0.061876
0.0625086
0.0632147
0.0639887
0.0648236
0.0657107
0.066642
0.0676111
0.0686139
0.0696468
0.0707065
0.0717879
0.0728859
0.0739972
0.0751186
0.0762478
0.077383
0.0785233
0.0796689
0.0808188
0.0819752
0.0632887
0.0636724
0.0641287
0.0646636
0.0652692
0.0659449
0.0666854
0.0674826
0.0683253
0.0692013
0.0701072
0.0710414
0.0720026
0.0729865
0.0739873
0.0749966
0.0760135
0.0770337
0.0780554
0.0790763
0.0800952
0.0811159
0.0821346
0.0831469
0.0657096
0.0660919
0.0665236
0.0670425
0.0676242
0.0682779
0.0689933
0.0697602
0.0705637
0.0713833
0.0722345
0.0731105
0.0740159
0.0749413
0.0758782
0.0768129
0.0777547
0.0786916
0.0796257
0.0805504
0.0814616
0.0823829
0.0833206
0.0842065
0.0749702
0.0694459
0.0642678
0.0593693
0.0547114
0.0502688
0.0460268
0.0419784
0.038121
0.0344549
0.0309813
0.027704
0.0246281
0.0217579
0.0190957
0.0166399
0.0143864
0.0123306
0.0104876
0.00891395
0.00768019
0.00646495
0.00514957
0.0036185
0.0775978
0.0728528
0.0683906
0.0641511
0.0600972
0.0562029
0.0524538
0.0488422
0.045366
0.0420259
0.038824
0.0357631
0.0328503
0.0301021
0.0275493
0.0252304
0.0231284
0.0211387
0.019167
0.0171583
0.0150873
0.0129076
0.0105587
0.00796079
0.0804176
0.0763969
0.0726147
0.0690164
0.0655659
0.0622373
0.0590139
0.0558884
0.0528613
0.0499372
0.0471207
0.0444103
0.0417957
0.0392607
0.0367841
0.0343476
0.0319253
0.0294871
0.0269936
0.0244027
0.0216708
0.0187564
0.0156164
0.012205
0.0833481
0.0799934
0.0768419
0.0738439
0.0709653
0.0681719
0.0654349
0.0627373
0.0600715
0.0574337
0.0548207
0.0522276
0.0496463
0.0470643
0.0444659
0.0418311
0.0391382
0.0363617
0.0334708
0.0304301
0.027201
0.0237431
0.0200162
0.0159844
0.086335
0.0835689
0.0809728
0.0784798
0.0760359
0.0736079
0.0711776
0.0687341
0.0662709
0.0637847
0.0612701
0.0587214
0.0561303
0.0534857
0.0507736
0.0479769
0.0450744
0.0420408
0.0388482
0.0354625
0.0318463
0.0279608
0.0237677
0.01923
0.0892948
0.0870237
0.0848402
0.0826823
0.0805169
0.0783248
0.076094
0.0738159
0.0714858
0.0690973
0.0666448
0.064122
0.0615192
0.0588248
0.0560247
0.0531015
0.0500345
0.0468001
0.043368
0.0397048
0.0357745
0.031538
0.0269552
0.0219886
0.0921259
0.090207
0.0882958
0.0863626
0.0843894
0.082364
0.0802765
0.0781194
0.0758859
0.0735702
0.0711654
0.068663
0.0660519
0.0633201
0.0604518
0.0574294
0.054232
0.0508337
0.0472055
0.043313
0.0391202
0.0345861
0.0296698
0.0243317
0.0947337
0.0930409
0.0913209
0.0895525
0.0877236
0.0858251
0.0838484
0.0817847
0.0796282
0.0773711
0.0750055
0.0725209
0.0699059
0.0671454
0.0642237
0.0611217
0.0578176
0.0542851
0.0504921
0.0464054
0.0419893
0.037199
0.0319912
0.0263264
0.0970581
0.0955308
0.0939549
0.0923148
0.0906024
0.0888057
0.0869178
0.0849288
0.0828352
0.0806281
0.0782965
0.0758299
0.0732143
0.0704302
0.0674645
0.064296
0.060904
0.0572597
0.053329
0.0490723
0.0444657
0.0394545
0.0339899
0.0280317
0.0991105
0.0977093
0.0962486
0.0947085
0.0931002
0.0913884
0.0895767
0.0876436
0.0856001
0.0834369
0.0811388
0.0786887
0.0760795
0.0732718
0.0702683
0.0670394
0.0635718
0.0598369
0.0558023
0.0513809
0.0466154
0.0414213
0.0357286
0.0294997
0.00185577
0.00091122
0.00111616
0.0014133
0.00169668
0.00198225
0.00228824
0.00264163
0.00308047
0.00364728
0.00432644
0.00510736
0.00599011
0.00697939
0.00808257
0.00930717
0.0106606
0.0121511
0.0137874
0.0155791
0.0175357
0.0196662
0.0219806
0.024493
0.00502763
0.0023355
0.00148634
0.00171105
0.00201914
0.0023529
0.00273535
0.00319179
0.00374341
0.00440959
0.00516711
0.00601067
0.00694257
0.00796722
0.00909011
0.0103168
0.0116533
0.0131063
0.0146832
0.0163916
0.0182397
0.020236
0.0223887
0.0246986
0.00844849
0.00452801
0.00215086
0.00201223
0.00235734
0.00276605
0.00324444
0.00380528
0.00445526
0.00520412
0.00602862
0.00692681
0.00790124
0.00895513
0.0100925
0.011317
0.0126334
0.0140471
0.0155639
0.0171903
0.0189328
0.0207984
0.0227944
0.0249298
0.0115751
0.00683583
0.00312853
0.0023426
0.00270988
0.00320514
0.00377918
0.00443276
0.00516671
0.0059845
0.00686629
0.00781137
0.00882175
0.00989941
0.0110464
0.0122655
0.0135604
0.0149354
0.0163948
0.0179438
0.0195875
0.0213314
0.0231795
0.0251288
0.0142795
0.00892643
0.00424979
0.00272141
0.00307272
0.0036533
0.00431354
0.00504567
0.00585471
0.00673146
0.00766316
0.00864885
0.00968965
0.0107862
0.0119394
0.0131515
0.0144248
0.0157626
0.0171684
0.0186456
0.0201981
0.0218296
0.0235433
0.0253449
0.0165763
0.0107237
0.0053529
0.00314151
0.0034388
0.00409691
0.00483278
0.00563445
0.00650829
0.00743683
0.00841226
0.0094336
0.0105001
0.0116117
0.0127689
0.0139729
0.0152255
0.0165285
0.0178843
0.0192954
0.0207642
0.0222939
0.0238879
0.0255536
0.018517
0.01224
0.00635159
0.0035802
0.00380032
0.00452634
0.00532922
0.00619383
0.00712303
0.00809736
0.0091115
0.0101635
0.0112519
0.0123759
0.0135355
0.0147312
0.0159638
0.0172343
0.0185443
0.0198949
0.0212879
0.0227258
0.0242119
0.0257517
0.0201573
0.0135159
0.00722121
0.00401263
0.00415313
0.00493729
0.00579836
0.00672036
0.00769707
0.00871186
0.00976019
0.0108389
0.0119461
0.0130805
0.0142415
0.0154291
0.0166432
0.0178839
0.0191517
0.0204473
0.0217716
0.0231266
0.0245139
0.0259353
0.0215422
0.0145796
0.00797149
0.00443414
0.00447997
0.00531269
0.00622859
0.00720471
0.00822534
0.00927771
0.0103576
0.0114612
0.0125863
0.0137309
0.0148939
0.0160744
0.0172715
0.0184844
0.019713
0.0209579
0.0222195
0.0234988
0.0247966
0.0261111
0.0226895
0.0153738
0.00841875
0.00470588
0.00484663
0.00575488
0.00671176
0.00772836
0.00878434
0.00987302
0.0109826
0.0121061
0.0132439
0.0143943
0.0155527
0.0167211
0.0178954
0.0190715
0.0202547
0.0214444
0.0226432
0.0238559
0.0250785
0.0262957
0.000416073
0.00139982
0.00293303
0.00474549
0.00656023
0.0083559
0.0101471
0.0119354
0.0137225
0.0155112
0.0173057
0.0191117
0.0209345
0.0227764
0.0246389
0.0265518
0.028579
0.0307543
0.0330412
0.035548
0.0383966
0.0415103
0.0448176
0.0482569
0.000315552
0.000822425
0.00190913
0.0034071
0.00500443
0.00658132
0.00814642
0.00971958
0.0113208
0.0129606
0.0146406
0.0163615
0.0181242
0.0199298
0.0217816
0.0236901
0.0256811
0.0277863
0.0300225
0.0324474
0.0351283
0.037997
0.0412221
0.0447345
0.000168216
0.000514332
0.00121528
0.00220785
0.00350625
0.0051362
0.0069818
0.00876748
0.010485
0.0121514
0.0137869
0.0154091
0.0170341
0.0186778
0.0203573
0.0220917
0.0239046
0.0258269
0.0278944
0.0301514
0.0326461
0.0353827
0.0384221
0.0416729
0.000182453
0.000428212
0.000994911
0.00179162
0.00283924
0.00416988
0.00582169
0.00770763
0.00960198
0.0114569
0.0132634
0.0150154
0.0167107
0.0183544
0.0199611
0.0215552
0.0231714
0.0248538
0.0266559
0.0286373
0.0308581
0.0333632
0.0361875
0.0393009
0.000153494
0.000373197
0.00086002
0.00154617
0.00244865
0.00359147
0.00500682
0.00673149
0.00870384
0.0107017
0.0126657
0.0145831
0.0164432
0.0182327
0.0199415
0.0215696
0.0231337
0.0246714
0.0262421
0.0279241
0.0298059
0.0319728
0.0344891
0.0373734
0.000147463
0.000341196
0.000778726
0.00139176
0.00219963
0.00322151
0.00448689
0.00603073
0.00788824
0.00993883
0.0120152
0.0140678
0.0160793
0.0180336
0.0199097
0.021687
0.0233525
0.0249117
0.0263981
0.0278802
0.0294586
0.0312543
0.0333854
0.0359553
0.000136859
0.000316494
0.000716251
0.0012758
0.00201601
0.00295121
0.00410755
0.00551673
0.00721532
0.00921919
0.0113608
0.0135185
0.0156536
0.0177478
0.0197809
0.0217271
0.0235588
0.0252534
0.026807
0.0282489
0.029655
0.0311491
0.0328867
0.0350167
0.000132261
0.000302218
0.000670549
0.00118967
0.00187813
0.0027476
0.00382195
0.00513046
0.00670753
0.00859018
0.0107308
0.0129577
0.0151915
0.0174025
0.0195701
0.0216696
0.0236702
0.0255378
0.0272433
0.0287763
0.030166
0.0314998
0.0329282
0.0346334
0.00012904
0.000295396
0.000634266
0.00112175
0.00176794
0.00258533
0.00359473
0.00482332
0.00630316
0.00807109
0.0101477
0.0124049
0.0147136
0.0170213
0.0193028
0.0215346
0.0236872
0.0257244
0.0276063
0.0292984
0.030788
0.0321099
0.0333695
0.0347345
0.000127479
0.000292134
0.000605376
0.0010673
0.00167871
0.00245376
0.00341048
0.00457424
0.00597533
0.007649
0.00963117
0.0118765
0.014234
0.0166198
0.0189976
0.0213431
0.0236288
0.0258195
0.0278731
0.0297439
0.031394
0.0328126
0.0340462
0.0352159
0.000126371
0.000290113
0.000581593
0.00102225
0.00160498
0.00234495
0.00325807
0.0043681
0.00570378
0.00729851
0.00919001
0.0113868
0.0137653
0.0162111
0.0186697
0.0211129
0.0235141
0.0258407
0.0280512
0.0300969
0.031927
0.0335017
0.0348164
0.0359292
0.00012577
0.000288642
0.000562117
0.000985058
0.00154383
0.0022546
0.00313119
0.00419623
0.00547698
0.00700556
0.00881864
0.0109462
0.0133192
0.015806
0.0183316
0.0208585
0.0233602
0.0258058
0.0281566
0.0303639
0.0323722
0.0341259
0.0355854
0.0367526
0.000125521
0.000287644
0.000546117
0.000954202
0.00149294
0.00217918
0.00302512
0.00405216
0.00528654
0.00675882
0.00850469
0.0105604
0.0129051
0.0154148
0.0179937
0.0205925
0.0231815
0.0257316
0.0282065
0.0305597
0.0327351
0.03467
0.0363051
0.0376074
0.000125583
0.000286915
0.000533025
0.000928792
0.00145075
0.00211639
0.0029365
0.00393151
0.00512651
0.00655106
0.00823942
0.0102294
0.0125306
0.0150458
0.0176653
0.0203254
0.0229909
0.0256329
0.0282176
0.0307013
0.0330294
0.0351375
0.0369568
0.0384309
0.000125903
0.000286482
0.000522392
0.000907998
0.00141611
0.00206417
0.00286257
0.00383056
0.0049923
0.00637632
0.00801576
0.00994803
0.0121988
0.0147058
0.017354
0.0200662
0.0227992
0.0255228
0.0282051
0.0308053
0.0332716
0.0355402
0.0375385
0.0391936
0.000126412
0.000286135
0.000513758
0.000890981
0.00138783
0.00202073
0.00280089
0.00374619
0.00487991
0.00622956
0.00782725
0.00970983
0.0119103
0.0143986
0.0170651
0.0198214
0.0226147
0.0254119
0.0281818
0.0308868
0.0334778
0.0358939
0.0380624
0.0399057
0.000127161
0.000285859
0.000506723
0.000876868
0.00136423
0.0019845
0.00274934
0.00367563
0.00478566
0.00610628
0.00766859
0.00950852
0.0116626
0.0141252
0.0168019
0.019595
0.0224429
0.0253073
0.0281573
0.0309574
0.0336619
0.0362128
0.0385397
0.0405629
0.000128063
0.000285669
0.000501055
0.000865055
0.00134446
0.00195401
0.00270598
0.00361616
0.0047063
0.00600222
0.00753445
0.00933807
0.0114507
0.0138842
0.016564
0.0193884
0.0222859
0.0252131
0.0281375
0.0310252
0.0338336
0.036508
0.0389805
0.0411708
0.000129102
0.000285553
0.000496575
0.000855125
0.00132769
0.00192817
0.00266915
0.00356571
0.00463883
0.00591381
0.00742028
0.00919264
0.0112689
0.0136721
0.0163499
0.0192002
0.0221437
0.0251299
0.0281243
0.0310939
0.0339984
0.0367863
0.0393923
0.0417377
0.000130268
0.000285561
0.000493158
0.000846642
0.00131329
0.00190591
0.00263751
0.00352229
0.0045808
0.00583772
0.00732207
0.00906737
0.0111116
0.013485
0.0161562
0.019028
0.0220137
0.0250562
0.0281173
0.0311639
0.0341581
0.0370506
0.0397788
0.0422639
0.000131468
0.000285636
0.000490611
0.000839348
0.00130079
0.00188649
0.00260986
0.00348445
0.00453019
0.00577136
0.00723621
0.00895787
0.0109738
0.0133186
0.0159794
0.0188683
0.0218929
0.0249889
0.0281139
0.0312343
0.034313
0.0373036
0.0401466
0.0427682
0.000132733
0.000285813
0.000488833
0.000832953
0.00128964
0.00186921
0.00258528
0.00345077
0.00448518
0.00571237
0.00716011
0.00886071
0.0108514
0.0131691
0.0158163
0.0187178
0.0217776
0.0249245
0.0281111
0.0313018
0.0344604
0.0375422
0.0404885
0.043222
0.000134
0.000286039
0.0004876
0.000827192
0.00127958
0.00185357
0.00256303
0.0034203
0.00444454
0.0056591
0.00709133
0.00877304
0.0107407
0.0130329
0.0156638
0.0185734
0.0216649
0.0248599
0.0281058
0.0313644
0.0345996
0.037768
0.0408132
0.0436624
0.000135246
0.000286306
0.00048678
0.000821925
0.0012703
0.00183912
0.00254249
0.00339224
0.00440715
0.00561016
0.00702821
0.00869258
0.0106393
0.0129074
0.0155199
0.0184331
0.0215519
0.0247921
0.0280951
0.0314195
0.0347285
0.0379798
0.0411182
0.04407
0.00013646
0.000286602
0.000486284
0.000817029
0.00126159
0.00182555
0.00252324
0.00336598
0.00437218
0.00556445
0.00696936
0.00861764
0.0105448
0.0127901
0.0153829
0.0182952
0.0214369
0.0247189
0.0280765
0.0314646
0.0348454
0.0381773
0.0414077
0.0444687
0.000137614
0.000286919
0.000485986
0.000812377
0.00125328
0.00181264
0.00250495
0.00334103
0.004339
0.00552119
0.00691372
0.0085469
0.0104557
0.0126795
0.0152516
0.0181586
0.0213184
0.0246384
0.0280478
0.0314972
0.0349474
0.0383568
0.0416739
0.0448302
0.00013871
0.000287252
0.00048584
0.000807926
0.00124531
0.00180025
0.0024874
0.0033171
0.00430721
0.00547977
0.00686054
0.00847942
0.0103709
0.012574
0.0151251
0.0180231
0.0211962
0.0245499
0.0280079
0.0315162
0.0350334
0.038518
0.0419197
0.0451722
0.000139747
0.000287603
0.000485807
0.000803654
0.00123761
0.00178826
0.00247043
0.003294
0.00427657
0.00543987
0.00680935
0.00841454
0.0102894
0.0124728
0.0150027
0.0178885
0.0210702
0.0244532
0.0279563
0.0315208
0.0351026
0.0386601
0.0421443
0.0454916
0.00014072
0.000287967
0.000485853
0.000799557
0.00123019
0.00177669
0.00245401
0.00327165
0.00424692
0.00540131
0.00675992
0.00835194
0.0102109
0.0123752
0.0148842
0.0177553
0.0209408
0.0243486
0.0278931
0.0315109
0.0351547
0.0387825
0.0423462
0.0457847
0.000141654
0.000288351
0.000485984
0.000795658
0.0012231
0.00176556
0.00243815
0.00325004
0.00421828
0.00536403
0.00671215
0.00829145
0.0101351
0.012281
0.0147693
0.0176237
0.020809
0.024237
0.027819
0.0314869
0.0351904
0.0388863
0.0425271
0.0460529
0.000142548
0.000288754
0.000486188
0.00079195
0.00121634
0.00175499
0.00242289
0.0032292
0.00419063
0.00532806
0.00666608
0.0082331
0.010062
0.0121901
0.0146582
0.0174946
0.0206757
0.0241193
0.0277347
0.0314492
0.0352094
0.0389709
0.0426869
0.046298
0.000143383
0.00028916
0.000486389
0.00078838
0.00120987
0.00174492
0.00240821
0.00320913
0.00416402
0.00529348
0.00662179
0.00817704
0.00999168
0.0121028
0.0145511
0.0173686
0.0205423
0.0239973
0.0276417
0.0313991
0.0352125
0.0390362
0.0428242
0.0465225
0.000144179
0.000289575
0.00048661
0.000784957
0.00120364
0.00173526
0.00239413
0.00318988
0.00413849
0.00526031
0.00657933
0.00812335
0.00992443
0.0120193
0.0144485
0.0172469
0.0204106
0.0238729
0.0275423
0.0313387
0.0352016
0.0390832
0.0429376
0.0467109
0.000144944
0.000289994
0.000486835
0.000781686
0.00119769
0.00172602
0.00238066
0.00317148
0.00411409
0.00522862
0.00653878
0.00807212
0.00986029
0.0119396
0.0143506
0.0171302
0.0202823
0.0237488
0.0274395
0.0312715
0.0351806
0.0391165
0.0430324
0.046874
0.000145694
0.000290426
0.000487104
0.000778608
0.00119206
0.00171723
0.00236783
0.00315395
0.00409086
0.00519843
0.00650016
0.00802331
0.00979923
0.0118639
0.0142576
0.0170188
0.0201582
0.0236265
0.0273358
0.0312008
0.0351538
0.0391422
0.0431186
0.0470298
0.000146417
0.000290855
0.000487369
0.000775699
0.00118671
0.0017089
0.00235566
0.00313733
0.00406882
0.00516975
0.00646346
0.00797691
0.00974116
0.0117919
0.0141692
0.0169127
0.0200387
0.0235069
0.0272325
0.0311285
0.0351239
0.0391638
0.0432002
0.0471812
0.000147123
0.000291287
0.00048765
0.000772972
0.00118169
0.00170105
0.00234419
0.00312161
0.00404795
0.0051426
0.00642867
0.00793288
0.00968605
0.0117235
0.0140851
0.0168114
0.0199236
0.0233898
0.0271296
0.0310547
0.0350912
0.0391816
0.0432769
0.0473261
0.000147817
0.000291722
0.000487946
0.000770427
0.00117698
0.00169369
0.00233342
0.00310685
0.00402831
0.00511703
0.00639585
0.00789128
0.00963386
0.0116586
0.0140052
0.0167146
0.0198125
0.023275
0.0270267
0.0309788
0.0350546
0.0391942
0.0433477
0.0474644
0.000148499
0.000292158
0.000488254
0.000768056
0.00117258
0.00168681
0.00232333
0.00309302
0.00400991
0.00509303
0.00636501
0.00785214
0.00958467
0.0115973
0.0139295
0.0166227
0.0197058
0.0231627
0.0269237
0.0309001
0.0350128
0.0391993
0.0434089
0.0475929
0.000149174
0.000292595
0.000488573
0.000765848
0.00116847
0.00168037
0.00231391
0.0030801
0.00399273
0.0050706
0.00633617
0.00781549
0.00953856
0.0115398
0.0138583
0.0165359
0.0196041
0.023054
0.0268217
0.0308196
0.0349661
0.039196
0.0434562
0.0476969
0.000149841
0.000293027
0.000488894
0.000763792
0.00116463
0.00167436
0.0023051
0.00306804
0.00397669
0.00504969
0.00630928
0.00778131
0.00949552
0.011486
0.0137917
0.0164544
0.0195081
0.02295
0.0267226
0.0307396
0.0349176
0.0391882
0.0434955
0.0477868
0.000150495
0.000293452
0.000489208
0.000761874
0.00116105
0.00166875
0.00229689
0.0030568
0.00396175
0.0050302
0.00628422
0.00774946
0.00945542
0.011436
0.0137297
0.0163785
0.0194181
0.0228517
0.026628
0.0306625
0.0348705
0.0391807
0.0435351
0.0478792
0.000151149
0.000293872
0.000489527
0.000760084
0.00115769
0.0016635
0.00228921
0.0030463
0.00394782
0.00501206
0.00626091
0.00771985
0.00941816
0.0113894
0.013672
0.0163078
0.0193342
0.0227594
0.0265384
0.0305894
0.0348266
0.0391766
0.0435801
0.047985
0.000151804
0.000294287
0.000489858
0.000758416
0.00115455
0.00165859
0.00228203
0.0030365
0.00393482
0.00499514
0.0062392
0.00769229
0.00938349
0.0113462
0.0136184
0.016242
0.0192558
0.0226726
0.0264537
0.0305201
0.0347853
0.0391736
0.0436236
0.048081
0.000152445
0.000294688
0.000490167
0.000756843
0.0011516
0.00165397
0.00227528
0.00302729
0.00392263
0.0049793
0.00621891
0.00766657
0.00935117
0.0113059
0.0135684
0.0161807
0.0191827
0.0225912
0.0263738
0.0304547
0.0347471
0.0391732
0.0436691
0.0481809
0.000153062
0.000295073
0.000490437
0.000755357
0.0011488
0.00164961
0.0022689
0.00301861
0.00391116
0.00496442
0.00619987
0.00764247
0.00932094
0.0112682
0.0135218
0.0161236
0.0191143
0.0225146
0.0262981
0.0303927
0.0347116
0.0391751
0.0437172
0.0482798
0.000153679
0.000295442
0.000490694
0.000753969
0.00114618
0.00164549
0.00226288
0.0030104
0.00390031
0.00495036
0.00618192
0.00761979
0.00929253
0.0112329
0.0134781
0.01607
0.0190501
0.0224425
0.0262262
0.0303334
0.0346777
0.039178
0.0437668
0.0483876
0.000154317
0.000295807
0.000490997
0.0007527
0.00114371
0.0016416
0.00225718
0.00300262
0.00389002
0.00493702
0.00616488
0.00759829
0.00926564
0.0111995
0.013437
0.0160197
0.0189898
0.0223743
0.0261577
0.0302764
0.0346445
0.0391796
0.043813
0.0484877
0.000154947
0.000296159
0.000491302
0.000751501
0.00114139
0.00163793
0.00225178
0.00299524
0.00388023
0.0049243
0.00614863
0.00757778
0.00924002
0.0111677
0.0133979
0.0159721
0.0189328
0.0223098
0.0260927
0.0302219
0.0346124
0.0391801
0.0438541
0.0485767
0.000155552
0.000296504
0.000491587
0.000750381
0.00113921
0.00163447
0.00224669
0.00298822
0.0038709
0.00491215
0.00613307
0.00755811
0.00921544
0.0111373
0.0133605
0.0159265
0.0188783
0.0222481
0.0260305
0.0301701
0.0345826
0.0391824
0.0438946
0.0486546
0.000156147
0.000296842
0.000491868
0.000749343
0.00113717
0.00163123
0.00224189
0.0029816
0.00386203
0.00490056
0.00611818
0.00753923
0.00919176
0.0111079
0.0133243
0.0158824
0.0188256
0.0221883
0.0259699
0.0301196
0.0345545
0.0391881
0.0439443
0.0487608
0.00015672
0.000297166
0.000492125
0.000748375
0.00113526
0.00162819
0.00223735
0.00297532
0.00385364
0.00488956
0.00610396
0.00752113
0.00916897
0.0110795
0.0132892
0.0158395
0.0187741
0.0221294
0.0259095
0.0300684
0.0345249
0.0391911
0.043989
0.0488532
0.000157286
0.00029748
0.000492371
0.000747484
0.0011335
0.00162536
0.00223311
0.00296943
0.00384574
0.00487916
0.00609048
0.00750386
0.00914713
0.0110521
0.0132553
0.0157977
0.0187237
0.0220711
0.0258487
0.0300154
0.0344923
0.0391908
0.0440308
0.0489455
0.000157861
0.000297792
0.000492642
0.000746677
0.00113186
0.0016227
0.00222915
0.00296393
0.00383832
0.00486934
0.00607773
0.00748749
0.00912633
0.0110259
0.0132226
0.0157573
0.0186744
0.0220134
0.0257872
0.0299601
0.0344558
0.0391852
0.0440665
0.0490315
0.000158424
0.000298091
0.000492902
0.000745932
0.00113035
0.00162025
0.00222545
0.0029588
0.00383138
0.00486016
0.00606568
0.00747201
0.00910663
0.0110011
0.0131914
0.0157185
0.0186267
0.021957
0.0257258
0.0299028
0.0344147
0.0391723
0.0440912
0.0490992
0.000158971
0.000298386
0.000493146
0.000745247
0.00112889
0.00161793
0.00222198
0.00295393
0.00382479
0.0048515
0.00605447
0.00745751
0.0090882
0.0109777
0.013162
0.0156818
0.0185815
0.0219028
0.0256658
0.0298451
0.034371
0.0391543
0.0441097
0.0491624
0.000159517
0.000298668
0.000493395
0.000744608
0.00112758
0.00161573
0.00221872
0.00294939
0.00381868
0.00484332
0.00604385
0.00744394
0.00907078
0.0109558
0.0131344
0.0156473
0.0185389
0.0218518
0.0256088
0.0297894
0.0343274
0.0391346
0.0441243
0.0492222
0.000160062
0.000298955
0.000493668
0.00074406
0.00112636
0.00161377
0.00221569
0.00294515
0.0038129
0.00483571
0.00603386
0.00743109
0.00905449
0.0109351
0.0131086
0.015615
0.0184992
0.021804
0.0255555
0.0297372
0.0342863
0.0391156
0.0441372
0.0492751
0.000160585
0.000299227
0.000493918
0.000743541
0.00112525
0.00161193
0.00221289
0.00294116
0.00380749
0.00482852
0.00602451
0.00741903
0.00903902
0.0109156
0.0130841
0.0155847
0.0184618
0.0217594
0.0255057
0.0296888
0.0342492
0.0391002
0.0441521
0.0493237
0.000161106
0.000299474
0.000494146
0.000743139
0.0011243
0.00161029
0.00221032
0.00293755
0.00380251
0.00482181
0.00601563
0.00740753
0.00902445
0.0108971
0.013061
0.0155559
0.0184263
0.0217171
0.0254586
0.0296434
0.0342155
0.0390896
0.0441757
0.0493943
0.000161626
0.000299735
0.000494408
0.000742753
0.00112341
0.0016088
0.002208
0.00293416
0.00379781
0.00481551
0.00600738
0.00739674
0.00901055
0.0108796
0.0130389
0.0155284
0.0183926
0.0216766
0.0254133
0.0295992
0.0341824
0.0390786
0.0441971
0.0494562
0.000162094
0.000299985
0.000494619
0.00074247
0.00112271
0.0016075
0.00220594
0.00293115
0.0037936
0.00480972
0.00599959
0.00738656
0.00899738
0.0108628
0.0130177
0.0155021
0.0183601
0.0216376
0.0253693
0.0295558
0.0341489
0.0390657
0.0442145
0.0495119
0.000162611
0.000300244
0.000494922
0.000742299
0.00112214
0.00160646
0.00220419
0.00292856
0.00378982
0.0048045
0.00599253
0.00737713
0.00898515
0.010847
0.0129977
0.0154768
0.0183289
0.0215999
0.0253266
0.0295134
0.0341158
0.0390523
0.0442299
0.0495621
0.000163094
0.000300488
0.000495205
0.000742165
0.0011217
0.00160558
0.00220272
0.00292625
0.00378651
0.00479976
0.00598604
0.00736851
0.00897367
0.0108322
0.0129786
0.0154527
0.0182988
0.0215634
0.025285
0.0294718
0.0340835
0.0390401
0.0442477
0.0496161
0.000163567
0.000300708
0.000495451
0.000742105
0.00112138
0.00160494
0.0022015
0.00292436
0.00378367
0.00479572
0.00598033
0.00736069
0.00896327
0.0108183
0.0129608
0.0154298
0.01827
0.0215279
0.025244
0.0294302
0.0340506
0.039028
0.0442692
0.0496871
0.000164049
0.000300949
0.000495752
0.000742106
0.00112118
0.00160446
0.00220059
0.00292283
0.0037813
0.00479225
0.00597545
0.00735384
0.00895392
0.0108059
0.0129443
0.0154084
0.0182425
0.0214937
0.0252036
0.0293876
0.0340147
0.03901
0.0442801
0.0497333
0.000164474
0.000301177
0.000495973
0.000742176
0.00112114
0.00160415
0.00219994
0.00292168
0.00377948
0.00478942
0.00597127
0.00734794
0.00894576
0.0107948
0.0129295
0.0153889
0.018217
0.0214615
0.0251647
0.0293455
0.0339768
0.0389872
0.0442833
0.0497714
0.000164927
0.000301407
0.000496247
0.000742348
0.00112122
0.00160413
0.00219961
0.00292097
0.00377812
0.00478727
0.00596799
0.00734309
0.00893896
0.0107854
0.0129166
0.0153716
0.0181943
0.0214321
0.0251287
0.0293056
0.0339401
0.0389635
0.044284
0.049807
0.000165374
0.000301621
0.000496518
0.000742576
0.00112146
0.00160427
0.00219959
0.00292058
0.00377727
0.00478563
0.00596539
0.00733924
0.00893323
0.0107773
0.0129055
0.0153566
0.0181743
0.0214062
0.0250966
0.0292697
0.0339066
0.0389422
0.0442854
0.0498444
0.000165839
0.000301849
0.000496838
0.000742924
0.00112186
0.00160469
0.00219985
0.00292061
0.00377688
0.00478471
0.00596358
0.00733628
0.00892881
0.0107708
0.0128964
0.015344
0.0181574
0.0213839
0.0250688
0.0292385
0.0338775
0.0389233
0.0442864
0.0498747
0.000166298
0.000302083
0.000497168
0.000743327
0.0011224
0.0016053
0.00220044
0.00292102
0.00377702
0.00478439
0.0059626
0.00733429
0.00892542
0.0107658
0.0128889
0.0153336
0.0181431
0.0213651
0.0250454
0.0292124
0.033854
0.0389095
0.0442888
0.0498979
0.000166711
0.000302277
0.000497426
0.00074386
0.00112317
0.0016062
0.00220138
0.00292196
0.00377776
0.00478475
0.0059623
0.00733316
0.00892317
0.0107619
0.0128831
0.015325
0.0181312
0.0213493
0.0250259
0.0291917
0.0338375
0.0389044
0.0442999
0.0499173
0.000167147
0.000302492
0.000497741
0.000744502
0.00112407
0.00160735
0.00220271
0.00292331
0.00377901
0.00478579
0.00596299
0.00733308
0.00892212
0.0107594
0.0128787
0.0153183
0.0181215
0.0213359
0.0250094
0.0291748
0.0338268
0.03891
0.0443348
0.0500033
0.000167587
0.000302695
0.000498077
0.000745255
0.00112522
0.0016088
0.00220444
0.00292521
0.00378099
0.00478759
0.0059645
0.00733415
0.00892222
0.0107583
0.0128758
0.0153132
0.0181134
0.0213246
0.0249949
0.0291595
0.033817
0.0389156
0.0443673
0.0500753
0.000168033
0.000302908
0.000498455
0.00074616
0.00112658
0.00161062
0.0022066
0.00292769
0.00378362
0.00479031
0.00596705
0.00733631
0.0089238
0.0107587
0.0128748
0.0153099
0.0181075
0.0213152
0.0249823
0.0291457
0.0338074
0.0389184
0.0443908
0.0501238
0.000168464
0.000303109
0.000498837
0.00074717
0.00112818
0.00161273
0.00220922
0.00293069
0.00378701
0.00479388
0.00597071
0.00733983
0.00892677
0.010761
0.0128757
0.0153089
0.0181039
0.0213084
0.0249721
0.0291342
0.0338
0.0389239
0.0444195
0.0501866
0.000168899
0.000303288
0.000499219
0.000748334
0.00112999
0.00161519
0.00221228
0.00293433
0.00379111
0.00479841
0.00597545
0.0073446
0.0089314
0.010765
0.0128787
0.0153103
0.0181029
0.0213044
0.0249648
0.0291253
0.0337947