/*--------------------------------*- C++ -*----------------------------------*\
| =========                 |                                                 |
| \\      /  F ield         | OpenFOAM: The Open Source CFD Toolbox           |
|  \\    /   O peration     | Version:  2.3.0                                 |
|   \\  /    A nd           | Web:      www.OpenFOAM.org                      |
|    \\/     M anipulation  |                                                 |
\*---------------------------------------------------------------------------*/
FoamFile
{
    version     2.0;
    format      ascii;
    class       volScalarField;
    location    "9000";
    object      p;
}
// * * * * * * * * * * * * * * * * * * * * * * * * * * * * * * * * * * * * * //

dimensions      [0 2 -2 0 0 0 0];

internalField   nonuniform List<scalar> 
14769
(
0.00774748
-0.650556
-1.29873
-1.93807
-2.52841
-3.05364
-3.49532
-3.83589
-4.04788
-4.08565
-3.8989
-3.4274
-2.59773
-1.33491
0.484912
3.00186
6.3058
10.5326
15.8863
23.2482
32.9056
41.7309
45.1297
57.3037
9.96062
10.3778
10.9869
11.7104
12.5849
13.636
14.9001
16.4333
18.3016
20.5877
23.3969
26.8504
31.0773
36.21
42.3782
49.707
58.3194
68.3025
79.755
92.7642
107.344
123.293
140.526
158.874
18.538
19.5195
20.8239
22.3102
24.0021
25.9149
28.0664
30.4828
33.1924
36.2201
39.6073
43.3903
47.6176
52.3444
57.6116
63.4635
69.9447
77.0705
84.8582
93.2669
102.24
111.674
121.496
131.563
25.426
27.0664
28.8498
30.8009
32.9499
35.3187
37.9416
40.8446
44.0637
47.6288
51.5812
55.9518
60.7745
66.0747
71.8733
78.1808
84.9949
92.2942
100.038
108.155
116.544
125.073
133.576
141.881
31.5464
33.4207
35.4024
37.5531
39.8831
42.4096
45.1524
48.1247
51.3483
54.8473
58.6415
62.7544
67.206
72.016
77.1985
82.7581
88.6911
94.9786
101.588
108.467
115.541
122.714
129.876
136.908
36.7125
38.6904
40.7683
42.9915
45.3858
47.961
50.7343
53.7249
56.9459
60.4205
64.1629
68.1902
72.5159
77.1511
82.101
87.3593
92.9232
98.7717
104.869
111.164
117.597
124.083
130.54
136.87
41.1974
43.1026
45.1853
47.3884
49.7554
52.2843
54.9953
57.9027
61.0127
64.3475
67.9146
71.7398
75.8367
80.2025
84.8461
89.7537
94.9212
100.333
105.97
111.77
117.692
123.66
129.608
135.452
44.8784
46.7273
48.8202
50.9739
53.2833
55.7465
58.3789
61.215
64.238
67.4776
70.9109
74.5468
78.4047
82.5198
86.9221
91.574
96.4451
101.527
106.807
112.229
117.789
123.384
128.957
134.432
48.3463
49.9826
51.9363
53.9424
56.1606
58.5363
61.071
63.7686
66.6191
69.7346
73.0496
76.5765
80.278
84.2472
88.4153
92.8124
97.4374
102.302
107.345
112.475
117.737
123.026
128.324
133.561
52.383
53.155
54.6774
56.4127
58.4883
60.6979
63.0756
65.4687
67.826
70.4729
73.3499
76.8795
81.264
85.6131
89.762
93.8675
98.1146
102.415
108.028
112.996
117.927
122.875
128.023
133.305
115.427
148.308
168.764
183.883
195.712
205.092
212.697
218.786
223.547
227.147
229.729
231.403
232.262
232.403
231.903
230.847
229.312
227.38
225.129
222.626
219.931
217.076
214.113
211.34
175.764
188.711
199.064
207.472
214.23
219.537
223.536
226.368
228.179
229.12
229.336
228.963
228.126
226.938
225.487
223.844
222.059
220.163
218.175
216.099
213.933
211.659
209.347
207.3
141.626
151.425
160.686
169.192
176.851
183.628
189.534
194.593
198.855
202.372
205.203
207.407
209.039
210.158
210.809
211.044
210.905
210.436
209.676
208.664
207.425
205.973
204.432
203.14
149.848
157.431
164.559
171.124
177.062
182.337
186.949
190.908
194.249
197.009
199.237
200.982
202.295
203.224
203.811
204.098
204.119
203.903
203.476
202.857
202.057
201.071
200.019
199.262
143.748
150.38
156.721
162.67
168.164
173.157
177.631
181.582
185.027
187.985
190.487
192.563
194.248
195.575
196.577
197.283
197.722
197.918
197.896
197.675
197.267
196.667
196.007
195.675
143.017
148.954
154.622
159.949
164.881
169.384
173.443
177.055
180.233
182.994
185.36
187.356
189.013
190.359
191.423
192.23
192.805
193.167
193.339
193.337
193.169
192.824
192.443
192.429
141.142
146.645
151.899
156.849
161.437
165.641
169.456
172.869
175.902
178.571
180.885
182.857
184.527
185.917
187.053
187.95
188.639
189.13
189.45
189.615
189.629
189.467
189.278
189.44
139.779
144.974
149.922
154.594
158.907
162.866
166.472
169.697
172.593
175.171
177.414
179.322
180.975
182.367
183.531
184.462
185.214
185.776
186.19
186.47
186.602
186.526
186.462
186.572
138.751
143.833
148.484
152.927
156.917
160.618
164.054
167.147
169.958
172.471
174.634
176.443
178.066
179.429
180.604
181.527
182.32
182.903
183.384
183.731
183.907
183.82
183.98
184.304
138.544
143.311
147.786
152.053
155.497
158.804
162.047
164.964
167.762
170.316
172.386
173.925
175.46
176.723
177.92
178.754
179.575
180.104
180.592
180.974
181.226
180.994
181.849
182.302
-45.415
-45.8721
-46.3486
-46.772
-47.1222
-47.3961
-47.5916
-47.7084
-47.7484
-47.7147
-47.6125
-47.449
-47.2324
-46.9671
-46.6489
-46.2665
-45.7982
-45.21
-44.4612
-43.5182
-42.3498
-40.8839
-38.6854
-33.8997
-45.0286
-45.4983
-45.9693
-46.372
-46.6967
-46.9522
-47.1455
-47.2821
-47.3654
-47.3956
-47.3697
-47.2791
-47.1103
-46.8445
-46.4614
-45.9355
-45.2291
-44.2764
-42.9718
-41.1651
-38.6419
-35.107
-30.314
-24.3381
-44.6692
-45.1404
-45.7098
-46.24
-46.7014
-47.0961
-47.4222
-47.6738
-47.8446
-47.927
-47.9093
-47.7755
-47.5061
-47.0761
-46.4549
-45.6039
-44.474
-42.9974
-41.0741
-38.5647
-35.3134
-31.1921
-26.1854
-20.5528
-44.1809
-44.5356
-45.0926
-45.6213
-46.0744
-46.4529
-46.7548
-46.9751
-47.1039
-47.1296
-47.0417
-46.8263
-46.4615
-45.9183
-45.1617
-44.1514
-42.8339
-41.1367
-38.9792
-36.2716
-32.9306
-28.922
-24.3302
-19.3896
-43.5358
-43.799
-44.3197
-44.8237
-45.252
-45.6077
-45.8889
-46.0851
-46.1866
-46.1812
-46.0529
-45.783
-45.3523
-44.7322
-43.888
-42.7751
-41.3425
-39.5341
-37.2853
-34.5265
-31.217
-27.3604
-23.0383
-18.454
-42.6676
-42.9294
-43.4295
-43.8942
-44.2836
-44.6023
-44.8544
-45.0255
-45.1017
-45.0655
-44.9058
-44.6061
-44.1449
-43.4904
-42.608
-41.4527
-39.9816
-38.1364
-35.8598
-33.106
-29.858
-26.1182
-21.9638
-17.5784
-41.6944
-42.0522
-42.5114
-42.9265
-43.2736
-43.5467
-43.7729
-43.9217
-43.9829
-43.9298
-43.741
-43.4107
-42.9295
-42.2642
-41.3821
-40.2258
-38.7484
-36.9053
-34.6459
-31.9148
-28.7459
-25.1192
-21.1159
-16.8746
-41.0329
-41.2104
-41.597
-41.9616
-42.2723
-42.4792
-42.684
-42.8101
-42.8631
-42.8087
-42.6008
-42.2373
-41.7455
-41.0743
-40.2221
-39.0996
-37.661
-35.8599
-33.6256
-30.8216
-27.6425
-24.0353
-20.1075
-15.8889
-40.2244
-40.3596
-40.7105
-41.0539
-41.3464
-41.3822
-41.5752
-41.7254
-41.8094
-41.7644
-41.4902
-41.0126
-40.5344
-39.8872
-39.1119
-38.0488
-36.657
-34.9435
-32.9404
-30.0558
-27.0812
-23.7063
-20.0543
-15.8734
-39.2277
-39.4317
-39.8211
-40.5069
-40.7749
-40.3257
-40.2826
-40.6623
-41.1562
-41.5086
-41.1941
-40.1191
-39.2187
-38.6868
-38.1901
-37.5943
-36.3899
-34.2603
-30.9527
-25.8744
-22.5426
-19.9334
-16.4217
-11.4728
-23.7526
-18.6838
-15.1888
-11.9794
-8.91974
-6.04473
-3.35233
-0.824782
1.56181
3.83999
6.04404
8.20579
10.351
12.4975
14.6577
16.8378
19.0423
21.2722
23.5293
25.811
28.1181
30.4665
32.8444
35.0493
-17.6816
-13.9938
-11.9955
-10.0898
-8.02119
-5.81907
-3.53513
-1.21269
1.11727
3.43375
5.72219
7.97614
10.1943
12.3786
14.5351
16.6707
18.7931
20.9091
23.0261
25.1492
27.2843
29.4527
31.629
33.6875
-14.9357
-10.4196
-8.03949
-6.34359
-4.63213
-2.83413
-0.960223
0.967875
2.93219
4.91877
6.91654
8.9162
10.9129
12.903
14.8856
16.8602
18.8288
20.7944
22.759
24.7244
26.693
28.6822
30.6724
32.464
-14.4351
-9.90127
-7.1104
-5.2946
-3.53444
-1.74155
0.0859279
1.93397
3.79313
5.65791
7.52417
9.38867
11.2512
13.1105
14.9668
16.8214
18.6744
20.5281
22.383
24.2407
26.1019
27.9768
29.8629
31.713
-13.8732
-9.61151
-6.63761
-4.74726
-2.95786
-1.15589
0.669551
2.50346
4.33826
6.16815
7.98946
9.7998
11.5994
13.3878
15.1653
16.9331
18.6937
20.4487
22.2002
23.9509
25.7025
27.4591
29.22
30.9832
-13.2089
-9.13209
-6.03729
-4.03886
-2.21732
-0.412134
1.40056
3.2108
5.01312
6.80349
8.57861
10.337
12.0776
13.8009
15.5065
17.1955
18.8705
20.5327
22.1855
23.8313
25.4708
27.1017
28.7247
30.3741
-12.6451
-8.66389
-5.49179
-3.37565
-1.5083
0.311259
2.11861
3.91102
5.68654
7.44254
9.17621
10.8868
12.5751
14.2398
15.8791
17.4965
19.0944
20.6737
22.2385
23.7915
25.3332
26.8564
28.3631
29.924
-11.7529
-7.83026
-4.69209
-2.61186
-0.817935
0.961573
2.74319
4.5155
6.27147
8.00262
9.70339
11.377
13.0264
14.6454
16.2289
17.7859
19.3195
20.8285
22.3193
23.7954
25.2562
26.6905
28.0928
29.5554
-11.865
-7.72858
-4.35578
-2.16767
-0.321333
1.48714
3.28487
5.06511
6.82414
8.54837
10.2246
11.8737
13.5016
15.0871
16.6131
18.1149
19.5932
21.0311
22.4532
23.8611
25.2537
26.614
27.9099
29.2757
-7.70947
-3.74634
-1.48581
-0.690255
0.402433
2.00791
3.75374
5.51285
7.26559
8.96749
10.5794
12.2009
13.8187
15.37
16.8147
18.2773
19.727
21.1022
22.4942
23.8688
25.2206
26.5201
27.6693
28.9283
-150.486
-143.701
-136.955
-131.017
-123.707
-115.1
-105.953
-96.6598
-87.4422
-78.4689
-69.8534
-61.7047
-54.1185
-47.1833
-40.9271
-35.3708
-30.4903
-26.2608
-22.6171
-19.4848
-16.7796
-14.4179
-12.3239
-10.4871
-91.2943
-91.3379
-90.7311
-89.6692
-88.4878
-87.5133
-86.8044
-86.0689
-84.8965
-83.0288
-80.4303
-77.113
-73.1179
-68.5292
-63.4523
-58.0484
-52.4871
-46.9585
-41.6298
-36.6319
-32.0406
-27.8883
-24.1479
-20.9571
-100.507
-100.404
-100.462
-100.511
-100.431
-100.037
-99.1594
-97.7882
-96.0366
-93.9963
-91.6292
-88.8004
-85.4446
-81.561
-77.1802
-72.3471
-67.1361
-61.6452
-56.0242
-50.4228
-44.9896
-39.851
-35.0531
-30.8917
-93.7699
-93.7342
-93.6431
-93.51
-93.3376
-93.1178
-92.8294
-92.4384
-91.9014
-91.1474
-90.1457
-88.9193
-87.3907
-85.4064
-82.8538
-79.6732
-75.8503
-71.4217
-66.4854
-61.1836
-55.6963
-50.2208
-44.8874
-40.2191
-94.0706
-94.0542
-94.0594
-94.0507
-94.0162
-93.9427
-93.8131
-93.6016
-93.2708
-92.7785
-92.082
-91.1337
-89.9146
-88.4078
-86.5384
-84.2162
-81.3696
-77.9423
-73.9129
-69.325
-64.2793
-58.9389
-53.4405
-48.4533
-92.4719
-92.4573
-92.439
-92.4066
-92.3573
-92.287
-92.1886
-92.0518
-91.8616
-91.5962
-91.2271
-90.72
-90.0302
-89.1071
-87.9052
-86.3536
-84.364
-81.8565
-78.7612
-75.0448
-70.7234
-65.8528
-60.6246
-53.9524
-91.9392
-91.9304
-91.925
-91.9115
-91.8867
-91.8465
-91.7853
-91.6951
-91.5652
-91.3806
-91.1212
-90.7633
-90.2777
-89.6257
-88.7616
-87.6357
-86.1776
-84.3062
-81.9373
-78.9992
-75.4511
-71.2596
-66.7664
-60.2265
-91.2467
-91.2411
-91.2333
-91.2177
-91.1932
-91.1574
-91.107
-91.0372
-90.941
-90.8097
-90.6305
-90.3856
-90.0538
-89.6067
-89.0064
-88.2073
-87.1539
-85.7723
-83.9794
-81.6884
-78.8353
-75.3272
-71.5138
-65.1891
-90.7802
-90.7774
-90.7721
-90.7603
-90.7412
-90.713
-90.6733
-90.6184
-90.5431
-90.4406
-90.3023
-90.1159
-89.8652
-89.5301
-89.0829
-88.4867
-87.6975
-86.6575
-85.2913
-83.5124
-81.2428
-78.3497
-75.1507
-69.1762
-90.3618
-90.3595
-90.354
-90.3423
-90.3244
-90.2989
-90.2639
-90.217
-90.1545
-90.0712
-89.9608
-89.8148
-89.6208
-89.3634
-89.0223
-88.5692
-87.9669
-87.1701
-86.119
-84.7346
-82.9389
-80.5971
-77.9833
-72.6382
-90.0291
-90.0274
-90.0221
-90.0114
-89.9951
-89.9722
-89.9412
-89.9001
-89.8461
-89.7752
-89.6823
-89.5612
-89.403
-89.1957
-88.9238
-88.5659
-88.093
-87.4682
-86.643
-85.553
-84.1253
-82.231
-80.0536
-75.439
-89.7521
-89.7507
-89.7455
-89.7352
-89.7198
-89.6983
-89.6698
-89.6324
-89.584
-89.5216
-89.441
-89.3375
-89.2044
-89.0325
-88.8096
-88.5193
-88.139
-87.6384
-86.9788
-86.1081
-84.9637
-83.436
-81.6352
-77.4771
-89.5325
-89.5308
-89.5254
-89.5153
-89.5005
-89.4802
-89.4533
-89.4187
-89.3745
-89.3182
-89.2465
-89.1551
-89.0394
-88.8921
-88.7039
-88.462
-88.1483
-87.7387
-87.2011
-86.4937
-85.5661
-84.3329
-82.8852
-79.4793
-89.3574
-89.3559
-89.3506
-89.3409
-89.3268
-89.3075
-89.2823
-89.25
-89.209
-89.1574
-89.0923
-89.0104
-88.9077
-88.7788
-88.6163
-88.41
-88.1459
-87.8045
-87.3595
-86.777
-86.0157
-85.0052
-83.7746
-81.1529
-89.2262
-89.2243
-89.2188
-89.2092
-89.1955
-89.1771
-89.1532
-89.1229
-89.0848
-89.0373
-88.9778
-88.9036
-88.8112
-88.6967
-88.5541
-88.3754
-88.1492
-87.86
-87.4868
-87.0006
-86.3689
-85.5359
-84.4915
-82.3821
-89.127
-89.1253
-89.12
-89.1111
-89.0982
-89.081
-89.0588
-89.0307
-88.9955
-88.9518
-88.8975
-88.8301
-88.7468
-88.6441
-88.5177
-88.3611
-88.1654
-87.9178
-87.6008
-87.1907
-86.66
-85.9655
-85.0832
-83.2463
-89.0588
-89.0574
-89.0522
-89.0437
-89.0317
-89.0157
-88.9951
-88.9691
-88.9368
-88.8969
-88.8475
-88.7865
-88.7114
-88.6193
-88.5068
-88.3688
-88.1981
-87.9846
-87.7138
-87.3659
-86.9174
-86.3326
-85.5761
-84.0392
-89.0144
-89.0129
-89.0077
-88.9998
-88.9886
-88.9738
-88.9548
-88.9311
-88.9018
-88.8657
-88.8212
-88.7664
-88.699
-88.6166
-88.5165
-88.3948
-88.2456
-88.0605
-87.8276
-87.5308
-87.1499
-86.6542
-86.006
-84.7292
-88.9857
-88.9846
-88.9799
-88.9728
-88.9626
-88.9492
-88.9321
-88.9108
-88.8844
-88.852
-88.8122
-88.7634
-88.7034
-88.6301
-88.5413
-88.4337
-88.3028
-88.1414
-87.9397
-87.6833
-87.3542
-86.9218
-86.3407
-85.2105
-88.9708
-88.9696
-88.965
-88.9583
-88.9489
-88.9367
-88.9213
-88.9022
-88.8787
-88.8499
-88.8147
-88.7716
-88.7186
-88.6539
-88.5754
-88.4807
-88.3658
-88.225
-88.05
-87.829
-87.5477
-87.1802
-86.6891
-85.7365
-88.9589
-88.9581
-88.9541
-88.9483
-88.94
-88.9293
-88.9157
-88.8989
-88.8783
-88.853
-88.8221
-88.7842
-88.7378
-88.6809
-88.6118
-88.5283
-88.4271
-88.3032
-88.1492
-87.954
-87.7036
-87.3778
-86.9567
-86.0406
-88.9506
-88.9499
-88.9463
-88.941
-88.9336
-88.9241
-88.912
-88.8972
-88.8791
-88.857
-88.8301
-88.7971
-88.7566
-88.7069
-88.6463
-88.5731
-88.4843
-88.3758
-88.2411
-88.071
-87.8542
-87.572
-87.199
-86.4862
-88.9397
-88.9391
-88.9356
-88.9309
-88.9243
-88.9158
-88.9052
-88.8921
-88.8763
-88.857
-88.8335
-88.8048
-88.7696
-88.7263
-88.6734
-88.609
-88.5309
-88.4351
-88.3157
-88.164
-87.9685
-87.7124
-87.3801
-86.7336
-88.9221
-88.9217
-88.9186
-88.9145
-88.9086
-88.901
-88.8917
-88.8802
-88.8664
-88.8496
-88.8291
-88.8042
-88.7736
-88.7358
-88.6895
-88.6331
-88.5643
-88.4799
-88.3747
-88.241
-88.0691
-87.8414
-87.5309
-87.0013
-88.8961
-88.8958
-88.8931
-88.8894
-88.8841
-88.8774
-88.8691
-88.859
-88.8468
-88.832
-88.8141
-88.7923
-88.7654
-88.7322
-88.6914
-88.6413
-88.58
-88.5043
-88.4093
-88.2873
-88.128
-87.9172
-87.636
-87.0355
-88.8601
-88.8599
-88.8574
-88.8541
-88.8494
-88.8434
-88.8359
-88.8269
-88.816
-88.8028
-88.7869
-88.7675
-88.7437
-88.7142
-88.6778
-88.633
-88.5779
-88.5097
-88.4237
-88.3132
-88.1692
-87.9775
-87.7136
-87.2095
-88.813
-88.8129
-88.8106
-88.8077
-88.8034
-88.7979
-88.7912
-88.783
-88.7731
-88.7612
-88.7467
-88.7292
-88.7076
-88.681
-88.6479
-88.6071
-88.5566
-88.4939
-88.4147
-88.3125
-88.1787
-87.9988
-87.7468
-87.2939
-88.7552
-88.7551
-88.7531
-88.7504
-88.7464
-88.7413
-88.735
-88.7273
-88.7181
-88.707
-88.6937
-88.6774
-88.6575
-88.6329
-88.6023
-88.5644
-88.5176
-88.4591
-88.385
-88.2893
-88.1634
-87.9919
-87.7443
-87.3196
-88.6871
-88.687
-88.685
-88.6823
-88.6785
-88.6736
-88.6676
-88.6603
-88.6515
-88.6409
-88.6282
-88.6128
-88.594
-88.5707
-88.5419
-88.5062
-88.462
-88.4069
-88.3375
-88.2486
-88.1332
-87.9794
-87.7655
-87.5192
-88.608
-88.6079
-88.6061
-88.6037
-88.6
-88.5954
-88.5895
-88.5825
-88.5739
-88.5637
-88.5514
-88.5364
-88.5182
-88.4957
-88.4678
-88.4332
-88.3904
-88.3368
-88.2689
-88.1808
-88.0652
-87.9175
-87.7131
-87.1276
-88.5205
-88.5204
-88.5187
-88.5163
-88.5127
-88.5081
-88.5024
-88.4954
-88.487
-88.4769
-88.4647
-88.45
-88.432
-88.41
-88.3827
-88.349
-88.3074
-88.2557
-88.1911
-88.1088
-88.0026
-87.8667
-87.7052
-87.6539
-88.4252
-88.4252
-88.4235
-88.4212
-88.4177
-88.4131
-88.4074
-88.4004
-88.392
-88.3819
-88.3697
-88.3549
-88.3369
-88.3148
-88.2876
-88.254
-88.2124
-88.1607
-88.0957
-88.012
-87.9025
-87.7635
-87.5872
-87.1825
-88.324
-88.3239
-88.3222
-88.3199
-88.3164
-88.3118
-88.3061
-88.2991
-88.2906
-88.2804
-88.2681
-88.2532
-88.2351
-88.213
-88.1859
-88.1523
-88.1109
-88.0598
-87.996
-87.9152
-87.8114
-87.6777
-87.5026
-87.2982
-88.2174
-88.2173
-88.2157
-88.2134
-88.2099
-88.2053
-88.1996
-88.1925
-88.184
-88.1737
-88.1613
-88.1464
-88.1282
-88.106
-88.0788
-88.0452
-88.0039
-87.9527
-87.8888
-87.8079
-87.7031
-87.5637
-87.3733
-87.14
-88.107
-88.1069
-88.1053
-88.103
-88.0995
-88.0949
-88.0892
-88.0821
-88.0736
-88.0633
-88.0509
-88.036
-88.0179
-87.9958
-87.9688
-87.9357
-87.895
-87.8449
-87.783
-87.7055
-87.6073
-87.4812
-87.3172
-87.1317
-87.9935
-87.9934
-87.9918
-87.9895
-87.9861
-87.9815
-87.9758
-87.9688
-87.9603
-87.95
-87.9377
-87.9228
-87.9048
-87.883
-87.8564
-87.8239
-87.784
-87.7352
-87.6751
-87.6003
-87.5061
-87.3857
-87.2275
-87.0358
-87.8777
-87.8776
-87.8759
-87.8737
-87.8703
-87.8658
-87.8601
-87.8531
-87.8446
-87.8344
-87.8222
-87.8075
-87.7898
-87.7684
-87.7423
-87.7106
-87.672
-87.6249
-87.5673
-87.4963
-87.4078
-87.297
-87.1569
-86.9859
-87.76
-87.7598
-87.7582
-87.756
-87.7526
-87.7481
-87.7425
-87.7356
-87.7272
-87.7171
-87.705
-87.6904
-87.673
-87.652
-87.6265
-87.5956
-87.5581
-87.5127
-87.4574
-87.3898
-87.306
-87.201
-87.0716
-86.9448
-87.6408
-87.6407
-87.6391
-87.6368
-87.6335
-87.629
-87.6234
-87.6166
-87.6082
-87.5982
-87.5862
-87.5718
-87.5546
-87.5339
-87.5089
-87.4787
-87.4421
-87.3981
-87.345
-87.2807
-87.2022
-87.1044
-86.9811
-86.9061
-87.5204
-87.5203
-87.5187
-87.5165
-87.5132
-87.5088
-87.5033
-87.4964
-87.4882
-87.4782
-87.4663
-87.452
-87.4349
-87.4143
-87.3895
-87.3596
-87.3234
-87.2797
-87.2268
-87.1623
-87.0827
-86.9825
-86.8448
-86.6274
-87.3997
-87.3995
-87.3979
-87.3957
-87.3924
-87.388
-87.3825
-87.3757
-87.3675
-87.3576
-87.3458
-87.3316
-87.3146
-87.2942
-87.2696
-87.2399
-87.204
-87.1607
-87.1081
-87.0438
-86.9637
-86.8615
-86.7294
-86.5661
-87.2786
-87.2783
-87.2767
-87.2745
-87.2712
-87.2668
-87.2613
-87.2546
-87.2464
-87.2366
-87.2249
-87.2109
-87.1941
-87.1739
-87.1497
-87.1204
-87.0851
-87.0425
-86.9911
-86.9287
-86.8525
-86.7582
-86.6429
-86.5517
-87.1566
-87.1565
-87.1549
-87.1527
-87.1495
-87.1452
-87.1398
-87.1332
-87.1251
-87.1155
-87.104
-87.0902
-87.0737
-87.0539
-87.0301
-87.0013
-86.9666
-86.9246
-86.8737
-86.8114
-86.7346
-86.6415
-86.5207
-86.1955
-87.0344
-87.0342
-87.0327
-87.0306
-87.0274
-87.0232
-87.018
-87.0115
-87.0037
-86.9944
-86.9831
-86.9697
-86.9536
-86.9344
-86.9112
-86.8834
-86.8498
-86.8095
-86.761
-86.7028
-86.6324
-86.5456
-86.4375
-86.4096
-86.9119
-86.9118
-86.9103
-86.9083
-86.9053
-86.9012
-86.8961
-86.8898
-86.8822
-86.8731
-86.8622
-86.8492
-86.8336
-86.8149
-86.7925
-86.7655
-86.733
-86.6938
-86.6466
-86.5892
-86.5187
-86.4327
-86.3214
-86.0541
-86.7903
-86.79
-86.7884
-86.7862
-86.7832
-86.7791
-86.774
-86.7679
-86.7605
-86.7516
-86.741
-86.7284
-86.7134
-86.6955
-86.674
-86.6482
-86.6173
-86.5802
-86.5361
-86.4836
-86.421
-86.3452
-86.2591
-86.2486
-86.6663
-86.6661
-86.6645
-86.6625
-86.6596
-86.6557
-86.6508
-86.6449
-86.6377
-86.6292
-86.619
-86.6069
-86.5925
-86.5752
-86.5545
-86.5297
-86.4999
-86.4642
-86.4214
-86.3703
-86.3085
-86.2323
-86.139
-86.038
-86.5417
-86.5415
-86.54
-86.5381
-86.5352
-86.5314
-86.5267
-86.521
-86.5141
-86.5059
-86.4961
-86.4845
-86.4706
-86.454
-86.4342
-86.4104
-86.3817
-86.3473
-86.3061
-86.2566
-86.1967
-86.1227
-86.0287
-85.8884
-86.4157
-86.4156
-86.4141
-86.4122
-86.4094
-86.4058
-86.4012
-86.3957
-86.3891
-86.3813
-86.3719
-86.3608
-86.3475
-86.3317
-86.3127
-86.2898
-86.2624
-86.2293
-86.1897
-86.1421
-86.0848
-86.0134
-85.9219
-85.8628
-86.2881
-86.2879
-86.2865
-86.2847
-86.282
-86.2785
-86.2742
-86.269
-86.2627
-86.2551
-86.2462
-86.2356
-86.223
-86.2079
-86.1898
-86.1681
-86.1418
-86.1101
-86.0718
-86.0252
-85.9682
-85.8993
-85.8092
-85.5767
-86.1586
-86.1584
-86.1571
-86.1555
-86.153
-86.1496
-86.1455
-86.1405
-86.1345
-86.1273
-86.1188
-86.1087
-86.0968
-86.0825
-86.0654
-86.045
-86.0204
-85.991
-85.9557
-85.9138
-85.8642
-85.8048
-85.7384
-85.7463
-86.0284
-86.0281
-86.0267
-86.0249
-86.0224
-86.0191
-86.015
-86.0101
-86.0043
-85.9974
-85.9893
-85.9796
-85.9682
-85.9546
-85.9385
-85.9191
-85.8958
-85.8679
-85.8345
-85.7944
-85.7459
-85.6852
-85.6068
-85.5275
-85.8945
-85.8943
-85.893
-85.8914
-85.8889
-85.8858
-85.8819
-85.8772
-85.8716
-85.8649
-85.8571
-85.8479
-85.837
-85.824
-85.8087
-85.7903
-85.7684
-85.7422
-85.711
-85.674
-85.6302
-85.5789
-85.5203
-85.4595
-85.7589
-85.7586
-85.7572
-85.7554
-85.753
-85.7499
-85.7461
-85.7416
-85.7362
-85.7298
-85.7223
-85.7134
-85.7029
-85.6904
-85.6756
-85.6579
-85.6367
-85.6113
-85.5809
-85.5443
-85.5002
-85.4474
-85.3866
-85.2861
-85.6187
-85.6186
-85.6176
-85.6162
-85.614
-85.6111
-85.6076
-85.6032
-85.598
-85.5919
-85.5846
-85.576
-85.5657
-85.5536
-85.5392
-85.522
-85.5015
-85.4768
-85.4473
-85.4119
-85.3692
-85.3173
-85.2537
-85.1666
-85.4799
-85.4795
-85.478
-85.4762
-85.4739
-85.4708
-85.4671
-85.4628
-85.4576
-85.4516
-85.4444
-85.436
-85.4261
-85.4142
-85.4002
-85.3833
-85.3631
-85.3389
-85.3098
-85.2749
-85.2325
-85.1803
-85.1135
-85.0281
-85.334
-85.3338
-85.3327
-85.3313
-85.3292
-85.3264
-85.323
-85.3189
-85.314
-85.3082
-85.3014
-85.2932
-85.2835
-85.2719
-85.2581
-85.2416
-85.2218
-85.1978
-85.169
-85.1344
-85.0926
-85.0418
-84.9803
-84.9006
-85.1881
-85.188
-85.1869
-85.1854
-85.1834
-85.1806
-85.1773
-85.1733
-85.1685
-85.1628
-85.156
-85.1481
-85.1386
-85.1274
-85.1139
-85.0976
-85.0781
-85.0544
-85.0258
-84.9907
-84.9473
-84.8925
-84.8231
-84.7197
-85.0403
-85.0399
-85.0386
-85.0371
-85.035
-85.0322
-85.0289
-85.025
-85.0203
-85.0148
-85.0083
-85.0006
-84.9915
-84.9806
-84.9675
-84.9519
-84.933
-84.9101
-84.8823
-84.8487
-84.808
-84.7581
-84.6958
-84.6077
-84.8879
-84.8879
-84.8868
-84.8855
-84.8836
-84.8811
-84.878
-84.8742
-84.8698
-84.8644
-84.8582
-84.8508
-84.842
-84.8315
-84.8189
-84.8038
-84.7857
-84.7638
-84.7373
-84.7053
-84.6665
-84.6196
-84.5665
-84.4918
-84.7364
-84.736
-84.7346
-84.733
-84.7308
-84.7281
-84.7249
-84.7212
-84.7168
-84.7116
-84.7056
-84.6984
-84.69
-84.68
-84.668
-84.6536
-84.6363
-84.6155
-84.5904
-84.5601
-84.5235
-84.4799
-84.4307
-84.363
-84.5775
-84.5773
-84.5762
-84.5749
-84.5731
-84.5707
-84.5678
-84.5644
-84.5603
-84.5555
-84.5498
-84.543
-84.535
-84.5255
-84.5141
-84.5004
-84.4839
-84.464
-84.4399
-84.4107
-84.3754
-84.3327
-84.2819
-84.2051
-84.4171
-84.4172
-84.4164
-84.4153
-84.4136
-84.4114
-84.4087
-84.4055
-84.4016
-84.397
-84.3915
-84.3851
-84.3775
-84.3684
-84.3575
-84.3445
-84.3288
-84.3099
-84.287
-84.2592
-84.2249
-84.1818
-84.1263
-84.046
-84.2572
-84.2567
-84.2554
-84.2541
-84.2522
-84.2499
-84.2472
-84.2439
-84.2401
-84.2356
-84.2304
-84.2242
-84.2169
-84.2082
-84.1979
-84.1856
-84.1708
-84.1531
-84.1317
-84.1062
-84.0759
-84.0393
-83.9943
-83.9506
-84.0904
-84.0904
-84.0894
-84.0883
-84.0867
-84.0846
-84.082
-84.079
-84.0753
-84.071
-84.066
-84.0601
-84.053
-84.0447
-84.0348
-84.023
-84.0088
-83.9919
-83.9717
-83.9474
-83.9183
-83.884
-83.848
-83.7858
-83.9238
-83.9235
-83.9222
-83.9209
-83.9191
-83.9169
-83.9143
-83.9112
-83.9077
-83.9035
-83.8986
-83.8929
-83.8861
-83.878
-83.8684
-83.8569
-83.8431
-83.8267
-83.8071
-83.7837
-83.7556
-83.7218
-83.6842
-83.6446
-83.7505
-83.7505
-83.7496
-83.7487
-83.7472
-83.7453
-83.7429
-83.74
-83.7366
-83.7326
-83.7279
-83.7223
-83.7156
-83.7076
-83.6982
-83.6869
-83.6734
-83.6572
-83.6378
-83.6146
-83.5866
-83.5526
-83.509
-83.4364
-83.5789
-83.5785
-83.5773
-83.576
-83.5743
-83.5721
-83.5696
-83.5666
-83.5632
-83.5592
-83.5545
-83.549
-83.5424
-83.5346
-83.5252
-83.514
-83.5005
-83.4844
-83.4651
-83.4421
-83.4143
-83.3806
-83.338
-83.2782
-83.4007
-83.4004
-83.3993
-83.3981
-83.3966
-83.3946
-83.3923
-83.3895
-83.3862
-83.3824
-83.3779
-83.3724
-83.3659
-83.3582
-83.3489
-83.3377
-83.3243
-83.3082
-83.2889
-83.2658
-83.2381
-83.205
-83.1668
-83.1175
-83.2199
-83.22
-83.2191
-83.2181
-83.2167
-83.2149
-83.2127
-83.21
-83.2068
-83.2031
-83.1986
-83.1933
-83.1869
-83.1792
-83.17
-83.1588
-83.1454
-83.1292
-83.1097
-83.0862
-83.058
-83.0247
-82.9878
-82.9436
-83.0394
-83.039
-83.0378
-83.0365
-83.035
-83.033
-83.0307
-83.028
-83.0249
-83.0212
-83.0169
-83.0116
-83.0054
-82.9978
-82.9886
-82.9776
-82.9641
-82.9477
-82.9277
-82.9031
-82.8728
-82.8351
-82.7852
-82.673
-82.8527
-82.8527
-82.8518
-82.8509
-82.8496
-82.8479
-82.8458
-82.8433
-82.8403
-82.8367
-82.8325
-82.8275
-82.8214
-82.814
-82.8051
-82.7942
-82.7811
-82.7652
-82.7459
-82.7227
-82.6945
-82.6604
-82.6235
-82.6284
-82.6678
-82.6674
-82.6661
-82.6648
-82.6632
-82.6613
-82.659
-82.6565
-82.6535
-82.65
-82.6459
-82.641
-82.6351
-82.628
-82.6193
-82.6088
-82.596
-82.5804
-82.5615
-82.5383
-82.51
-82.478
-82.4446
-82.3403
-82.4752
-82.4751
-82.4742
-82.4732
-82.472
-82.4704
-82.4684
-82.4662
-82.4635
-82.4603
-82.4564
-82.4518
-82.4462
-82.4393
-82.431
-82.4209
-82.4086
-82.3936
-82.3753
-82.3533
-82.3267
-82.2951
-82.2551
-82.2063
-82.2827
-82.2827
-82.2818
-82.2808
-82.2796
-82.278
-82.2761
-82.2739
-82.2714
-82.2683
-82.2646
-82.2602
-82.2548
-82.2483
-82.2404
-82.2306
-82.2188
-82.2044
-82.187
-82.1657
-82.1398
-82.1075
-82.0622
-81.9899
-82.0882
-82.0878
-82.0867
-82.0856
-82.0843
-82.0827
-82.0809
-82.0788
-82.0763
-82.0735
-82.07
-82.0658
-82.0608
-82.0546
-82.047
-82.0378
-82.0266
-82.0129
-81.9963
-81.9765
-81.953
-81.9254
-81.8996
-81.902
-81.8883
-81.8883
-81.8875
-81.8866
-81.8855
-81.8842
-81.8825
-81.8806
-81.8784
-81.8757
-81.8725
-81.8686
-81.8638
-81.858
-81.8508
-81.8419
-81.8311
-81.8178
-81.8017
-81.7822
-81.7581
-81.7289
-81.6972
-81.647
-81.6885
-81.6881
-81.6869
-81.6858
-81.6846
-81.6831
-81.6815
-81.6797
-81.6776
-81.6751
-81.6721
-81.6685
-81.664
-81.6585
-81.6517
-81.6433
-81.6329
-81.6203
-81.6049
-81.5863
-81.5642
-81.538
-81.5075
-81.4859
-81.4815
-81.4814
-81.4806
-81.48
-81.4791
-81.478
-81.4766
-81.4751
-81.4732
-81.471
-81.4684
-81.465
-81.4609
-81.4558
-81.4494
-81.4414
-81.4314
-81.419
-81.4036
-81.3845
-81.3605
-81.3314
-81.2994
-81.2362
-81.2758
-81.2754
-81.2743
-81.2732
-81.2721
-81.2708
-81.2695
-81.2679
-81.2662
-81.2641
-81.2617
-81.2587
-81.2549
-81.2502
-81.2443
-81.2368
-81.2274
-81.2157
-81.2009
-81.1823
-81.1587
-81.1287
-81.0919
-81.0266
-81.0625
-81.0622
-81.0612
-81.0604
-81.0595
-81.0585
-81.0574
-81.0562
-81.0547
-81.0531
-81.0511
-81.0485
-81.0453
-81.0412
-81.036
-81.0293
-81.0208
-81.0102
-80.9969
-80.9804
-80.9601
-80.9341
-80.8974
-80.8637
-80.8451
-80.8452
-80.8445
-80.844
-80.8433
-80.8426
-80.8417
-80.8408
-80.8397
-80.8384
-80.8368
-80.8347
-80.832
-80.8285
-80.824
-80.8182
-80.8108
-80.8014
-80.7896
-80.775
-80.757
-80.734
-80.7041
-80.6901
-80.6269
-80.6265
-80.6255
-80.6246
-80.6239
-80.6231
-80.6223
-80.6215
-80.6207
-80.6197
-80.6185
-80.6169
-80.6148
-80.6119
-80.6082
-80.6032
-80.5967
-80.5885
-80.5778
-80.5644
-80.5472
-80.5258
-80.5019
-80.4408
-80.3999
-80.3998
-80.3992
-80.3989
-80.3984
-80.398
-80.3976
-80.3972
-80.3967
-80.3961
-80.3953
-80.3943
-80.3927
-80.3906
-80.3876
-80.3836
-80.3784
-80.3715
-80.3627
-80.3519
-80.3387
-80.323
-80.3042
-80.2889
-80.1725
-80.1721
-80.171
-80.1703
-80.1697
-80.1691
-80.1687
-80.1684
-80.1681
-80.1678
-80.1675
-80.1669
-80.1659
-80.1645
-80.1623
-80.1591
-80.1548
-80.149
-80.1415
-80.1318
-80.1194
-80.1029
-80.0779
-80.0509
-79.9343
-79.9342
-79.9336
-79.9333
-79.9331
-79.933
-79.9331
-79.9332
-79.9334
-79.9337
-79.9339
-79.9339
-79.9336
-79.9328
-79.9314
-79.9291
-79.9258
-79.9212
-79.9149
-79.9067
-79.8964
-79.883
-79.8638
-79.8398
-79.6935
-79.6934
-79.6929
-79.6926
-79.6925
-79.6926
-79.6928
-79.6932
-79.6937
-79.6943
-79.6949
-79.6954
-79.6957
-79.6956
-79.695
-79.6936
-79.6912
-79.6876
-79.6826
-79.6757
-79.6662
-79.6538
-79.6391
-79.6105
-79.4476
-79.4472
-79.4463
-79.4459
-79.4458
-79.4459
-79.4462
-79.4469
-79.4477
-79.4487
-79.4498
-79.4509
-79.4518
-79.4524
-79.4526
-79.4522
-79.4508
-79.4483
-79.4445
-79.4393
-79.4328
-79.4251
-79.4168
-79.4154
-79.1918
-79.1917
-79.1913
-79.1913
-79.1916
-79.192
-79.1928
-79.1939
-79.1952
-79.1966
-79.1983
-79.1999
-79.2015
-79.2029
-79.2038
-79.2042
-79.2037
-79.2021
-79.1992
-79.1946
-79.1879
-79.1777
-79.1596
-79.1312
-78.9332
-78.9328
-78.9321
-78.9318
-78.932
-78.9324
-78.9333
-78.9346
-78.9362
-78.9381
-78.9403
-78.9426
-78.9449
-78.947
-78.9488
-78.9502
-78.9506
-78.9501
-78.9483
-78.9448
-78.9394
-78.9306
-78.9137
-78.9117
-78.663
-78.663
-78.6627
-78.6629
-78.6634
-78.6644
-78.6657
-78.6674
-78.6696
-78.6721
-78.6749
-78.6779
-78.681
-78.6841
-78.6869
-78.6893
-78.691
-78.6916
-78.6908
-78.6881
-78.6827
-78.6736
-78.6597
-78.6274
-78.3891
-78.3886
-78.3878
-78.3877
-78.3882
-78.3892
-78.3908
-78.3929
-78.3955
-78.3986
-78.4021
-78.406
-78.41
-78.4142
-78.4183
-78.422
-78.4252
-78.4275
-78.4287
-78.4283
-78.426
-78.4219
-78.4153
-78.3958
-78.1005
-78.1007
-78.1011
-78.1019
-78.1032
-78.105
-78.1072
-78.11
-78.1133
-78.1171
-78.1214
-78.1262
-78.1313
-78.1366
-78.142
-78.1474
-78.1523
-78.1565
-78.1596
-78.1612
-78.1606
-78.1565
-78.1477
-78.138
-77.8157
-77.8148
-77.8137
-77.8134
-77.814
-77.8151
-77.8171
-77.8198
-77.8232
-77.8274
-77.8323
-77.8379
-77.8441
-77.8507
-77.8576
-77.8646
-77.8716
-77.8782
-77.8842
-77.8892
-77.8929
-77.8947
-77.8925
-77.8905
-77.5068
-77.5065
-77.5061
-77.5065
-77.5079
-77.51
-77.513
-77.5167
-77.5213
-77.5267
-77.5328
-77.5397
-77.5473
-77.5555
-77.5642
-77.5732
-77.5824
-77.5915
-77.6002
-77.6084
-77.6158
-77.6215
-77.6226
-77.6199
-77.1883
-77.1893
-77.1902
-77.1917
-77.1939
-77.1968
-77.2004
-77.2049
-77.2102
-77.2165
-77.2237
-77.2317
-77.2407
-77.2504
-77.2609
-77.272
-77.2835
-77.2953
-77.307
-77.3186
-77.3301
-77.3409
-77.3464
-77.3698
-76.8717
-76.8705
-76.8698
-76.8702
-76.8719
-76.8745
-76.8782
-76.883
-76.8888
-76.8958
-76.9039
-76.9132
-76.9235
-76.9349
-76.9473
-76.9605
-76.9744
-76.9888
-77.0033
-77.0174
-77.0306
-77.0419
-77.0436
-76.9712
-76.5284
-76.529
-76.5299
-76.5315
-76.5342
-76.5377
-76.5423
-76.548
-76.5548
-76.5629
-76.5722
-76.5828
-76.5947
-76.6079
-76.6224
-76.6381
-76.6548
-76.6725
-76.691
-76.7101
-76.7294
-76.7479
-76.7652
-76.8547
-76.1863
-76.1853
-76.1849
-76.1858
-76.1879
-76.1912
-76.1958
-76.2017
-76.209
-76.2178
-76.2281
-76.2399
-76.2534
-76.2685
-76.2852
-76.3034
-76.3231
-76.3443
-76.3667
-76.3901
-76.4141
-76.4396
-76.4645
-76.4215
-75.8173
-75.8167
-75.817
-75.8187
-75.8216
-75.8259
-75.8317
-75.8388
-75.8474
-75.8576
-75.8694
-75.883
-75.8983
-75.9154
-75.9345
-75.9555