/*--------------------------------*- C++ -*----------------------------------*\
| =========                 |                                                 |
| \\      /  F ield         | OpenFOAM: The Open Source CFD Toolbox           |
|  \\    /   O peration     | Version:  2.3.0                                 |
|   \\  /    A nd           | Web:      www.OpenFOAM.org                      |
|    \\/     M anipulation  |                                                 |
\*---------------------------------------------------------------------------*/
FoamFile
{
    version     2.0;
    format      ascii;
    class       volVectorField;
    location    "9000";
    object      U;
}
// * * * * * * * * * * * * * * * * * * * * * * * * * * * * * * * * * * * * * //

dimensions      [0 1 -1 0 0 0 0];

internalField   nonuniform List<vector> 
14769
(
(21.7499 9.56486 4.43985e-21)
(21.5844 9.94866 -4.98604e-20)
(21.4151 10.3404 0)
(21.2361 10.7429 0)
(21.0461 11.1574 1.97556e-20)
(20.8431 11.5825 -2.10714e-20)
(20.6232 12.0149 5.44003e-20)
(20.3807 12.4492 -1.55723e-20)
(20.1079 12.8785 -7.42527e-20)
(19.795 13.2955 6.09854e-20)
(19.4307 13.6934 -9.81593e-20)
(19.0032 14.0674 2.68313e-20)
(18.5007 14.4144 4.62355e-20)
(17.9123 14.7335 -3.16465e-20)
(17.2276 15.026 0)
(16.4372 15.2944 0)
(15.533 15.5422 2.55032e-20)
(14.5094 15.7746 2.41061e-19)
(13.3601 15.9907 1.78087e-19)
(12.078 16.1788 -3.81427e-19)
(10.6597 16.3201 0)
(9.13897 16.4569 0)
(7.58224 16.6873 5.56304e-19)
(5.98113 16.8058 -5.2595e-19)
(21.3972 9.42397 -6.70608e-20)
(21.2171 9.74605 5.37166e-20)
(21.0295 10.0707 0)
(20.8281 10.3972 -2.37807e-19)
(20.6108 10.7273 8.93096e-20)
(20.3756 11.0616 2.30246e-19)
(20.1207 11.4004 -2.1066e-19)
(19.8443 11.7439 -2.71041e-19)
(19.5443 12.0911 2.74756e-19)
(19.2184 12.4406 -5.43027e-20)
(18.864 12.7892 -8.05039e-20)
(18.4786 13.1325 4.93148e-19)
(18.0597 13.4645 -4.9087e-19)
(17.6052 13.7781 -6.21054e-19)
(17.1133 14.0646 6.79001e-19)
(16.583 14.3142 -8.75025e-19)
(16.0145 14.5158 8.85319e-19)
(15.4092 14.6577 -1.22591e-18)
(14.7702 14.727 1.21121e-18)
(14.1024 14.7099 4.87506e-20)
(13.416 14.5914 0)
(12.7262 14.36 -6.15867e-20)
(12.0429 14.0078 6.82192e-20)
(11.3599 13.5319 -2.81519e-20)
(21.0975 9.26541 -1.81227e-19)
(20.9127 9.53596 8.15701e-20)
(20.7193 9.80723 9.01584e-20)
(20.5138 10.0762 6.2613e-20)
(20.2946 10.3435 4.30515e-19)
(20.06 10.6082 -4.20388e-19)
(19.8084 10.8695 3.67851e-19)
(19.5378 11.126 3.76827e-20)
(19.246 11.3764 -5.42143e-19)
(18.9312 11.619 5.34075e-20)
(18.5912 11.8517 5.95781e-20)
(18.2242 12.0717 -3.34377e-20)
(17.8289 12.2761 3.77528e-20)
(17.4044 12.4609 0)
(16.9505 12.6218 9.5573e-19)
(16.4685 12.7542 -9.51546e-19)
(15.9603 12.8525 6.60772e-19)
(15.4298 12.9111 -1.2382e-18)
(14.8822 12.9244 6.54209e-19)
(14.3252 12.8868 5.52487e-20)
(13.7688 12.794 -8.72148e-19)
(13.2256 12.6428 1.94286e-18)
(12.7097 12.4319 -1.01326e-18)
(12.2364 12.1611 -1.10547e-18)
(20.8556 9.10406 1.09278e-19)
(20.6707 9.3281 -2.01647e-19)
(20.4789 9.55231 3.28017e-19)
(20.2775 9.77422 1.48957e-20)
(20.065 9.99307 -2.98456e-19)
(19.8403 10.2081 3.23004e-19)
(19.6022 10.4184 -2.06592e-19)
(19.3498 10.6227 0)
(19.082 10.8198 4.07663e-19)
(18.7979 11.008 -7.03723e-19)
(18.4965 11.1853 3.67983e-19)
(18.1771 11.3493 0)
(17.8393 11.4972 0)
(17.4828 11.6259 5.25405e-19)
(17.108 11.7318 -5.93719e-19)
(16.716 11.811 0)
(16.3085 11.8596 -7.6509e-20)
(15.8883 11.8735 0)
(15.4594 11.8489 -1.01401e-19)
(15.0271 11.7825 -1.01482e-18)
(14.5977 11.6723 1.03741e-18)
(14.1787 11.5175 -6.08628e-20)
(13.7783 11.3193 1.35421e-19)
(13.4049 11.0812 0)
(20.6523 8.93051 2.03076e-20)
(20.474 9.12401 0)
(20.2892 9.31156 4.05298e-19)
(20.0964 9.49582 -3.39876e-19)
(19.8943 9.6761 1.447e-19)
(19.682 9.85173 0)
(19.4584 10.0219 3.40373e-19)
(19.2226 10.1857 -3.41015e-19)
(18.9737 10.342 9.9485e-20)
(18.7109 10.4894 0)
(18.4336 10.6263 0)
(18.1414 10.7508 -3.63607e-19)
(17.834 10.8609 4.91109e-19)
(17.5118 10.9541 0)
(17.1753 11.0277 6.95889e-19)
(16.8258 11.0788 -6.26918e-19)
(16.4652 11.1043 -7.29484e-19)
(16.096 11.1014 7.39266e-19)
(15.7218 11.0673 9.59032e-19)
(15.3468 10.9998 -9.79678e-19)
(14.976 10.8976 8.71838e-19)
(14.6154 10.7605 -1.00059e-18)
(14.2709 10.5896 -1.53126e-21)
(13.9483 10.3877 1.45174e-19)
(20.4814 8.77222 -1.36603e-19)
(20.3143 8.93416 0)
(20.14 9.09134 -1.40211e-19)
(19.9581 9.24544 3.97914e-19)
(19.7684 9.39575 -7.43504e-19)
(19.5701 9.54161 3.41471e-19)
(19.3625 9.68235 0)
(19.1447 9.81702 4.05773e-19)
(18.9161 9.94469 -5.07156e-19)
(18.6761 10.0641 0)
(18.424 10.1738 0)
(18.1595 10.2722 -1.23399e-19)
(17.8826 10.3575 0)
(17.5933 10.4276 -4.61963e-19)
(17.2924 10.4805 -1.1772e-19)
(16.981 10.5137 -1.30636e-19)
(16.6607 10.5248 1.59094e-18)
(16.3336 10.5114 -8.84363e-19)
(16.0026 10.4714 -1.09176e-19)
(15.6711 10.4032 4.78672e-19)
(15.3432 10.3057 -1.00007e-18)
(15.0232 10.1789 5.1913e-19)
(14.7158 10.0237 2.97275e-19)
(14.4254 9.84209 -7.32209e-19)
(20.342 8.62393 2.22103e-19)
(20.1852 8.75925 -8.31273e-20)
(20.022 8.89212 -1.70791e-19)
(19.8513 9.02206 -8.41233e-21)
(19.6738 9.14882 2.7336e-19)
(19.4886 9.2716 9.93039e-20)
(19.2951 9.38983 -4.14737e-19)
(19.0925 9.50273 4.15678e-19)
(18.8804 9.60943 0)
(18.6583 9.70875 -1.22765e-19)
(18.4255 9.7994 1.30337e-19)
(18.1818 9.88 6.98232e-19)
(17.927 9.94878 -5.6624e-19)
(17.6612 10.0041 -1.5306e-19)
(17.385 10.044 1.69493e-19)
(17.0996 10.0666 8.87497e-20)
(16.8065 10.0698 3.99234e-19)
(16.5078 10.0514 1.25812e-19)
(16.2057 10.0096 -3.22643e-19)
(15.903 9.94315 -5.64944e-22)
(15.6036 9.85111 -1.27175e-19)
(15.3108 9.73322 0)
(15.0287 9.59023 1.43463e-19)
(14.7606 9.42361 0)
(20.2291 8.48826 1.36152e-21)
(20.0817 8.60037 2.61344e-19)
(19.929 8.71355 -8.36316e-20)
(19.7689 8.82412 -9.71272e-20)
(19.6028 8.93229 -9.51938e-20)
(19.4297 9.03706 -9.96933e-20)
(19.2489 9.13805 0)
(19.0597 9.23435 3.47588e-19)
(18.8613 9.32552 -2.3303e-19)
(18.6542 9.41016 1.2337e-19)
(18.4376 9.48702 4.80479e-21)
(18.2115 9.55466 -1.39581e-19)
(17.9757 9.61149 1.53241e-19)
(17.7296 9.65614 -1.63267e-19)
(17.4735 9.68699 -1.70682e-19)
(17.2082 9.70247 0)
(16.936 9.70076 3.07939e-19)
(16.6589 9.67941 -2.00233e-19)
(16.379 9.63647 4.63853e-19)
(16.0975 9.5718 -5.91949e-19)
(15.8189 9.48433 1.28275e-19)
(15.5459 9.37343 5.56555e-19)
(15.2824 9.23968 -5.62173e-19)
(15.0313 9.08421 1.57481e-19)
(20.1342 8.36154 -1.86205e-19)
(19.9956 8.4554 1.88539e-19)
(19.8544 8.55362 2.02675e-19)
(19.7045 8.64881 1.05335e-19)
(19.549 8.74234 -4.15947e-19)
(19.3865 8.83286 4.32912e-19)
(19.2167 8.92037 -3.3592e-19)
(19.0395 9.00315 -4.77385e-19)
(18.8524 9.082 2.42833e-19)
(18.6575 9.15585 1.36274e-19)
(18.4533 9.22338 -2.67892e-19)
(18.2409 9.28286 -1.46685e-19)
(18.0209 9.33146 -1.5361e-19)
(17.7907 9.3682 3.3031e-19)
(17.551 9.39137 3.60801e-19)
(17.3014 9.40136 -3.6637e-19)
(17.0447 9.39713 2.00789e-19)
(16.7832 9.37567 -2.12588e-19)
(16.5215 9.33141 2.28099e-19)
(16.2551 9.26779 2.41453e-19)
(15.9922 9.18391 2.62162e-19)
(15.7339 9.07876 -2.65241e-19)
(15.4843 8.95258 0)
(15.2459 8.80602 1.50202e-19)
(20.0409 8.24837 -2.9126e-22)
(19.9157 8.32674 -2.07636e-19)
(19.7922 8.41319 1.07898e-19)
(19.6539 8.49472 -1.05989e-19)
(19.5087 8.57608 2.25662e-19)
(19.3564 8.65421 -2.25183e-19)
(19.1955 8.73225 1.17429e-19)
(19.0333 8.80348 -1.31373e-19)
(18.859 8.8701 2.58738e-19)
(18.6788 8.9328 -1.43936e-19)
(18.4889 8.99119 1.36984e-19)
(18.2855 9.04714 2.93347e-19)
(18.0712 9.09355 0)
(17.8454 9.12829 -1.68376e-19)
(17.618 9.14554 1.81864e-19)
(17.3816 9.14874 -3.97741e-19)
(17.1388 9.14024 1.98636e-19)
(16.8898 9.12309 2.18301e-19)
(16.6396 9.08024 1.10356e-20)
(16.3797 9.01718 -2.36753e-19)
(16.1306 8.93532 0)
(15.8846 8.83416 -7.07691e-21)
(15.645 8.71432 2.82442e-19)
(15.4123 8.57551 3.07129e-19)
(4.34536 15.9849 -4.11232e-20)
(4.25084 14.5715 -8.61955e-20)
(4.4561 13.312 0)
(4.76624 12.2166 0)
(5.12389 11.2473 1.06377e-18)
(5.50566 10.3709 -5.06143e-19)
(5.91306 9.58022 -6.88617e-19)
(6.33986 8.86347 -1.43953e-19)
(6.77848 8.21242 1.17685e-19)
(7.22127 7.62022 -5.7626e-19)
(7.66146 7.08099 -4.1711e-20)
(8.09381 6.58988 0)
(8.51427 6.14257 -2.85984e-19)
(8.92025 5.73479 4.18922e-20)
(9.31047 5.36271 1.10927e-18)
(9.6848 5.02237 -1.08077e-18)
(10.0439 4.70996 5.37382e-19)
(10.3892 4.42161 -1.08066e-18)
(10.7221 4.15364 -1.00212e-18)
(11.0445 3.90278 -1.00707e-18)
(11.3577 3.6662 9.32703e-19)
(11.6634 3.44214 0)
(11.963 3.22964 -1.67999e-18)
(12.2566 3.02247 1.5545e-18)
(10.6884 12.9496 0)
(10.1597 12.2846 -9.09663e-20)
(9.78185 11.6029 0)
(9.52907 10.9324 9.42778e-19)
(9.37586 10.2859 -5.74053e-19)
(9.30183 9.66932 -8.857e-19)
(9.2914 9.08639 8.68595e-19)
(9.33275 8.53893 1.27691e-19)
(9.4165 8.02763 -2.58774e-19)
(9.53462 7.55183 -2.61811e-19)
(9.68032 7.1101 5.22111e-19)
(9.84817 6.70014 0)
(10.0334 6.31924 -2.5984e-19)
(10.2322 5.9643 0)
(10.4414 5.63229 0)
(10.6586 5.32027 2.24043e-20)
(10.8816 5.02557 4.79427e-19)
(11.1088 4.74596 0)
(11.3387 4.47963 3.38547e-20)
(11.5701 4.22527 2.30993e-19)
(11.8022 3.98198 -1.13962e-18)
(12.0344 3.74972 0)
(12.2667 3.52764 2.55156e-20)
(12.496 3.30609 -6.22641e-21)
(11.8177 11.8305 1.03791e-18)
(11.4609 11.4412 8.7658e-20)
(11.1671 11.0061 0)
(10.9363 10.5434 0)
(10.7649 10.0672 1.04593e-19)
(10.6481 9.58825 -3.09614e-19)
(10.5806 9.11429 -2.24671e-19)
(10.5568 8.65092 2.08662e-19)
(10.5712 8.20222 0)
(10.6184 7.77068 0)
(10.6932 7.35802 0)
(10.791 6.96486 0)
(10.9077 6.59138 4.50217e-19)
(11.0396 6.2371 -1.34341e-18)
(11.1836 5.90145 4.50405e-19)
(11.3372 5.58345 4.63695e-19)
(11.4982 5.28205 -4.60453e-19)
(11.665 4.99615 -2.22775e-19)
(11.8365 4.72458 1.12198e-18)
(12.0116 4.46614 -8.58083e-19)
(12.1898 4.2198 0)
(12.3707 3.98513 -8.26624e-19)
(12.5543 3.7602 8.03204e-19)
(12.7381 3.53222 1.49381e-18)
(13.0627 10.8069 -5.61405e-19)
(12.7529 10.4977 1.47989e-18)
(12.4791 10.1583 -1.39314e-18)
(12.2448 9.7972 1.08782e-18)
(12.0512 9.42246 -5.58024e-19)
(11.8976 9.04089 -1.9069e-19)
(11.782 8.65829 1.00619e-19)
(11.7017 8.27923 -1.05208e-19)
(11.6535 7.90735 -9.78381e-20)
(11.6343 7.54513 -1.03992e-19)
(11.6407 7.19446 0)
(11.6695 6.85638 0)
(11.7177 6.5315 0)
(11.7828 6.2199 4.32481e-19)
(11.8625 5.92136 0)
(11.9546 5.63544 0)
(12.0575 5.36152 -6.28637e-19)
(12.1695 5.09894 1.05691e-19)
(12.2893 4.84698 1.17897e-19)
(12.4159 4.60492 9.30399e-19)
(12.5482 4.37223 -1.02218e-19)
(12.6856 4.14892 -1.18761e-18)
(12.8279 3.93368 1.15647e-18)
(12.9731 3.71425 7.2924e-19)
(13.6503 10.1574 1.53001e-19)
(13.3771 9.89926 -4.4672e-21)
(13.1314 9.61607 0)
(12.9161 9.31357 5.34214e-19)
(12.7327 8.99751 -7.23501e-19)
(12.5814 8.67308 5.62534e-19)
(12.4614 8.34492 -2.8648e-19)
(12.3709 8.01695 9.64727e-20)
(12.3078 7.69231 4.96758e-19)
(12.2697 7.37336 1.01784e-19)
(12.2539 7.06197 -1.99301e-19)
(12.2579 6.75942 -3.97319e-19)
(12.2793 6.46655 -6.01061e-19)
(12.3159 6.18383 3.97726e-19)
(12.3659 5.91128 2.01841e-19)
(12.4274 5.64886 0)
(12.4989 5.39627 8.08645e-19)
(12.5792 5.15314 1.0066e-19)
(12.6669 4.91901 -1.00176e-19)
(12.7613 4.69331 0)
(12.8614 4.47567 3.88666e-19)
(12.9667 4.26631 7.80878e-19)
(13.0773 4.06407 -7.62258e-19)
(13.1913 3.85666 -7.24926e-19)
(14.1541 9.63635 4.83047e-19)
(13.9028 9.40743 -8.08474e-19)
(13.6737 9.15784 0)
(13.4693 8.89193 -3.23136e-21)
(13.2912 8.61419 1.83807e-19)
(13.1402 8.3288 1.88407e-19)
(13.0159 8.0394 -1.8275e-19)
(12.9173 7.74919 -3.02464e-21)
(12.8427 7.46088 -1.93086e-19)
(12.7902 7.17639 2.90349e-19)
(12.7575 6.89747 -2.86633e-19)
(12.7424 6.62551 3.92129e-19)
(12.7431 6.36141 5.92034e-19)
(12.7579 6.10556 -5.93138e-19)
(12.7852 5.85811 1.95043e-19)
(12.8233 5.6191 0)
(12.8711 5.38842 -5.89428e-19)
(12.9272 5.16575 2.9124e-19)
(12.9908 4.95075 2.92093e-19)
(13.0609 4.74287 -6.00611e-21)
(13.1364 4.54183 -5.74889e-19)
(13.2168 4.34817 1.88001e-19)
(13.3025 4.16075 0)
(13.3916 3.9672 6.92189e-19)
(14.5089 9.23514 0)
(14.2743 9.02604 -1.63634e-19)
(14.0585 8.79893 0)
(13.8641 8.55762 -1.77729e-19)
(13.6924 8.30603 0)
(13.5448 8.04778 9.30532e-20)
(13.4214 7.78569 9.65208e-20)
(13.3212 7.52249 0)
(13.2429 7.26045 3.7627e-19)
(13.1845 7.00125 2.80737e-19)
(13.1435 6.74646 6.70307e-19)
(13.1181 6.49784 -7.65354e-19)
(13.1072 6.25616 1.91696e-19)
(13.1093 6.02171 -3.76137e-19)
(13.1228 5.79457 -1.89615e-19)
(13.1462 5.57499 -3.7571e-19)
(13.1784 5.36299 -9.46976e-20)
(13.2184 5.1583 4.67699e-19)
(13.2653 4.9605 -3.79248e-19)
(13.3182 4.76898 -3.70355e-19)
(13.3756 4.58353 0)
(13.4371 4.40522 0)
(13.5039 4.23279 0)
(13.5723 4.05661 -3.3933e-19)
(14.7948 8.9085 -1.45343e-19)
(14.5732 8.71356 -1.57309e-19)
(14.3672 8.50229 0)
(14.1799 8.27865 0)
(14.0123 8.04639 3.54708e-19)
(13.8674 7.80851 9.18283e-20)
(13.7454 7.56683 -4.45541e-20)
(13.6449 7.32407 -4.44993e-20)
(13.565 7.0822 -5.4855e-20)
(13.5034 6.84245 1.34167e-19)
(13.4571 6.60646 -1.93816e-19)
(13.4242 6.3766 4.7092e-19)
(13.4055 6.15337 0)
(13.3988 5.93651 6.59722e-21)
(13.4028 5.72618 -3.6829e-19)
(13.4153 5.52319 7.40562e-19)
(13.4364 5.32743 9.23869e-20)
(13.4646 5.13862 -4.62631e-19)
(13.4996 4.95627 -5.72812e-21)
(13.5399 4.77946 3.73293e-19)
(13.5837 4.60807 -1.81187e-19)
(13.6304 4.44415 1.79601e-19)
(13.6844 4.28529 -2.60375e-21)
(13.7399 4.12503 6.78149e-19)
(15.021 8.64054 1.56888e-19)
(14.8099 8.45689 -3.29961e-19)
(14.6119 8.25583 6.64045e-19)
(14.4312 8.04596 3.43011e-19)
(14.2665 7.82803 -2.64401e-19)
(14.1244 7.60612 2.66383e-19)
(14.0048 7.37992 0)
(13.9042 7.15305 3.61303e-19)
(13.8244 6.92665 -3.68356e-19)
(13.7625 6.70242 -3.23245e-19)
(13.7127 6.48092 -4.15099e-19)
(13.6739 6.26626 0)
(13.6506 6.05817 3.62507e-19)
(13.6385 5.85548 3.67031e-19)
(13.6361 5.6588 7.25904e-19)
(13.6402 5.46975 -3.64433e-19)
(13.6537 5.28808 -3.57594e-19)
(13.6732 5.11291 0)
(13.7001 4.94424 0)
(13.7319 4.78035 0)
(13.7661 4.62167 0)
(13.8 4.47119 0)
(13.8448 4.32439 -4.35581e-21)
(13.8878 4.17725 6.87962e-19)
(15.1916 8.41902 -3.09455e-19)
(14.9931 8.2506 1.64651e-19)
(14.8021 8.05384 -5.01531e-19)
(14.6297 7.85777 -3.52431e-19)
(14.4702 7.64729 0)
(14.3336 7.43567 -3.58299e-19)
(14.2179 7.21908 3.50041e-19)
(14.1155 7.00652 -3.43327e-19)
(14.037 6.79419 3.37114e-19)
(13.9777 6.58569 0)
(13.9262 6.37401 3.51354e-19)
(13.8821 6.17095 9.02549e-20)
(13.8595 5.97484 -4.56878e-19)
(13.8441 5.78222 0)
(13.8381 5.59674 -4.41905e-21)
(13.8345 5.41895 8.95709e-20)
(13.8443 5.24981 6.29398e-19)
(13.8568 5.08523 0)
(13.8791 4.92884 2.81947e-21)
(13.9059 4.77606 -2.77351e-21)
(13.9347 4.63036 0)
(13.9544 4.49104 0)
(13.9886 4.34966 -3.483e-19)
(14.0248 4.20614 -3.56029e-21)
(-4.56535 -2.5249 1.95094e-21)
(-4.35231 -2.53917 4.09491e-19)
(-4.09388 -2.55528 0)
(-3.79899 -2.57005 -2.29994e-19)
(-3.47527 -2.58293 0)
(-3.12936 -2.5936 6.4792e-20)
(-2.76689 -2.60168 6.70526e-20)
(-2.39261 -2.6068 -2.81597e-19)
(-2.01041 -2.60863 -5.18944e-24)
(-1.62341 -2.60686 4.61689e-19)
(-1.23392 -2.60118 -1.70806e-19)
(-0.843606 -2.59116 8.46555e-20)
(-0.453273 -2.57598 -1.78836e-19)
(-0.0628568 -2.55439 8.7908e-20)
(0.32888 -2.52463 0)
(0.725282 -2.48432 1.05686e-19)
(1.13298 -2.43033 0)
(1.56491 -2.35877 -2.46722e-19)
(2.04589 -2.26536 1.40343e-19)
(2.62389 -2.1458 3.40928e-20)
(3.38719 -1.99992 -5.00328e-19)
(4.51208 -1.83566 1.99e-18)
(6.38211 -1.69121 -3.07653e-18)
(9.88621 -1.84792 1.81212e-18)
(-4.52979 -2.50973 -5.06919e-22)
(-4.32182 -2.51373 4.00196e-19)
(-4.07689 -2.51997 1.05248e-19)
(-3.80042 -2.52494 1.11053e-19)
(-3.49769 -2.52837 3.63815e-21)
(-3.17301 -2.53007 2.37207e-19)
(-2.82995 -2.5296 -1.24817e-19)
(-2.47125 -2.52642 4.30951e-22)
(-2.0989 -2.51979 1.32227e-19)
(-1.71398 -2.50879 1.36731e-19)
(-1.31663 -2.49224 -1.77366e-22)
(-0.90591 -2.46873 3.93142e-22)
(-0.479095 -2.43653 0)
(-0.0318349 -2.39351 -7.83457e-20)
(0.442498 -2.33719 8.17274e-20)
(0.954301 -2.26468 -8.44517e-20)
(1.51932 -2.17309 -8.61291e-20)
(2.16256 -2.06 4.52899e-20)
(2.92421 -1.92495 -1.7938e-19)
(3.86857 -1.77264 1.49297e-19)
(5.09772 -1.61962 -4.29179e-19)
(6.77043 -1.50951 4.83932e-20)
(9.11951 -1.53609 3.98459e-19)
(12.4143 -1.87616 5.93562e-19)
(-4.47036 -2.46278 0)
(-4.26155 -2.45519 0)
(-4.02006 -2.45163 -4.06111e-19)
(-3.74926 -2.44613 0)
(-3.45286 -2.43838 0)
(-3.13367 -2.42803 -2.82377e-19)
(-2.79373 -2.41437 5.7859e-20)
(-2.4343 -2.39655 0)
(-2.0558 -2.37358 1.22249e-19)
(-1.65779 -2.34432 8.06442e-23)
(-1.23861 -2.30743 -1.28551e-19)
(-0.795347 -2.26141 -1.96307e-19)
(-0.32356 -2.20473 6.76038e-20)
(0.183579 -2.13575 -2.74507e-19)
(0.735757 -2.05291 7.06813e-20)
(1.34708 -1.95481 0)
(2.03779 -1.84083 1.45641e-19)
(2.83689 -1.71202 0)
(3.78592 -1.57317 1.8633e-19)
(4.94419 -1.43645 -1.19431e-19)
(6.39212 -1.32773 0)
(8.23269 -1.29539 0)
(10.5773 -1.42173 2.49826e-19)
(13.4793 -1.82302 -6.78204e-19)
(-4.39448 -2.39151 3.52945e-19)
(-4.18439 -2.37083 -9.15362e-20)
(-3.94611 -2.35576 2.90174e-19)
(-3.6806 -2.33789 0)
(-3.39007 -2.31715 0)
(-3.07578 -2.29326 1.04201e-19)
(-2.73842 -2.26556 -1.0641e-19)
(-2.37801 -2.23321 -5.49094e-20)
(-1.99372 -2.19526 5.70632e-20)
(-1.58387 -2.15076 -2.27398e-19)
(-1.14565 -2.09866 -1.16616e-19)
(-0.674766 -2.03775 2.4086e-19)
(-0.165285 -1.96678 1.21816e-19)
(0.390982 -1.88467 6.28066e-20)
(1.0052 -1.7907 -9.35474e-20)
(1.69249 -1.68496 3.25694e-20)
(2.47399 -1.56869 -1.31187e-19)
(3.37819 -1.44574 -6.48614e-20)
(4.44294 -1.32449 1.99447e-19)
(5.71828 -1.22062 -1.40697e-19)
(7.26627 -1.16168 0)
(9.15678 -1.19201 0)
(11.4504 -1.3764 0)
(14.1598 -1.79239 1.57272e-19)
(-4.30269 -2.30626 -1.67944e-19)
(-4.09195 -2.27517 1.76937e-19)
(-3.85584 -2.24991 -1.85014e-19)
(-3.59404 -2.22153 0)
(-3.30754 -2.19011 0)
(-2.99645 -2.15551 -9.93532e-20)
(-2.66024 -2.11704 2.08815e-21)
(-2.29806 -2.07387 5.12209e-20)
(-1.90834 -2.0252 -4.98552e-20)
(-1.48858 -1.97024 2.1286e-19)
(-1.03505 -1.90824 5.43524e-20)
(-0.542626 -1.83837 -1.10645e-19)
(-0.00451962 -1.75975 -1.14681e-19)
(0.588182 -1.67174 0)
(1.24718 -1.57431 5.98405e-20)
(1.98783 -1.46849 0)
(2.83071 -1.35707 3.22904e-20)
(3.80272 -1.24564 3.16669e-20)
(4.93806 -1.14421 0)
(6.27985 -1.06965 1.18954e-19)
(7.87823 -1.04866 -1.84443e-19)
(9.78601 -1.1205 -9.00585e-20)
(12.0437 -1.33791 2.3452e-19)
(14.6518 -1.75895 -2.13252e-19)
(-4.19961 -2.21394 1.57667e-19)
(-3.98954 -2.17645 8.51061e-20)
(-3.75607 -2.1428 -4.2812e-20)
(-3.49823 -2.10597 4.37956e-20)
(-3.21597 -2.06624 1.42787e-21)
(-2.90853 -2.0236 -2.47084e-20)
(-2.57423 -1.97745 1.19132e-19)
(-2.21151 -1.92674 9.51438e-20)
(-1.81832 -1.87066 1.96626e-19)
(-1.39181 -1.80875 -1.01784e-19)
(-0.927707 -1.74067 1.01659e-19)
(-0.419923 -1.66596 5.5372e-20)
(0.139127 -1.58402 -5.4124e-20)
(0.758741 -1.49443 0)
(1.45076 -1.39748 1.38051e-20)
(2.23031 -1.29475 4.16925e-20)
(3.11679 -1.18989 2.87124e-20)
(4.13541 -1.08939 3.0015e-20)
(5.31772 -1.00426 1.14611e-19)
(6.70206 -0.951818 -3.52235e-21)
(8.33169 -0.957442 -5.85941e-20)
(10.2496 -1.05634 9.96303e-20)
(12.4861 -1.29394 -5.98379e-20)
(15.0334 -1.71809 1.97797e-19)
(-4.09022 -2.11946 -2.36087e-19)
(-3.88164 -2.07901 -8.05085e-20)
(-3.65146 -2.03913 4.16635e-20)
(-3.39797 -1.99626 -1.27786e-19)
(-3.12045 -1.95046 0)
(-2.81753 -1.90206 0)
(-2.48599 -1.85075 -2.24433e-20)
(-2.12389 -1.79508 -1.59944e-19)
(-1.72881 -1.73421 -9.46112e-20)
(-1.29787 -1.66751 0)
(-0.826864 -1.5953 -1.47326e-19)
(-0.308945 -1.51793 5.14665e-20)
(0.264797 -1.4351 0)
(0.904023 -1.34636 0)
(1.62092 -1.25192 0)
(2.42978 -1.1534 -1.62615e-19)
(3.34887 -1.05503 -1.10656e-19)
(4.40173 -0.963833 -2.70868e-20)
(5.61734 -0.890962 -8.33031e-20)
(7.02995 -0.854448 -5.66316e-20)
(8.68048 -0.878917 0)
(10.6054 -0.996049 0)
(12.8281 -1.24636 -8.54063e-20)
(15.3339 -1.67153 9.15123e-20)
(-3.9769 -2.03041 -7.5813e-20)
(-3.77196 -1.9851 7.73202e-20)
(-3.54609 -1.94151 0)
(-3.29737 -1.89472 8.9989e-20)
(-3.0248 -1.84464 -1.15337e-20)
(-2.72766 -1.79186 1.30417e-21)
(-2.39983 -1.73727 0)
(-2.03919 -1.67864 2.40236e-20)
(-1.64305 -1.61498 -1.10248e-19)
(-1.20913 -1.54505 9.02075e-20)
(-0.734081 -1.46948 2.4764e-21)
(-0.210379 -1.39017 0)
(0.373038 -1.3076 2.43314e-20)
(1.02648 -1.22095 -2.52469e-20)
(1.76263 -1.13021 0)
(2.59438 -1.03631 1.05629e-19)
(3.53896 -0.94399 5.36036e-20)
(4.61904 -0.860424 1.05335e-19)
(5.86222 -0.796233 -5.15297e-20)
(7.29592 -0.770853 0)
(8.96594 -0.810158 1.00144e-19)
(10.9008 -0.941248 -3.99096e-20)
(13.1201 -1.20045 5.02309e-20)
(15.6001 -1.62635 3.71058e-20)
(-3.86713 -1.94766 0)
(-3.66425 -1.89836 0)
(-3.44306 -1.85166 -7.50427e-20)
(-3.19864 -1.8024 8.34961e-21)
(-2.93055 -1.74999 6.8323e-20)
(-2.64039 -1.69325 0)
(-2.31793 -1.63637 7.99874e-20)
(-1.96002 -1.57591 6.33527e-20)
(-1.56261 -1.51111 8.61875e-20)
(-1.12438 -1.43958 -6.65737e-20)
(-0.64574 -1.36143 2.02281e-19)
(-0.121056 -1.28004 -2.66509e-22)
(0.466092 -1.1976 -4.66582e-20)
(1.12869 -1.11278 1.22334e-20)
(1.88092 -1.02605 1.23062e-20)
(2.73314 -0.936454 0)
(3.69922 -0.85023 0)
(4.7993 -0.776195 -1.02964e-19)
(6.05633 -0.719433 7.87532e-20)
(7.48889 -0.702442 1.18624e-19)
(9.16417 -0.749891 -9.71388e-20)
(11.103 -0.890677 -4.55365e-20)
(13.3164 -1.15445 8.4503e-22)
(15.7603 -1.57269 4.52675e-20)
(-3.75388 -1.87159 1.03242e-19)
(-3.55527 -1.81943 -3.68471e-20)
(-3.34259 -1.77082 7.49274e-20)
(-3.11027 -1.7167 -1.61603e-19)
(-2.84448 -1.66636 -6.6582e-20)
(-2.55904 -1.60492 0)
(-2.23617 -1.54721 -7.83731e-20)
(-1.88682 -1.4854 -2.02395e-20)
(-1.49673 -1.41962 4.20526e-20)
(-1.05938 -1.34643 6.38625e-20)
(-0.575118 -1.26552 -6.72569e-20)
(-0.0391749 -1.18228 -2.26238e-20)
(0.557323 -1.10381 0)
(1.21855 -1.01954 -1.14206e-20)
(1.97811 -0.936784 1.18896e-20)
(2.83909 -0.847002 0)
(3.81746 -0.75868 -5.98478e-21)
(4.94852 -0.686838 6.22258e-21)
(6.28619 -0.651274 0)
(7.74521 -0.66919 -5.05029e-20)
(9.4944 -0.733258 1.9776e-20)
(11.4229 -0.887409 7.35041e-20)
(13.663 -1.1641 -1.09331e-19)
(16.1235 -1.59719 0)
(16.5229 -3.32937 0)
(20.1167 -4.60726 -1.83298e-18)
(21.4193 -5.0512 2.84201e-18)
(22.077 -5.22679 -1.05472e-18)
(22.5191 -5.32477 0)
(22.8244 -5.37925 -2.87447e-19)
(23.0331 -5.402 2.54207e-19)
(23.1684 -5.40089 -1.60718e-21)
(23.2458 -5.38092 0)
(23.2777 -5.34632 2.08463e-19)
(23.2749 -5.30041 -1.93598e-19)
(23.2467 -5.246 0)
(23.1996 -5.18527 0)
(23.1385 -5.1198 0)
(23.0669 -5.05059 0)
(22.9874 -4.97843 0)
(22.9017 -4.90379 6.7396e-20)
(22.8113 -4.82703 8.37826e-20)
(22.7169 -4.74841 -1.64781e-19)
(22.6194 -4.66798 0)
(22.5192 -4.58582 0)
(22.4166 -4.50262 7.60604e-19)
(22.3128 -4.41864 5.35485e-20)
(22.2103 -4.32431 -7.64008e-19)
(16.4644 -2.81782 -7.30291e-19)
(20.2233 -4.09731 5.22649e-19)
(21.9757 -4.7261 -4.94191e-19)
(22.6105 -4.90676 -2.52138e-20)
(22.9796 -4.99844 -1.27602e-20)
(23.2152 -5.05268 -2.7564e-19)
(23.3576 -5.07963 2.5684e-19)
(23.4318 -5.08546 -2.70414e-21)
(23.456 -5.07484 1.05082e-19)
(23.4444 -5.0514 -1.05232e-19)
(23.4077 -5.01826 0)
(23.3537 -4.97763 0)
(23.2875 -4.93122 3.92453e-19)
(23.2128 -4.88027 -3.2032e-19)
(23.1321 -4.82566 4.9205e-19)
(23.0468 -4.76798 -9.44217e-19)
(22.9582 -4.70768 3.78446e-19)
(22.867 -4.64512 7.41996e-20)
(22.7736 -4.58047 4.9996e-19)
(22.6785 -4.51383 -6.37132e-19)
(22.582 -4.44532 7.30451e-19)
(22.4842 -4.37554 -7.11544e-19)
(22.3855 -4.30363 1.90367e-19)
(22.2862 -4.22057 0)
(16.8178 -2.61309 8.81941e-19)
(20.2001 -3.7238 -4.20504e-19)
(22.2423 -4.4773 -2.59697e-19)
(22.9148 -4.69331 5.88064e-20)
(23.222 -4.77042 1.84728e-19)
(23.4027 -4.81317 5.45996e-20)
(23.4993 -4.83328 -5.0995e-20)
(23.5369 -4.83665 -9.7622e-20)
(23.5337 -4.82734 2.61329e-19)
(23.5026 -4.80847 -1.52275e-19)
(23.4527 -4.78229 1.77623e-20)
(23.3901 -4.75038 3.45408e-19)
(23.3187 -4.71379 -3.47797e-19)
(23.2413 -4.67342 -5.17793e-19)
(23.1597 -4.6298 3.85066e-19)
(23.0751 -4.5834 -6.14265e-19)
(22.9883 -4.53453 1.11957e-18)
(22.8998 -4.48344 -1.12304e-18)
(22.81 -4.43031 7.69682e-19)
(22.7193 -4.37525 0)
(22.6278 -4.31842 0)
(22.5354 -4.26049 0)
(22.4412 -4.20144 -1.98207e-19)
(22.3458 -4.13551 0)
(17.2086 -2.50387 -1.90406e-19)
(20.285 -3.47843 0)
(22.4177 -4.2695 -1.75831e-19)
(23.1517 -4.52994 2.04229e-19)
(23.405 -4.59599 -9.29905e-20)
(23.5355 -4.62855 7.39961e-20)
(23.5928 -4.64205 1.34937e-21)
(23.6013 -4.64213 7.24968e-20)
(23.5777 -4.6324 -6.3556e-20)
(23.5332 -4.61539 1.54998e-20)
(23.475 -4.59281 1.31621e-21)
(23.4077 -4.56579 2.14031e-20)
(23.3342 -4.53509 1.65384e-19)
(23.2565 -4.50133 -2.06625e-19)
(23.1759 -4.46493 1.22312e-19)
(23.0933 -4.42619 -6.63317e-20)
(23.0093 -4.38537 7.12633e-20)
(22.9242 -4.34262 -6.1965e-22)
(22.8383 -4.2981 0)
(22.7519 -4.25194 -2.68685e-19)
(22.6649 -4.20425 3.45943e-19)
(22.5771 -4.15537 0)
(22.4872 -4.10486 -4.07219e-19)
(22.3956 -4.04912 4.01829e-19)
(17.5362 -2.42747 1.47551e-19)
(20.4156 -3.3143 3.15961e-20)
(22.5351 -4.09508 -2.00865e-19)
(23.3233 -4.39029 5.79797e-20)
(23.5367 -4.44945 1.26728e-19)
(23.6268 -4.47402 0)
(23.6538 -4.48244 -4.01521e-20)
(23.6407 -4.48008 3.74668e-20)
(23.6024 -4.46993 0)
(23.5483 -4.45408 -1.63936e-19)
(23.4841 -4.43383 1.21047e-19)
(23.4134 -4.41007 2.01618e-19)
(23.3385 -4.38337 -1.94218e-19)
(23.2609 -4.35424 -2.45948e-19)
(23.1815 -4.32297 1.10437e-19)
(23.1011 -4.2898 -2.17497e-19)
(23.02 -4.25492 5.80067e-19)
(22.9385 -4.21849 -1.28354e-19)
(22.8566 -4.1806 -3.96172e-19)
(22.7746 -4.14136 -4.45452e-19)
(22.6922 -4.10091 3.51859e-19)
(22.6091 -4.05932 -5.85327e-19)
(22.5246 -4.01625 3.88974e-19)
(22.4388 -3.97151 2.14642e-19)
(17.8113 -2.36147 -1.35683e-19)
(20.5553 -3.19115 -1.51315e-21)
(22.6227 -3.947 0)
(23.4412 -4.26481 0)
(23.6237 -4.32102 6.72439e-21)
(23.6822 -4.33977 1.31757e-20)
(23.6867 -4.34477 -7.03941e-20)
(23.6583 -4.34086 -4.28183e-20)
(23.61 -4.33065 9.1581e-20)
(23.5495 -4.31578 1.88161e-20)
(23.4816 -4.29739 -1.89059e-19)
(23.4091 -4.2761 3.93569e-19)
(23.3338 -4.25247 -9.38743e-20)
(23.2569 -4.22686 0)
(23.1792 -4.19954 6.47285e-20)
(23.1011 -4.17066 2.94163e-19)
(23.023 -4.1404 -2.85748e-19)
(22.9449 -4.1089 1.58813e-19)
(22.867 -4.07624 8.3881e-20)
(22.7892 -4.04257 8.83347e-20)
(22.7113 -4.00803 0)
(22.6329 -3.97262 2.9353e-19)
(22.554 -3.93621 -2.02929e-19)
(22.4744 -3.90036 0)
(18.0377 -2.29737 -1.9739e-21)
(20.6819 -3.08693 -5.23166e-20)
(22.6894 -3.81617 -1.76709e-20)
(23.5196 -4.14782 0)
(23.6809 -4.20598 -1.52216e-20)
(23.7153 -4.22189 5.90733e-21)
(23.7033 -4.22516 0)
(23.664 -4.2206 0)
(23.6087 -4.21062 0)
(23.5439 -4.19673 -1.94676e-19)
(23.4737 -4.17984 1.19696e-19)
(23.4002 -4.16054 2.25629e-19)
(23.325 -4.13928 -3.32322e-19)
(23.2491 -4.11645 0)
(23.1731 -4.09222 2.85902e-19)
(23.0974 -4.06668 -2.77142e-19)
(23.022 -4.04001 -7.76539e-20)
(22.9472 -4.01235 -8.13299e-20)
(22.8729 -3.98377 8.61868e-20)
(22.7988 -3.9545 -6.36481e-23)
(22.7248 -3.92473 0)
(22.6509 -3.89443 2.04011e-19)
(22.5772 -3.86344 6.88278e-21)
(22.5033 -3.83411 3.31487e-19)
(18.2527 -2.24154 -3.1631e-20)
(20.8168 -3.00507 -4.95579e-20)
(22.7601 -3.71467 6.73374e-20)
(23.5795 -4.05226 2.79081e-20)
(23.7196 -4.10907 2.41117e-20)
(23.735 -4.12067 2.6601e-20)
(23.7105 -4.12182 -4.18832e-20)
(23.6629 -4.11641 -3.51961e-20)
(23.6022 -4.10649 9.67968e-20)
(23.5343 -4.09336 0)
(23.4624 -4.07766 9.84308e-20)
(23.3884 -4.05984 0)
(23.3134 -4.04043 1.88622e-19)
(23.2384 -4.01986 -2.62951e-19)
(23.1642 -3.99814 6.27371e-20)
(23.0908 -3.9752 -1.56568e-19)
(23.018 -3.95135 6.65165e-20)
(22.9463 -3.92672 1.6149e-19)
(22.8751 -3.90136 -8.80241e-20)
(22.8043 -3.87557 -9.26201e-20)
(22.7338 -3.84966 -9.71958e-20)
(22.6639 -3.82362 -1.02129e-19)
(22.5952 -3.79711 0)
(22.5269 -3.77236 -1.12851e-19)
(18.3651 -2.16847 -4.76575e-22)
(20.8575 -2.89739 5.57399e-20)
(22.7605 -3.59072 6.54932e-21)
(23.5966 -3.94585 -5.42982e-21)
(23.7417 -4.01627 -1.75847e-20)
(23.7468 -4.02959 3.11568e-20)
(23.7135 -4.03037 4.08048e-20)
(23.6601 -4.02477 -1.15635e-19)
(23.5956 -4.01527 2.96617e-20)
(23.5254 -4.0032 0)
(23.4529 -3.98876 -5.06952e-20)
(23.3786 -3.97209 0)
(23.3037 -3.95428 -6.418e-20)
(23.2295 -3.93593 0)
(23.1572 -3.91642 7.22366e-20)
(23.0856 -3.8954 0)
(23.0148 -3.87374 0)
(22.9455 -3.85144 0)
(22.8767 -3.82829 -2.76943e-19)
(22.8084 -3.80503 1.84086e-19)
(22.7407 -3.78217 -2.0421e-19)
(22.6744 -3.75993 5.20567e-19)
(22.611 -3.73745 -2.1275e-19)
(22.5481 -3.71669 1.14214e-19)
(18.7344 -2.20995 -7.41967e-20)
(21.1502 -2.93709 4.5783e-20)
(22.922 -3.61767 -1.66078e-20)
(23.6756 -3.93943 0)
(23.7694 -3.9665 3.77652e-22)
(23.755 -3.95841 0)
(23.7122 -3.95288 -5.69973e-20)
(23.6518 -3.94519 -1.01988e-20)
(23.5824 -3.93543 0)
(23.5092 -3.92417 1.03872e-19)
(23.436 -3.91021 -9.97261e-20)
(23.361 -3.89358 -6.11948e-20)
(23.2851 -3.877 6.473e-20)
(23.2113 -3.86078 7.14903e-20)
(23.1421 -3.84287 8.04132e-20)
(23.0724 -3.8227 -1.53409e-19)
(23.0033 -3.80287 -8.55019e-20)
(22.9378 -3.78263 9.42754e-20)
(22.8721 -3.76124 1.05171e-19)
(22.8066 -3.74045 -3.93016e-19)
(22.7416 -3.72036 1.98763e-19)
(22.6774 -3.70129 -1.05248e-19)
(22.6202 -3.68199 0)
(22.5608 -3.66477 -2.34426e-19)
(0.0480362 1.81152 -5.48276e-19)
(1.09117 2.06382 -2.10874e-17)
(2.68017 2.77683 2.89397e-19)
(4.38218 3.69834 4.24344e-18)
(6.09871 4.63364 0)
(7.80965 5.60421 -6.86813e-20)
(9.48351 6.61352 0)
(11.1184 7.61963 -4.72414e-20)
(12.6978 8.58593 7.92248e-20)
(14.1963 9.47774 0)
(15.5851 10.2664 -8.28284e-19)
(16.8394 10.9293 9.28731e-19)
(17.9399 11.4492 4.80908e-20)
(18.8752 11.8158 0)
(19.6447 12.0268 0)
(20.257 12.0881 -3.26388e-19)
(20.7298 12.0142 3.56683e-19)
(21.0872 11.8264 -1.68878e-19)
(21.3563 11.5503 -3.31317e-19)
(21.5632 11.2121 3.01759e-19)
(21.7301 10.8361 0)
(21.8731 10.4416 -1.66437e-19)
(22.0028 10.0421 4.89364e-20)
(22.1311 9.63664 0)
(-9.61985 2.33917 -3.65275e-19)
(-8.95336 2.2564 -5.20672e-19)
(-7.82046 2.19179 0)
(-6.4866 2.29622 -5.37599e-18)
(-4.92227 2.53254 8.17045e-18)
(-3.05505 2.87166 -3.0098e-18)
(-0.893691 3.31286 0)
(1.46836 3.87171 -2.21967e-18)
(3.96428 4.54843 1.80114e-18)
(6.51019 5.33342 -1.38465e-18)
(9.0187 6.20351 1.41473e-18)
(11.415 7.11811 -1.34305e-19)
(13.635 8.02716 -1.11452e-19)
(15.6249 8.87709 8.48119e-19)
(17.3454 9.61862 -7.8449e-19)
(18.774 10.2118 0)
(19.9082 10.6312 -6.75668e-19)
(20.7653 10.8679 1.11148e-18)
(21.3808 10.9306 -4.95625e-19)
(21.8023 10.8426 -1.25632e-19)
(22.0812 10.6365 0)
(22.2654 10.3472 3.83762e-19)
(22.3937 10.0078 -2.01006e-19)
(22.4974 9.62668 0)