/*--------------------------------*- C++ -*----------------------------------*\
| =========                 |                                                 |
| \\      /  F ield         | OpenFOAM: The Open Source CFD Toolbox           |
|  \\    /   O peration     | Version:  2.3.0                                 |
|   \\  /    A nd           | Web:      www.OpenFOAM.org                      |
|    \\/     M anipulation  |                                                 |
\*---------------------------------------------------------------------------*/
FoamFile
{
    version     2.0;
    format      ascii;
    class       surfaceScalarField;
    location    "9000";
    object      phi;
}
// * * * * * * * * * * * * * * * * * * * * * * * * * * * * * * * * * * * * * //

dimensions      [0 3 -1 0 0 0 0];

internalField   nonuniform List<scalar> 
13269
(
-0.0242675
-0.021249
0.024222
0.0212934
-0.0265219
-0.0173397
0.0195941
-0.0281005
-0.0141148
0.0156933
-0.0290157
-0.0114457
0.0123608
-0.029326
-0.00922939
0.00953975
-0.0291318
-0.00738919
0.00719497
-0.028551
-0.005874
0.00529321
-0.0277083
-0.00462894
0.00378627
-0.0267077
-0.00361538
0.00261477
-0.0256199
-0.00280476
0.001717
-0.0245553
-0.00216563
0.00110098
-0.00166093
-0.0237498
0.000855529
-0.0208271
-0.0190098
0.018588
-0.0224222
-0.0157445
-0.0234803
-0.0130567
-0.0240812
-0.0108447
-0.0242839
-0.00902667
-0.0241331
-0.00754003
-0.0236812
-0.00632586
-0.0229723
-0.00533784
-0.0220457
-0.0045419
-0.0209494
-0.0039011
-0.0197255
-0.00338949
-0.0029831
-0.0184033
-0.0181321
-0.0171993
0.0163217
-0.0193438
-0.0145328
-0.0200625
-0.012338
-0.0203783
-0.010529
-0.0203645
-0.00904041
-0.0200919
-0.00781258
-0.0196138
-0.00680397
-0.0189753
-0.0059764
-0.0182174
-0.00529972
-0.0173712
-0.00474735
-0.0164629
-0.0042978
-0.00393571
-0.0155103
-0.0158885
-0.015672
0.0143612
-0.0168965
-0.0135249
-0.017484
-0.0117504
-0.0177283
-0.0102847
-0.0176967
-0.00907205
-0.0174423
-0.00806693
-0.0170106
-0.00723572
-0.0164403
-0.00654663
-0.0157646
-0.00597546
-0.0150068
-0.00550518
-0.0141884
-0.00511619
-0.00479785
-0.0133262
-0.0139788
-0.0143584
0.0126653
-0.0148405
-0.0126632
-0.0153358
-0.0112551
-0.0155336
-0.0100869
-0.0154937
-0.00911196
-0.0152628
-0.00829783
-0.0148816
-0.00761692
-0.0143802
-0.00704802
-0.0137834
-0.00657224
-0.0131166
-0.00617196
-0.0123942
-0.00583867
-0.00556083
-0.0116312
-0.0123605
-0.0132035
0.0112056
-0.0131222
-0.0119015
-0.0135583
-0.010819
-0.013736
-0.00990916
-0.0137013
-0.0091466
-0.0134982
-0.00850097
-0.0131597
-0.00795544
-0.0127131
-0.00749455
-0.0121823
-0.00710307
-0.0115837
-0.00677061
-0.0109327
-0.0064896
-0.00625169
-0.0102419
-0.010979
-0.012173
0.00994848
-0.0116535
-0.011227
-0.0120458
-0.0104267
-0.0122065
-0.00974843
-0.0121837
-0.00916936
-0.0120043
-0.0086804
-0.0117044
-0.00825539
-0.011306
-0.00789296
-0.0108292
-0.00757986
-0.01029
-0.00730979
-0.00970261
-0.00707698
-0.00687823
-0.00907607
-0.00978503
-0.011255
0.00886699
-0.0103928
-0.0106192
-0.0107495
-0.01007
-0.0108981
-0.00959984
-0.010877
-0.00919043
-0.0107237
-0.00883369
-0.0104561
-0.00852302
-0.0100991
-0.00824995
-0.00966919
-0.00800977
-0.00918187
-0.00779711
-0.0086495
-0.00760936
-0.00744721
-0.00808052
-0.00874216
-0.010425
0.00791211
-0.00929511
-0.0100662
-0.00961874
-0.00974639
-0.00975803
-0.00946056
-0.00974347
-0.00920499
-0.00960484
-0.00897232
-0.00936706
-0.0087608
-0.00904897
-0.00856804
-0.00866235
-0.00839639
-0.00822119
-0.00823827
-0.00773553
-0.00809501
-0.00796393
-0.0072188
-0.00783045
-0.00967145
0.00707695
-0.00833489
-0.00956178
-0.00863033
-0.00945095
-0.00876005
-0.00933083
-0.00874903
-0.00921601
-0.00862712
-0.00909422
-0.00841494
-0.00897298
-0.00812551
-0.00885748
-0.00777816
-0.00874374
-0.00737807
-0.00863836
-0.00693745
-0.00853563
-0.00646735
-0.00843404
-0.0213074
-0.00149084
-0.000951599
-0.0192456
-0.00165731
-0.000404493
-0.0173152
-0.00192519
-5.22049e-06
-0.0154798
-0.002295
0.000459595
-0.0137445
-0.00278486
0.00104953
-0.0121408
-0.00342655
0.00182286
-0.010726
-0.00425016
0.0028354
-0.00957223
-0.00529922
0.00414541
-0.00875629
-0.00662517
0.00580924
-0.00835352
-0.00829354
0.00789077
-0.00843969
-0.0103859
0.010472
-0.0130117
0.0136592
-0.00908718
-0.0170225
-0.00287174
-0.0156508
-0.00302898
-0.0143224
-0.00325359
-0.0130568
-0.00356053
-0.0118763
-0.00396541
-0.0108077
-0.00449511
-0.0098821
-0.0051758
-0.00913527
-0.00604605
-0.0086109
-0.00714954
-0.0083667
-0.00853774
-0.00847657
-0.010276
-0.0124546
-0.0090337
-0.0145395
-0.00384248
-0.0135696
-0.0039989
-0.0126128
-0.00421035
-0.0116831
-0.00449026
-0.0107963
-0.00485223
-0.00997715
-0.00531424
-0.00925352
-0.00589942
-0.00866279
-0.00663677
-0.00825483
-0.0075575
-0.00808609
-0.00870648
-0.00822636
-0.0101357
-0.0119197
-0.0087612
-0.0124599
-0.00470887
-0.0116202
-0.00483858
-0.0108167
-0.00501385
-0.0100585
-0.00524843
-0.00935912
-0.0055516
-0.00873385
-0.0059395
-0.00820558
-0.00642768
-0.00780179
-0.00704057
-0.00755695
-0.00780234
-0.00751693
-0.0087465
-0.00773929
-0.00991337
-0.0113615
-0.00829754
-0.0108658
-0.0054743
-0.0101346
-0.00556977
-0.0094424
-0.00570602
-0.00880111
-0.00588971
-0.00821993
-0.00613279
-0.00771461
-0.00644482
-0.00730187
-0.00684043
-0.00700808
-0.00733436
-0.00686286
-0.00794755
-0.00690526
-0.0087041
-0.00718282
-0.0096358
-0.0107855
-0.00775882
-0.00954996
-0.00616622
-0.00889584
-0.00622388
-0.00828541
-0.00631645
-0.00772613
-0.00644899
-0.00722946
-0.00662946
-0.00680815
-0.00686613
-0.00647993
-0.00716864
-0.00626449
-0.00754979
-0.00618901
-0.00802303
-0.00628724
-0.00860587
-0.0066015
-0.00932155
-0.0102023
-0.00718467
-0.00845079
-0.0067915
-0.00786231
-0.00681236
-0.00731657
-0.00686219
-0.00682266
-0.0069429
-0.00639034
-0.00706179
-0.00603185
-0.00722462
-0.00576159
-0.0074389
-0.00560051
-0.00771087
-0.00557111
-0.00805243
-0.00570468
-0.0084723
-0.00603646
-0.00898976
-0.00962269
-0.0066161
-0.0075125
-0.00735952
-0.00697984
-0.00734502
-0.00649052
-0.0073515
-0.00605024
-0.00738319
-0.00566928
-0.00744275
-0.00535938
-0.00753451
-0.00513434
-0.00766394
-0.00501141
-0.0078338
-0.00501282
-0.00805102
-0.00516603
-0.0083191
-0.00550544
-0.00865035
-0.0090568
-0.00607133
-0.00670303
-0.00787529
-0.00622042
-0.00782763
-0.00577813
-0.00779379
-0.00538417
-0.00777715
-0.00504667
-0.00778025
-0.00477613
-0.00780504
-0.00458407
-0.007856
-0.00449045
-0.00792742
-0.00451088
-0.0080306
-0.00467504
-0.00815494
-0.00500934
-0.00831605
-0.00851317
-0.00555297
-0.00599801
-0.00834464
-0.00556117
-0.00826447
-0.00516143
-0.00819352
-0.00480682
-0.00813176
-0.00450508
-0.00808199
-0.00426855
-0.00804158
-0.00410344
-0.00802111
-0.0040309
-0.00799995
-0.00406358
-0.00799792
-0.00423016
-0.00798836
-0.00455489
-0.00799132
-0.00506972
-0.00799835
0.0045827
-0.00407149
0.00456473
-0.00507594
0.0042497
-0.00287334
0.00320633
0.004029
-0.00184122
0.00206192
0.00386465
-0.000996684
0.00116103
0.00369786
-0.00032283
0.000489618
0.00347309
0.000212872
1.18899e-05
0.00314015
0.000649147
-0.000316213
0.00265226
0.00102491
-0.000537022
0.00195747
0.00138238
-0.000687586
0.000990461
0.00176767
-0.000800659
-0.000348131
0.00223977
-0.000901179
0.00287758
-0.00223835
-0.000987355
0.00387518
-0.00355735
-0.00438933
0.00347813
-0.00247629
0.00317084
-0.00153393
0.00290549
-0.000731341
0.00263151
-4.88549e-05
0.00230056
0.000543821
0.00187087
0.00107883
0.00130423
0.00159155
0.000570605
0.002116
-0.000352946
0.00269122
-0.00145621
0.00334303
0.00407511
-0.00265374
0.00312643
-0.0030133
-0.00367048
0.00269601
-0.00204587
0.00234567
-0.0011836
0.00203473
-0.000420405
0.00172168
0.000264188
0.00136982
0.000895678
0.000946218
0.00150243
0.000423588
0.00211418
-0.000219177
0.00275876
-0.000989578
0.00346162
-0.00188103
0.00423448
0.00506108
-0.002867
0.00245116
-0.00248544
-0.00297903
0.00203051
-0.00162522
0.00168624
-0.000839332
0.00138313
-0.000117297
0.00108653
0.00056079
0.000764963
0.00121724
0.000390011
0.00187738
-6.14014e-05
0.00256559
-0.000609217
0.00330657
-0.00126611
0.00411851
-0.00203971
0.00500807
0.00595974
-0.00293838
0.0018903
-0.0020008
-0.00237495
0.00150553
-0.00124046
0.0011926
-0.000526405
0.000919929
0.000155373
0.000657173
0.000823543
0.000376197
0.00149822
5.16544e-05
0.00220192
-0.000338903
0.00295615
-0.000814911
0.00378258
-0.00139323
0.00469682
-0.00208955
0.00570439
0.0067829
-0.00291272
0.00144189
-0.00156791
-0.00187478
0.00110334
-0.000901907
0.000830475
-0.000253541
0.000593904
0.000391943
0.000366633
0.00105081
0.000122249
0.0017426
-0.000160715
0.00248488
-0.00050349
0.00329892
-0.000925431
0.00420452
-0.00144474
0.00521613
-0.00207785
0.0063375
0.00753995
-0.0028349
0.00108866
-0.00119257
-0.001464
0.000798515
-0.000611765
0.000565945
-2.09725e-05
0.00036426
0.000593626
0.000169457
0.00124561
-4.28697e-05
0.00195492
-0.000293107
0.00273512
-0.000599033
0.00360484
-0.000978455
0.00458394
-0.00144985
0.00568752
-0.00202816
0.00691581
0.00823396
-0.00272218
0.000810019
-0.000876647
-0.00112594
0.000566676
-0.000368423
0.000371873
0.00017383
0.000201688
0.00076381
3.66307e-05
0.00141067
-0.000149563
0.00214112
-0.000374745
0.0029603
-0.000651617
0.00388171
-0.000994575
0.00492689
-0.00142471
0.00611765
-0.00195347
0.00744457
0.00887277
-0.00259227
0.000591963
-0.00061032
-0.000858293
0.00038934
-0.000165801
0.00022822
0.000334948
8.53005e-05
0.000906729
-5.157e-05
0.00154754
-0.000214036
0.00230358
-0.000418759
0.00316502
-0.000671848
0.0041348
-0.000983188
0.00523823
-0.00137485
0.00650931
-0.00186045
0.00793016
0.00946001
-0.00244769
0.000424323
-0.000409352
-0.000625294
0.000254629
3.89145e-06
0.000120106
0.00046947
3.21992e-06
0.00102361
-0.000101441
0.0016522
-0.00024561
0.00244775
-0.000441882
0.00336129
-0.000671251
0.00436417
-0.000947449
0.00551443
-0.00130832
0.00687018
-0.0017559
0.00837774
-0.00229035
0.00999446
-0.00308001
0.00416792
-0.00332626
-0.0042886
0.00579456
-0.00458597
-0.00555058
0.00707506
-0.00581309
-0.00664137
0.00823772
-0.00714693
-0.00750816
0.0095357
-0.00866892
-0.0081
0.0110188
-0.010427
-0.0083693
0.0127454
-0.0124761
-0.00827434
0.0147803
-0.0148752
-0.00774734
0.0171809
-0.0177079
-0.00671809
0.0200222
-0.0210515
-0.00510029
0.0233841
-0.0250019
0.027369
-0.0296667
-0.00280253
-0.00368363
0.0051978
-0.00474699
0.00685792
-0.00586979
0.00819787
-0.00682705
0.00919497
-0.00755715
0.0102658
-0.00802951
0.0114912
-0.00821347
0.0129293
-0.00806108
0.0146279
-0.00751951
0.0166393
-0.00652175
0.0190244
-0.00499143
0.0218538
0.0252073
-0.0028298
-0.00389694
0.00622774
-0.00487668
0.00783765
-0.00584713
0.00916832
-0.0066884
0.0100362
-0.00732083
0.0108982
-0.00772637
0.0118967
-0.00786642
0.0130694
-0.00770234
0.0144638
-0.0071792
0.0161162
-0.00624434
0.0180896
-0.00481796
0.0204274
0.0232071
-0.00281773
-0.00390896
0.00719831
-0.00483288
0.00876156
-0.00569323
0.0100287
-0.00642876
0.0107718
-0.00698143
0.0114509
-0.00732878
0.0122441
-0.00744012
0.0131807
-0.00727448
0.0142981
-0.00678695
0.0156286
-0.00591859
0.0172212
-0.00460402
0.0191129
0.0213711
-0.00276799
-0.00381551
0.0081011
-0.00467469
0.00962073
-0.00544306
0.010797
-0.00609455
0.0114232
-0.00658236
0.0119387
-0.00688647
0.0125482
-0.00697794
0.0132722
-0.00681879
0.014139
-0.00636644
0.0151763
-0.00556763
0.0164224
-0.00436523
0.0179105
0.0196865
-0.00268064
-0.00366235
0.00892855
-0.0044503
0.0104087
-0.00514447
0.0114912
-0.0057218
0.0120006
-0.00615809
0.012375
-0.00642628
0.0128164
-0.00650334
0.0133492
-0.00635249
0.0139881
-0.00593726
0.014761
-0.00520593
0.0156911
-0.00410352
0.016808
0.0181472
-0.00256425
-0.00348003
0.00968639
-0.00420245
0.0111311
-0.00482387
0.0121126
-0.00533793
0.0125146
-0.00572528
0.0127623
-0.00596431
0.0130554
-0.00602886
0.0134138
-0.00589125
0.0138505
-0.00551115
0.0143809
-0.00484574
0.0150257
-0.00384097
0.0158033
0.0167426
-0.00243632
-0.00328344
0.0103776
-0.00393087
0.0117785
-0.00449151
0.0126733
-0.00495106
0.0129742
-0.00529804
0.0131093
-0.00551315
0.0132705
-0.00557221
0.0134728
-0.00544382
0.0137221
-0.00509795
0.0140351
-0.00449029
0.014418
-0.00357571
0.0148887
0.0154653
-0.00229843
-0.0030805
0.0110104
-0.00366747
0.0123655
-0.00417132
0.0131771
-0.00458062
0.0133835
-0.00489211
0.0134208
-0.0050837
0.0134621
-0.00513236
0.0135215
-0.0050166
0.0136064
-0.00470058
0.0137191
-0.00415109
0.0138685
-0.00332231
0.0140599
0.0143026
-0.00215965
-0.00285347
0.0115735
-0.00336439
0.0128764
-0.00382576
0.0136385
-0.00420963
0.0137674
-0.00449434
0.0137055
-0.0046718
0.0136395
-0.00471698
0.0135667
-0.00460896
0.0134983
-0.00432616
0.0134363
-0.00382578
0.0133682
-0.00307342
0.0133075
-0.00201952
0.0132487
0.00237281
-0.00151719
0.00460863
-0.00113487
0.0070203
-0.000694606
0.00968281
-4.7767e-05
0.0124849
0.000984231
0.015257
0.00252105
0.0177736
0.00467839
0.0198115
0.00750189
0.0211806
0.0109917
0.0217774
0.0150965
0.0216406
0.019731
0.0249085
0.0209543
-0.000264754
-0.00125233
0.000103734
-0.00150337
0.00098756
-0.00157835
0.00239781
-0.00145804
0.00437438
-0.000992288
0.00693303
-3.76089e-05
0.00999416
0.00161727
0.0132735
0.00422256
0.0163416
0.00792351
0.01874
0.0126981
0.020141
0.01833
0.0245587
0.0204908
-0.000109664
-0.00114257
-0.000196715
-0.00141632
-0.000162894
-0.00161211
9.46801e-05
-0.00171563
0.000762584
-0.00166016
0.0020455
-0.00132053
0.00413394
-0.000471158
0.00707692
0.0012796
0.0106334
0.00436704
0.014254
0.00907756
0.0172349
0.0153492
0.0227516
0.0190421
-2.91708e-05
-0.00111332
-2.07304e-05
-0.00142476
3.12646e-05
-0.00166405
0.000160772
-0.00184514
0.000430885
-0.00193024
0.000954122
-0.00184377
0.00191897
-0.001436
0.00361554
-0.000416967
0.0062802
0.00170239
0.00980631
0.00555146
0.0135775
0.011578
0.0195892
0.0167399
-2.14478e-05
-0.0010918
-3.11185e-05
-0.00141509
-1.36787e-05
-0.00168145
4.79997e-05
-0.00190682
0.000189246
-0.00207146
0.000466729
-0.00212125
0.000986677
-0.00195594
0.00194383
-0.00137411
0.0036429
3.33144e-06
0.00636561
0.00282876
0.0100102
0.00793342
0.0157279
0.0138715
-1.48193e-05
-0.00107693
-1.25045e-05
-0.00141739
1.07779e-05
-0.0017047
6.33249e-05
-0.00195936
0.000163438
-0.00217156
0.000344023
-0.00230184
0.000665756
-0.00227766
0.00124669
-0.00195504
0.00229661
-0.00104658
0.00415016
0.000975235
0.00709023
0.00499337
0.0119497
0.0108684
-7.66818e-06
-0.00106922
-1.91697e-06
-0.00142313
1.96395e-05
-0.00172622
6.23423e-05
-0.00200206
0.000138315
-0.00224751
0.000269143
-0.00243266
0.000492327
-0.00250083
0.00088107
-0.00234377
0.00157687
-0.00174236
0.00282666
-0.000274538
0.00499417
0.00282586
0.00871483
0.00822909
-2.53409e-06
-0.00106665
9.96407e-06
-0.00143561
3.59876e-05
-0.00175223
7.8991e-05
-0.00204506
0.00014756
-0.00231607
0.000256324
-0.00254141
0.000429831
-0.00267433
0.000716202
-0.00263013
0.00121088
-0.00223702
0.0020909
-0.00115455
0.00366646
0.00125032
0.00610227
0.00627903
3.80439e-06
-0.00107042
2.27098e-05
-0.00145449
5.25524e-05
-0.00178205
9.75931e-05
-0.00209008
0.000164093
-0.00238255
0.000263361
-0.00264067
0.000413538
-0.00282449
0.000647594
-0.00286418
0.00103264
-0.00262205
0.00170027
-0.00182217
0.00289295
5.76551e-05
0.00400047
0.00499478
1.05368e-05
-0.00108092
3.4013e-05
-0.00147795
6.73544e-05
-0.00181537
0.000114393
-0.00213711
0.000180793
-0.00244894
0.000275986
-0.00273585
0.000413991
-0.00296248
0.000618475
-0.00306865
0.00093722
-0.00294078
0.00146628
-0.00235121
0.00238672
-0.000862768
0.0023571
0.0040301
1.60458e-05
-0.00109694
4.16734e-05
-0.00150355
7.66304e-05
-0.00185032
0.000124129
-0.00218459
0.00018999
-0.00251479
0.000281588
-0.00282744
0.000410522
-0.00309141
0.000595187
-0.0032533
0.000870167
-0.00321575
0.00130417
-0.0027852
0.00202859
-0.00158717
0.00111063
0.00327508
1.90398e-05
-0.00111595
4.50023e-05
-0.00152948
7.94436e-05
-0.00188474
0.000125946
-0.00223107
0.000189017
-0.00257785
0.00027563
-0.00291404
0.000396279
-0.00321204
0.000566284
-0.0034233
0.000812736
-0.00346219
0.00118757
-0.00316003
0.00179036
-0.00218994
5.25703e-05
0.00284843
1.99127e-05
-0.00113583
4.36563e-05
-0.0015532
7.57112e-05
-0.00191679
0.000118527
-0.00227387
0.000176264
-0.00263557
0.000255211
-0.00299297
0.000364413
-0.00332123
0.000517473
-0.00357634
0.000736161
-0.00368087
0.00106168
-0.00348553
0.00156727
-0.00269552
-0.000699016
0.00231888
1.83459e-05
-0.00115415
3.86356e-05
-0.00157346
6.65521e-05
-0.00194469
0.000104096
-0.00231139
0.000154686
-0.00268615
0.000223719
-0.00306199
0.000319652
-0.00341716
0.000454771
-0.00371145
0.000649355
-0.00387544
0.000939614
-0.00377578
0.00139287
-0.00314876
-0.00150871
0.00220258
1.48854e-05
-0.001169
3.06885e-05
-0.00158923
5.32821e-05
-0.00196727
8.41972e-05
-0.00234229
0.000125796
-0.00272774
0.000182538
-0.00311872
0.000261332
-0.00349594
0.000372438
-0.00382255
0.000532171
-0.00403516
0.000770156
-0.00401375
0.00113807
-0.00351666
-0.0020346
0.00166397
1.08409e-05
-0.00117981
2.21879e-05
-0.00160054
3.98274e-05
-0.0019849
6.41578e-05
-0.0023666
9.73751e-05
-0.00276095
0.000142893
-0.00316422
0.000206285
-0.00355932
0.000296278
-0.00391253
0.00042674
-0.00416561
0.000623281
-0.00421028
0.000936843
-0.00383021
-0.00263045
0.00153271
6.66836e-06
-0.00118645
1.46718e-05
-0.00160852
2.78432e-05
-0.00199805
4.66655e-05
-0.0023854
7.2618e-05
-0.00278689
0.000108347
-0.00319994
0.000157714
-0.00360867
0.0002269
-0.0039817
0.000325685
-0.00426438
0.00047214
-0.00435672
0.00070214
-0.0040602
-0.00298179
0.0010535
4.23293e-06
-0.00119065
1.04578e-05
-0.00161471
2.11613e-05
-0.00200874
3.68694e-05
-0.00240109
5.87861e-05
-0.00280879
8.90863e-05
-0.00323022
0.000131349
-0.00365092
0.000190835
-0.00404117
0.00027616
-0.00434969
0.000403481
-0.00448403
0.000603682
-0.00426039
-0.00328615
0.000908059
2.9164e-06
-0.00119353
8.2268e-06
-0.00161999
1.75652e-05
-0.00201807
3.14461e-05
-0.00241495
5.10323e-05
-0.00282837
7.85069e-05
-0.00325768
0.000116918
-0.00368932
0.000171473
-0.00409571
0.000250664
-0.00442886
0.000370978
-0.00460433
0.000569556
-0.00445896
-0.00368751
0.000970922
2.40636e-06
-0.00119591
7.42858e-06
-0.00162498
1.61289e-05
-0.00202675
2.90888e-05
-0.00242789
4.74084e-05
-0.00284667
7.28541e-05
-0.00328311
0.000108394
-0.00372485
0.00015836
-0.00414566
0.000229583
-0.00450007
0.000334645
-0.00470938
0.000500708
-0.00462501
-0.00395859
0.000771799
2.53078e-06
-0.0011984
7.7027e-06
-0.00163012
1.6387e-05
-0.00203542
2.9131e-05
-0.00244061
4.70772e-05
-0.00286461
7.20103e-05
-0.00330803
0.000106741
-0.00375956
0.00015575
-0.00419466
0.000225697
-0.00457
0.000328448
-0.00481211
0.000487406
-0.00478396
-0.0042266
0.000755434
2.85262e-06
-0.00120122
8.12248e-06
-0.00163536
1.67698e-05
-0.00204405
2.93413e-05
-0.00245316
4.68518e-05
-0.0028821
7.10032e-05
-0.00333216
0.000104444
-0.00379299
0.000151296
-0.00424149
0.000217827
-0.00463652
0.000314545
-0.00490882
0.000460797
-0.0049302
-0.00445326
0.000687465
3.04021e-06
-0.00120423
8.56725e-06
-0.00164085
1.73391e-05
-0.0020528
2.98396e-05
-0.00246564
4.70524e-05
-0.0028993
7.05848e-05
-0.00335568
0.000102982
-0.00382537
0.000147984
-0.00428648
0.000211823
-0.00470034
0.000304167
-0.00500115
0.000443212
-0.00506923
-0.00467695
0.000666915
3.37534e-06
-0.00120757
9.13113e-06
-0.00164658
1.77725e-05
-0.00206143
3.01666e-05
-0.00247801
4.69536e-05
-0.00291607
6.97296e-05
-0.00337844
0.00010072
-0.00385635
0.000143416
-0.00432916
0.000203095
-0.00476
0.00028859
-0.00508663
0.000416155
-0.00519678
-0.00487424
0.000613451
3.6746e-06
-0.00121121
9.47034e-06
-0.00165234
1.83684e-05
-0.00207031
3.05622e-05
-0.00249018
4.7121e-05
-0.00293262
6.93575e-05
-0.00340066
9.93138e-05
-0.00388629
0.000140153
-0.00436998
0.000196659
-0.00481649
0.000276618
-0.00516657
0.000393904
-0.00531406
-0.00505467
0.00057435
3.76797e-06
-0.00121494
9.89009e-06
-0.00165843
1.88482e-05
-0.00207925
3.11544e-05
-0.00250247
4.75409e-05
-0.00294899
6.92812e-05
-0.00342238
9.84479e-05
-0.00391544
0.000137921
-0.00440944
0.000192096
-0.00487065
0.000268126
-0.00524259
0.000379483
-0.00542541
-0.00522984
0.000554663
4.02254e-06
-0.00121893
1.04482e-05
-0.00166483
1.93981e-05
-0.00208818
3.17787e-05
-0.00251483
4.77627e-05
-0.00296496
6.91831e-05
-0.00344379
9.77565e-05
-0.003944
0.000136007
-0.00444768
0.000188003
-0.00492264
0.00026023
-0.00531481
0.000364369
-0.00552953
-0.0053885
0.000523034
4.45595e-06
-0.00122335
1.09038e-05
-0.00167124
2.00911e-05
-0.00209735
3.19582e-05
-0.00252668
4.81866e-05
-0.00298118
6.93095e-05
-0.0034649
9.7067e-05
-0.00397175
0.000134243
-0.00448484
0.00018445
-0.00497283
0.000253658
-0.005384
0.000352837
-0.00562871
-0.00553963
0.000503979
4.66782e-06
-0.00122798
1.12846e-05
-0.00167783
2.0398e-05
-0.00210645
3.25229e-05
-0.00253878
4.82395e-05
-0.00299688
6.87293e-05
-0.00348537
9.58566e-05
-0.00399886
0.000131456
-0.00452043
0.000179415
-0.00502078
0.000244875
-0.00544945
0.000337287
-0.00572111
-0.00568469
0.000482341
4.7119e-06
-0.00123267
1.16197e-05
-0.00168471
2.07343e-05
-0.00211555
3.27184e-05
-0.00255075
4.82258e-05
-0.00301238
6.84038e-05
-0.00350554
9.45705e-05
-0.00402502
0.000129453
-0.0045553
0.000174986
-0.0050663
0.000235352
-0.00550981
0.000316247
-0.005802
-0.00578333
0.000414889
4.96711e-06
-0.00123761
1.19918e-05
-0.0016917
2.11747e-05
-0.00212472
3.33253e-05
-0.00256288
4.87591e-05
-0.00302781
6.88829e-05
-0.00352565
9.50414e-05
-0.00405117
0.000129564
-0.00458982
0.000175209
-0.00511194
0.000235637
-0.00557023
0.000318603
-0.00588495
-0.00592024
0.000455517
4.83032e-06
-0.00124242
1.22417e-05
-0.00169909
2.19199e-05
-0.00213439
3.39687e-05
-0.00257492
4.9258e-05
-0.00304309
6.89695e-05
-0.00354535
9.48646e-05
-0.00407706
0.000128631
-0.00462357
0.000173029
-0.00515632
0.00023136
-0.00562855
0.00030872
-0.00596231
-0.00600998
0.000398475
5.4199e-06
-0.00124781
1.32245e-05
-0.00170687
2.27257e-05
-0.00214388
3.47024e-05
-0.00258688
4.96953e-05
-0.00305807
6.93873e-05
-0.00356503
9.53525e-05
-0.00410302
0.000129285
-0.0046575
0.000173853
-0.00520088
0.000232816
-0.0056875
0.000311786
-0.00604127
-0.00612922
0.000431032
5.87229e-06
-0.00125366
1.37452e-05
-0.00171473
2.34911e-05
-0.00215362
3.5093e-05
-0.00259847
5.03895e-05
-0.00307336
6.99062e-05
-0.00358454
9.52412e-05
-0.00412834
0.000128422
-0.00469067
0.000172438
-0.00524489
0.000229679
-0.00574474
0.000304548
-0.00611614
-0.0062271
0.00040244
6.28386e-06
-0.00125992
1.45286e-05
-0.00172295
2.41851e-05
-0.00216326
3.61201e-05
-0.00261039
5.10296e-05
-0.00308826
7.01978e-05
-0.0036037
9.55263e-05
-0.00415366
0.000128849
-0.00472398
0.000172925
-0.00528896
0.000231215
-0.00580302
0.000306977
-0.00619189
-0.00632872
0.000408603
6.49876e-06
-0.0012664
1.48657e-05
-0.0017313
2.46289e-05
-0.00217302
3.6341e-05
-0.00262209
5.09869e-05
-0.0031029
6.98817e-05
-0.00362259
9.45015e-05
-0.00417828
0.000127765
-0.00475724
0.000171638
-0.00533282
0.000230043
-0.00586142
0.00030804
-0.00626989
-0.0064195
0.000398834
6.75068e-06
-0.00127313
1.48964e-05
-0.00173943
2.46159e-05
-0.00218272
3.61702e-05
-0.00263363
5.03593e-05
-0.00311708
6.87618e-05
-0.00364098
9.29342e-05
-0.00420244
0.000125134
-0.00478943
0.000168551
-0.00537623
0.000227491
-0.00592035
0.000309275
-0.00635167
-0.00655351
0.000443289
6.47037e-06
-0.00127959
1.52595e-05
-0.00174821
2.45387e-05
-0.00219199
3.5525e-05
-0.00264461
4.87841e-05
-0.00313033
6.61097e-05
-0.0036583
8.92448e-05
-0.00422557
0.00011959
-0.00481977
0.000159735
-0.00541637
0.000212517
-0.00597313
0.000283408
-0.00642255
-0.00665046
0.000380374
6.93548e-06
-0.0012865
1.54211e-05
-0.00175667
2.45063e-05
-0.00220107
3.47079e-05
-0.0026548
4.78617e-05
-0.00314348
6.45957e-05
-0.00367503
8.67807e-05
-0.00424775
0.000116442
-0.00484942
0.000155605
-0.00545553
0.000206902
-0.00602442
0.000272367
-0.00648801
-0.00672717
0.000349092
7.26772e-06
-0.00129376
1.55137e-05
-0.00176491
2.43002e-05
-0.00220985
3.40998e-05
-0.00266459
4.63297e-05
-0.0031557
6.2384e-05
-0.00369107
8.38242e-05
-0.00426918
0.00011256
-0.00487815
0.000151941
-0.0054949
0.000204276
-0.00607675
0.000273455
-0.00655717
-0.006823
0.000369278
7.39479e-06
-0.00130113
1.54632e-05
-0.00177296
2.34901e-05
-0.00221787
3.26483e-05
-0.00267374
4.38997e-05
-0.00316695
5.86679e-05
-0.00370584
7.8862e-05
-0.00428937
0.000106565
-0.00490585
0.000144322
-0.00553265
0.000195862
-0.00612829
0.00026561
-0.00662692
-0.00692363
0.000366258
7.23166e-06
-0.00130835
1.47968e-05
-0.00178052
2.21624e-05
-0.00222523
3.02545e-05
-0.00268183
4.03099e-05
-0.003177
5.37421e-05
-0.00371927
7.20387e-05
-0.00430767
9.80258e-05
-0.00493183
0.000133237
-0.00556786
0.000180613
-0.00617566
0.000243659
-0.00668996
-0.00700098
0.00032102
6.96468e-06
-0.0013153
1.38651e-05
-0.0017874
2.03683e-05
-0.00223172
2.7436e-05
-0.00268889
3.61073e-05
-0.00318566
4.80494e-05
-0.0037312
6.48498e-05
-0.00432446
8.86952e-05
-0.00495568
0.000122371
-0.00560153
0.000168909
-0.00622219
0.00023154
-0.00675259
-0.00708668
0.000317245
6.86369e-06
-0.00132216
1.30992e-05
-0.00179364
1.82385e-05
-0.00223686
2.3783e-05
-0.00269443
3.05054e-05
-0.00319238
4.03006e-05
-0.00374099
5.50599e-05
-0.00433922
7.64274e-05
-0.00497704
0.000107378
-0.00563248
0.000150801
-0.00626561
0.000210591
-0.00681237
-0.00717173
0.000295645
6.67615e-06
-0.00132881
1.17123e-05
-0.00179866
1.54951e-05
-0.00224063
1.89965e-05
-0.00269792
2.41953e-05
-0.00319757
3.17397e-05
-0.00374853
4.35951e-05
-0.00435107
6.20275e-05
-0.00499547
8.95252e-05
-0.00565997
0.000129394
-0.00630547
0.000184123
-0.0068671
-0.00723832
0.000250725
6.2775e-06
-0.00133508
9.8374e-06
-0.00180221
1.20222e-05
-0.00224281
1.37107e-05
-0.00269961
1.63449e-05
-0.0032002
2.12558e-05
-0.00375344
2.99869e-05
-0.00435979
4.45595e-05
-0.00501003
6.84757e-05
-0.00568388
0.000105335
-0.00634233
0.000159155
-0.00692091
-0.007319
0.000239836
5.73372e-06
-0.0013408
7.82532e-06
-0.00180429
7.72423e-06
-0.00224269
7.31986e-06
-0.0026992
7.22592e-06
-0.0032001
8.70509e-06
-0.00375491
1.35156e-05
-0.0043646
2.36374e-05
-0.00502015
4.17854e-05
-0.00570202
7.10621e-05
-0.00637159
0.000116071
-0.00696591
-0.0073886
0.000185674
4.31966e-06
-0.00134511
4.61891e-06
-0.00180458
3.83334e-06
-0.0022419
4.19952e-07
-0.00269578
-2.62004e-06
-0.00319705
-4.52431e-06
-0.003753
-4.03357e-06
-0.00436508
1.47903e-06
-0.00502566
1.34493e-05
-0.00571399
3.48021e-05
-0.00639294
6.7887e-05
-0.00699899
-0.00742497
0.000104261
3.04262e-06
-0.00134813
1.87595e-06
-0.0018034
-2.79944e-06
-0.00223722
-7.27289e-06
-0.00269129
-1.31969e-05
-0.00319112
-1.84059e-05
-0.00374779
-2.16007e-05
-0.00436188
-2.08702e-05
-0.00502638
-1.3518e-05
-0.00572134
3.3223e-06
-0.00640978
3.36169e-05
-0.00702928
-0.00747921
8.78655e-05
1.7882e-06
-0.00134991
-1.09222e-06
-0.00180051
-7.14335e-06
-0.00223116
-1.52498e-05
-0.00268318
-2.47868e-05
-0.00318158
-3.38273e-05
-0.00373875
-4.11576e-05
-0.00435455
-4.54054e-05
-0.00502213
-4.39312e-05
-0.00572281
-3.35118e-05
-0.00642019
-9.76578e-06
-0.00705302
-0.0075247
3.57293e-05
6.582e-08
-0.00134995
-4.50931e-06
-0.00179592
-1.29549e-05
-0.0022227
-2.42231e-05
-0.00267191
-3.65518e-05
-0.00316924
-4.98304e-05
-0.00372546
-6.19236e-05
-0.00434245
-7.14256e-05
-0.00501262
-7.62109e-05
-0.00571801
-7.31771e-05
-0.00642322
-5.92937e-05
-0.0070669
-0.00754858
-3.54086e-05
-1.56952e-06
-0.00134838
-8.20956e-06
-0.00178928
-1.93761e-05
-0.00221153
-3.36223e-05
-0.00265765
-4.99302e-05
-0.00315293
-6.72812e-05
-0.0037081
-8.46984e-05
-0.00432502
-9.98755e-05
-0.00499744
-0.000110606
-0.00570728
-0.00011378
-0.00642004
-0.000105189
-0.00707548
-0.00757732
-7.64213e-05
-3.43468e-06
-0.00134493
-1.24657e-05
-0.00178024
-2.66016e-05
-0.00219738
-4.52181e-05
-0.00263903
-6.48614e-05
-0.00313328
-8.70622e-05
-0.0036859
-0.000110021
-0.00430206
-0.000131652
-0.0049758
-0.000150199
-0.00568873
-0.000162991
-0.00640724
-0.000166353
-0.00707211
-0.00759554
-0.00014813
-5.57924e-06
-0.00133935
-1.66381e-05
-0.00176918
-3.43833e-05
-0.00217964
-5.58497e-05
-0.00261756
-8.16611e-05
-0.00310746
-0.000108247
-0.00365931
-0.000136905
-0.0042734
-0.000165765
-0.00494694
-0.000191647
-0.00566284
-0.000213385
-0.0063855
-0.000229048
-0.00705644
-0.00756613
-0.00025845
-7.77637e-06
-0.00133156
-2.33019e-05
-0.00175365
-4.40938e-05
-0.00215884
-6.91367e-05
-0.00259252
-9.89632e-05
-0.00307763
-0.000132696
-0.00362558
-0.000166796
-0.0042393
-0.000201891
-0.00491184
-0.000234675
-0.00563006
-0.000261247
-0.00635892
-0.000275622
-0.00704207
-0.00758995
-0.000251804
-1.01197e-05
-0.00132145
-2.82823e-05
-0.00173549
-5.34536e-05
-0.00213367
-8.44161e-05
-0.00256156
-0.000119937
-0.00304211
-0.000159529
-0.00358599
-0.000201999
-0.00419683
-0.000246261
-0.00486758
-0.000290057
-0.00558626
-0.000329908
-0.00631908
-0.000361805
-0.00701018
-0.00756415
-0.000387612
-1.29179e-05
-0.00130853
-3.48335e-05
-0.00171357
-6.45053e-05
-0.002104
-0.000100521
-0.00252554
-0.000142194
-0.00300044
-0.00018891
-0.00353927
-0.000240531
-0.00414521
-0.000293548
-0.00481457
-0.000347524
-0.00553229
-0.000399483
-0.00626712
-0.000445661
-0.006964
-0.00752833
-0.000481482
-1.59808e-05
-0.00129256
-4.21233e-05
-0.00168744
-7.68018e-05
-0.00206932
-0.000118656
-0.00248369
-0.000167108
-0.00295199
-0.000221654
-0.00348473
-0.000281467
-0.0040854
-0.000345131
-0.0047509
-0.000410548
-0.00546687
-0.000474257
-0.00620341
-0.000531042
-0.00690721
-0.00748294
-0.000576429
-1.96692e-05
-0.00127288
-5.03934e-05
-0.00165672
-9.05444e-05
-0.00202917
-0.000139595
-0.00243464
-0.00019478
-0.00289681
-0.000257998
-0.00342151
-0.000327924
-0.00401547
-0.000402571
-0.00467626
-0.000480699
-0.00538875
-0.00055641
-0.00612771
-0.000625865
-0.00683776
-0.00742996
-0.000678854
-2.39542e-05
-0.00124894
-6.00653e-05
-0.00162061
-0.000106522
-0.00198272
-0.000161353
-0.00237982
-0.000226548
-0.00283161
-0.000298825
-0.00334924
-0.000379612
-0.00393469
-0.000468009
-0.00458786
-0.000558778
-0.00529798
-0.000649879
-0.0060366
-0.000735578
-0.00675207
-0.00735438
-0.000811168
-2.86031e-05
-0.00122034
-7.04828e-05
-0.00157873
-0.000123776
-0.00192943
-0.000187206
-0.00231639
-0.000261011
-0.00275781
-0.000345645
-0.0032646
-0.000438601
-0.00384173
-0.000540179
-0.00448629
-0.000647451
-0.0051907
-0.000755631
-0.00592843
-0.000856873
-0.00665083