/*--------------------------------*- C++ -*----------------------------------*\
| =========                 |                                                 |
| \\      /  F ield         | OpenFOAM: The Open Source CFD Toolbox           |
|  \\    /   O peration     | Version:  2.3.0                                 |
|   \\  /    A nd           | Web:      www.OpenFOAM.org                      |
|    \\/     M anipulation  |                                                 |
\*---------------------------------------------------------------------------*/
FoamFile
{
    version     2.0;
    format      ascii;
    class       volVectorField;
    location    "4000";
    object      U;
}
// * * * * * * * * * * * * * * * * * * * * * * * * * * * * * * * * * * * * * //

dimensions      [0 1 -1 0 0 0 0];

internalField   nonuniform List<vector> 
6692
(
(21.8142 11.044 2.40494e-19)
(21.4163 11.9796 -7.37133e-20)
(20.9111 12.8598 -5.45133e-20)
(20.2163 13.6468 6.82599e-20)
(19.2897 14.3152 2.51469e-20)
(18.1244 14.8681 -2.98693e-19)
(16.743 15.3199 5.90498e-19)
(15.1777 15.6727 1.52073e-19)
(13.47 15.9179 -1.62619e-19)
(11.7 16.1047 0)
(9.97033 16.3314 0)
(8.287 16.3845 -9.6616e-20)
(20.9566 10.4622 0)
(20.4208 11.0906 1.31575e-19)
(19.8401 11.6932 0)
(19.208 12.2472 0)
(18.5247 12.7218 -2.15089e-18)
(17.7941 13.0888 1.91518e-18)
(17.0245 13.3274 1.14471e-19)
(16.2289 13.4239 -1.82183e-18)
(15.4284 13.3708 2.22201e-18)
(14.6505 13.1714 2.49954e-18)
(13.9101 12.8379 -5.19912e-18)
(13.2016 12.3867 2.94723e-18)
(20.4664 9.95078 6.65747e-19)
(19.9502 10.3626 0)
(19.3926 10.7229 5.6453e-19)
(18.7947 11.024 0)
(18.1654 11.2612 0)
(17.5164 11.429 -7.27075e-20)
(16.8611 11.5235 -1.78201e-18)
(16.2141 11.5433 -6.6691e-19)
(15.5905 11.4893 3.55657e-18)
(15.0055 11.3661 -2.10583e-18)
(14.4718 11.1797 0)
(14 10.9368 -1.69166e-19)
(20.1124 9.48946 0)
(19.6512 9.78023 -1.18e-18)
(19.1764 10.027 6.26967e-19)
(18.6884 10.2202 0)
(18.1929 10.3585 -4.14225e-19)
(17.6954 10.4399 2.26724e-18)
(17.2022 10.464 -6.8527e-20)
(16.7204 10.432 4.28401e-19)
(16.2572 10.3463 -1.92448e-18)
(15.8195 10.2113 3.03462e-19)
(15.4134 10.0326 2.67551e-18)
(15.0442 9.81714 -3.01139e-18)
(19.8637 9.061 -6.20343e-19)
(19.4526 9.26365 0)
(19.0369 9.43229 -1.51197e-18)
(18.6146 9.55725 1.11019e-18)
(18.1904 9.64046 8.6312e-19)
(17.7681 9.68135 1.95758e-18)
(17.3524 9.68035 -3.82253e-18)
(16.9478 9.63838 2.39248e-18)
(16.5591 9.55726 0)
(16.1911 9.43959 -1.35698e-21)
(15.8477 9.28905 0)
(15.5325 9.10997 3.55316e-19)
(19.6881 8.69062 -7.01286e-19)
(19.3306 8.83363 -7.56098e-19)
(18.974 8.95339 1.17701e-18)
(18.6138 9.03751 -4.10486e-19)
(18.2535 9.08893 -9.18937e-19)
(17.895 9.1071 -5.0195e-19)
(17.541 9.09223 -5.64426e-19)
(17.1946 9.04493 2.00279e-18)
(16.859 8.96627 -8.81232e-19)
(16.5379 8.85799 -3.23589e-19)
(16.2348 8.72238 1.0641e-18)
(15.9524 8.56242 -2.90165e-18)
(19.5612 8.37297 7.05474e-19)
(19.2499 8.47205 -8.112e-19)
(18.9391 8.55899 3.55567e-19)
(18.6244 8.61739 2.25874e-18)
(18.3091 8.65027 -9.45731e-19)
(17.9944 8.65654 5.0944e-19)
(17.6821 8.63591 -5.46194e-19)
(17.3744 8.58816 -6.16853e-19)
(17.0738 8.51384 2.49674e-18)
(16.7836 8.41401 6.22378e-20)
(16.507 8.29019 4.13679e-19)
(16.247 8.14443 -2.59321e-18)
(19.4769 8.10121 8.0515e-19)
(19.2027 8.16714 -8.06527e-19)
(18.9284 8.2306 0)
(18.6493 8.27208 -4.61344e-19)
(18.3687 8.29312 4.91793e-19)
(18.0869 8.29227 -5.30189e-19)
(17.806 8.26902 -5.62696e-19)
(17.5279 8.22208 1.21729e-21)
(17.2536 8.15143 -3.17204e-19)
(16.9861 8.05778 -1.37342e-18)
(16.7284 7.94248 6.6633e-19)
(16.4841 7.80704 1.12078e-18)
(19.4102 7.85652 -4.31371e-19)
(19.1681 7.90543 8.91686e-19)
(18.9261 7.95347 -8.91091e-19)
(18.6747 7.98426 0)
(18.4208 7.99783 -5.11697e-19)
(18.1637 7.99192 5.34857e-19)
(17.906 7.96828 1.73296e-18)
(17.6507 7.92399 -2.3856e-18)
(17.397 7.85748 6.39274e-19)
(17.147 7.76819 6.75661e-19)
(16.9033 7.65823 0)
(16.6707 7.53052 7.47613e-19)
(19.3395 7.64979 4.95552e-21)
(19.1339 7.68835 4.6819e-19)
(18.9215 7.7239 2.08751e-20)
(18.6919 7.74419 -4.90759e-19)
(18.4606 7.75385 -1.49102e-20)
(18.2261 7.74215 5.38296e-19)
(17.985 7.71634 0)
(17.7464 7.67539 6.13845e-19)
(17.5063 7.61655 -1.93385e-18)
(17.2703 7.53389 -6.77426e-19)
(17.0386 7.42557 -2.03078e-20)
(16.8152 7.30329 -7.6394e-19)
(6.6137 15.5444 3.23955e-18)
(6.40355 14.0606 -3.24975e-18)
(6.53109 12.6406 0)
(6.81685 11.3016 0)
(7.23198 10.0408 0)
(7.76078 8.85701 7.6667e-19)
(8.37391 7.75908 -2.36455e-18)
(9.0379 6.76299 3.35522e-18)
(9.72006 5.88359 -5.25945e-18)
(10.3951 5.12746 0)
(11.0459 4.47118 -2.87298e-18)
(11.6637 3.86065 1.04312e-17)
(12.5222 11.8403 -8.72966e-20)
(11.9657 11.1915 -1.86869e-18)
(11.5454 10.4824 1.99303e-18)
(11.2516 9.74509 5.22413e-19)
(11.071 8.99997 5.72906e-19)
(10.9959 8.26298 -6.72574e-19)
(11.0204 7.547 -1.30937e-18)
(11.1379 6.8601 1.35851e-18)
(11.3393 6.20694 1.48449e-18)
(11.6128 5.5896 -2.71195e-18)
(11.9416 4.99584 8.07814e-18)
(12.3144 4.39924 -4.87372e-18)
(13.5873 10.6386 1.72486e-19)
(13.2248 10.2729 1.89e-19)
(12.9145 9.83874 0)
(12.6637 9.34929 -9.55116e-19)
(12.4772 8.81647 -4.83284e-20)
(12.3576 8.25154 0)
(12.3053 7.66616 1.22241e-18)
(12.3181 7.07192 -1.26958e-18)
(12.3917 6.48083 0)
(12.5206 5.90387 2.57525e-18)
(12.6978 5.3411 0)
(12.9227 4.78321 0)
(14.7083 9.56823 -1.80754e-19)
(14.3975 9.28031 -1.9606e-19)
(14.1142 8.9509 0)
(13.8647 8.58505 4.59295e-19)
(13.6541 8.18815 4.91844e-19)
(13.4863 7.7658 -5.09703e-19)
(13.3641 7.3236 0)
(13.2892 6.86705 3.60681e-20)
(13.2623 6.40185 -1.74592e-20)
(13.2832 5.93348 3.42943e-18)
(13.35 5.46092 -4.46961e-18)
(13.4669 4.97622 -2.10272e-18)
(15.243 8.90426 0)
(14.9741 8.66805 -1.60821e-18)
(14.7271 8.39964 7.88933e-19)
(14.5062 8.10197 8.70196e-19)
(14.315 7.77856 0)
(14.1559 7.43304 -5.00359e-19)
(14.0305 7.06915 9.99292e-19)
(13.9396 6.69057 1.07357e-18)
(13.8835 6.3013 -1.09596e-18)
(13.862 5.90544 -1.07851e-18)
(13.8753 5.50336 1.12099e-18)
(13.9276 5.09257 4.16707e-20)
(15.69 8.37965 1.4995e-18)
(15.4448 8.17231 -8.2068e-19)
(15.218 7.93994 8.32121e-19)
(15.013 7.68497 -4.61449e-19)
(14.8322 7.41007 -2.60838e-20)
(14.6773 7.11797 4.8344e-19)
(14.5494 6.81119 -5.16211e-19)
(14.4484 6.4923 0)
(14.3744 6.16377 -1.03441e-18)
(14.327 5.82848 2.07956e-18)
(14.3068 5.48603 -1.0347e-18)
(14.3184 5.13111 -9.77154e-19)
(16.0038 7.97805 1.52761e-18)
(15.7763 7.7905 -8.29195e-19)
(15.566 7.5823 4.14716e-19)
(15.3753 7.35582 -4.46707e-19)
(15.2063 7.11354 -9.04386e-19)
(15.0602 6.85787 -4.53204e-19)
(14.9375 6.59058 4.52382e-19)
(14.837 6.31386 9.69848e-19)
(14.7583 6.02939 1.48374e-18)
(14.6997 5.73977 -4.96956e-19)
(14.6622 5.44491 0)
(14.65 5.13933 1.027e-18)
(16.2545 7.6525 -1.57004e-18)
(16.0395 7.47913 3.97969e-19)
(15.8407 7.28824 -4.34737e-19)
(15.6603 7.08232 4.21176e-19)
(15.5002 6.86386 2.25653e-18)
(15.3617 6.63516 1.69199e-20)
(15.2449 6.39747 -9.54515e-19)
(15.1466 6.15269 -9.69966e-19)
(15.0675 5.90238 -4.92808e-19)
(15.0029 5.64908 4.81495e-19)
(14.956 5.39456 -9.79296e-19)
(14.9267 5.13513 1.95158e-18)
(16.4515 7.38499 7.81665e-19)
(16.2463 7.2223 -4.02469e-19)
(16.0564 7.04445 0)
(15.8842 6.8542 0)
(15.7305 6.6541 -4.63784e-19)
(15.5974 6.44533 1.37029e-18)
(15.4873 6.23115 6.87552e-19)
(15.3918 6.00963 1.1666e-18)
(15.3168 5.78687 0)
(15.2492 5.56039 -9.64963e-19)
(15.1989 5.33824 0)
(15.1594 5.10951 -1.9435e-18)
(16.6056 7.16436 1.03756e-20)
(16.4101 7.00965 1.60268e-20)
(16.2288 6.84092 0)
(16.0635 6.66126 0)
(15.9145 6.47688 -6.55321e-19)
(15.7836 6.28307 -2.22189e-19)
(15.6854 6.09162 -9.25774e-19)
(15.5914 5.88428 -7.06774e-19)
(15.528 5.68814 -2.34974e-19)
(15.4564 5.47731 -9.38502e-19)
(15.4085 5.28461 4.77962e-19)
(15.3663 5.07658 -4.89655e-19)
(-4.63572 -2.5197 0)
(-4.11571 -2.52446 1.50114e-18)
(-3.44075 -2.53749 0)
(-2.66388 -2.54192 -1.89718e-18)
(-1.82111 -2.52449 2.11526e-18)
(-0.922732 -2.47538 -8.69049e-19)
(0.0527537 -2.38304 0)
(1.15748 -2.24443 0)
(2.49101 -2.06438 1.37669e-19)
(4.25264 -1.86029 0)
(6.82193 -1.68184 -2.24622e-18)
(10.9464 -1.85378 7.3481e-19)
(-4.44642 -2.33869 1.10405e-18)
(-3.87959 -2.2453 0)
(-3.15838 -2.16735 0)
(-2.30611 -2.0769 -3.78901e-19)
(-1.32842 -1.96497 8.02995e-19)
(-0.210232 -1.82716 -1.04768e-18)
(1.08453 -1.66527 4.14959e-19)
(2.62014 -1.48784 0)
(4.49806 -1.32307 -1.02591e-19)
(6.86148 -1.22954 0)
(9.88089 -1.31144 1.11415e-19)
(13.6404 -1.7215 3.86589e-20)
(-4.12697 -2.05195 -6.03544e-19)
(-3.47611 -1.89404 1.73368e-18)
(-2.67427 -1.74637 -9.40275e-19)
(-1.72621 -1.58746 1.0015e-18)
(-0.624921 -1.4159 -6.95572e-19)
(0.651736 -1.23591 -3.25336e-19)
(2.14189 -1.05764 3.29986e-19)
(3.90065 -0.900776 -5.79441e-19)
(5.9967 -0.800561 1.12418e-18)
(8.5026 -0.81445 -5.43007e-19)
(11.4605 -1.02415 3.30604e-19)
(14.8002 -1.51437 1.07822e-19)
(-3.71487 -1.74388 0)
(-3.00203 -1.54828 -5.49272e-20)
(-2.13943 -1.36341 0)
(-1.12431 -1.17391 2.75455e-19)
(0.0553135 -0.983506 -2.18745e-20)
(1.42238 -0.800456 -2.54252e-19)
(3.01111 -0.638573 -2.52209e-19)
(4.86444 -0.520608 2.74993e-20)
(7.03008 -0.48092 7.53851e-19)
(9.54714 -0.56773 -7.72764e-19)
(12.4195 -0.839609 1.25192e-19)
(15.5716 -1.3467 2.91262e-19)
(-3.26781 -1.45113 -3.88595e-19)
(-2.50852 -1.24719 -2.42226e-19)
(-1.60603 -1.04897 -1.46927e-20)
(-0.552312 -0.851595 4.52201e-19)
(0.667515 -0.661476 -4.89632e-19)
(2.07652 -0.488527 2.46507e-19)
(3.70557 -0.347834 0)
(5.59151 -0.262152 9.59745e-20)
(7.77122 -0.263225 -2.95854e-19)
(10.2707 -0.391996 2.6814e-19)
(13.0835 -0.694245 -3.55743e-19)
(16.1348 -1.20487 3.34622e-20)
(-2.81097 -1.19618 -1.70176e-19)
(-2.02727 -0.999615 1.85163e-19)
(-1.10514 -0.800509 -2.07896e-19)
(-0.0347648 -0.606574 -3.1158e-19)
(1.20065 -0.424574 4.49571e-21)
(2.62512 -0.264548 -7.71485e-20)
(4.26706 -0.141421 0)
(6.15964 -0.0779113 9.08229e-20)
(8.33546 -0.104021 0)
(10.815 -0.256286 1.0124e-19)
(13.5866 -0.573803 -1.08255e-19)
(16.5714 -1.08465 -1.53482e-20)
(-2.36052 -0.982789 1.33487e-19)
(-1.57247 -0.799528 1.47326e-19)
(-0.647231 -0.606867 1.52975e-19)
(0.424525 -0.421973 1.54159e-19)
(1.66029 -0.251356 0)
(3.08681 -0.104193 9.62954e-20)
(4.72919 0.00637544 8.57282e-21)
(6.61707 0.056515 7.191e-20)
(8.78162 0.0158064 4.94119e-20)
(11.2417 -0.149717 -1.44044e-19)
(13.9808 -0.474684 0)
(16.9133 -0.982902 -1.43816e-20)
(-1.93597 -0.80352 -2.58519e-19)
(-1.15253 -0.633504 1.12554e-19)
(-0.235187 -0.453151 -2.19238e-19)
(0.82881 -0.280957 -2.08595e-19)
(2.05524 -0.124086 6.53692e-20)
(3.4803 0.00927518 -6.72976e-20)
(5.12106 0.111488 0)
(7.00172 0.1558 -1.4372e-19)
(9.15381 0.107238 1.0352e-19)
(11.5993 -0.066173 1.65896e-20)
(14.3165 -0.394271 6.12281e-20)
(17.2122 -0.89994 -4.40622e-20)
(-1.54228 -0.653319 0)
(-0.773769 -0.492358 -2.23965e-19)
(0.127693 -0.326702 5.75546e-20)
(1.17581 -0.168678 -9.33125e-20)
(2.38092 -0.0284975 5.76316e-20)
(3.80525 0.0886552 0)
(5.4488 0.183611 -4.52411e-20)
(7.31287 0.22896 1.04992e-19)
(9.43779 0.178617 -3.64851e-20)
(11.8636 -0.000950035 2.89216e-20)
(14.5503 -0.327441 8.29174e-21)
(17.3944 -0.819002 4.87208e-20)
(-1.13578 -0.544876 0)
(-0.400354 -0.378027 1.47608e-19)
(0.465783 -0.218333 4.23113e-20)
(1.51555 -0.0789673 -1.20798e-20)
(2.68874 0.0318551 9.27508e-20)
(4.13156 0.131595 -2.02074e-20)
(5.77502 0.226808 -7.92338e-20)
(7.6682 0.271631 1.69699e-20)
(9.79226 0.210023 4.62675e-20)
(12.2084 0.0189809 2.83887e-20)
(14.9122 -0.314319 3.37294e-20)
(17.7858 -0.822147 -1.00117e-19)
(17.6766 -3.33006 1.99032e-18)
(21.5549 -4.70203 1.22439e-18)
(22.8001 -5.15162 -1.14566e-18)
(23.2258 -5.23717 0)
(23.3877 -5.22477 1.08358e-18)
(23.3792 -5.15287 -1.1084e-18)
(23.2729 -5.04031 -1.96854e-18)
(23.1127 -4.90199 1.63507e-18)
(22.9211 -4.74727 2.47102e-19)
(22.7095 -4.58113 3.00478e-18)
(22.4837 -4.40612 -5.92363e-18)
(22.2431 -4.22389 1.08186e-18)
(17.7802 -2.67153 0)
(21.6498 -3.96746 0)
(23.329 -4.58149 -2.404e-20)
(23.6463 -4.65604 2.62161e-19)
(23.6945 -4.65217 -1.55098e-19)
(23.6174 -4.61092 0)
(23.4719 -4.54384 0)
(23.2888 -4.4583 -2.14553e-19)
(23.0836 -4.35827 -2.34642e-18)
(22.8643 -4.24648 1.92285e-18)
(22.6353 -4.12313 1.21304e-18)
(22.3978 -3.98582 1.94415e-20)
(18.3345 -2.33649 -5.79355e-19)
(21.7255 -3.41862 -5.72439e-21)
(23.5267 -4.09505 0)
(23.7901 -4.19567 4.73103e-20)
(23.7639 -4.19646 0)
(23.6569 -4.17336 8.47592e-20)
(23.5057 -4.13423 1.98669e-19)
(23.3293 -4.08256 -9.02122e-21)
(23.1366 -4.01988 0)
(22.9319 -3.94727 -1.14696e-18)
(22.7167 -3.86422 1.06574e-18)
(22.4914 -3.76817 -2.50191e-18)
(18.8591 -2.10424 2.0753e-20)
(21.9017 -3.03979 6.95114e-21)
(23.6262 -3.69796 0)
(23.8589 -3.82561 -4.52557e-20)
(23.7827 -3.83257 -7.63086e-20)
(23.6563 -3.82449 -8.36479e-20)
(23.5023 -3.80477 -4.08763e-19)
(23.3324 -3.77538 2.26086e-19)
(23.1518 -3.73705 0)
(22.9621 -3.68996 0)
(22.7631 -3.63298 -1.24385e-18)
(22.554 -3.56611 1.16379e-18)
(19.2671 -1.92605 0)
(22.0708 -2.77185 -1.59277e-21)
(23.6572 -3.38318 0)
(23.8653 -3.52426 0)
(23.7631 -3.53694 8.02925e-19)
(23.6289 -3.53983 -6.71835e-19)
(23.4769 -3.53353 1.38144e-18)
(23.3148 -3.51945 -6.37147e-19)
(23.1456 -3.49796 1.39022e-18)
(22.9701 -3.46886 -1.06134e-18)
(22.7873 -3.4321 1.24446e-18)
(22.5966 -3.39157 -5.98747e-19)
(19.5888 -1.78232 0)
(22.2079 -2.56814 0)
(23.649 -3.13139 0)
(23.829 -3.27627 -3.44448e-19)
(23.7136 -3.29481 6.32732e-19)
(23.5781 -3.30583 3.00752e-19)
(23.4315 -3.30906 -1.66668e-18)
(23.2785 -3.30575 7.01843e-19)
(23.1211 -3.29621 3.13565e-19)
(22.9594 -3.28017 -5.58782e-19)
(22.7927 -3.25843 -6.28736e-19)
(22.62 -3.23662 -6.87505e-19)
(19.8377 -1.66085 -1.10443e-19)
(22.3074 -2.40136 1.01581e-19)
(23.6203 -2.92397 -2.34287e-19)
(23.7734 -3.06983 3.08951e-19)
(23.6527 -3.09524 3.16089e-19)
(23.5188 -3.1129 -4.62566e-19)
(23.378 -3.12324 0)
(23.2336 -3.12752 0)
(23.0867 -3.12624 -6.15833e-19)
(22.9374 -3.11916 5.91179e-19)
(22.7856 -3.10725 -1.02102e-18)
(22.6298 -3.09615 3.16162e-19)
(20.0616 -1.56606 7.99408e-20)
(22.3992 -2.27683 5.82223e-20)
(23.5893 -2.76481 9.9433e-20)
(23.7119 -2.90409 -2.12573e-19)
(23.5892 -2.93237 2.15918e-20)
(23.458 -2.95373 -2.94309e-19)
(23.323 -2.96862 5.08287e-19)
(23.186 -2.97801 2.96645e-19)
(23.0483 -2.98222 -6.45732e-19)
(22.91 -2.98109 2.93581e-19)
(22.7712 -2.9758 3.43316e-19)
(22.6308 -2.97164 3.65445e-19)
(20.1598 -1.45493 1.58729e-19)
(22.3928 -2.13045 -1.22325e-20)
(23.5261 -2.60635 -1.2767e-19)
(23.6475 -2.75673 -2.34578e-20)
(23.5295 -2.79424 1.94622e-20)
(23.4029 -2.82029 5.68883e-19)
(23.2722 -2.83894 -5.42965e-19)
(23.1415 -2.85205 -9.40298e-19)
(23.0121 -2.86014 6.19236e-19)
(22.8832 -2.86291 6.84309e-19)
(22.7556 -2.86245 0)
(22.629 -2.86356 0)
(20.5317 -1.48503 -2.41772e-19)
(22.6151 -2.16351 2.51793e-20)
(23.5387 -2.57666 -4.28044e-19)
(23.5893 -2.67501 4.60379e-19)
(23.4676 -2.69214 1.54485e-20)
(23.3421 -2.71403 0)
(23.2166 -2.73151 0)
(23.0921 -2.74678 -3.35201e-19)
(22.9707 -2.75699 3.27293e-19)
(22.8498 -2.76136 -3.57677e-19)
(22.7314 -2.76469 0)
(22.6168 -2.77109 4.07996e-19)
(0.786139 2.03453 -5.14765e-17)
(2.42828 2.13665 0)
(4.72048 2.96667 0)
(7.30903 4.26159 1.87437e-19)
(9.93321 5.71235 0)
(12.5414 7.22105 -4.00445e-18)
(15.0924 8.6909 2.8135e-18)
(17.4607 9.97758 1.68923e-18)
(19.4863 10.9286 -2.05679e-18)
(21.037 11.4256 0)
(22.0593 11.4278 6.552e-19)
(22.6383 10.9402 -4.17237e-19)
(-10.4772 2.59906 -7.63437e-19)
(-9.33849 2.51561 0)
(-7.57371 2.44199 0)
(-5.35859 2.6153 -1.1802e-17)
(-2.34114 2.97963 9.22148e-18)
(1.43938 3.62973 8.55629e-19)
(5.77204 4.62391 5.39125e-18)
(10.2764 5.94161 -3.66281e-18)
(14.5442 7.42999 1.3779e-18)
(18.1846 8.81565 0)
(20.8935 9.81578 1.4972e-18)
(22.5729 10.1356 -8.33458e-19)
(-5.05478 1.48013 1.04542e-18)
(-5.59894 1.44024 3.78875e-17)
(-5.44348 1.37053 -2.46293e-17)
(-4.82115 1.27014 -1.07297e-18)
(-3.74594 1.26094 1.22345e-20)
(-2.09759 1.44826 -1.2692e-18)
(0.328619 1.94061 1.00838e-18)
(3.83041 2.84071 -5.83663e-18)
(8.29141 4.18332 4.34136e-18)
(13.1536 5.83406 2.66746e-18)
(17.6436 7.51485 -1.76096e-18)
(21.0403 8.6414 1.47785e-18)
(-6.31595 1.78495 0)
(-6.69898 1.90269 0)
(-6.52484 1.86928 0)
(-6.02099 1.78283 1.23529e-18)
(-5.20974 1.67849 1.31817e-17)
(-4.05217 1.60328 -6.73335e-20)
(-2.42569 1.628 -1.04391e-17)
(-0.0747072 1.85552 0)
(3.34565 2.45896 -5.75045e-18)
(7.93646 3.5937 0)
(13.2077 5.24475 -2.47466e-18)
(18.0821 6.78338 -3.31205e-18)
(-5.68197 1.62605 -1.17726e-18)
(-6.25876 1.77096 0)
(-6.26847 1.78254 0)
(-5.96001 1.72421 -1.30576e-18)
(-5.40521 1.63574 -1.55884e-17)
(-4.59124 1.54312 1.21276e-17)
(-3.45391 1.48131 0)
(-1.83384 1.50464 -2.13452e-18)
(0.540443 1.71948 -4.20042e-20)
(4.04864 2.30422 -2.60497e-18)
(8.87931 3.48737 -3.33529e-18)
(14.3584 5.05951 4.59755e-18)
(-5.76716 1.64623 1.21381e-18)
(-6.41839 1.83349 0)
(-6.49317 1.87193 0)
(-6.24955 1.8361 1.37727e-18)
(-5.7836 1.76232 0)
(-5.10497 1.66978 0)
(-4.18407 1.57812 0)
(-2.92488 1.51711 1.08483e-17)
(-1.12589 1.54181 -1.16859e-17)
(1.52169 1.76131 9.66247e-18)
(5.44048 2.39214 4.2036e-18)
(10.6669 3.68681 -5.5172e-18)
(-5.68259 1.62685 0)
(-6.42694 1.84532 0)
(-6.56578 1.90602 0)
(-6.37899 1.88548 0)
(-5.98213 1.82421 0)
(-5.39902 1.73964 0)
(-4.61694 1.64558 -1.32894e-18)
(-3.57847 1.55994 0)
(-2.14297 1.50996 -7.78549e-18)
(-0.0625981 1.56048 7.15087e-18)
(3.03151 1.82059 -5.20498e-18)
(7.58018 2.73118 3.32882e-18)
(-5.70882 1.63641 0)
(-6.54008 1.88791 0)
(-6.71586 1.96458 0)
(-6.56201 1.95725 -1.44468e-18)
(-6.20417 1.90798 0)
(-5.6744 1.83299 1.70311e-18)
(-4.96997 1.74346 2.73152e-18)
(-4.05719 1.65136 0)
(-2.83872 1.57181 0)
(-1.12191 1.54179 -7.06131e-18)
(1.39306 1.61352 1.79674e-17)
(5.22835 2.20886 -7.67503e-18)
(-5.75786 1.65475 -5.70383e-21)
(-6.66597 1.93418 -4.71271e-17)
(-6.86757 2.02238 3.23856e-17)
(-6.73888 2.02545 -4.51338e-17)
(-6.41081 1.98646 1.6547e-17)
(-5.91992 1.92151 -1.72639e-18)
(-5.26909 1.84084 -1.38639e-18)
(-4.43862 1.75386 -2.2972e-18)
(-3.36071 1.67075 3.93611e-18)
(-1.88802 1.61312 0)
(0.222747 1.61399 6.86425e-20)
(3.43347 1.96319 -4.3962e-18)
(-5.86193 1.68806 1.55633e-16)
(-6.82434 1.9876 -1.01271e-20)
(-7.04338 2.0835 -3.13143e-17)
(-6.93325 2.09421 0)
(-6.62767 2.06308 1.10581e-18)
(-6.16582 2.0061 1.56846e-17)
(-5.55382 1.933 -1.26337e-17)
(-4.78011 1.85191 2.29843e-18)
(-3.79718 1.77045 -3.90401e-18)
(-2.49296 1.70126 -3.47362e-18)
(-0.67318 1.66436 -6.31766e-18)
(2.03564 1.84881 4.91806e-18)
(-5.99827 1.72985 -1.53478e-16)
(-6.99433 2.0413 4.76969e-17)
(-7.22637 2.14178 6.86357e-21)
(-7.13133 2.15734 1.4631e-18)
(-6.84456 2.13121 0)
(-6.40686 2.07937 -1.74307e-18)
(-5.82619 2.01111 1.40774e-17)
(-5.09517 1.93377 -9.26166e-18)
(-4.17914 1.85327 -7.80243e-18)
(-2.99017 1.77615 3.42479e-18)
(-1.3691 1.7104 6.21247e-18)
(0.994012 1.77367 -5.32652e-18)
(-6.1558 1.77649 7.56045e-17)
(-7.1682 2.09292 9.987e-21)
(-7.41083 2.1956 7.04039e-21)
(-7.32864 2.21369 2.32931e-17)
(-7.05801 2.19005 1.10446e-18)
(-6.64122 2.14068 -2.80341e-17)
(-6.08757 2.07458 2.38929e-20)
(-5.39169 1.99869 9.2743e-18)
(-4.527 1.91854 3.86865e-18)
(-3.42218 1.83843 -6.76432e-18)
(-1.94367 1.76519 6.05386e-18)
(0.155073 1.76679 5.28132e-18)
(-6.31921 1.82366 7.45106e-17)
(-7.33478 2.13966 4.40568e-17)
(-7.5874 2.24282 -3.29335e-17)
(-7.51682 2.26145 -1.44909e-18)
(-7.2605 2.23797 -1.88841e-17)
(-6.86237 2.18838 1.40461e-17)
(-6.33304 2.12134 -1.41076e-18)
(-5.66823 2.04335 9.27987e-18)
(-4.84638 1.95952 -3.9045e-18)
(-3.80744 1.87151 -6.6854e-18)
(-2.43431 1.77631 5.96451e-18)
(-0.511609 1.69428 7.28392e-20)
(-6.47631 1.868 0)
(-7.48606 2.17988 0)
(-7.74963 2.28287 0)
(-7.6899 2.30077 0)
(-7.4463 2.27586 1.11587e-18)
(-7.06475 2.22424 -1.58444e-17)
(-6.55747 2.15435 1.42877e-18)
(-5.92132 2.07238 9.31641e-18)
(-5.13855 1.98358 3.89122e-18)
(-4.15756 1.89139 0)
(-2.86958 1.80437 0)
(-1.07648 1.71763 -1.03809e-17)
(-6.6171 1.90678 2.01955e-22)
(-7.61726 2.21277 9.0102e-17)
(-7.89297 2.3154 -3.18606e-17)
(-7.84335 2.33164 1.45891e-18)
(-7.61084 2.30399 -1.11351e-18)
(-7.24355 2.24862 -7.29513e-21)
(-6.75537 2.17347 6.09065e-21)
(-6.1446 2.08394 0)
(-5.39676 1.98424 -7.75325e-18)
(-4.46847 1.87557 9.91126e-18)
(-3.26538 1.75797 -1.15847e-17)
(-1.63219 1.60131 1.03917e-17)
(-6.73557 1.93893 -7.19522e-17)
(-7.72746 2.23953 -4.49054e-17)
(-8.01588 2.34231 3.1854e-17)
(-7.9755 2.3569 3.57212e-21)
(-7.75245 2.32652 0)
(-7.39685 2.26746 1.77119e-18)
(-6.92413 2.18737 1.00483e-17)
(-6.33406 2.09103 -7.05316e-18)
(-5.61478 1.98218 -7.79199e-18)
(-4.72877 1.86345 3.29265e-18)
(-3.58822 1.74133 0)
(-2.04601 1.57817 9.65933e-21)
(-6.83213 1.96484 0)
(-7.81984 2.26161 4.33655e-17)
(-8.12079 2.36511 -3.18432e-17)
(-8.08867 2.37841 -2.48403e-17)
(-7.8735 2.34566 1.9489e-21)
(-7.52718 2.28322 2.84892e-17)
(-7.06631 2.19833 -1.00907e-17)
(-6.49192 2.09498 -2.36141e-18)
(-5.79439 1.97549 7.82346e-18)
(-4.94302 1.83902 3.29594e-18)
(-3.86588 1.67839 0)
(-2.4371 1.47443 -4.95333e-18)
(-6.91122 1.9865 7.0749e-17)
(-7.90068 2.28225 -4.31995e-17)
(-8.21265 2.38727 -9.91505e-19)
(-8.18786 2.40043 2.778e-21)
(-7.97941 2.36681 1.12757e-18)
(-7.64062 2.30301 1.78831e-18)
(-7.18891 2.21628 4.19379e-21)
(-6.62596 2.11046 1.18588e-17)
(-5.94326 1.9876 -7.84184e-18)
(-5.11358 1.84676 2.87409e-21)
(-4.07051 1.68051 -5.65518e-18)
(-2.68359 1.48231 4.87253e-18)
(-6.98074 2.00577 7.0204e-17)
(-7.97465 2.30184 -8.87962e-17)
(-8.29667 2.40867 3.27394e-17)
(-8.27863 2.42232 0)
(-8.07637 2.38867 -1.12511e-18)
(-7.74459 2.32464 -1.78713e-18)
(-7.30156 2.23761 -1.44864e-18)
(-6.74985 2.13152 -2.37662e-18)
(-6.08239 2.0089 3.92649e-18)
(-5.2759 1.87136 -3.29068e-18)
(-4.27004 1.72189 1.68373e-17)
(-2.94359 1.55353 -1.44794e-17)
(-7.0442 2.02368 0)
(-8.04458 2.32108 4.41828e-17)
(-8.3755 2.42983 -3.16713e-17)
(-8.36357 2.44428 2.33637e-17)
(-8.1669 2.41092 -3.60016e-17)
(-7.84145 2.34698 1.79222e-18)
(-7.40622 2.25985 1.45488e-18)
(-6.86446 2.1534 1.90345e-17)
(-6.2104 2.02987 -3.93566e-18)
(-5.42516 1.88998 0)
(-4.46147 1.73148 -1.11616e-17)
(-3.23449 1.54976 3.9608e-21)
(-7.10519 2.04105 6.41258e-22)
(-8.11253 2.34019 8.79196e-17)
(-8.45141 2.45085 -6.31652e-17)
(-8.44502 2.46634 2.33351e-17)
(-8.25346 2.4337 0)
(-7.93387 2.37045 -1.78756e-18)
(-7.50585 2.28417 1.01467e-17)
(-6.97313 2.17884 -9.52149e-18)
(-6.33047 2.05701 -3.44994e-22)
(-5.56084 1.92016 3.27453e-18)
(-4.62148 1.76698 -1.57783e-21)
(-3.43177 1.59443 4.70045e-18)
(-7.16504 2.05822 6.86428e-17)
(-8.17907 2.35913 -4.37276e-17)
(-8.52512 2.47151 9.83759e-19)
(-8.5238 2.48789 2.32912e-17)
(-8.33699 2.45579 -1.90938e-17)
(-8.02296 2.393 -1.60748e-17)
(-7.60201 2.30719 1.45378e-18)
(-7.07843 2.20235 9.51924e-18)
(-6.44766 2.081 -1.1784e-17)
(-5.69456 1.94458 3.27003e-18)
(-4.78069 1.79098 -2.79346e-22)
(-3.6299 1.61602 -4.6398e-18)
(-7.22416 2.07506 6.81356e-17)
(-8.24416 2.37748 -8.69923e-17)
(-8.59686 2.49147 6.17875e-17)
(-8.60002 2.50867 -4.6494e-17)
(-8.41745 2.4771 3.7013e-17)
(-8.10845 2.41479 3.5658e-18)
(-7.69394 2.32947 -2.6075e-17)
(-7.17874 2.22515 9.51567e-18)
(-6.55895 2.10435 0)
(-5.82096 1.96877 9.7771e-18)
(-4.92965 1.81756 -6.61299e-21)
(-3.81213 1.65359 4.58146e-18)
(-7.28213 2.09171 0)
(-8.30808 2.39571 1.35119e-18)
(-8.66655 2.51103 3.2247e-17)
(-8.67369 2.52884 -2.17439e-17)
(-8.49491 2.49757 -1.79132e-17)
(-8.19048 2.43548 1.42616e-17)
(-7.78184 2.35034 -1.01291e-17)
(-7.27432 2.24606 1.90148e-17)
(-6.66465 2.125 -7.85038e-18)
(-5.94079 1.98852 -3.25497e-18)
(-5.07162 1.83466 5.15143e-21)
(-3.99171 1.66149 9.06362e-18)
(-7.33955 2.10805 6.71195e-17)
(-8.37066 2.41334 -8.73666e-17)
(-8.73442 2.52991 3.01803e-17)
(-8.74501 2.54827 2.31264e-17)
(-8.56956 2.51734 -3.18408e-21)
(-8.26917 2.45554 -1.60197e-17)
(-7.86572 2.37068 1.1562e-17)
(-7.36492 2.26658 -4.24634e-21)
(-6.76394 2.1455 -7.84254e-18)
(-6.05186 2.00865 0)
(-5.19994 1.85442 0)
(-4.14559 1.67967 -4.54291e-18)
(-7.39592 2.12423 -6.66214e-17)
(-8.43231 2.43093 0)
(-8.80067 2.5486 0)
(-8.81423 2.56741 -2.30566e-17)
(-8.64175 2.53671 1.11694e-18)
(-8.34507 2.47513 1.42093e-17)
(-7.94642 2.39053 1.00994e-17)
(-7.4518 2.28671 -9.48543e-18)
(-6.85883 2.16586 7.8266e-18)
(-6.15762 2.02926 -5.17532e-21)
(-5.32196 1.8763 -5.4147e-18)
(-4.29441 1.70561 0)
(-7.4518 2.14022 -6.6124e-17)
(-8.49315 2.44818 4.38363e-17)
(-8.86538 2.56669 -2.99252e-17)
(-8.88147 2.58581 -1.4368e-18)
(-8.71164 2.5553 -1.8892e-17)
(-8.41839 2.49393 2.83461e-17)
(-8.0242 2.40957 -2.15962e-17)
(-7.53534 2.30597 9.46689e-18)
(-6.94978 2.18523 -7.81215e-18)
(-6.2586 2.04858 -3.22703e-18)
(-5.4382 1.89531 5.39081e-18)
(-4.43658 1.72479 4.47028e-18)
(-7.50684 2.15608 -4.43518e-22)
(-8.55288 2.46529 -8.71355e-17)
(-8.9283 2.58445 -1.91915e-18)
(-8.94654 2.60374 2.28923e-17)
(-8.77913 2.57328 -1.66156e-17)
(-8.4891 2.512 2.67545e-21)
(-8.09914 2.42778 1.14899e-17)
(-7.61569 2.32433 0)
(-7.03708 2.20366 -7.79533e-18)
(-6.35521 2.06701 7.37496e-21)
(-5.54862 1.91403 4.87978e-21)
(-4.56926 1.74396 0)
(-7.56157 2.17169 6.51109e-17)
(-8.611 2.4817 -4.06759e-17)
(-8.98937 2.60137 3.15484e-17)
(-9.00936 2.62069 -2.27987e-17)
(-8.84407 2.5902 -1.87623e-17)
(-8.55699 2.52893 2.55896e-21)
(-8.17096 2.44472 1.28859e-17)
(-7.6925 2.34118 0)
(-7.12019 2.22017 3.88536e-18)
(-6.44684 2.08274 6.43457e-18)
(-5.65375 1.92839 1.06798e-17)
(-4.69848 1.7589 2.71172e-21)
(-7.61478 2.1869 0)
(-8.66803 2.49792 0)
(-9.04859 2.61805 0)
(-9.06986 2.63731 -2.12774e-17)
(-8.90641 2.60672 2.40097e-21)
(-8.62207 2.54541 2.58215e-21)
(-8.23963 2.46119 3.84423e-22)
(-7.76551 2.3575 1.17322e-17)
(-7.1983 2.23591 -7.75221e-18)
(-6.53117 2.0967 9.61436e-18)
(-5.74711 1.93697 -1.06442e-17)
(-4.80553 1.75261 -4.35124e-18)
(-7.6676 2.20196 0)
(-8.72436 2.51387 0)
(-9.1064 2.63426 0)
(-9.12849 2.6534 -1.41306e-18)
(-8.96664 2.62281 0)
(-8.68491 2.56168 1.74516e-18)
(-8.30597 2.47777 -1.42099e-17)
(-7.83604 2.3745 9.34695e-18)
(-7.2735 2.25348 -3.85641e-18)
(-6.61154 2.11553 6.38519e-18)
(-5.83347 1.9605 -5.29287e-18)
(-4.90219 1.78236 4.27473e-18)
(-7.71934 2.21686 0)
(-8.78016 2.52992 0)
(-9.1628 2.65038 0)
(-9.18524 2.66925 -1.40294e-18)
(-9.02485 2.63852 0)
(-8.74573 2.57742 -1.56517e-17)
(-8.37036 2.49368 1.2737e-17)
(-7.90472 2.39062 -1.1638e-17)
(-7.34697 2.26967 1.53798e-17)
(-6.69055 2.13099 -6.35597e-18)
(-5.92073 1.97169 -5.25742e-18)
(-5.00565 1.78467 -8.3747e-18)
(-7.77112 2.23181 0)
(-8.83598 2.54596 -1.27601e-18)
(-9.21791 2.66599 0)
(-9.24027 2.68447 3.19775e-21)
(-9.08119 2.65365 -1.08253e-18)
(-8.80467 2.59273 1.38448e-17)
(-8.43292 2.50939 -2.39387e-17)
(-7.97161 2.40691 1.15817e-17)
(-7.41862 2.28674 0)
(-6.76712 2.1494 -9.479e-18)
(-6.00182 1.99433 5.23228e-18)
(-5.08639 1.81657 4.28821e-18)
(-7.82343 2.24701 0)
(-8.89095 2.5619 1.26989e-18)
(-9.27149 2.68129 0)
(-9.29339 2.6992 2.77756e-18)
(-9.13555 2.66811 1.07926e-18)
(-8.8617 2.60718 1.71945e-18)
(-8.49373 2.52403 2.80198e-18)
(-8.03701 2.42181 -1.15263e-17)
(-7.48911 2.30183 3.05516e-21)
(-6.84327 2.1643 1.2581e-17)
(-6.08592 2.00789 5.19335e-18)
(-5.18824 1.82861 1.11298e-20)
(-7.87646 2.2623 0)
(-8.94493 2.57739 0)
(-9.32344 2.69588 0)
(-9.34451 2.71309 -3.76493e-21)
(-9.18777 2.68171 0)
(-8.91659 2.62083 -1.71442e-18)
(-8.55249 2.53797 -2.78686e-18)
(-8.10046 2.43622 0)
(-7.5576 2.31684 3.79035e-18)
(-6.91645 2.18014 -9.38363e-18)
(-6.1628 2.02547 -1.0326e-17)
(-5.26635 1.85004 1.02877e-20)
(-7.92941 2.27751 0)
(-8.99789 2.59247 0)
(-9.37358 2.70987 0)
(-9.39341 2.72619 -4.12532e-21)
(-9.2377 2.69438 0)
(-8.96933 2.63342 -1.69954e-18)
(-8.60937 2.55072 1.38561e-17)
(-8.16248 2.44927 -9.12052e-18)
(-7.62547 2.33025 -3.75928e-18)
(-6.9904 2.19404 3.11254e-18)
(-6.24212 2.03992 9.15123e-21)
(-5.34921 1.85951 4.13678e-18)
(-7.98209 2.29253 -6.09746e-17)
(-9.04929 2.60681 7.93637e-17)
(-9.4214 2.72274 -2.91051e-17)
(-9.43961 2.73793 -2.72242e-18)
(-9.28483 2.70557 0)
(-9.0193 2.64444 3.38227e-18)
(-8.66361 2.56178 -4.57082e-21)
(-8.22212 2.46049 -2.26268e-18)
(-7.69158 2.34176 0)
(-7.06413 2.20659 9.68702e-21)
(-6.32444 2.05793 -5.08048e-18)
(-5.4379 1.89494 8.16313e-18)
(-8.03284 2.30712 -9.42547e-19)
(-9.09859 2.62066 0)
(-9.46614 2.73478 0)
(-9.48234 2.74858 5.09506e-21)
(-9.32841 2.71541 -1.04806e-18)
(-9.0657 2.6538 1.17526e-17)
(-8.71417 2.57075 -1.23146e-17)
(-8.27779 2.4689 8.41069e-21)
(-7.75313 2.34912 0)
(-7.13304 2.21125 -8.0955e-23)
(-6.40611 2.05402 1.51797e-17)
(-5.55059 1.8695 -2.14287e-20)
(-8.08243 2.32144 1.87132e-18)
(-9.14608 2.634 -3.90321e-17)
(-9.50767 2.74578 2.86334e-17)
(-9.52155 2.75811 2.27769e-17)
(-9.36844 2.72422 -1.56242e-17)
(-9.10858 2.66232 1.33296e-17)
(-8.76117 2.57921 -1.22148e-17)
(-8.32958 2.47737 2.23971e-18)
(-7.80976 2.35747 7.39021e-18)
(-7.19397 2.21896 -1.83029e-17)
(-6.47072 2.05913 -5.02975e-18)
(-5.61597 1.87431 -7.34597e-21)
(-8.13147 2.33566 -9.28988e-19)
(-9.19046 2.64649 0)
(-9.54558 2.7557 0)
(-9.55706 2.76646 -1.32467e-18)
(-9.40492 2.73174 1.65241e-17)
(-9.14821 2.66947 -1.32179e-17)
(-8.80543 2.58628 6.09802e-21)
(-8.37937 2.48456 8.86878e-18)
(-7.86544 2.36495 -7.33178e-18)
(-7.25519 2.22736 9.08376e-18)
(-6.53604 2.07106 -4.99093e-18)
(-5.68274 1.89011 4.05789e-18)
(-8.17955 2.34947 -5.87467e-17)
(-9.23108 2.65758 0)
(-9.57928 2.76387 -2.81292e-17)
(-9.58827 2.77282 2.23715e-17)
(-9.43722 2.73713 0)
(-9.18391 2.67433 0)
(-8.8461 2.59083 1.20136e-17)
(-8.42611 2.48889 -8.79165e-18)
(-7.91893 2.36905 0)
(-7.31584 2.23128 -2.9924e-18)
(-6.60492 2.07567 -4.94488e-18)
(-5.76418 1.90165 0)
(-8.22527 2.36249 5.72593e-17)
(-9.2673 2.66723 -3.80321e-17)
(-9.608 2.77038 2.78688e-17)
(-9.61442 2.77739 -2.08504e-17)
(-9.46458 2.74053 0)
(-9.21485 2.67698 1.29785e-17)
(-8.88223 2.59288 -1.05763e-17)
(-8.46847 2.49028 2.17138e-18)
(-7.96806 2.36948 0)
(-7.37189 2.22987 2.98086e-18)
(-6.66863 2.06923 -9.76277e-18)
(-5.83864 1.88286 9.02607e-21)
(-8.26817 2.37465 9.02526e-19)
(-9.29842 2.67525 7.53917e-17)
(-9.63108 2.77483 -5.52081e-17)
(-9.63494 2.77975 2.06434e-17)
(-9.48648 2.74166 1.70613e-17)
(-9.24057 2.67731 -1.28492e-17)
(-8.91343 2.59262 0)
(-8.50623 2.48951 -4.31221e-18)
(-8.01291 2.36815 0)
(-7.42366 2.22799 0)
(-6.72624 2.06783 1.18487e-20)
(-5.89901 1.8853 1.03441e-20)
(-8.30763 2.38579 -5.69706e-17)
(-9.32357 2.68147 3.85044e-17)
(-9.6476 2.77716 2.73271e-17)
(-9.64904 2.77983 -2.16992e-17)
(-9.50219 2.74028 -9.96852e-19)
(-9.26038 2.67487 1.27197e-17)