/*--------------------------------*- C++ -*----------------------------------*\
| =========                 |                                                 |
| \\      /  F ield         | OpenFOAM: The Open Source CFD Toolbox           |
|  \\    /   O peration     | Version:  2.3.0                                 |
|   \\  /    A nd           | Web:      www.OpenFOAM.org                      |
|    \\/     M anipulation  |                                                 |
\*---------------------------------------------------------------------------*/
FoamFile
{
    version     2.0;
    format      ascii;
    class       volScalarField;
    location    "5000";
    object      p;
}
// * * * * * * * * * * * * * * * * * * * * * * * * * * * * * * * * * * * * * //

dimensions      [0 2 -2 0 0 0 0];

internalField   nonuniform List<scalar> 
6692
(
-0.184147
0.194724
1.23944
3.047
5.88021
9.95988
15.5314
23.435
34.3641
45.7231
53.4179
69.0966
18.2546
21.9582
26.9147
33.3793
41.5772
51.6161
63.4734
77.0651
92.1096
108.103
124.668
141.475
33.188
38.4801
44.5812
51.3916
58.8926
67.0271
75.7076
84.8208
94.1859
103.627
112.993
122.149
44.0902
49.8112
56.2252
63.178
70.6354
78.5082
86.6804
95.0177
103.367
111.572
119.48
126.952
52.3394
57.7251
63.6255
69.7933
76.2233
82.86
89.6369
96.485
103.319
110.049
116.581
122.839
58.6565
63.5299
68.9329
74.5166
80.2962
86.2251
92.254
98.3303
104.388
110.36
116.173
121.765
63.4467
67.7128
72.5813
77.5742
82.7319
88.0191
93.4038
98.8457
104.294
109.694
114.985
120.109
66.8167
70.7318
75.1738
79.6982
84.387
89.2083
94.1267
99.1057
104.097
109.079
114.002
118.798
69.9891
73.401
77.3169
81.4044
85.7152
90.1139
94.6485
99.2967
103.978
108.658
113.269
117.801
73.4233
75.856
79.5204
83.1459
87.0694
90.9768
95.112
99.5613
104.18
108.752
113.056
117.326
120.545
149.398
168.481
183.341
195.598
205.041
211.507
214.99
215.636
213.809
210.482
206.823
156.589
168.739
178.751
186.879
193.137
197.562
200.288
201.521
201.46
200.305
198.589
196.728
131.104
140.016
148.705
156.906
164.399
170.998
176.541
180.904
183.996
185.812
186.692
186.889
134.001
140.765
147.238
153.298
158.835
163.762
168.014
171.546
174.314
176.308
177.73
178.657
128.853
134.716
140.4
145.809
150.853
155.459
159.568
163.129
166.098
168.453
170.318
171.731
127.134
132.328
137.326
142.065
146.483
150.535
154.186
157.407
160.175
162.47
164.409
166.058
125.05
129.825
134.402
138.73
142.759
146.462
149.82
152.808
155.425
157.635
159.544
161.209
123.439
127.913
132.177
136.184
139.895
143.307
146.433
149.212
151.698
153.796
155.643
157.299
122.209
126.445
130.444
134.197
137.694
140.914
143.903
146.47
148.845
150.739
152.502
154.071
121.462
125.407
129.111
132.616
135.914
138.946
141.726
143.961
146.226
147.873
149.608
151.02
-53.3195
-54.2937
-55.0004
-55.3836
-55.3617
-54.9043
-54.0051
-52.6759
-50.9347
-48.7526
-45.6312
-39.0738
-52.847
-53.5466
-54.1813
-54.4226
-54.1557
-53.3085
-51.7451
-49.308
-45.8064
-41.0088
-34.8416
-27.6648
-51.1616
-51.784
-52.2053
-52.1514
-51.4922
-50.1578
-48.058
-45.0908
-41.1578
-36.2386
-30.4756
-24.3414
-48.9686
-49.307
-49.4608
-49.1395
-48.232
-46.6903
-44.4571
-41.4858
-37.7639
-33.3512
-28.4163
-23.282
-46.4451
-46.6542
-46.6251
-46.1369
-45.1152
-43.5245
-41.3233
-38.4873
-35.0278
-31.0052
-26.5575
-21.9319
-43.7286
-44.0286
-43.8902
-43.3072
-42.2483
-40.691
-38.5849
-35.9119
-32.6832
-28.9485
-24.8123
-20.4716
-41.0684
-41.5217
-41.3365
-40.7201
-39.6634
-38.1968
-36.2188
-33.6992
-30.6571
-27.1534
-23.2612
-19.1422
-38.7839
-39.232
-38.9968
-38.3921
-37.3182
-35.9575
-34.1086
-31.677
-28.7041
-25.3392
-21.5714
-17.5392
-36.7115
-37.1327
-36.9112
-36.411
-35.2039
-34.0906
-32.5256
-30.173
-27.253
-24.1714
-20.6871
-16.919
-33.7855
-34.355
-34.5001
-33.7664
-31.4686
-31.1579
-30.5078
-27.126
-23.3062
-20.4139
-16.7616
-12.451
-25.5877
-18.8904
-14.2329
-9.63286
-5.03239
-0.534157
3.89275
8.31021
12.7807
17.3459
22.0144
26.8342
-20.0758
-15.4342
-12.5791
-9.53188
-6.08614
-2.30128
1.7356
5.94435
10.2806
14.7257
19.2293
23.7362
-18.4064
-13.0562
-9.59007
-6.73553
-3.77323
-0.627843
2.70933
6.23052
9.93114
13.8121
17.8453
21.9281
-18.2124
-13.2126
-9.41407
-6.42156
-3.38784
-0.277828
2.92588
6.23103
9.65145
13.2056
16.9053
20.7751
-17.3345
-12.8286
-9.05526
-6.0674
-3.06318
-0.0132792
3.0974
6.26875
9.508
12.8193
16.2335
19.8099
-16.1324
-11.9021
-8.16808
-5.1572
-2.20457
0.748922
3.71922
6.71139
9.73348
12.7789
15.8878
19.192
-14.9776
-10.8851
-7.16882
-4.11732
-1.19927
1.67832
4.52603
7.35739
10.1834
12.9981
15.8445
18.8987
-13.4317
-9.4533
-5.91956
-2.98368
-0.175461
2.59884
5.33291
8.02995
10.693
13.3213
15.9516
18.7436
-12.8724
-8.67296
-4.96586
-1.97112
0.800228
3.50561
6.14983
8.73369
11.248
13.7142
16.1596
18.7047
-7.82422
-3.99886
-2.43935
-0.592621
1.77966
4.26236
6.84077
9.34471
11.6992
14.0305
16.3347
18.684
-165.702
-153.129
-138.892
-126.928
-114.089
-99.5588
-84.7463
-70.365
-56.7289
-44.3674
-33.8241
-25.721
-95.5385
-95.5943
-94.7468
-93.4692
-92.3508
-90.9625
-88.0767
-83.0926
-75.9658
-66.9103
-56.4251
-46.3111
-101.678
-101.546
-101.543
-101.285
-100.253
-98.2211
-95.3054
-91.376
-85.9421
-78.7844
-69.8376
-60.7383
-94.6962
-94.672
-94.5829
-94.4274
-94.1548
-93.6295
-92.5979
-90.8701
-88.2155
-84.061
-77.715
-71.0886
-93.9898
-93.9754
-93.9587
-93.896
-93.7393
-93.4165
-92.7882
-91.6408
-89.7867
-86.9571
-82.4641
-77.1638
-92.0869
-92.075
-92.0491
-91.9956
-91.8951
-91.7128
-91.3821
-90.777
-89.7123
-87.9072
-84.8515
-79.7417
-91.1012
-91.091
-91.0719
-91.0302
-90.9512
-90.8084
-90.5621
-90.1366
-89.4022
-88.161
-86.043
-81.2132
-90.1923
-90.1822
-90.16
-90.1167
-90.0428
-89.9201
-89.7225
-89.4007
-88.8703
-87.9881
-86.5305
-82.6509
-89.6084
-89.5976
-89.5751
-89.5324
-89.4619
-89.3492
-89.1733
-88.9013
-88.4817
-87.827
-86.8081
-84.0975
-89.2191
-89.2084
-89.1869
-89.147
-89.0831
-88.983
-88.8296
-88.6004
-88.2648
-87.7662
-86.9948
-85.066
-89.0008
-88.9917
-88.973
-88.9388
-88.8847
-88.8002
-88.6707
-88.4792
-88.2047
-87.807
-87.1888
-85.6555
-88.88
-88.8732
-88.8588
-88.8331
-88.7931
-88.7306
-88.6344
-88.4912
-88.2866
-87.995
-87.5535
-86.7044
-88.7842
-88.7802
-88.7708
-88.7545
-88.7294
-88.6898
-88.627
-88.5284
-88.3812
-88.1736
-87.8566
-86.8578
-88.6438
-88.6426
-88.6388
-88.6328
-88.6243
-88.6108
-88.5874
-88.5466
-88.4796
-88.3708
-88.1858
-88.1321
-88.3906
-88.3915
-88.3918
-88.3928
-88.3954
-88.3984
-88.3994
-88.3919
-88.3665
-88.308
-88.1645
-87.6934
-87.9995
-88.0013
-88.0042
-88.0094
-88.0185
-88.0319
-88.0496
-88.0689
-88.0837
-88.072
-88.0223
-88.4474
-87.4772
-87.4781
-87.4802
-87.4832
-87.488
-87.4939
-87.4997
-87.5
-87.4852
-87.4371
-87.3098
-86.7856
-86.8889
-86.8886
-86.889
-86.889
-86.8884
-86.8857
-86.8787
-86.8609
-86.8221
-86.7429
-86.5515
-85.8276
-86.2678
-86.267
-86.2663
-86.2641
-86.2597
-86.2511
-86.2357
-86.208
-86.1576
-86.0595
-85.8664
-85.7413
-85.6503
-85.6492
-85.647
-85.6421
-85.6334
-85.6183
-85.5932
-85.551
-85.4794
-85.3561
-85.1358
-84.6972
-85.055
-85.0539
-85.0514
-85.046
-85.0365
-85.0202
-84.9938
-84.9512
-84.8821
-84.7717
-84.6025
-84.378
-84.4888
-84.4878
-84.485
-84.4789
-84.4685
-84.4513
-84.4241
-84.3808
-84.3119
-84.2036
-84.0399
-83.7787
-83.9502
-83.9494
-83.9466
-83.9408
-83.9309
-83.9145
-83.889
-83.8494
-83.7876
-83.6922
-83.5458
-83.3301
-83.4386
-83.4378
-83.4348
-83.4286
-83.4184
-83.402
-83.3769
-83.3383
-83.279
-83.1901
-83.0625
-82.8341
-82.9496
-82.9489
-82.9461
-82.9401
-82.9301
-82.9138
-82.8889
-82.8508
-82.7929
-82.7063
-82.5769
-82.3593
-82.4891
-82.4882
-82.485
-82.4784
-82.4678
-82.4511
-82.4259
-82.388
-82.3312
-82.2463
-82.1178
-81.9226
-82.05
-82.0492
-82.0461
-82.0397
-82.0293
-82.0128
-81.9877
-81.9501
-81.8941
-81.8108
-81.683
-81.4736
-81.6368
-81.6359
-81.6325
-81.626
-81.6155
-81.5992
-81.5751
-81.5394
-81.4867
-81.4094
-81.2946
-81.1226
-81.2383
-81.2377
-81.2347
-81.2286
-81.2187
-81.203
-81.1795
-81.1449
-81.0949
-81.0239
-80.9254
-80.7992
-80.8642
-80.8634
-80.86
-80.8532
-80.8423
-80.8256
-80.8006
-80.7635
-80.7091
-80.6308
-80.5162
-80.2584
-80.5076
-80.5069
-80.5036
-80.4971
-80.4865
-80.4701
-80.4456
-80.4095
-80.357
-80.2815
-80.1807
-80.1308
-80.1745
-80.1734
-80.1696
-80.1624
-80.1509
-80.1335
-80.1076
-80.0693
-80.0135
-79.9355
-79.8303
-79.5917
-79.8575
-79.8565
-79.8528
-79.8458
-79.8346
-79.8175
-79.7919
-79.7542
-79.6999
-79.6236
-79.5191
-79.3998
-79.5629
-79.5616
-79.5574
-79.5497
-79.5378
-79.5198
-79.493
-79.4535
-79.396
-79.3132
-79.1935
-78.9965
-79.2848
-79.2837
-79.2798
-79.2725
-79.261
-79.2434
-79.2172
-79.1784
-79.1219
-79.0398
-78.9192
-78.7571
-79.0296
-79.0284
-79.0243
-79.017
-79.0057
-78.9888
-78.9636
-78.9264
-78.8717
-78.7905
-78.6674
-78.4728
-78.7841
-78.7831
-78.7795
-78.7732
-78.7633
-78.7485
-78.7266
-78.6948
-78.6491
-78.5811
-78.4835
-78.5069
-78.5506
-78.5493
-78.5455
-78.5386
-78.5284
-78.5131
-78.4904
-78.457
-78.4083
-78.3401
-78.2519
-78.1196
-78.3242
-78.3228
-78.3191
-78.3127
-78.303
-78.2881
-78.2657
-78.2319
-78.1819
-78.111
-78.0107
-77.7905
-78.1087
-78.1072
-78.1035
-78.0972
-78.0881
-78.0745
-78.054
-78.0232
-77.9773
-77.9092
-77.8096
-77.6903
-77.8907
-77.8896
-77.8866
-77.8817
-77.8743
-77.863
-77.8458
-77.8196
-77.7805
-77.7227
-77.6424
-77.5688
-77.6747
-77.6735
-77.6707
-77.6661
-77.6595
-77.6496
-77.6343
-77.6105
-77.5735
-77.5184
-77.4408
-77.2948
-77.4484
-77.4474
-77.4452
-77.442
-77.4375
-77.4305
-77.4192
-77.4009
-77.3716
-77.3265
-77.2605
-77.1587
-77.2113
-77.2102
-77.2084
-77.206
-77.203
-77.1985
-77.1909
-77.1779
-77.1558
-77.1201
-77.0649
-76.9774
-76.9497
-76.9492
-76.9484
-76.948
-76.9477
-76.9471
-76.9448
-76.9387
-76.9256
-76.9003
-76.8506
-76.7157
-76.6625
-76.6626
-76.6627
-76.664
-76.6665
-76.6702
-76.6745
-76.6783
-76.6796
-76.6748
-76.6597
-76.662
-76.3346
-76.335
-76.3356
-76.3383
-76.3434
-76.3509
-76.3606
-76.3721
-76.3843
-76.3956
-76.4093
-76.4484
-75.9564
-75.9584
-75.9607
-75.9658
-75.9737
-75.9849
-75.9993
-76.0165
-76.035
-76.0533
-76.0663
-76.0042
-75.5337
-75.536
-75.5393
-75.5464
-75.5573
-75.5728
-75.5931
-75.6183
-75.6475
-75.6782
-75.7105
-75.7781
-75.0581
-75.061
-75.0654
-75.0742
-75.0879
-75.1074
-75.1334
-75.1661
-75.2056
-75.2506
-75.2995
-75.3464
-74.5211
-74.5248
-74.5307
-74.5422
-74.5598
-74.5847
-74.6177
-74.6598
-74.711
-74.7704
-74.8296
-74.827
-73.9189
-73.9234
-73.9312
-73.9457
-73.9677
-73.999
-74.0412
-74.0961
-74.165
-74.2481
-74.348
-74.4818
-73.2425
-73.2467
-73.2558
-73.2731
-73.2993
-73.3369
-73.3877
-73.4538
-73.537
-73.6387
-73.7678
-73.967
-72.4809
-72.4867
-72.4988
-72.5202
-72.5523
-72.5976
-72.6585
-72.7373
-72.8352
-72.9532
-73.0825
-73.0786
-71.6355
-71.6421
-71.6567
-71.6829
-71.7221
-71.7779
-71.8537
-71.9538
-72.0822
-72.2416
-72.4343
-72.7614
-70.6881
-70.6958
-70.713
-70.7438
-70.7899
-70.8553
-70.9445
-71.0625
-71.2142
-71.4048
-71.6358
-71.8793
-69.6296
-69.6388
-69.6593
-69.6958
-69.75
-69.8269
-69.9317
-70.0704
-70.2488
-70.4717
-70.7394
-71.0789
-68.4543
-68.4653
-68.4897
-68.5327
-68.5961
-68.6859
-68.8081
-68.9701
-69.1785
-69.4381
-69.7474
-70.1269
-67.156
-67.1684
-67.1968
-67.2468
-67.3208
-67.4257
-67.5689
-67.759
-68.0045
-68.311
-68.6764
-69.1292
-65.7165
-65.7323
-65.7667
-65.8261
-65.9135
-66.0366
-66.2047
-66.428
-66.7165
-67.0775
-67.5082
-68.0181
-64.1401
-64.1584
-64.1988
-64.268
-64.3696
-64.5132
-64.7094
-64.9704
-65.3086
-65.7335
-66.2542
-66.9373
-62.4134
-62.4352
-62.4824
-62.5628
-62.6807
-62.847
-63.0741
-63.3761
-63.7671
-64.2577
-64.8518
-65.5539
-60.5338
-60.5596
-60.6151
-60.7088
-60.8458
-61.0387
-61.302
-61.652
-62.1052
-62.6741
-63.3601
-64.1975
-58.5011
-58.532
-58.5975
-58.7066
-58.8658
-59.0892
-59.3937
-59.7976
-60.3192
-60.972
-61.7544
-62.6226
-56.3242
-56.3607
-56.4375
-56.5647
-56.7497
-57.0097
-57.3636
-57.8326
-58.4368
-59.1884
-60.0892
-61.211
-54.0038
-54.0483
-54.14
-54.2893
-54.5062
-54.8098
-55.2228
-55.7688
-56.4703
-57.3428
-58.3887
-59.5754
-51.566
-51.6194
-51.7281
-51.9033
-52.1574
-52.5127
-52.9948
-53.6308
-54.4454
-55.4537
-56.658
-58.069
-49.0371
-49.1012
-49.231
-49.4378
-49.7364
-50.1527
-50.7158
-51.4552
-52.3963
-53.5515
-54.8999
-56.3431
-46.482
-46.5597
-46.7153
-46.9603
-47.313
-47.8028
-48.4627
-49.3242
-50.4118
-51.7312
-53.2411
-54.7938
-43.972
-44.0681
-44.2576
-44.5515
-44.9728
-45.5548
-46.3335
-47.3413
-48.5976
-50.0943
-51.7653
-53.444
-41.5625
-41.6891
-41.931
-42.2971
-42.8159
-43.5253
-44.4619
-45.6532
-47.1043
-48.7799
-50.5909
-52.3923
-39.5729
-39.7321
-40.0395
-40.5
-41.1484
-42.0242
-43.1569
-44.5567
-46.2012
-48.0198
-49.9213
-51.8047
-38.5639
-38.7535
-39.1587
-39.7567
-40.5638
-41.6102
-42.9205
-44.4901
-46.2661
-48.1399
-50.0109
-51.8383
-37.6471
-37.8937
-38.4495
-39.3229
-40.5035
-41.9771
-43.703
-45.5933
-47.5001
-49.2662
-50.7437
-51.7538
-39.3076
-42.1564
-44.2675
-45.7011
-46.7813
-47.7779
-48.7683
-49.7609
-50.7332
-51.6055
-52.2518
-52.5229
355.417
351.42
343.879
333.006
318.759
302.172
284.551
267.283
251.456
237.582
225.937
216.854
274.027
274.452
273.161
271.225
268.755
265.5
261.057
255.135
247.679
238.937
229.657
220.755
263.09
263.261
262.519
261.274
259.351
256.652
253.1
248.633
243.171
236.651
229.304
221.727
261.004
260.449
259.315
257.781
255.734
253.069
249.685
245.505
240.482
234.592
227.944
220.895
248.083
247.763
247.262
246.498
245.387
243.83
241.706
238.878
235.218
230.624
225.109
218.879
237.345
237.206
236.993
236.586
235.947
234.991
233.613
231.688
229.075
225.631
221.288
216.168
229.975
229.872
229.688
229.344
228.826
228.067
226.983
225.474
223.42
220.683
217.154
212.91
223.407
223.325
223.171
222.891
222.476
221.869
221.004
219.797
218.144
215.92
213.002
209.445
217.222
217.164
217.049
216.837
216.519
216.048
215.369
214.411
213.08
211.262
208.82
205.711
211.665
211.622
211.531
211.361
211.105
210.725
210.174
209.392
208.297
206.787
204.73
202.026
206.655
206.621
206.545
206.403
206.188
205.87
205.409
204.754
203.835
202.564
200.824
198.508
202.036
202.009
201.945
201.825
201.644
201.375
200.985
200.43
199.65
198.567
197.079
195.082
197.74
197.718
197.664
197.562
197.407
197.177
196.844
196.369
195.7
194.77
193.485
191.753
193.724
193.706
193.66
193.572
193.438
193.239
192.95
192.538
191.957
191.147
190.017
188.461
189.949
189.936
189.896
189.819
189.702
189.527
189.274
188.913
188.404
187.695
186.706
185.331
186.382
186.373
186.339
186.271
186.167
186.013
185.789
185.471
185.022
184.399
183.541
182.335
182.993
182.988
182.958
182.897
182.805
182.667
182.467
182.181
181.776
181.208
180.422
179.289
179.764
179.762
179.734
179.68
179.597
179.473
179.293
179.036
178.672
178.163
177.469
176.53
176.678
176.676
176.651
176.603
176.528
176.416
176.253
176.021
175.694
175.235
174.602
173.771
173.716
173.715
173.692
173.649
173.58
173.478
173.33
173.12
172.823
172.405
171.826
171.08
170.863
170.862
170.842
170.803
170.74
170.647
170.512
170.319
170.047
169.664
169.132
168.451
168.111
168.11
168.091
168.055
167.998
167.912
167.788
167.611
167.361
167.011
166.525
165.923
165.444
165.443
165.427
165.394
165.342
165.263
165.148
164.986
164.756
164.434
163.985
163.433
162.861
162.859
162.845
162.814
162.765
162.692
162.586
162.435
162.222
161.924
161.506
161.003
160.346
160.345
160.332
160.305
160.26
160.192
160.093
159.953
159.755
159.477
159.088
158.636
157.895
157.895
157.885
157.86
157.818
157.755
157.664
157.533
157.349
157.091
156.725
156.313
155.508
155.509
155.499
155.477
155.437
155.379
155.294
155.173
155.003
154.767
154.433
154.088
153.174
153.175
153.166
153.145
153.109
153.054
152.975
152.862
152.706
152.488
152.179
151.855
150.887
150.887
150.879
150.859
150.825
150.773
150.699
150.593
150.445
150.239
149.945
149.625
148.637
148.637
148.63
148.612
148.581
148.532
148.462
148.362
148.221
148.025
147.743
147.432
146.43
146.43
146.423
146.406
146.376
146.331
146.264
146.17
146.038
145.854
145.591
145.322
144.258
144.258
144.251
144.236
144.208
144.165
144.102
144.014
143.89
143.719
143.472
143.219
142.118
142.118
142.112
142.097
142.07
142.03
141.97
141.887
141.771
141.611
141.382
141.152
140.005
140.005
139.998
139.984
139.959
139.92
139.864
139.785
139.674
139.522
139.304
139.093
137.914
137.914
137.907
137.894
137.87
137.833
137.781
137.706
137.603
137.46
137.26
137.116
135.839
135.838
135.833
135.821
135.8
135.765
135.716
135.646
135.548
135.413
135.212
135.075
133.784
133.784
133.779
133.768
133.747
133.715
133.668
133.603
133.513
133.39
133.205
133.093
131.742
131.742
131.738
131.728
131.708
131.678
131.634
131.572
131.487
131.372
131.188
131.016
129.711
129.711
129.706
129.697
129.679
129.65
129.609
129.551
129.471
129.365
129.2
128.989
127.686
127.686
127.681
127.673
127.656
127.629
127.59
127.536
127.462
127.368
127.229
126.997
125.662
125.662
125.657
125.65
125.634
125.608
125.572
125.522
125.454
125.369
125.259
125.005
123.632
123.633
123.629
123.623
123.609
123.584
123.549
123.501
123.434
123.347
123.253
123.035
121.605
121.605
121.601
121.595
121.581
121.557
121.522
121.474
121.406
121.309
121.194
121.046
119.575
119.575
119.572
119.565
119.552
119.528
119.495
119.448
119.383
119.291
119.172
119.072
117.543
117.543
117.539
117.533
117.521
117.499
117.467
117.424
117.365
117.284
117.173
117.11
115.505
115.505
115.501
115.496
115.484
115.463
115.434
115.394
115.34
115.268
115.165
115.124
113.455
113.455
113.452
113.446
113.435
113.416
113.388
113.351
113.303
113.24
113.148
113.153
111.396
111.394
111.388
111.382
111.371
111.353
111.327
111.293
111.249
111.193
111.105
111.104
109.286
109.288
109.287
109.285
109.278
109.264
109.242
109.213
109.174
109.126
109.049
109.052
107.186
107.187
107.183
107.179
107.172
107.158
107.138
107.111
107.076
107.034
106.966
106.973
105.06
105.059
105.055
105.05
105.043
105.029
105.01
104.985
104.955
104.921
104.867
104.901
102.897
102.896
102.891
102.887
102.88
102.867
102.85
102.828
102.803
102.777
102.736
102.784
100.687
100.687
100.684
100.68
100.675
100.665
100.65
100.632
100.612
100.593
100.562
100.633
98.4497
98.4471
98.4418
98.4368
98.4311
98.4214
98.4081
98.3936
98.3783
98.3662
98.3438
98.4434
96.1305
96.1325
96.1321
96.132
96.1312
96.1257
96.1171
96.1078
96.0991
96.0965
96.0853
96.2171
93.7936
93.7936
93.7904
93.7884
93.7871
93.7828
93.7767
93.7717
93.77
93.7782
93.78
93.9428
91.3969
91.3962
91.3924
91.3899
91.3887
91.3851
91.3806
91.3792
91.3837
91.4024
91.417
91.6027
88.9275
88.9262
88.9223
88.9201
88.92
88.9182
88.9167
88.9199
88.9315
88.9616
88.9909
89.1934
86.3713
86.3709
86.3682
86.3679
86.37
86.3714
86.3744
86.3841
86.4049
86.4484
86.4966
86.719
83.7432
83.7405
83.736
83.7342
83.7368
83.7407
83.748
83.7651
83.7974
83.8587
83.9365
84.2123
80.9805
80.9828
80.9837
80.9877
80.9969
81.0074
81.0228
81.0505
81.0977
81.1804
81.2937
81.6463
78.1425
78.1428
78.141
78.1437
78.1534
78.1673
78.1889
78.2263
78.2883
78.39
78.5237
78.9564
75.1744
75.1741
75.1719
75.175
75.1864
75.2041
75.2322
75.2811
75.3618
75.4934
75.6687
76.2364
72.0512
72.0502
72.0484
72.0529
72.0676
72.0911
72.1287
72.1916
72.2941
72.4569
72.6531
73.2594
68.7414
68.7417
68.7416
68.7495
68.7696
68.8015
68.8521
68.9338
69.0639
69.2697
69.5149
70.1153
65.241
65.239
65.2379
65.2464
65.2713
65.3132
65.3795
65.4863
65.6539
65.9188
66.2532
66.8888
61.4549
61.4587
61.4647
61.4825
61.5204
61.5795
61.6705
61.8127
62.0306
62.369
62.8206
63.5053
57.409
57.411
57.4159
57.4366
57.4838
57.5611
57.6814
57.8678
58.1495
58.5755
59.1574
59.9103
52.9918
52.9933
53.0003
53.0282
53.0901
53.1927
53.3529
53.6003
53.9702
54.5192
55.2846
56.2096
48.081
48.0856
48.1001
48.1425
48.2304
48.3742
48.597
48.9354
49.4343
50.156
51.1602
52.3157
42.5598
42.5674
42.5898
42.6536
42.7803
42.9876
43.3065
43.7822
44.4685
45.4321
46.7543
48.2275
36.1861
36.1892
36.2292
36.3267
36.5219
36.8396
37.319
38.016
38.988
40.2945
42.0362
44.0036
28.5035
28.5746
28.6454
28.834
29.1783
29.7105
30.4809
31.5479
32.9631
34.763
37.0212
39.6509
18.8931
18.6661
18.8982
19.3542
20.0745
21.1027
22.4717
24.2143
26.3528
28.8869
31.8512
35.1998
4.94029
5.66543
6.60106
7.74463
9.33159
11.331
13.72
16.4872
19.6148
23.0715
26.8474
31.0471
7.72656
65.8072
29.9057
-66.3323
189.873
-18.1698
80.4235
66.8358
-45.2624
163.454
77.4112
87.9596
9.81982
81.1279
135.747
41.7756
122.918
83.3321
-41.3251
64.6032
86.8618
83.753
136.884
-74.772
83.6724
34.3293
3.79048
-57.5093
-60.7812
148.421
113.074
-37.9093
37.7459
55.9656
24.5692
84.182
52.2435
-36.8047
180.789
85.1205
15.6705
-30.7957
-78.961
127.595
-56.9419
-71.7472
56.4308
80.2823
78.8195
-67.0503
81.9287
-76.1352
51.6468
50.5263
60.1384
114.098
64.8065
79.9361
85.8043
-46.5525
32.6654
54.1775
163.853
96.6548
-24.2601
-7.99595
-71.467
85.0015
64.832
-67.7105
61.9959
-67.7379
64.9969
79.7371
40.2079
-72.732
98.8811
90.6186
-48.5023
68.7347
212.593
45.6827
86.9164
85.7666
212.649
74.686
65.1364
81.3194
68.4389
155.339
-63.2576
73.5923
82.4736
81.236
157.43
88.6212
102.046
134.131
63.252
148.863
0.953003
61.4478
155.32
52.9069
195.645
-52.9406
135.593
-50.0551
114.411
110.893
86.1839
76.2497
78.2723
90.4018
-32.1493
-43.5725
84.1009
64.1342
47.3796
38.4067
-68.0006
60.2114
86.7103
62.2049
-65.7364
-83.6706
64.4271
151.676
64.4881
-16.9924
-12.2204
76.247
-44.631
83.6479
-40.533
77.6609
-74.6912
66.4772
80.6556
78.3984
76.219
-25.9602
76.9694
131.695
-46.3861
-67.3037
-50.7488
-64.0359
7.55341
158.113
-36.6254
78.973
109.314
-64.0834
-46.7821
138.343
-76.6931
-72.3895
119.316
55.3616
65.1927
65.7707
70.8377
82.1745
-33.4758
-69.0298
27.2052
84.7793
40.3447
-35.6444
85.1565
87.0159
58.8097
67.5233
65.7131
75.5539
83.7894
71.7075
61.9717
10.6864
84.0134
120.704
77.0809
98.4529
73.0963
-7.44809
153.499
80.511
-68.3255
34.1841
-31.8093
153.996
56.8446
74.4088
64.6374
83.2862
119.403
73.8501
51.9516
-73.7346
65.3403
155.249
68.9413
101.211
-25.516
77.5024
152.893
55.2152
128.946
91.6089
43.129
84.4226
85.1159
87.1702
79.1421
27.9066
114.34
152.003
140.311
129.641
-75.877
81.857
177.671
96.2066
117.369
88.8676
68.674
-77.9559
57.9384
-48.0924
-58.0942
-6.1506
48.3154
106.656
74.2676
72.62
87.676
9.74857
-0.229636
73.5311
-77.525
90.1769
177.3
72.9093
-32.1225
93.7097
-53.8629
86.6351
-78.7638
63.3836
71.633
93.2009
-72.1106
-11.9152
73.3389
-47.303
-75.42
36.0389
81.7145
89.3021
67.5991
85.8125
72.0006
82.4848
56.9316
36.899
30.4259
77.0715
131.023
83.8427
84.9585
-42.223
0.852444
65.9959
26.2291
-4.24093
61.0356
47.6952
68.235
83.5854
49.8874
34.6114
77.7219
-0.913025
86.1614
92.198
84.2742
-67.5519
127.703
-31.3366
80.8806
84.0285
77.8048
132.378
98.4499
142.419
78.1812
28.5706
-3.51678
10.0661
83.4566
68.3366
184.226
-57.8215
125.713
98.1335
-73.4107
53.2596
6.51594
75.9497
84.0697
46.2038
82.4656
86.2959
90.863
-21.9763
-67.0514
-16.3547
-39.5261
51.1473
90.7513
116.825
183.375
74.2908
-24.5189
84.2937
139.556
-46.9965
79.0885
102.149
-38.8859
86.4914
-68.1027
63.2668
51.0391
71.69
-66.7552
83.7233
-14.7729
-77.2287
112.463
16.0907
187.645
-89.999
86.2626
34.3034
65.0741
78.3845
-74.3819
-6.40284
2.39876
-40.5783
148.681
63.4516
-57.7165
75.0849
-61.2152
159.537
83.5453
80.6707
24.0682
-77.0551
77.1022
-17.6486
-75.2642
84.4995
91.7341
81.9089
107.378
-24.3422
86.4583
60.6534
66.658
87.1026
79.1067
104.805
89.4106
73.782
83.9177
111.724
92.7052
77.7527
49.6251
-75.2131
-66.805
25.5926
17.7947
-43.0643
75.9932
58.3508
78.2082
63.2894
24.9464
198.812
87.1818
41.3432
82.7192
-46.4126
77.8346
-85.0532
151.403
-40.2316
81.3241
72.4831
59.3713
-63.4512
122.744
147.656
119.543
72.6466
88.6844
134.563
-62.5407
86.7353
64.4968
108
98.9868
184.955
88.3444
-23.8041
-81.115
128.189
-56.5384
-63.5661
-29.1887
81.8131
2.715
74.2087
30.4243
165.569
37.9703
75.771
80.6474
76.9305
-40.1585
143.33
-67.4254
124.61
-49.3509
87.6441
49.5805
80.1641
78.8997
83.3178
10.1431
67.1776
32.6829
-57.2937
64.7531
154.772
-25.467
3.74429
-78.3497
141.763
66.5806
46.8626
49.0306
14.7786
72.206
32.2851
83.7745
50.7646
76.5823
115.488
2.01578
79.5309
36.3613
141.525
-18.5774
-43.7305
62.1051
82.2212
82.0568
57.8311
135.227
-76.7573
58.8128
-1.67075
79.3403
58.5568
-20.1884
104.21
78.0503
104.251
113.775
-10.4405
-8.87787
83.7135
-77.5227
-53.8706
88.8559
122.769
85.7656
84.1789
80.3566
79.1949
76.7055
116.844
140.946
79.7364
119.295
-75.9974
-33.6392
73.3119
67.9096
48.4939
81.0035
136.33
-87.4764
41.8793
75.0089
50.8167
32.514
68.3878
114.8
91.9063
24.3712
123.312
70.1614
100.329
75.8665
98.3458
63.5195
83.0965
-7.96094
61.0402
118.594
102.475
90.5882
158.481
82.8462
82.779
-42.7951
-81.5723
-65.1643
-76.1112
46.9231
80.5623
17.4022
-54.1765
64.5729
58.6007
78.547
82.6785
17.8185
65.3698
88.7419
58.4335
-77.3904
70.2565
78.7017
-77.4968
51.85
37.9803
66.0594
86.2735
82.7189
71.996
124.733
-63.9272
50.0586
90.0301
68.2686
-15.7802
63.0652
94.0607
-39.9611
161.577
84.946
134.359
158.867
77.1843
52.1135
1.74568
92.9588
61.5403
109.397
45.7887
-22.1898
86.5435
209.885
-60.7283
-73.6702
-42.1924
82.6562
78.7194
-67.2576
151.178
106.665
77.9978
-62.0001
42.3766
23.2774
78.2571
79.4089
100.54
78.6965
147.295
-77.8652
79.0301
182.633
-82.1654
-65.6109
-34.442
-75.959
-52.3755
77.2807
-62.6416
82.7595
146.368
-55.0073
34.5165
17.5264
81.9539
-23.2997
163.038
61.4704
48.6193
88.9579
173.846
75.7337
-47.4126
64.1714
9.04299
-50.4876
-78.0746
79.9517
41.966
90.6264
162.967
34.1371
24.6947
82.4723
-81.7252
58.8991
98.9467
86.078
85.9307
77.9689
-6.87991
-63.2792
71.1183
64.0817
118.123
-70.0228
81.4629
-85.1259
127.761
-73.6359
64.0432
-48.2895
26.9037
51.7423
-72.7747
-32.5579
64.2147
89.8476
71.4538
91.3971
19.4553
180.089
82.9001
110.815
58.9188
96.9957
173.24
91.7352
64.6319
-79.6985
92.6418
-53.023
73.4776
-72.2755
83.0504
20.0382
72.5698
-41.8497
81.814
-72.3827
99.3729
78.7018
37.3367
106.763
87.0163
84.4787
-56.5721
159.51
65.3538
9.94612
88.4492
167.287
15.5331
204.654
87.4209
75.9306
-39.662
45.6309
-59.7421
113.384
159.254
-71.8422
69.1986
111.441
-57.7232
-64.7455
183.943
75.249
54.6468
68.106
-15.2083
-76.3504
31.5936
104.052
-34.5648
82.9143
64.0596
140.775
11.9175
81.5155
-6.73225
81.2582
72.2253
92.902
-88.9744
-10.6718
9.7098
179.995
60.1249
-76.4689
65.6307
80.9609
-9.06112
81.9579
3.86793
29.0264
59.7724
67.4537
123.823
150.335
38.9483
111.907
170.091
116.67
80.0537
26.2132
49.5333
-61.0578
-77.3636
-77.0217
77.2984
61.5126
71.5887
-84.1165
63.8191
-77.5725
138.478
78.2816
-47.0818
-65.4194
78.4851
-7.09627
77.8465
74.2558
133.819
-42.1208
79.5094
-83.1959
33.7252
-68.7188
6.79744
-36.8396
85.5147
-43.9435
114.463
22.6486
66.36
55.0535
59.8552
91.2346
85.9871
163.514
-77.4608
-74.2304
-52.3379
115.57
48.9474
-70.2109
-35.3118
91.6894
77.0983
92.4343
84.2104
-55.5682
43.108
89.6093
81.1968
63.2439
68.3254
39.7756
89.1936
75.55
-41.9242
82.584
-42.4092
76.9009
87.9291
116.245
-22.2962
61.5295
67.016
9.39895
-30.1837
-30.9012
132.922
99.6563
14.186
81.2728
-16.6829
69.1855
81.5248
-77.086
-1.821
81.9434
-49.3336
37.7149
165.438
103.657
64.0072
63.4811
94.6178
80.8752
77.0801
93.8386
63.4312
83.6357
141.512
78.6564
-37.2868
-73.8074
79.8501
-38.3015
84.6206
-37.6888
149.239
54.7222
21.4995
84.7782
-30.0025
46.969
8.44639
1.72549
-63.0951
117.685
97.2045
76.6869
69.0493
138.696
80.6183
-76.5922
159.919
76.7568
-75.6218
116.871
52.3002
-61.0443
88.2813
103.314
100.71
77.297
83.5425
76.7531
-24.0476
10.2029
38.4688
49.3503
-79.2187
64.1703
-10.0182
-62.0617
152.451
-54.2224
43.6667
-49.8968
71.1703
76.0019
26.3242
144.248
187.935
-25.8728
66.6843
-15.0554
19.2777
68.2207
76.5839
111.356
60.1877
72.4969
75.3814
88.4125
89.3774
82.7318
26.3917
63.8613
77.6842
78.9688
106.191
-75.6284
74.5319
75.414
96.699
76.911
84.7444
-7.90237
-78.0536
-78.0741
-37.4409
-66.2279
88.2691
-81.9209
55.6507
83.5306
-45.9525
114.293
96.6699
-74.4971
24.9059
-26.4362
6.74665
65.4963
93.3594
-33.2966
88.2217
64.8989
73.4542
119.38
50.6324
84.4219
191.645
14.7692
-34.9728
82.7711
103.188
148.043
80.7167
-50.8766
83.9169
73.3886
97.438
79.2915
119.932
67.1348
118.379
91.7446
65.6815
-85.5432
99.5453
62.4802
-77.7223
60.5999
-24.8935
101.997
116.641
-68.0934
77.9565
51.0695
77.299
59.7607
89.8874
73.2231
-69.1763
-29.5047
88.1886
78.1558
85.866
10.4704
67.8277
62.6341
101.996
198.533
84.0258
79.9853
52.3641
-79.3922
113.346
-63.8847
64.1612
60.3098
78.2968
114.229
-73.2106
-50.0536
36.6171
69.2568
39.3714
-1.10251
89.8574
71.7654
53.8808
15.9035
68.6147
-75.8474
30.6552
85.8748
87.8315
55.945
35.2568
60.5252
137.943
-77.2747
90.0501
79.7246
83.2665
72.4688
83.9599
160.95
-65.1047
68.3292
81.1012
-18.6986
52.7083
-56.2246
125.324
-79.1025
105.813
-76.2608
54.7592
149.88
124.963
-37.0626
99.1468
-33.5225
-32.0219
-76.9417
144.672
-76.0674
177.838
40.5987
-74.0224
-69.3968
-74.5808
131.917
183.164
70.2781
99.1679
-63.3886
-84.862
76.5223
37.7254
-28.975
-13.1785
70.4695
33.6494
65.2744
75.8551
166.666
-6.92276
-77.7169
137.364
-29.831
71.2871
2.90968
-61.1025
-44.6006
164.28
-20.432
80.8366
59.0542
85.1609
80.5384
146.78
158.339
87.1379
4.90325
-75.2544
84.0845
151.127
-23.3792
-75.6288
22.7771
62.3089
68.4671
85.2963
122.393
192.773
-8.46339
-82.3664
98.9254
71.7016
42.4738
-81.1505
81.6005
72.967
104.69
74.726
81.611
65.0607
13.1051
47.8
67.1438
63.4719
-17.2846
88.772
78.5857
76.2716
30.6451
121.669
-52.9308
92.8592
65.5547
37.9655
159.949
38.8433
-64.4655
94.5678
-59.5231
75.8206
80.734
-26.1456
-14.7973
81.7898
-77.9721
87.7923
15.9213
76.8922
83.532
83.3332
59.2106
-61.3314
82.5294
81.0128
146.665
118.573
189.288
77.291
67.2114
-32.1009
18.2394
-70.5548
-78.4718
-58.3208
202.967
-33.9255
108.103
-75.1005
96.564
76.8153
102.261
50.5861
99.2169
-45.3441
80.1183
75.1794
82.6401
-10.79
60.5905
-76.5178
135.479
-18.7314
89.2465
78.0886
51.8139
66.2346
-52.7948
93.7697
66.1164
53.6567
-9.32833
162.72
82.8211
100.117
49.8982
62.3307
131.45
-13.7126
62.3635
84.0473
-81.7489
147.638
65.6123
-14.4377
134.34
-72.1179
80.4655
28.5627
-29.1821
110.728
-34.1301
80.2154
-74.7222
74.5103
81.6809
71.441
79.7402
-27.5244
20.0148
22.5878
171.972
-79.9346
-65.1854
132.428
127.229
42.7749
-55.9831
30.7994
75.6827
76.3954
155.173
78.6654
67.4277
80.4662
80.6672
79.7054
-61.2352
82.9118
57.6696
98.3472
-85.1589
53.796
96.0321
84.9194
49.2916
79.4925
84.0324
49.2453
138.982
180.248
3.47974
77.9112
65.9136
162.187
31.2594
-33.9973
98.0213
2.61489
76.6361
121.168