/*--------------------------------*- C++ -*----------------------------------*\
| =========                 |                                                 |
| \\      /  F ield         | OpenFOAM: The Open Source CFD Toolbox           |
|  \\    /   O peration     | Version:  2.3.0                                 |
|   \\  /    A nd           | Web:      www.OpenFOAM.org                      |
|    \\/     M anipulation  |                                                 |
\*---------------------------------------------------------------------------*/
FoamFile
{
    version     2.0;
    format      ascii;
    class       volScalarField;
    location    "10000";
    object      nut;
}
// * * * * * * * * * * * * * * * * * * * * * * * * * * * * * * * * * * * * * //

dimensions      [0 2 -1 0 0 0 0];

internalField   nonuniform List<scalar> 
14050
(
0.0582327
0.0550003
0.0518375
0.0487579
0.0457718
0.0428901
0.0401259
0.0374944
0.0350151
0.0327069
0.0305846
0.0286667
0.0269725
0.0254934
0.0241125
0.0227472
0.0213957
0.0200664
0.0187571
0.017456
0.0161354
0.0147588
0.0133177
0.012067
0.0617121
0.0590323
0.0564252
0.0538979
0.0514552
0.0491017
0.0468424
0.0446814
0.0426243
0.0406758
0.0388412
0.0371276
0.0355414
0.0340901
0.0327774
0.0316071
0.0305847
0.0297169
0.0290127
0.0284761
0.0281112
0.0279201
0.027901
0.0280516
0.0648491
0.0626101
0.0604428
0.0583486
0.0563303
0.0543907
0.0525333
0.0507612
0.0490781
0.0474879
0.0459946
0.0446024
0.0433167
0.0421425
0.0410859
0.0401517
0.0393471
0.0386764
0.0381439
0.0377535
0.0375057
0.0373994
0.0374307
0.0375925
0.0676565
0.0657784
0.0639653
0.0622155
0.0605301
0.0589111
0.0573611
0.0558824
0.0544781
0.0531512
0.0519051
0.0507438
0.0496712
0.0486921
0.0478112
0.0470337
0.046364
0.0458078
0.0453683
0.0450485
0.0448502
0.0447726
0.0448134
0.0449684
0.0701517
0.0685737
0.0670468
0.0655709
0.064147
0.062777
0.0614626
0.0602064
0.0590108
0.0578788
0.056813
0.0558175
0.0548963
0.0540534
0.0532935
0.0526212
0.0520414
0.0515587
0.0511773
0.0509003
0.0507302
0.0506677
0.0507119
0.0508601
0.0723763
0.0710374
0.0697396
0.0684818
0.0672645
0.066089
0.0649569
0.063871
0.0628341
0.0618488
0.0609178
0.0600451
0.0592346
0.0584907
0.0578178
0.0572207
0.0567039
0.0562726
0.0559305
0.055682
0.0555298
0.0554755
0.0555198
0.0556611
0.0743481
0.0732055
0.0720933
0.0710105
0.0699574
0.0689352
0.0679457
0.066992
0.0660774
0.0652046
0.0643766
0.0635969
0.0628698
0.0622
0.0615925
0.0610517
0.060582
0.060188
0.0598747
0.0596462
0.0595065
0.0594573
0.0595004
0.0596356
0.0760988
0.0751146
0.0741525
0.0732113
0.0722905
0.0713906
0.0705145
0.0696641
0.0688449
0.0680601
0.0673128
0.0666056
0.0659425
0.0653292
0.0647719
0.0642749
0.0638421
0.0634777
0.0631865
0.0629729
0.062842
0.0627962
0.0628375
0.0629673
0.0776508
0.0767963
0.075956
0.0751311
0.074318
0.0735166
0.0727345
0.0719647
0.0712196
0.0705043
0.0698215
0.0691728
0.068561
0.0679895
0.0674718
0.0670092
0.0666075
0.0662668
0.0659962
0.0657918
0.0656681
0.0656255
0.0656632
0.0657886
0.0790361
0.0782795
0.0775312
0.0767985
0.07608
0.0753575
0.0746656
0.073956
0.0732661
0.0726046
0.0719729
0.0713712
0.0708099
0.0702658
0.0697798
0.0693386
0.0689699
0.0686452
0.0684038
0.0681989
0.068081
0.0680466
0.0680742
0.0681958
0.013027
0.0153811
0.0168895
0.0183204
0.0198748
0.0216009
0.0234971
0.0255484
0.0277374
0.0300489
0.0324718
0.034996
0.0376138
0.040319
0.0431051
0.0459659
0.0488953
0.0518871
0.054934
0.0580285
0.0611625
0.064327
0.0675125
0.0707208
0.0283537
0.0288181
0.0294714
0.030318
0.031355
0.0325747
0.0339656
0.0355152
0.0372091
0.0390333
0.0409755
0.0430231
0.0451661
0.0473955
0.0497029
0.0520815
0.0545245
0.0570265
0.0595816
0.0621838
0.0648273
0.0675054
0.0702113
0.072946
0.037872
0.0382774
0.0388279
0.0395277
0.040375
0.0413659
0.0424944
0.0437525
0.0451316
0.0466222
0.0482149
0.0499006
0.0516715
0.05352
0.0554393
0.0574235
0.059467
0.0615652
0.0637133
0.0659067
0.068141
0.0704114
0.0727128
0.0750469
0.0452294
0.0456019
0.046096
0.0467134
0.0474531
0.0483115
0.0492832
0.0503619
0.0515407
0.0528122
0.0541689
0.0556033
0.0571088
0.0586796
0.06031
0.0619952
0.0637307
0.0655125
0.0673374
0.0692018
0.0711029
0.0730373
0.0750026
0.0770013
0.0511071
0.0514562
0.0519131
0.0524773
0.0531471
0.0539185
0.0547859
0.0557433
0.0567845
0.057903
0.0590918
0.0603448
0.0616563
0.0630209
0.0644338
0.0658911
0.067389
0.0689242
0.0704939
0.0720955
0.0737273
0.0753871
0.0770745
0.0787968
0.0558963
0.0562273
0.0566568
0.0571829
0.0578029
0.0585121
0.0593047
0.0601747
0.0611159
0.0621219
0.0631871
0.0643056
0.0654717
0.0666807
0.0679283
0.0692105
0.070524
0.0718662
0.0732343
0.0746263
0.0760408
0.0774762
0.0789326
0.0804194
0.0598611
0.0601775
0.0605856
0.0610831
0.061666
0.0623283
0.0630643
0.0638679
0.0647327
0.065653
0.0666237
0.0676391
0.0686938
0.0697829
0.0709022
0.0720478
0.0732164
0.0744058
0.0756137
0.0768378
0.078076
0.0793276
0.0805925
0.0818775
0.0631844
0.0634883
0.0638795
0.0643552
0.0649098
0.0655355
0.066227
0.066978
0.0677819
0.0686345
0.0695309
0.0704655
0.071433
0.0724281
0.0734459
0.074483
0.0755365
0.0766039
0.0776833
0.0787721
0.0798662
0.0809669
0.0820739
0.0831981
0.0659988
0.0662903
0.0666673
0.0671271
0.0676618
0.0682559
0.0689118
0.0696201
0.0703726
0.0711702
0.0720077
0.0728782
0.0737768
0.0746968
0.0756331
0.0765826
0.0775428
0.0785118
0.0794884
0.0804688
0.0814416
0.0824181
0.0833929
0.0843823
0.0684033
0.0686781
0.0690411
0.0694845
0.0700085
0.0705678
0.0711928
0.0718687
0.072574
0.0733286
0.0741202
0.0749403
0.0757861
0.0766455
0.0775164
0.0783964
0.0792812
0.0801728
0.0810713
0.081971
0.0828279
0.0837043
0.0845659
0.0854504
0.0659765
0.0595323
0.05365
0.0483097
0.0434679
0.03908
0.0351042
0.0315025
0.0282408
0.0252888
0.0226195
0.0201982
0.0179971
0.015993
0.0141676
0.0125051
0.01099
0.00961721
0.00841623
0.00747442
0.00663171
0.00572373
0.00468124
0.00340478
0.0666442
0.0608172
0.05549
0.0506299
0.0461987
0.0421627
0.0384918
0.0351607
0.0321491
0.029435
0.0269886
0.0247865
0.0228082
0.0210386
0.019469
0.0181229
0.0169511
0.0157879
0.0145674
0.0132692
0.0118702
0.0103343
0.00861367
0.0066395
0.0673737
0.0621205
0.0572967
0.0528738
0.0488226
0.0451189
0.0417433
0.0386817
0.0359262
0.0334529
0.0312438
0.029286
0.0275722
0.02611
0.0248223
0.023556
0.0222546
0.0208841
0.0194131
0.0178103
0.0160446
0.0140834
0.0118889
0.00942233
0.0681232
0.0633936
0.0590261
0.0549981
0.0512907
0.0478894
0.0447841
0.0419717
0.0394429
0.0371841
0.0351865
0.0334476
0.0319764
0.0306473
0.0293309
0.0279708
0.0265317
0.0249852
0.0233031
0.0214558
0.0194107
0.0171352
0.0145919
0.0117464
0.0688768
0.0646148
0.0606524
0.0569762
0.0535754
0.0504429
0.0475768
0.0449818
0.0426479
0.0405701
0.0387484
0.0371917
0.0358206
0.0344776
0.0330979
0.0316433
0.0300841
0.0283914
0.0265371
0.0244895
0.0222175
0.0196847
0.0168532
0.0136875
0.0696137
0.0657663
0.062162
0.0587965
0.055666
0.0527708
0.0501158
0.0477053
0.0455353
0.0436063
0.0419232
0.0404857
0.0391207
0.03774
0.0362974
0.0347603
0.0330985
0.0312837
0.0292851
0.0270707
0.0246057
0.0218523
0.0187717
0.0153238
0.0703277
0.0668408
0.0635502
0.0604566
0.0575633
0.0548761
0.0524046
0.0501526
0.0481205
0.0463152
0.0447508
0.0433494
0.0419689
0.0405484
0.03905
0.0374415
0.0356932
0.0337744
0.0316534
0.0292954
0.0266636
0.0237183
0.0204171
0.0167165
0.0710166
0.0678323
0.0648158
0.0619604
0.0592741
0.0567685
0.0544579
0.0523429
0.050427
0.0487206
0.0472394
0.045844
0.0444425
0.0429858
0.0414389
0.0397706
0.037949
0.0359414
0.0337147
0.0312318
0.0284534
0.025338
0.0218403
0.0179138
0.0716011
0.0687249
0.0659614
0.0633146
0.0608072
0.0584609
0.0562931
0.0542999
0.0524856
0.0508626
0.0494218
0.0480209
0.0465994
0.045114
0.0435263
0.0418073
0.0399257
0.0378426
0.0355235
0.0329294
0.0300196
0.0267522
0.0230816
0.0189541
0.0721647
0.0695404
0.0670042
0.0645312
0.062173
0.0599622
0.0579273
0.0560484
0.0543242
0.0527827
0.0513405
0.0499243
0.048481
0.0469815
0.0453621
0.0435945
0.0416656
0.0395252
0.0371234
0.0344252
0.0313906
0.0279886
0.0241766
0.0198769
0.00186786
0.000955353
0.00109344
0.00139269
0.00167966
0.00196078
0.00224654
0.00255248
0.00290292
0.00333464
0.00389199
0.00456659
0.00534528
0.00622753
0.00721744
0.00832179
0.00954808
0.0109036
0.0123959
0.014034
0.015828
0.0177879
0.019925
0.0222585
0.00434192
0.00218549
0.00147649
0.00168393
0.00197952
0.00228299
0.00260854
0.00297837
0.00341724
0.00394938
0.00459738
0.00533887
0.0061673
0.00708427
0.00809422
0.00920257
0.0104147
0.0117364
0.0131747
0.0147372
0.0164324
0.0182694
0.0202606
0.0224233
0.00662886
0.00369676
0.00200675
0.00196208
0.00226983
0.00261612
0.00300536
0.00345785
0.00398892
0.00460883
0.00532912
0.00612544
0.00699554
0.00794139
0.00896646
0.0100746
0.0112696
0.0125564
0.0139407
0.0154287
0.0170281
0.018747
0.0205954
0.0225826
0.0085472
0.00510005
0.00262349
0.00223439
0.00255382
0.00295792
0.00342241
0.00395875
0.00457192
0.00526588
0.00604402
0.00688594
0.00779055
0.00875976
0.00979563
0.0109003
0.0120768
0.0133289
0.0146617
0.0160802
0.0175905
0.0191996
0.0209148
0.0227423
0.0101365
0.00628792
0.00323739
0.00250598
0.00283607
0.00330529
0.00384551
0.00445754
0.00513984
0.00589869
0.00672512
0.00760574
0.00853959
0.00952758
0.0105707
0.0116701
0.012828
0.0140475
0.0153322
0.0166865
0.0181152
0.0196233
0.0212161
0.0228978
0.0114607
0.00727131
0.00379693
0.00277499
0.00311677
0.003652
0.00426243
0.00494076
0.00568336
0.00649747
0.0073655
0.00827958
0.00923851
0.0102418
0.0112897
0.0123828
0.0135227
0.0147117
0.0159523
0.0172477
0.0186014
0.0200169
0.0214971
0.0230422
0.0125731
0.00808687
0.00428577
0.00303669
0.00339254
0.00399066
0.00466458
0.00540124
0.00619801
0.00705825
0.00796271
0.0089059
0.00988625
0.0109021
0.0119533
0.0130399
0.0141628
0.0153236
0.0165237
0.0177651
0.0190503
0.0203815
0.0217605
0.023192
0.0135176
0.00876751
0.00470669
0.00328722
0.0036605
0.00431677
0.00504671
0.0058342
0.00668006
0.00757975
0.00851629
0.00948526
0.0104839
0.0115104
0.0125638
0.0136439
0.014751
0.0158857
0.0170486
0.0182409
0.0194637
0.0207179
0.0220049
0.0233252
0.0143309
0.00934177
0.00506182
0.00352454
0.00391983
0.00462555
0.00540326
0.0062356
0.00712693
0.00806212
0.00902758
0.0100189
0.0110332
0.012069
0.013125
0.0141997
0.0152916
0.016401
0.017529
0.0186758
0.0198416
0.0210257
0.0222277
0.0234479
0.0150775
0.00993704
0.00544158
0.00374793
0.00414376
0.00491105
0.00574803
0.00663086
0.00756061
0.00852136
0.00950502
0.0105148
0.0115483
0.0125993
0.0136646
0.0147295
0.0157924
0.0168684
0.01796
0.019064
0.0201796
0.0212993
0.0224222
0.0235508
0.000530334
0.00182623
0.0037577
0.00593562
0.00810215
0.0102144
0.0122677
0.0142621
0.0161986
0.0180779
0.0199081
0.0217227
0.023581
0.0255264
0.0275549
0.0296202
0.0320063
0.0347353
0.0377237
0.0409046
0.0442327
0.0476779
0.0512177
0.054839
0.000394943
0.00115437
0.00269068
0.00450692
0.00625629
0.00798069
0.00971571
0.011479
0.0132674
0.0150749
0.0168964
0.0187328
0.020596
0.0225074
0.0244833
0.0265387
0.0287809
0.0312611
0.0338971
0.0369475
0.0403365
0.0439505
0.0477138
0.0515805
0.000225012
0.000743316
0.00176966
0.00317011
0.00497394
0.00696413
0.00885817
0.0106573
0.0123937
0.0140921
0.0157723
0.0174521
0.0191501
0.0208882
0.0226928
0.0245973
0.0266521
0.0289081
0.0313781
0.0341522
0.0371616
0.0406389
0.0444525
0.0484849
0.000244027
0.000622587
0.00147309
0.0026299
0.00413418
0.00601527
0.00803316
0.0100082
0.0119099
0.0137322
0.0154755
0.0171474
0.0187659
0.0203595
0.0219675
0.0236396
0.025433
0.0274103
0.0296275
0.0321354
0.0349362
0.0381013
0.0416166
0.0455755
0.000215851
0.000547491
0.00129501
0.00231188
0.00362835
0.00527912
0.00726531
0.00934843
0.0113943
0.0133725
0.0152714
0.0170792
0.0187879
0.0204019
0.0219443
0.0234603
0.0250164
0.0266956
0.0285875
0.03077
0.0332941
0.0361942
0.03946
0.0430746
0.000212765
0.000505369
0.00118882
0.00211703
0.00331571
0.00481704
0.00665618
0.00874474
0.0108804
0.0129812
0.0150207
0.0169813
0.0188429
0.0205875
0.0222082
0.0237194
0.0251661
0.0266276
0.0282117
0.0300356
0.0322027
0.0347791
0.0377795
0.0411698
0.000204343
0.000471968
0.00110769
0.00197272
0.00308729
0.00448052
0.00618775
0.00821442
0.0103953
0.01259
0.0147447
0.0168362
0.0188431
0.0207409
0.0225052
0.0241216
0.0255984
0.0269814
0.0283625
0.0298733
0.0316616
0.0338525
0.0365152
0.0396482
0.000200601
0.00044858
0.00104986
0.00186825
0.0029206
0.004234
0.00584199
0.00777475
0.00995237
0.0122094
0.0144579
0.0166609
0.0187952
0.0208352
0.0227513
0.0245146
0.0261063
0.0275333
0.028847
0.0301559
0.0316195
0.0334132
0.0356778
0.0384775
0.000196805
0.000429563
0.00100337
0.00178532
0.00278927
0.00404039
0.00557032
0.00741382
0.00955472
0.0118465
0.01417
0.016469
0.0187143
0.0208806
0.0229377
0.0248517
0.0265898
0.0281318
0.0294882
0.030723
0.0319695
0.0334184
0.0352707
0.037674
0.000194237
0.000414471
0.000966384
0.00171922
0.00268442
0.00388591
0.0053534
0.00712193
0.00920626
0.0115065
0.013886
0.0162667
0.0186099
0.0208886
0.0230731
0.0251287
0.0270169
0.0287026
0.0301673
0.0314312
0.0325808
0.0337831
0.0352645
0.0372488
0.000192064
0.000401895
0.000935654
0.00166451
0.00259788
0.00375847
0.00517478
0.00688052
0.00890367
0.0111916
0.0136093
0.0160588
0.0184887
0.0208679
0.0231675
0.0253529
0.0273844
0.0292194
0.0308223
0.0321809
0.0333341
0.0344021
0.0355966
0.0371855
0.000190445
0.000391363
0.000909821
0.00161858
0.00252529
0.00365174
0.00502509
0.00667805
0.00864327
0.0109036
0.0133427
0.0158484
0.0183548
0.0208249
0.0232286
0.0255328
0.0276974
0.0296775
0.0314278
0.0329153
0.0341411
0.0351745
0.0361845
0.0374415
0.000189191
0.000382565
0.000888055
0.00157955
0.00246353
0.00356087
0.00489779
0.00650575
0.00841894
0.010643
0.0130891
0.0156386
0.0182122
0.0207643
0.023263
0.0256757
0.0279635
0.0300806
0.0319772
0.0336077
0.034947
0.0360203
0.0369436
0.0379547
0.00018835
0.000375309
0.000870123
0.0015461
0.00241055
0.0034829
0.00478853
0.00635778
0.00822518
0.0104093
0.0128506
0.0154327
0.0180642
0.0206905
0.0232761
0.0257884
0.0281898
0.0304349
0.0324722
0.0342487
0.0357223
0.0368849
0.0378022
0.0386606
0.000187741
0.000369088
0.00085479
0.00151726
0.00236483
0.00341566
0.00469412
0.00622994
0.00805698
0.0102016
0.0126291
0.0152334
0.0179145
0.0206079
0.0232732
0.0258773
0.0283836
0.0307478
0.032918
0.0348378
0.0364541
0.0377355
0.0387061
0.0394974
0.000187329
0.000363749
0.000841639
0.00149244
0.0023254
0.00335749
0.0046125
0.0061191
0.00791086
0.010018
0.0124263
0.0150437
0.0177665
0.0205205
0.0232594
0.0259484
0.0285518
0.0310268
0.0333219
0.0353791
0.0371393
0.0385549
0.0396183
0.0404103
0.00018714
0.000359148
0.000830219
0.0014709
0.00229125
0.00330711
0.00454171
0.00602299
0.0077838
0.00985664
0.0122423
0.0148661
0.0176233
0.0204321
0.0232393
0.0260076
0.0287014
0.0312795
0.0336916
0.0358796
0.0377803
0.0393361
0.0405144
0.0413456
0.000187123
0.000355209
0.000820396
0.0014523
0.00226167
0.00326349
0.00448019
0.00593936
0.00767307
0.0097151
0.0120768
0.0147013
0.017487
0.0203453
0.0232164
0.0260592
0.0288381
0.0315128
0.0340347
0.0363461
0.0383825
0.040079
0.0413857
0.0422942
0.000187238
0.000351806
0.000811894
0.00143612
0.00223593
0.00322539
0.00442661
0.00586636
0.00757635
0.00959057
0.0119285
0.0145496
0.0173584
0.0202617
0.0231927
0.0261063
0.0289656
0.0317315
0.0343568
0.0367848
0.0389504
0.0407845
0.0422242
0.0432314
0.000187442
0.00034884
0.000804406
0.00142187
0.00221326
0.00319194
0.0043794
0.0058021
0.007491
0.00948052
0.0117951
0.0144098
0.0172373
0.0201814
0.0231689
0.02615
0.0290861
0.0319385
0.0346616
0.0371999
0.0394884
0.0414554
0.0430295
0.0441555
0.000187675
0.000346211
0.000797755
0.0014092
0.00219312
0.00316216
0.00433749
0.00574498
0.0074151
0.00938227
0.0116749
0.0142803
0.0171224
0.0201035
0.0231443
0.02619
0.0291999
0.0321352
0.0349513
0.037594
0.0399992
0.0420934
0.0437995
0.0450474
0.000187998
0.000343931
0.000791801
0.00139781
0.00217502
0.00313538
0.00429978
0.00569359
0.00734693
0.00929378
0.0115653
0.0141599
0.0170125
0.0200265
0.0231177
0.0262254
0.0293062
0.0323209
0.0352258
0.0379681
0.040484
0.0426997
0.0445339
0.0459068
0.000188319
0.000341868
0.000786341
0.00138739
0.0021585
0.00311106
0.00426546
0.00564687
0.00728479
0.00921314
0.0114647
0.0140467
0.0169062
0.0199494
0.0230874
0.0262544
0.0294035
0.0324945
0.0354844
0.0383214
0.0409428
0.0432743
0.045232
0.0467275
0.000188603
0.000340038
0.000781359
0.00137786
0.00214333
0.00308863
0.0042339
0.00560388
0.00722772
0.00913893
0.0113715
0.0139398
0.0168028
0.0198711
0.0230526
0.0262762
0.029491
0.0326555
0.035727
0.0386547
0.041377
0.04382
0.0458992
0.0475251
0.000188896
0.000338389
0.000776729
0.00136901
0.00212925
0.00306785
0.00420463
0.005564
0.00717475
0.00907004
0.0112846
0.0138384
0.0167017
0.0197913
0.0230128
0.0262902
0.0295682
0.0328037
0.0359538
0.0389687
0.0417879
0.0443385
0.0465358
0.0482873
0.000189177
0.000336931
0.00077242
0.00136074
0.0021161
0.00304842
0.00417727
0.00552676
0.0071253
0.00900568
0.0112031
0.0137418
0.0166027
0.0197098
0.0229678
0.026296
0.0296349
0.0329389
0.0361649
0.0392639
0.0421765
0.0448305
0.0471413
0.0490132
0.000189416
0.000335597
0.000768366
0.00135299
0.00210374
0.00303015
0.00415157
0.00549175
0.00707882
0.00894521
0.0111263
0.0136498
0.0165057
0.0196266
0.0229176
0.0262937
0.0296909
0.0330611
0.0363604
0.0395406
0.0425431
0.0452967
0.0477168
0.0497066
0.000189627
0.000334398
0.000764536
0.00134567
0.0020921
0.00301294
0.00412732
0.00545877
0.00703504
0.00888821
0.0110537
0.0135619
0.016411
0.0195422
0.0228626
0.0262835
0.0297364
0.0331703
0.0365405
0.0397989
0.042888
0.0457373
0.0482624
0.050364
0.000189817
0.000333337
0.000760979
0.00133883
0.00208118
0.00299677
0.00410449
0.00542767
0.00699373
0.00883443
0.0109851
0.0134781
0.0163187
0.0194572
0.0228034
0.026266
0.0297721
0.0332674
0.036706
0.0400401
0.043213
0.0461555
0.0487843
0.0510035
0.000189957
0.000332364
0.0007576
0.00133237
0.00207089
0.00298154
0.00408303
0.00539839
0.0069548
0.00878369
0.0109203
0.0133984
0.0162292
0.0193722
0.022741
0.0262422
0.029799
0.0333535
0.0368584
0.0402659
0.0435203
0.0465537
0.0492848
0.0516201
0.000190081
0.0003315
0.000754469
0.00132634
0.00206125
0.00296725
0.00406284
0.00537086
0.00691816
0.00873591
0.0108592
0.0133227
0.016143
0.019288
0.0226763
0.0262132
0.029818
0.0334293
0.036998
0.0404761
0.0438087
0.0469286
0.0497535
0.0521804
0.000190171
0.000330692
0.000751499
0.00132066
0.0020522
0.00295388
0.00404395
0.00534506
0.0068838
0.00869105
0.0108017
0.0132513
0.0160605
0.0192055
0.0226105
0.0261803
0.0298306
0.0334964
0.0371267
0.0406731
0.0440813
0.0472857
0.0502066
0.0527517
0.000190226
0.000329937
0.00074871
0.00131534
0.00204371
0.00294129
0.00402619
0.00532083
0.00685158
0.008649
0.0107478
0.013184
0.0159819
0.0191254
0.0225447
0.0261448
0.0298383
0.0335567
0.0372465
0.0408589
0.0443404
0.0476263
0.0506385
0.0532836
0.000190243
0.000329214
0.00074605
0.00131029
0.00203567
0.00292941
0.00400946
0.00529803
0.00682126
0.00860946
0.0106971
0.0131206
0.0159072
0.019048
0.0224795
0.0261078
0.0298425
0.0336116
0.0373591
0.0410356
0.0445878
0.0479524
0.0510517
0.0537917
0.000190216
0.00032851
0.000743481
0.00130542
0.00202794
0.00291802
0.00399347
0.00527631
0.00679247
0.00857203
0.0106492
0.0130606
0.0158361
0.0189732
0.0224152
0.0260698
0.029844
0.0336622
0.037466
0.0412049
0.044826
0.0482671
0.0514524
0.0542905
0.000190144
0.000327824
0.000740971
0.00130068
0.00202042
0.00290697
0.00397799
0.00525533
0.00676474
0.00853605
0.0106033
0.0130033
0.0157678
0.0189004
0.0223514
0.0260306
0.0298429
0.033709
0.0375679
0.0413677
0.0450559
0.0485713
0.05184
0.0547735
0.00019002
0.000327172
0.000738491
0.001296
0.00201301
0.00289607
0.00396273
0.00523471
0.00673758
0.00850091
0.0105585
0.0129474
0.015701
0.0188283
0.0222869
0.0259892
0.0298383
0.0337514
0.0376644
0.041524
0.0452777
0.0488649
0.0522128
0.055235
0.00018983
0.000326551
0.000736029
0.00129138
0.00200565
0.00288523
0.00394754
0.00521417
0.00671052
0.00846598
0.0105141
0.012892
0.0156345
0.0187555
0.0222198
0.0259436
0.0298283
0.0337877
0.0377542
0.0416731
0.0454912
0.0491485
0.0525726
0.0556754
0.000189578
0.00032592
0.000733601
0.00128681
0.00199835
0.00287445
0.0039324
0.00519366
0.00668345
0.00843095
0.0104695
0.0128363
0.0155672
0.0186805
0.0221484
0.0258915
0.0298104
0.0338151
0.037835
0.041813
0.0456953
0.0494221
0.0529206
0.0561017
0.000189264
0.000325287
0.000731217
0.00128233
0.00199117
0.0028638
0.00391738
0.00517323
0.0066564
0.00839585
0.0104247
0.0127801
0.0154987
0.0186026
0.0220713
0.0258308
0.0297814
0.0338301
0.0379024
0.0419392
0.0458859
0.0496823
0.0532561
0.0565171
0.000188897
0.000324652
0.00072889
0.00127796
0.00198416
0.00285339
0.00390268
0.00515317
0.00662975
0.00836114
0.0103803
0.0127239
0.0154296
0.0185226
0.0219891
0.0257611
0.0297399
0.0338297
0.0379524
0.0420462
0.0460558
0.0499214
0.0535714
0.0569148
0.000188482
0.00032402
0.00072662
0.00127371
0.00197737
0.00284331
0.00388844
0.00513375
0.00660391
0.00832744
0.010337
0.0126691
0.0153618
0.0184428
0.0219044
0.0256852
0.029688
0.0338148
0.037984
0.0421311
0.0461992
0.0501285
0.0538487
0.0572782
0.000188023
0.000323381
0.00072441
0.00126961
0.00197082
0.00283362
0.00387479
0.00511516
0.0065792
0.00829523
0.0102956
0.0126168
0.0152968
0.0183656
0.0218211
0.0256077
0.0296309
0.0337907
0.0380022
0.0421978
0.0463181
0.0503007
0.0540687
0.0575127
0.000187524
0.000322731
0.000722246
0.00126562
0.00196449
0.00282431
0.00386172
0.00509743
0.00655573
0.00826472
0.0102566
0.0125674
0.0152357
0.018293
0.021742
0.0255334
0.0295752
0.0337661
0.0380184
0.0422619
0.0464362
0.0504806
0.0543258
0.0578962
0.000186987
0.000322068
0.000720116
0.00126172
0.00195834
0.00281528
0.00384912
0.00508041
0.00653331
0.00823573
0.0102196
0.0125209
0.0151782
0.0182247
0.0216677
0.0254635
0.0295234
0.0337452
0.0380385
0.0423308
0.0465613
0.0506707
0.0545931
0.0582529
0.000186412
0.000321378
0.000717995
0.00125786
0.00195226
0.00280641
0.00383678
0.00506383
0.00651157
0.00820774
0.0101841
0.0124764
0.0151234
0.0181597
0.0215967
0.0253967
0.0294742
0.0337264
0.0380604
0.0424014
0.0466876
0.0508599
0.0548536
0.0585939
0.000185798
0.000320667
0.000715861
0.001254
0.00194619
0.00279758
0.00382454
0.00504743
0.00649013
0.00818024
0.0101493
0.012433
0.0150702
0.0180965
0.0215273
0.0253309
0.0294251
0.0337069
0.0380809
0.0424697
0.0468099
0.0510413
0.0550975
0.0588969
0.000185151
0.000319924
0.000713696
0.00125009
0.00194005
0.00278866
0.0038122
0.00503094
0.00646866
0.00815278
0.0101147
0.01239
0.0150174
0.0180338
0.021458
0.025264
0.0293738
0.0336842
0.0380974
0.0425332
0.0469265
0.0512167
0.0553379
0.0592111
0.000184441
0.000319168
0.000711486
0.00124611
0.00193381
0.00277959
0.00379967
0.00501422
0.00644689
0.008125
0.0100798
0.0123466
0.0149643
0.0179706
0.0213875
0.0251947
0.0293186
0.0336563
0.0381077
0.0425901
0.0470363
0.0513856
0.0555736
0.0595264
0.00018369
0.000318341
0.000709217
0.00124204
0.00192744
0.00277034
0.00378689
0.00499716
0.0064247
0.0080967
0.0100442
0.0123025
0.0149103
0.0179062
0.0213148
0.0251216
0.0292577
0.0336209
0.0381091
0.0426367
0.0471344
0.051541
0.0557922
0.059814
0.000182885
0.000317538
0.000706938
0.00123793
0.00192097
0.00276092
0.00377386
0.00497977
0.00640209
0.00806785
0.010008
0.0122575
0.0148552
0.0178402
0.0212396
0.0250442
0.0291902
0.0335767
0.0380997
0.0426705
0.0472178
0.0516787
0.0559883
0.0600711
0.000182032
0.000316653
0.0007046
0.00123374
0.0019144
0.00275137
0.00376064
0.00496212
0.00637911
0.00803852
0.00997112
0.0122118
0.0147991
0.0177728
0.0211621
0.0249626
0.0291162
0.0335236
0.0380792
0.0426912
0.0472861
0.0517992
0.0561647
0.060306
0.000181174
0.000315804
0.000702285
0.00122955
0.00190782
0.00274176
0.00374734
0.00494432
0.00635594
0.00800889
0.00993386
0.0121655
0.0147424
0.0177043
0.0210827
0.0248777
0.0290363
0.0334622
0.0380482
0.0426998
0.0473405
0.0519047
0.0563256
0.0605263
0.000180255
0.000314931
0.000699932
0.00122535
0.00190121
0.00273217
0.00373401
0.00492652
0.00633269
0.00797923
0.00989649
0.012119
0.0146853
0.0176355
0.0210021
0.0247901
0.028952
0.0333938
0.0380078
0.0426972
0.0473828
0.0519974
0.0564744
0.0607376
0.000179336
0.00031404
0.000697652
0.00122123
0.0018947
0.00272263
0.00372084
0.00490882
0.00630963
0.00794971
0.00985938
0.0120729
0.0146285
0.0175667
0.0209215
0.0247012
0.0288641
0.0333197
0.0379597
0.0426848
0.0474136
0.0520776
0.0566104
0.0609387
0.000178366
0.000313188
0.000695328
0.00121712
0.00188825
0.00271327
0.00370781
0.00489139
0.00628686
0.00792061
0.00982267
0.0120273
0.0145725
0.0174987
0.0208414
0.0246122
0.0287744
0.0332415
0.0379051
0.042664
0.0474341
0.0521454
0.0567305
0.0611156
0.000177368
0.000312235
0.000693069
0.00121312
0.00188194
0.00270405
0.00369506
0.00487432
0.00626461
0.00789218
0.0097869
0.0119827
0.0145176
0.0174322
0.0207627
0.0245238
0.0286843
0.0331609
0.037846
0.0426367
0.0474465
0.0522036
0.05684
0.0612816
0.000176409
0.000311404
0.000690927
0.00120923
0.00187583
0.00269511
0.00368267
0.00485771
0.00624302
0.00786446
0.00975199
0.0119394
0.0144643
0.0173675
0.0206861
0.0244375
0.0285948
0.0330795
0.0377845
0.042605
0.047453
0.0522546
0.0569415
0.0614389
0.000175407
0.000310529
0.000688773
0.00120542
0.00186985
0.00268646
0.00367064
0.00484169
0.00622203
0.0078377
0.00971819
0.0118974
0.0144128
0.0173049
0.0206118
0.0243533
0.0285071
0.0329985
0.0377214
0.0425704
0.0474548
0.0522997
0.0570367
0.0615939
0.000174374
0.000309654
0.000686749
0.0012018
0.00186414
0.00267807
0.00365905
0.00482611
0.00620177
0.00781177
0.00968568
0.0118569
0.0143631
0.0172446
0.0205401
0.0242718
0.0284217
0.0329187
0.0376587
0.0425343
0.0474538
0.0523403
0.0571252
0.0617375
0.000173368
0.000308753
0.000684725
0.00119823
0.00185857
0.00266999
0.00364783
0.00481115
0.00618224
0.00778677
0.00965424
0.0118179
0.0143151
0.0171865
0.0204711
0.0241933
0.0283387
0.0328407
0.0375964
0.0424979
0.0474508
0.0523777
0.0572088
0.0618733
0.000172352
0.000307902
0.000682811
0.00119485
0.00185321
0.00266218
0.00363698
0.00479668
0.00616337
0.00776275
0.00962398
0.0117803
0.014269
0.0171306
0.0204046
0.0241172
0.0282582
0.0327645
0.0375349
0.0424609
0.0474465
0.0524119
0.0572866
0.0619985
0.000171347
0.000307033
0.000681001
0.00119162
0.0018481
0.0026547
0.00362666
0.00478279
0.00614526
0.00773956
0.00959488
0.0117441
0.0142245
0.0170765
0.0203404
0.0240438
0.0281798
0.0326899
0.0374743
0.0424238
0.0474407
0.0524437
0.0573609
0.0621183
0.000170316
0.000306204
0.000679214
0.00118846
0.00184313
0.00264749
0.00361659
0.00476935
0.00612774
0.0077172
0.00956668
0.0117092
0.0141815
0.0170245
0.0202782
0.0239725
0.0281037
0.0326168
0.0374144
0.0423866
0.047434
0.0524739
0.0574345
0.0622454
0.00016926
0.000305294
0.000677489
0.00118544
0.00183834
0.00264048
0.00360692
0.00475638
0.00611082
0.00769562
0.00953959
0.0116754
0.0141401
0.0169741
0.0202182
0.0239034
0.0280296
0.0325454
0.0373556
0.0423496
0.0474268
0.0525023
0.0575032
0.0623575
0.00016826
0.000304444
0.000675819
0.00118248
0.0018337
0.00263367
0.0035975
0.00474377
0.00609447
0.00767464
0.00951321
0.0116428
0.0140999
0.0169253
0.0201601
0.0238364
0.0279572
0.0324755
0.0372977
0.0423133
0.0474194
0.0525303
0.0575716
0.0624711
0.000167198
0.000303602
0.000674147
0.00117959
0.00182914
0.00262706
0.00358829
0.00473151
0.00607842
0.00765425
0.00948754
0.0116109
0.0140609
0.0168779
0.0201034
0.0237709
0.0278865
0.0324066
0.0372402
0.0422766
0.0474115
0.0525569
0.0576379
0.0625815
0.000166131
0.000302673
0.000672538
0.00117677
0.00182468
0.00262052
0.00357928
0.00471942
0.00606276
0.00763421
0.00946242
0.0115797
0.0140226
0.0168314
0.020048
0.0237068
0.0278169
0.0323385
0.037183
0.0422394
0.0474022
0.0525816
0.0577015
0.0626899
0.000165039
0.000301838
0.00067096
0.00117402
0.00182032
0.00261417
0.00357039
0.00470754
0.00604727
0.0076145
0.00943763
0.0115491
0.013985
0.0167859
0.0199935
0.0236439
0.0277482
0.0322709
0.0371257
0.0422018
0.0473918
0.0526042
0.0577617
0.0627917
0.000163916
0.000300882
0.000669406
0.00117133
0.00181603
0.00260787
0.00356168
0.00469586
0.00603203
0.00759506
0.00941325
0.0115187
0.0139479
0.0167408
0.0199397
0.0235814
0.0276801
0.0322036
0.0370683
0.0421637
0.0473808
0.0526258
0.0578196
0.0628887
0.000162827
0.000300043
0.000667966
0.00116874
0.0018119
0.00260175
0.00355314
0.00468437
0.00601707
0.00757582
0.00938902
0.0114887
0.013911
0.016696
0.0198861
0.0235192
0.0276117
0.0321355
0.03701
0.0421246
0.0473689
0.0526474
0.0578778
0.0629792
0.000161674
0.000299151
0.00066651
0.00116621
0.00180788
0.00259585
0.00354483
0.00467324
0.00600238
0.00755701
0.00936515
0.011459
0.0138744
0.0166514
0.0198325
0.0234565
0.0275424
0.0320656
0.0369486
0.0420821
0.0473542
0.0526685
0.057945
0.063114
0.000160504
0.000298246
0.000665174
0.00116385
0.00180406
0.00259013
0.00353685
0.00466239
0.00598814
0.00753863
0.00934198
0.0114299
0.0138385
0.0166074
0.0197794
0.0233939
0.0274722
0.0319936
0.0368837
0.0420337
0.047331
0.0526769
0.0579891
0.063193
0.000159345
0.000297338
0.00066383
0.00116153
0.00180036
0.0025847
0.00352919
0.00465203
0.00597444
0.00752096
0.00931951
0.0114018
0.0138035
0.0165646
0.0197275
0.0233325
0.0274027
0.0319211
0.0368167
0.0419816
0.0473017
0.0526765
0.0580222
0.0632664
0.000158177
0.000296444
0.000662578
0.00115935
0.00179683
0.00257947
0.00352182
0.00464207
0.00596132
0.00750408
0.00929806
0.0113748
0.01377
0.0165234
0.0196775
0.0232731
0.0273355
0.0318506
0.036751
0.0419298
0.0472716
0.0526733
0.0580473
0.0633121
0.000157018
0.000295572
0.000661418
0.00115731
0.00179354
0.00257452
0.00351488
0.00463258
0.0059488
0.00748783
0.00927743
0.011349
0.0137379
0.0164838
0.0196296
0.0232162
0.0272706
0.0317828
0.0366881
0.0418809
0.0472452
0.0526764
0.0580864
0.0633983
0.000155816
0.000294722
0.000660252
0.00115531
0.0017903
0.00256976
0.00350812
0.00462346
0.00593676
0.00747229
0.0092576
0.0113241
0.013707
0.0164459
0.0195834
0.0231613
0.0272083
0.0317171
0.036627
0.0418338
0.0472207
0.0526815
0.058127
0.0634793
0.000154553
0.000293811
0.000659136
0.0011534
0.00178717
0.00256508
0.0035016
0.00461459
0.00592508
0.00745726
0.00923856
0.0113001
0.0136773
0.0164093
0.019539
0.0231084
0.0271478
0.0316532
0.0365671
0.0417869
0.0471952
0.0526838