/*--------------------------------*- C++ -*----------------------------------*\
| =========                 |                                                 |
| \\      /  F ield         | OpenFOAM: The Open Source CFD Toolbox           |
|  \\    /   O peration     | Version:  2.3.0                                 |
|   \\  /    A nd           | Web:      www.OpenFOAM.org                      |
|    \\/     M anipulation  |                                                 |
\*---------------------------------------------------------------------------*/
FoamFile
{
    version     2.0;
    format      ascii;
    class       volScalarField;
    location    "10000";
    object      p;
}
// * * * * * * * * * * * * * * * * * * * * * * * * * * * * * * * * * * * * * //

dimensions      [0 2 -2 0 0 0 0];

internalField   nonuniform List<scalar> 
14050
(
0.000177962
-1.25973
-2.44446
-3.55389
-4.56556
-5.4506
-6.19237
-6.76548
-7.16589
-7.37499
-7.36095
-7.09052
-6.49816
-5.48141
-3.86911
-1.48205
1.85041
6.31265
12.0806
20.0223
30.7872
41.8567
48.9121
65.198
10.0359
10.0334
10.1602
10.4503
10.9033
11.5367
12.3713
13.4612
14.8685
16.6865
19.0238
22.0015
25.747
30.396
36.0939
43.0146
51.3031
61.0964
72.5157
85.686
100.669
117.38
135.853
155.828
18.722
19.499
20.4157
21.5668
22.953
24.5985
26.5185
28.7373
31.2773
34.1693
37.4486
41.1603
45.3477
50.067
55.3709
61.3109
67.9305
75.2513
83.288
92.0035
101.329
111.151
121.379
131.827
26.1174
27.3746
28.7702
30.3942
32.24
34.3307
36.6864
39.3358
42.3165
45.6588
49.4024
53.5855
58.2428
63.4099
69.1129
75.3671
82.1817
89.5358
97.3932
105.683
114.306
123.112
131.936
140.565
32.13
33.846
35.5661
37.4613
39.5547
41.8597
44.3974
47.1835
50.2446
53.5945
57.2613
61.2683
65.6371
70.3884
75.5367
81.0909
87.0531
93.4028
100.106
107.106
114.33
121.667
129.009
136.218
37.7669
39.3765
41.1838
43.1632
45.3374
47.7086
50.2896
53.098
56.1522
59.47
63.0724
66.981
71.2085
75.7645
80.6548
85.887
91.4541
97.3349
103.489
109.87
116.405
123.017
129.604
136.063
42.3379
43.9466
45.7935
47.7899
49.9648
52.3189
54.8587
57.608
60.5688
63.7606
67.2014
70.9132
74.9123
79.2042
83.776
88.643
93.8022
99.2416
104.911
110.774
116.765
122.823
128.861
134.792
46.187
47.787
49.6502
51.6317
53.7636
56.0409
58.4909
61.1624
64.0315
67.1147
70.4163
73.942
77.7323
81.8156
86.1571
90.7521
95.5891
100.669
105.965
111.434
117.022
122.673
128.316
133.862
49.6437
51.0679
52.7952
54.6735
56.7807
59.0259
61.435
63.9781
66.6821
69.6387
72.823
76.2095
79.8665
83.7649
87.8744
92.1989
96.8051
101.641
106.738
111.855
117.131
122.534
127.892
133.143
52.7685
53.7486
54.9375
56.3846
58.5398
61.3186
63.7628
66.2061
68.563
71.2285
74.144
77.3588
81.0347
85.2647
88.6423
92.4078
96.7973
102.222
107.448
112.277
117.359
122.821
128.012
132.997
125.236
156.336
175.122
188.958
200.301
209.53
216.923
222.695
227.093
230.286
232.43
233.655
234.07
233.772
232.86
231.422
229.544
227.311
224.805
222.093
219.226
216.233
213.308
210.861
174.236
188.505
199.854
209.015
216.297
221.879
225.951
228.704
230.33
231.013
230.926
230.233
229.075
227.577
225.839
223.939
221.929
219.84
217.692
215.487
213.218
210.876
208.581
206.608
142.209
152.267
161.726
170.366
178.101
184.904
190.782
195.772
199.926
203.306
205.978
208.01
209.466
210.407
210.886
210.959
210.672
210.071
209.198
208.093
206.784
205.295
203.74
202.359
148.859
156.745
164.146
170.942
177.066
182.479
187.179
191.183
194.528
197.26
199.432
201.104
202.33
203.163
203.653
203.846
203.778
203.482
202.987
202.313
201.474
200.476
199.394
198.484
143.231
150.018
156.493
162.56
168.148
173.208
177.723
181.691
185.129
188.058
190.515
192.534
194.155
195.413
196.345
196.984
197.36
197.503
197.436
197.184
196.76
196.175
195.513
195.067
142.337
148.394
154.169
159.598
164.62
169.196
173.31
176.959
180.148
182.901
185.246
187.209
188.827
190.129
191.146
191.908
192.442
192.771
192.918
192.901
192.728
192.401
192.01
191.818
140.566
146.145
151.463
156.477
161.145
165.417
169.291
172.747
175.79
178.447
180.738
182.688
184.327
185.68
186.777
187.641
188.3
188.773
189.076
189.237
189.252
189.123
188.942
189.026
139.266
144.494
149.448
154.128
158.548
162.566
166.257
169.555
172.462
175.023
177.246
179.151
180.77
182.127
183.248
184.158
184.88
185.43
185.823
186.108
186.255
186.258
186.231
186.599
138.29
143.276
147.975
152.453
156.804
160.54
164.098
167.215
169.918
172.354
174.484
176.306
177.88
179.206
180.321
181.241
181.996
182.598
183.06
183.483
183.73
183.791
183.852
184.518
137.953
142.731
147.223
151.559
155.94
159.5
163.093
165.915
168.186
170.397
172.34
174.007
175.537
176.782
177.847
178.754
179.567
180.26
180.832
181.415
181.596
181.372
181.561
182.342
29.551
29.1235
28.6983
28.2627
27.8175
27.366
26.913
26.4648
26.0285
25.6117
25.2219
24.8666
24.5533
24.2908
24.0909
23.9666
23.94
24.0413
24.299
24.7412
25.4033
26.3321
27.8707
31.6044
30.802
30.4786
30.0165
29.5663
29.1347
28.7193
28.32
27.9363
27.5681
27.2163
26.8843
26.5796
26.3134
26.1042
25.9749
25.9546
26.0845
26.4253
27.0653
28.1156
29.728
32.1124
35.4076
39.4616
32.4369
32.0313
31.5789
31.1392
30.7084
30.2841
29.8686
29.4649
29.0783
28.7162
28.3885
28.1093
27.8964
27.7746
27.7739
27.9335
28.297
28.918
29.8709
31.2495
33.1639
35.7037
38.8591
42.427
33.8924
33.451
33.066
32.6638
32.2635
31.8738
31.4984
31.1412
30.8083
30.5078
30.2503
30.0503
29.9291
29.9108
30.0251
30.305
30.7912
31.5372
32.6033
34.056
35.9548
38.3218
41.1078
44.161
35.3625
34.8518
34.4893
34.1204
33.7526
33.395
33.0534
32.734
32.4431
32.1904
31.9872
31.849
31.7973
31.8549
32.048
32.407
32.9714
33.7855
34.8995
36.3601
38.2093
40.454
43.0418
45.8446
36.4032
36.1635
35.819
35.4835
35.1558
34.8334
34.5261
34.2427
33.9907
33.7793
33.6201
33.5295
33.5286
33.6374
33.8817
34.2866
34.8883
35.7314
36.8516
38.2887
40.0799
42.2229
44.68
47.3358
37.6931
37.3818
37.0665
36.7625
36.4693
36.1734
35.8908
35.6344
35.4124
35.2297
35.1046
35.0477
35.0874
35.2332
35.5253
35.9662
36.588
37.4535
38.5839
39.9853
41.711
43.7786
46.1576
48.7213
38.7657
38.4476
38.2138
37.9442
37.6893
37.4139
37.1453
36.906
36.709
36.5423
36.441
36.3945
36.4681
36.6228
36.9525
37.4139
38.0046
38.8817
40.0373
41.3692
43.0026
44.9619
47.2764
49.7556
39.559
39.4966
39.2902
39.0341
38.8427
38.5749
38.2833
38.0204
37.8571
37.6905
37.6347
37.5731
37.7243
37.8773
38.3077
38.8831
39.3985
40.3212
41.7066
42.9441
44.4287
46.3467
48.7945
51.2961
39.9157
40.2525
40.2116
39.9926
40.0904
39.8856
39.5277
39.1305
38.8393
38.573
38.3065
37.9724
37.7302
37.2442
37.5047
38.3463
38.1496
38.9201
41.1478
42.7373
43.5792
44.4116
46.8645
50.2494
39.9363
43.8237
46.2966
48.5513
50.7014
52.7165
54.5977
56.3549
58.0072
59.5768
61.0883
62.5669
64.0357
65.5108
67.0019
68.5137
70.047
71.6
73.1691
74.752
76.3464
77.94
79.5193
81.2623
44.0223
46.6096
48.0467
49.4097
50.8791
52.4506
54.0905
55.7671
57.4568
59.1412
60.8078
62.4483
64.058
65.6361
67.1845
68.7073
70.2087
71.694
73.1672
74.633
76.0965
77.5482
78.9873
80.5634
46.0137
49.0913
50.876
52.191
53.4905
54.8439
56.2453
57.6814
59.1387
60.6056
62.0743
63.5361
64.9863
66.4206
67.8376
69.2366
70.6185
71.9848
73.3377
74.6803
76.017
77.342
78.6572
80.0635
47.2743
50.253
52.2278
53.6211
54.9612
56.3143
57.6799
59.0481
60.4118
61.7659
63.109
64.4391
65.756
67.0604
68.3526
69.6336
70.9045
72.1669
73.4214
74.6693
75.9133
77.1495
78.3789
79.6602
48.6949
51.4181
53.4009
54.7851
56.1018
57.4208
58.7461
60.0663
61.3748
62.668
63.9451
65.2048
66.4474
67.6737
68.8848
70.0817
71.2662
72.4396
73.6036
74.7602
75.9102
77.0519
78.1878
79.3564
50.035
52.6028
54.59
55.9896
57.2902
58.5727
59.8492
61.1125
62.3597
63.5898
64.8019
65.9958
67.1714
68.3285
69.4683
70.5912
71.6989
72.7929
73.8738
74.9432
76.0022
77.0492
78.0916
79.1662
51.3057
53.7554
55.7327
57.1524
58.4381
59.6843
60.9099
62.1149
63.3017
64.471
65.6225
66.7552
67.8691
68.9632
70.0372
71.0927
72.1317
73.155
74.1626
75.1547
76.1318
77.0893
78.0395
79.0187
52.2478
54.6383
56.6891
58.191
59.4842
60.6872
61.8546
62.9998
64.1308
65.2498
66.3529
67.4356
68.4998
69.543
70.5609
71.5595
72.5423
73.5079
74.4535
75.3783
76.2851
77.1631
78.0343
78.9523
53.6593
55.8961
57.9648
59.4493
60.5694
61.6313
62.6975
63.7719
64.853
65.9348
67.0044
68.0475
69.0771
70.0832
71.0487
71.9977
72.932
73.8482
74.7384
75.6008
76.4458
77.245
78.0549
78.931
52.7481
54.9875
58.3386
60.2861
61.4322
62.3859
63.3904
64.4151
65.4659
66.5333
67.5929
68.5887
69.591
70.5707
71.454
72.3673
73.2862
74.1827
75.0362
75.8494
76.6642
77.3825
78.1528
78.9924
-207.12
-194.609
-181.331
-170.325
-158.486
-145.427
-132.237
-119.457
-107.101
-95.2315
-84.0063
-73.5445
-63.9467
-55.3046
-47.6583
-40.9866
-35.2298
-30.3012
-26.0638
-22.37
-19.089
-16.1148
-13.3624
-10.6722
-121.255
-121.083
-119.831
-118.034
-116.464
-115.249
-113.806
-111.628
-108.581
-104.667
-99.9108
-94.3473
-88.0414
-81.1566
-73.9083
-66.5419
-59.3
-52.3937
-45.9633
-40.0757
-34.7331
-29.889
-25.509
-21.4845
-131.923
-131.793
-131.865
-131.798
-131.234
-129.948
-127.993
-125.549
-122.629
-119.098
-114.856
-109.917
-104.309
-98.0811
-91.3216
-84.1485
-76.7366
-69.2808
-61.9817
-54.999
-48.4369
-42.3362
-36.7169
-31.3948
-121.529
-121.462
-121.282
-121.014
-120.651
-120.168
-119.521
-118.638
-117.475
-116.05
-114.273
-111.959
-108.95
-105.126
-100.441
-94.9091
-88.6388
-81.8088
-74.6529
-67.4129
-60.3029
-53.4752
-47.04
-40.9459
-121.379
-121.356
-121.34
-121.289
-121.176
-120.971
-120.628
-120.088
-119.289
-118.175
-116.721
-114.889
-112.584
-109.712
-106.174
-101.884
-96.8006
-90.9547
-84.4687
-77.54
-70.4014
-63.2806
-56.3614
-49.8251
-118.462
-118.439
-118.391
-118.31
-118.19
-118.017
-117.778
-117.447
-116.995
-116.383
-115.554
-114.452
-113.013
-111.132
-108.697
-105.595
-101.73
-97.0409
-91.5414
-85.3376
-78.6103
-71.5966
-64.5038
-57.7393
-117.196
-117.18
-117.158
-117.116
-117.048
-116.943
-116.787
-116.563
-116.245
-115.804
-115.203
-114.395
-113.325
-111.925
-110.101
-107.749
-104.757
-101.024
-96.4806
-91.1279
-85.0558
-78.4455
-71.4712
-64.747
-115.651
-115.637
-115.614
-115.574
-115.513
-115.426
-115.303
-115.133
-114.902
-114.588
-114.165
-113.599
-112.842
-111.836
-110.505
-108.75
-106.461
-103.52
-99.8262
-95.3122
-89.9859
-83.9507
-77.2973
-70.8225
-114.451
-114.44
-114.422
-114.392
-114.346
-114.28
-114.186
-114.056
-113.877
-113.635
-113.309
-112.873
-112.292
-111.52
-110.497
-109.143
-107.36
-105.032
-102.039
-98.2735
-93.6799
-88.2891
-82.0821
-76.0066
-113.282
-113.272
-113.256
-113.23
-113.19
-113.134
-113.057
-112.95
-112.807
-112.615
-112.359
-112.019
-111.567
-110.966
-110.167
-109.109
-107.705
-105.851
-103.427
-100.311
-96.3961
-91.6638
-86.0028
-80.4689
-112.219
-112.21
-112.197
-112.174
-112.14
-112.093
-112.029
-111.94
-111.822
-111.664
-111.455
-111.178
-110.812
-110.328
-109.685
-108.834
-107.706
-106.209
-104.234
-101.657
-98.3482
-94.2489
-89.1823
-84.2614
-111.205
-111.197
-111.185
-111.164
-111.134
-111.093
-111.037
-110.962
-110.861
-110.728
-110.553
-110.323
-110.021
-109.623
-109.096
-108.398
-107.475
-106.249
-104.625
-102.487
-99.7011
-96.1786
-91.6971
-87.3038
-110.239
-110.233
-110.221
-110.203
-110.177
-110.14
-110.091
-110.025
-109.938
-109.824
-109.674
-109.479
-109.223
-108.888
-108.447
-107.864
-107.095
-106.075
-104.724
-102.938
-100.59
-97.5777
-93.667
-89.8346
-109.313
-109.307
-109.297
-109.28
-109.256
-109.223
-109.179
-109.121
-109.044
-108.943
-108.813
-108.643
-108.423
-108.137
-107.761
-107.267
-106.617
-105.757
-104.618
-103.111
-101.123
-98.5474
-95.1497
-91.8862
-108.422
-108.416
-108.406
-108.391
-108.368
-108.338
-108.298
-108.246
-108.177
-108.087
-107.972
-107.823
-107.631
-107.382
-107.057
-106.632
-106.074
-105.34
-104.369
-103.086
-101.387
-99.1694
-96.1984
-93.3146
-107.557
-107.552
-107.543
-107.528
-107.508
-107.481
-107.444
-107.396
-107.334
-107.254
-107.151
-107.018
-106.848
-106.629
-106.345
-105.976
-105.492
-104.857
-104.02
-102.915
-101.451
-99.5255
-96.9172
-94.5128
-106.718
-106.713
-106.705
-106.691
-106.672
-106.647
-106.613
-106.57
-106.514
-106.441
-106.348
-106.23
-106.078
-105.884
-105.634
-105.31
-104.887
-104.334
-103.607
-102.65
-101.386
-99.7124
-97.399
-95.4746
-105.894
-105.89
-105.882
-105.87
-105.853
-105.829
-105.799
-105.76
-105.709
-105.644
-105.56
-105.454
-105.319
-105.146
-104.923
-104.637
-104.264
-103.776
-103.137
-102.292
-101.173
-99.7013
-97.6718
-94.1286
-105.082
-105.079
-105.072
-105.061
-105.046
-105.025
-104.998
-104.963
-104.917
-104.858
-104.783
-104.688
-104.567
-104.412
-104.214
-103.959
-103.628
-103.197
-102.631
-101.886
-100.898
-99.5857
-97.8696
-95.601
-104.282
-104.279
-104.272
-104.261
-104.247
-104.228
-104.203
-104.172
-104.131
-104.078
-104.011
-103.926
-103.817
-103.679
-103.502
-103.274
-102.979
-102.594
-102.09
-101.425
-100.545
-99.3693
-97.8088
-95.4689
-103.476
-103.473
-103.467
-103.458
-103.446
-103.429
-103.408
-103.38
-103.343
-103.297
-103.237
-103.16
-103.063
-102.94
-102.781
-102.576
-102.311
-101.965
-101.511
-100.912
-100.117
-99.0492
-97.6151
-95.3462
-102.668
-102.666
-102.661
-102.653
-102.642
-102.627
-102.608
-102.583
-102.551
-102.509
-102.456
-102.387
-102.3
-102.189
-102.046
-101.861
-101.621
-101.308
-100.895
-100.348
-99.6173
-98.6291
-97.2957
-95.1445
-101.853
-101.851
-101.846
-101.839
-101.829
-101.816
-101.799
-101.777
-101.749
-101.712
-101.664
-101.603
-101.524
-101.424
-101.294
-101.126
-100.907
-100.621
-100.244
-99.7449
-99.0804
-98.1855
-96.9822
-95.0418
-101.027
-101.025
-101.021
-101.014
-101.006
-100.994
-100.979
-100.96
-100.934
-100.901
-100.858
-100.803
-100.733
-100.642
-100.524
-100.371
-100.171
-99.9088
-99.5635
-99.1064
-98.5005
-97.696
-96.6578
-94.9372
-100.187
-100.185
-100.182
-100.176
-100.169
-100.159
-100.145
-100.128
-100.106
-100.076
-100.038
-99.9886
-99.9248
-99.8422
-99.7348
-99.5948
-99.4116
-99.1708
-98.8532
-98.433
-97.8775
-97.1386
-96.1699
-94.7108
-99.3332
-99.3321
-99.329
-99.3242
-99.3176
-99.3089
-99.2973
-99.2821
-99.262
-99.2357
-99.2014
-99.1569
-99.0992
-99.0242
-98.9263
-98.798
-98.6296
-98.408
-98.1153
-97.7273
-97.214
-96.5283
-95.6093
-94.3181
-98.4669
-98.4658
-98.4629
-98.4586
-98.4527
-98.445
-98.4347
-98.4211
-98.4031
-98.3796
-98.3487
-98.3084
-98.2559
-98.1874
-98.0975
-97.9792
-97.8234
-97.6175
-97.3446
-96.9816
-96.499
-95.8518
-94.9569
-93.399
-97.585
-97.5843
-97.5819
-97.5782
-97.5731
-97.5663
-97.5573
-97.5452
-97.5291
-97.5079
-97.4799
-97.4431
-97.3951
-97.3323
-97.2495
-97.1399
-96.9951
-96.8033
-96.5486
-96.2094
-95.7567
-95.1459
-94.3175
-93.0739
-96.6913
-96.6905
-96.6884
-96.6851
-96.6807
-96.6746
-96.6665
-96.6557
-96.6413
-96.6221
-96.5967
-96.5633
-96.5194
-96.4616
-96.3853
-96.2843
-96.1505
-95.9733
-95.7387
-95.4278
-95.0184
-94.4828
-93.789
-92.8851
-95.7843
-95.7836
-95.7818
-95.779
-95.7751
-95.7699
-95.7627
-95.7531
-95.7401
-95.7227
-95.6995
-95.6687
-95.6282
-95.5748
-95.5039
-95.4095
-95.2839
-95.1169
-94.8946
-94.5977
-94.2036
-93.6962
-93.0181
-91.2823
-94.8659
-94.8653
-94.8638
-94.8614
-94.8581
-94.8535
-94.8473
-94.8387
-94.8271
-94.8114
-94.7902
-94.7621
-94.7248
-94.6754
-94.6095
-94.5217
-94.4044
-94.2484
-94.0411
-93.7652
-93.3982
-92.9143
-92.285
-91.6064
-93.9368
-93.9363
-93.935
-93.9331
-93.9303
-93.9264
-93.9211
-93.9136
-93.9032
-93.8891
-93.8701
-93.8444
-93.8101
-93.7644
-93.7033
-93.6214
-93.5118
-93.3655
-93.1707
-92.9117
-92.568
-92.1248
-91.5613
-90.6367
-92.9972
-92.9968
-92.9958
-92.9943
-92.9921
-92.9889
-92.9845
-92.9782
-92.9693
-92.957
-92.9399
-92.9168
-92.8856
-92.8438
-92.7875
-92.7116
-92.6093
-92.4725
-92.2901
-92.0471
-91.724
-91.3005
-90.747
-90.0156
-92.0469
-92.0467
-92.046
-92.0449
-92.0434
-92.0411
-92.0377
-92.0326
-92.0253
-92.0148
-92.0001
-91.9798
-91.952
-91.9141
-91.8626
-91.7926
-91.6979
-91.5705
-91.4
-91.1729
-90.8707
-90.47
-89.9413
-89.2794
-91.0858
-91.0857
-91.0853
-91.0848
-91.0839
-91.0824
-91.0801
-91.0765
-91.0709
-91.0625
-91.0503
-91.0329
-91.0087
-90.9752
-90.9291
-90.8656
-90.7786
-90.661
-90.503
-90.2922
-90.0117
-89.6364
-89.1276
-88.4923
-90.1125
-90.1125
-90.1126
-90.1125
-90.1124
-90.1119
-90.1108
-90.1087
-90.1049
-90.0988
-90.0893
-90.0752
-90.0549
-90.0261
-89.9854
-89.9285
-89.8497
-89.7418
-89.5958
-89.4004
-89.1397
-88.7867
-88.2953
-87.7768
-89.1267
-89.1267
-89.1271
-89.1276
-89.1281
-89.1286
-89.1287
-89.128
-89.1261
-89.1222
-89.1154
-89.1046
-89.0883
-89.0643
-89.0294
-88.9792
-88.908
-88.8092
-88.6735
-88.4889
-88.2399
-87.9142
-87.4814
-86.659
-88.1268
-88.1268
-88.1276
-88.1286
-88.1299
-88.1312
-88.1324
-88.1332
-88.133
-88.1314
-88.1275
-88.1201
-88.1079
-88.0889
-88.0601
-88.0174
-87.9553
-87.8673
-87.7456
-87.5801
-87.3566
-87.0637
-86.726
-86.5534
-87.1124
-87.1125
-87.1135
-87.1149
-87.1168
-87.1189
-87.121
-87.123
-87.1244
-87.1246
-87.1229
-87.1185
-87.11
-87.0956
-87.0725
-87.0367
-86.9829
-86.9048
-86.7949
-86.6436
-86.4382
-86.1621
-85.8028
-85.4722
-86.0833
-86.0835
-86.0847
-86.0865
-86.0888
-86.0915
-86.0943
-86.0971
-86.0996
-86.1012
-86.1013
-86.099
-86.0933
-86.0825
-86.0638
-86.0336
-85.9865
-85.9162
-85.8149
-85.6729
-85.476
-85.2045
-84.8537
-84.5524
-85.0407
-85.0409
-85.0423
-85.0443
-85.0469
-85.0499
-85.0532
-85.0565
-85.0595
-85.0617
-85.0628
-85.0617
-85.0575
-85.0486
-85.0328
-85.0062
-84.9639
-84.8999
-84.8068
-84.6763
-84.4959
-84.2504
-83.967
-84.0433
-83.9866
-83.9869
-83.9884
-83.9906
-83.9934
-83.9965
-83.9999
-84.0033
-84.0064
-84.0087
-84.0097
-84.0085
-84.0041
-83.9949
-83.9783
-83.9506
-83.906
-83.837
-83.7334
-83.5798
-83.3539
-83.0329
-82.5797
-81.3493
-82.9248
-82.925
-82.9266
-82.9289
-82.9317
-82.935
-82.9385
-82.942
-82.9452
-82.9476
-82.9486
-82.9473
-82.9428
-82.9333
-82.9165
-82.8885
-82.8436
-82.7744
-82.6714
-82.5228
-82.3105
-81.973
-81.3656
-80.6839
-81.8565
-81.8567
-81.8585
-81.8609
-81.864
-81.8675
-81.8713
-81.8752
-81.8788
-81.8816
-81.8832
-81.8827
-81.8789
-81.8705
-81.8552
-81.8294
-81.788
-81.725
-81.633
-81.504
-81.3284
-81.0862
-80.7987
-80.7805
-80.7833
-80.7835
-80.7853
-80.788
-80.7914
-80.7953
-80.7995
-80.804
-80.8083
-80.8121
-80.8148
-80.8155
-80.8134
-80.807
-80.7941
-80.7714
-80.7345
-80.6772
-80.5927
-80.4732
-80.3088
-80.0818
-79.7736
-79.4822
-79.7045
-79.7048
-79.7069
-79.7099
-79.7137
-79.7181
-79.723
-79.7282
-79.7335
-79.7385
-79.7426
-79.7451
-79.7451
-79.7413
-79.7318
-79.7134
-79.6819
-79.6319
-79.5568
-79.4492
-79.3001
-79.0918
-78.784
-78.4843
-78.6209
-78.6212
-78.6234
-78.6267
-78.6308
-78.6357
-78.6413
-78.6473
-78.6536
-78.6598
-78.6655
-78.6698
-78.6721
-78.6709
-78.6646
-78.65
-78.6231
-78.5781
-78.508
-78.404
-78.2545
-78.0469
-77.7439
-77.0813
-77.5307
-77.5311
-77.5337
-77.5374
-77.5419
-77.5474
-77.5537
-77.5606
-77.568
-77.5755
-77.5827
-77.589
-77.5937
-77.5955
-77.5929
-77.583
-77.5619
-77.5247
-77.4652
-77.3767
-77.2498
-77.0699
-76.8368
-76.8239
-76.4356
-76.4359
-76.4385
-76.4423
-76.4472
-76.453
-76.4598
-76.4675
-76.4757
-76.4843
-76.4929
-76.501
-76.5077
-76.5121
-76.5125
-76.5065
-76.49
-76.4579
-76.4043
-76.3213
-76.1988
-76.0268
-75.8072
-75.5253
-75.3327
-75.3333
-75.3362
-75.3403
-75.3456
-75.3519
-75.3592
-75.3675
-75.3765
-75.3861
-75.3959
-75.4054
-75.414
-75.4206
-75.4238
-75.4211
-75.4088
-75.3818
-75.334
-75.2581
-75.1449
-74.986
-74.7724
-74.4492
-74.226
-74.2262
-74.2291
-74.2332
-74.2385
-74.245
-74.2526
-74.2613
-74.2708
-74.2811
-74.2917
-74.3023
-74.3122
-74.3205
-74.3258
-74.3257
-74.3166
-74.2934
-74.25
-74.1789
-74.0712
-73.9168
-73.7005
-73.3855
-73.1117
-73.1121
-73.1153
-73.1197
-73.1253
-73.1321
-73.1401
-73.1491
-73.1591
-73.1698
-73.1811
-73.1925
-73.2034
-73.2129
-73.2197
-73.2216
-73.2148
-73.1945
-73.1543
-73.087
-72.9827
-72.8297
-72.6128
-72.3147
-71.9948
-71.9953
-71.9985
-72.003
-72.0087
-72.0156
-72.0237
-72.0329
-72.043
-72.0541
-72.0658
-72.0775
-72.089
-72.0994
-72.1073
-72.1106
-72.106
-72.0885
-72.0518
-71.9887
-71.8906
-71.7466
-71.5397
-71.2518
-70.8757
-70.876
-70.8791
-70.8836
-70.8893
-70.8962
-70.9043
-70.9135
-70.9238
-70.9349
-70.9467
-70.9588
-70.9707
-70.9815
-70.9901
-70.9945
-70.9913
-70.9756
-70.9416
-70.8818
-70.7876
-70.6456
-70.4318
-70.1338
-69.7533
-69.7541
-69.7576
-69.7623
-69.7682
-69.7753
-69.7835
-69.7928
-69.8032
-69.8144
-69.8262
-69.8383
-69.8502
-69.8613
-69.8703
-69.8755
-69.8735
-69.8598
-69.8284
-69.7722
-69.6829
-69.5456
-69.3322
-69.084
-68.6362
-68.6363
-68.6392
-68.6435
-68.649
-68.6557
-68.6637
-68.6727
-68.6828
-68.6938
-68.7055
-68.7175
-68.7294
-68.7405
-68.7497
-68.7552
-68.7539
-68.7414
-68.7117
-68.6578
-68.5706
-68.4364
-68.2367
-67.9928
-67.5146
-67.5153
-67.5185
-67.5231
-67.529
-67.5359
-67.544
-67.5532
-67.5633
-67.5743
-67.5859
-67.598
-67.6099
-67.6209
-67.6301
-67.636
-67.6354
-67.6242
-67.597
-67.5466
-67.465
-67.3436
-67.1736
-66.932
-66.3987
-66.3993
-66.4026
-66.4073
-66.413
-66.42
-66.428
-66.437
-66.447
-66.458
-66.4695
-66.4813
-66.4931
-66.5042
-66.5135
-66.5195
-66.5194
-66.5092
-66.483
-66.434
-66.354
-66.2326
-66.0545
-65.7751
-65.2873
-65.2876
-65.2907
-65.2952
-65.3009
-65.3076
-65.3156
-65.3246
-65.3346
-65.3454
-65.357
-65.3689
-65.3807
-65.392
-65.4016
-65.408
-65.4088
-65.4
-65.3767
-65.3327
-65.2607
-65.1485
-64.9758
-64.7936
-64.178
-64.1785
-64.1818
-64.1864
-64.1922
-64.1991
-64.2071
-64.2162
-64.2263
-64.2372
-64.2488
-64.2609
-64.2728
-64.2842
-64.2942
-64.3013
-64.303
-64.2957
-64.2745
-64.233
-64.1635
-64.0577
-63.909
-63.6914
-63.0757
-63.0761
-63.0791
-63.0836
-63.0892
-63.096
-63.104
-63.113
-63.1231
-63.1341
-63.1459
-63.158
-63.1703
-63.1822
-63.1928
-63.2007
-63.2038
-63.1986
-63.1802
-63.1434
-63.0816
-62.9893
-62.8606
-62.6611
-61.9753
-61.9756
-61.9788
-61.9834
-61.9892
-61.9961
-62.0043
-62.0135
-62.0238
-62.0351
-62.0472
-62.0598
-62.0726
-62.0849
-62.0961
-62.105
-62.1094
-62.1058
-62.09
-62.0562
-61.9984
-61.9096
-61.781
-61.5886
-60.8788
-60.8795
-60.8831
-60.888
-60.8941
-60.9013
-60.9097
-60.9192
-60.9298
-60.9414
-60.9538
-60.9668
-60.98
-60.9929
-61.005
-61.0147
-61.0202
-61.0183
-61.0043
-60.9726
-60.9165
-60.8267
-60.6921
-60.4867
-59.7917
-59.7917
-59.7947
-59.7992
-59.8049
-59.8119
-59.8202
-59.8297
-59.8404
-59.8521
-59.8649
-59.8783
-59.8922
-59.906
-59.919
-59.9301
-59.9374
-59.9378
-59.9272
-59.9008
-59.853
-59.7737
-59.6465
-59.5388
-58.7022
-58.7026
-58.706
-58.7108
-58.717
-58.7244
-58.7331
-58.743
-58.7542
-58.7664
-58.7797
-58.7939
-58.8085
-58.8231
-58.837
-58.8494
-58.8581
-58.8603
-58.8517
-58.827
-58.7796
-58.7022
-58.59
-58.3976
-57.6178
-57.6185
-57.6222
-57.6273
-57.6336
-57.6413
-57.6503
-57.6605
-57.672
-57.6848
-57.6986
-57.7133
-57.7286
-57.7443
-57.7596
-57.7734
-57.7841
-57.789
-57.7839
-57.764
-57.7239
-57.6585
-57.5617
-57.4096
-56.5396
-56.5398
-56.5431
-56.548
-56.5542
-56.5619
-56.5709
-56.5813
-56.5931
-56.6062
-56.6205
-56.6359
-56.6522
-56.6686
-56.6849
-56.7002
-56.7127
-56.7196
-56.7172
-56.7005
-56.6641
-56.5999
-56.4925
-56.3239
-55.46
-55.4607
-55.4644
-55.4697
-55.4762
-55.4842
-55.4936
-55.5044
-55.5167
-55.5303
-55.5451
-55.5612
-55.5781
-55.5956
-55.6132
-55.6299
-55.6441
-55.6533
-55.6536
-55.6404
-55.6082
-55.5486
-55.4434
-55.2955
-54.3873
-54.3874
-54.3907
-54.3957
-54.4021
-54.41
-54.4194
-54.4303
-54.4427
-54.4566
-54.4719
-54.4886
-54.5063
-54.5247
-54.5434
-54.5613
-54.5773
-54.5886
-54.5914
-54.5813
-54.553
-54.4994
-54.4052
-54.233
-53.3113
-53.3119
-53.3156
-53.3209
-53.3277
-53.336
-53.3458
-53.3572
-53.37
-53.3844
-53.4003
-53.4176
-53.436
-53.4553
-53.475
-53.4944
-53.5119
-53.5251
-53.5307
-53.5239
-53.4998
-53.4523
-53.3655
-53.2261
-52.2399
-52.2404
-52.2442
-52.2496
-52.2565
-52.2649
-52.2748
-52.2864
-52.2994
-52.3142
-52.3305
-52.3482
-52.3673
-52.3874
-52.408
-52.4285
-52.4475
-52.4626
-52.47
-52.4654
-52.4439
-52.4008
-52.3229
-52.1068
-51.1707
-51.171
-51.1747
-51.1801
-51.187
-51.1954
-51.2055
-51.2172
-51.2305
-51.2455
-51.2622
-51.2804
-51.3
-51.3209
-51.3424
-51.3639
-51.3842
-51.4012
-51.4116
-51.4112
-51.3955
-51.3573
-51.2926
-51.3308
-50.1017
-50.1023
-50.1061
-50.1117
-50.1187
-50.1274
-50.1376
-50.1495
-50.1632
-50.1784
-50.1954
-50.2139
-50.2339
-50.2551
-50.2771
-50.2993
-50.3202
-50.3375
-50.3474
-50.3445
-50.3228
-50.2776
-50.1892
-49.8613
-49.0365
-49.0369
-49.0407
-49.0462
-49.0532
-49.0618
-49.0722
-49.0842
-49.0979
-49.1133
-49.1306
-49.1495
-49.17
-49.1918
-49.2146
-49.2375
-49.2595
-49.2784
-49.2906
-49.2915
-49.2766
-49.2396
-49.1554
-48.9978
-47.9712
-47.9716
-47.9755
-47.9811
-47.9883
-47.9972
-48.0077
-48.02
-48.0341
-48.0499
-48.0676
-48.087
-48.108
-48.1304
-48.1538
-48.1777
-48.2007
-48.2206
-48.2341
-48.2362
-48.221
-48.1809
-48.0918
-47.8642
-46.9066
-46.9073
-46.9115
-46.9174
-46.9249
-46.9342
-46.945
-46.9577
-46.9721
-46.9885
-47.0066
-47.0266
-47.0483
-47.0717
-47.0962
-47.1214
-47.1463
-47.169
-47.1866
-47.1951
-47.1904
-47.168
-47.1361
-47.2041
-45.846
-45.8465
-45.8505
-45.8563
-45.8639
-45.8731
-45.8841
-45.8971
-45.9118
-45.9285
-45.9471
-45.9677
-45.9901
-46.0142
-46.0396
-46.0657
-46.0918
-46.1156
-46.134
-46.1424
-46.1345
-46.1043
-46.0482
-45.9143
-44.7845
-44.785
-44.7893
-44.7954
-44.8032
-44.8128
-44.8241
-44.8373
-44.8525
-44.8696
-44.8888
-44.9101
-44.9332
-44.9581
-44.9845
-45.0121
-45.0396
-45.0655
-45.0866
-45.0992
-45.0986
-45.0807
-45.033
-44.9327
-43.7256
-43.7262
-43.7303
-43.7363
-43.7441
-43.7537
-43.7652
-43.7787
-43.7942
-43.8118
-43.8315
-43.8533
-43.8772
-43.903
-43.9305
-43.9589
-43.9875
-44.0144
-44.0361
-44.0477
-44.0432
-44.0162
-43.9484
-43.6841
-42.6649
-42.6654
-42.6698
-42.6761
-42.6842
-42.6941
-42.706
-42.7199
-42.7359
-42.7541
-42.7746
-42.7973
-42.8222
-42.8491
-42.8778
-42.9081
-42.939
-42.9687
-42.9948
-43.0134
-43.0198
-43.0073
-42.9754
-43.0562
-41.6042
-41.605
-41.6098
-41.6164
-41.6248
-41.6351
-41.6473
-41.6617
-41.6782
-41.697
-41.718
-41.7415
-41.7672
-41.7952
-41.8254
-41.8571
-41.8898
-41.9219
-41.9505
-41.9718
-41.9815
-41.9804
-41.9703
-41.8248
-40.5472
-40.5474
-40.5518
-40.5581
-40.5664
-40.5766
-40.589
-40.6035
-40.6203
-40.6394
-40.661
-40.6852
-40.7118
-40.7409
-40.7722
-40.8055
-40.84
-40.8743
-40.9055
-40.9298
-40.9425
-40.9402
-40.9166
-40.8351
-39.4846
-39.4853
-39.49
-39.4969
-39.5056
-39.5163
-39.5291
-39.5441
-39.5613
-39.581
-39.6032
-39.6281
-39.6555
-39.6854
-39.7177
-39.7522
-39.7881
-39.8241
-39.8576
-39.885
-39.902
-39.9029
-39.8695
-39.8041
-38.4246
-38.4253
-38.4301
-38.437
-38.4458
-38.4566
-38.4696
-38.4848
-38.5024
-38.5225
-38.5452
-38.5704
-38.5984
-38.6291
-38.6622
-38.6974
-38.7341
-38.7706
-38.804
-38.8294
-38.8403
-38.8301
-38.7777
-38.4999
-37.3642
-37.3646
-37.3695
-37.3764
-37.3853
-37.3963
-37.4096
-37.4251
-37.443
-37.4636
-37.4868
-37.5127
-37.5415
-37.5729
-37.6071
-37.6436
-37.682
-37.7209
-37.7581
-37.7902
-37.8126
-37.8195
-37.8092
-37.8905
-36.3018
-36.3027
-36.3078
-36.3151
-36.3243
-36.3357
-36.3492
-36.3651
-36.3835
-36.4045
-36.4282
-36.4547
-36.4841
-36.5163
-36.5514
-36.589
-36.6286
-36.669
-36.7079
-36.7415
-36.7659
-36.7811
-36.7839
-36.6392
-35.2431
-35.2435
-35.2483
-35.2554
-35.2645
-35.2758
-35.2894
-35.3054
-35.324
-35.3453
-35.3694
-35.3965
-35.4265
-35.4595
-35.4954
-35.5339
-35.5748
-35.6166
-35.6571
-35.6931
-35.72
-35.7325
-35.7168
-35.6659
-34.1796
-34.1804
-34.1857
-34.193
-34.2026
-34.2142
-34.2283
-34.2447
-34.2637
-34.2855
-34.3101
-34.3377
-34.3684
-34.402
-34.4387
-34.4782
-34.5199
-34.5628
-34.6048
-34.6421
-34.6703
-34.6827
-34.6661
-34.6082
-33.1188
-33.1195
-33.1249
-33.1324
-33.142
-33.1539
-33.1681
-33.1847
-33.204
-33.2262
-33.2512
-33.2793
-33.3105
-33.3449
-33.3823
-33.4227
-33.4654
-33.5095
-33.5527
-33.5915
-33.6218
-33.638
-33.6304
-33.5801
-32.0591
-32.0596
-32.0649
-32.0724
-32.082
-32.0939
-32.1083
-32.1251
-32.1447
-32.1671
-32.1926
-32.2212
-32.2529
-32.2881
-32.3263
-32.3675
-32.4113
-32.4565
-32.5013
-32.5423
-32.5751
-32.5936
-32.5868
-32.5448
-30.9987
-30.9994
-31.0048
-31.0125
-31.0224
-31.0345
-31.0489
-31.066
-31.0858
-31.1086
-31.1344
-31.1634
-31.1957
-31.2313
-31.2703
-31.3126
-31.3576
-31.4044
-31.4512
-31.4948
-31.5312
-31.5503
-31.5322
-31.5293
-29.941
-29.9417
-29.947
-29.9547
-29.9644
-29.9766
-29.9911
-30.0082
-30.0281
-30.051
-30.0771
-30.1063
-30.139
-30.1752
-30.2149
-30.2579
-30.304
-30.3524
-30.4011
-30.4479
-30.4885
-30.5106
-30.497
-30.6574
-28.8834
-28.8841
-28.8896
-28.8973
-28.9072
-28.9194
-28.9341
-28.9513
-28.9714
-28.9944
-29.0205
-29.05
-29.0829
-29.1192
-29.1591
-29.2025
-29.2488
-29.2973
-29.346
-29.3909
-29.4271
-29.4576
-29.4935
-29.3224
-27.8278
-27.8287
-27.8345
-27.8424
-27.8525
-27.8649
-27.8796
-27.897
-27.9172
-27.9402
-27.9664
-27.9959
-28.0288
-28.0651
-28.1051
-28.1484
-28.1948
-28.2435
-28.2924
-28.3377
-28.375
-28.4056
-28.4304
-28.3107
-26.7789
-26.7793
-26.7846
-26.7922
-26.8021
-26.8142
-26.8288
-26.846
-26.8661
-26.889
-26.9152
-26.9446
-26.9775
-27.0139
-27.0538
-27.097
-27.1434
-27.1918
-27.2404
-27.2855
-27.3222
-27.3457
-27.3445
-27.225
-25.7287
-25.7294
-25.735
-25.7429
-25.753
-25.7654
-25.7803
-25.7977
-25.8179
-25.841
-25.8673
-25.897
-25.93
-25.9665
-26.0064
-26.0499
-26.0965
-26.1454
-26.1951
-26.2427
-26.2833
-26.309
-26.3221
-26.447
-24.6837
-24.6846
-24.6905
-24.6985
-24.7087
-24.7212
-24.7362
-24.7537
-24.774
-24.7973
-24.8237
-24.8534
-24.8865
-24.9232
-24.9634
-25.007
-25.0537
-25.1028
-25.1522
-25.1986
-25.236
-25.2584
-25.2699
-25.2499
-23.6451
-23.6455
-23.6511
-23.659
-23.6691
-23.6816
-23.6965
-23.714
-23.7344
-23.7578
-23.7844
-23.8143
-23.8478
-23.8848
-23.9253
-23.9696
-24.0171
-24.0673
-24.1188
-24.1689
-24.2138
-24.2497
-24.2758
-24.3117
-22.6074
-22.6083
-22.6142
-22.6224
-22.6327
-22.6453
-22.6604
-22.6782
-22.6989
-22.7225
-22.7493
-22.7794
-22.8131
-22.8504
-22.8915
-22.9362
-22.9842
-23.035
-23.0869
-23.1369
-23.1803
-23.2132
-23.2386
-23.2247
-21.5774
-21.5778
-21.5835
-21.5914
-21.6016
-21.6141
-21.6292
-21.647
-21.6677
-21.6914
-21.7184
-21.7489
-21.7829
-21.8207
-21.8622
-21.9075
-21.9563
-22.0081
-22.0613
-22.1133
-22.1597
-22.1962
-22.2214
-22.2247
-20.5474
-20.5482
-20.5542
-20.5624
-20.5729
-20.5857
-20.6011
-20.6192
-20.6402
-20.6642
-20.6915
-20.7223
-20.7567
-20.7948
-20.8368
-20.8827
-20.9321
-20.9845
-21.0387
-21.0918
-21.1391
-21.1758
-21.198
-21.1959
-19.5236
-19.5244
-19.5304
-19.5387
-19.5492