/*--------------------------------*- C++ -*----------------------------------*\
| =========                 |                                                 |
| \\      /  F ield         | OpenFOAM: The Open Source CFD Toolbox           |
|  \\    /   O peration     | Version:  2.3.0                                 |
|   \\  /    A nd           | Web:      www.OpenFOAM.org                      |
|    \\/     M anipulation  |                                                 |
\*---------------------------------------------------------------------------*/
FoamFile
{
    version     2.0;
    format      ascii;
    class       volScalarField;
    location    "1000";
    object      nuTilda;
}
// * * * * * * * * * * * * * * * * * * * * * * * * * * * * * * * * * * * * * //

dimensions      [0 2 -1 0 0 0 0];

internalField   nonuniform List<scalar> 
39691
(
0.0460461
0.0443178
0.04263
0.0409898
0.0393955
0.037845
0.0363358
0.0348657
0.0334335
0.0320384
0.0306804
0.0293607
0.028079
0.0268364
0.0256314
0.0244646
0.023335
0.0222422
0.0211851
0.0201621
0.0191725
0.0182142
0.0172857
0.016385
0.0155099
0.0146573
0.0138251
0.0130098
0.0122075
0.0114159
0.0106331
0.00985722
0.00908966
0.00833426
0.00759839
0.00689317
0.00623306
0.00563294
0.00510479
0.00465539
0.00429192
0.00403962
0.00401132
0.0481552
0.0465955
0.0450753
0.0435949
0.0421529
0.0407485
0.0393801
0.0380452
0.0367406
0.0354649
0.0342172
0.0329971
0.0318054
0.0306423
0.0295073
0.0284014
0.0273237
0.0262742
0.025252
0.0242578
0.023291
0.0223518
0.021441
0.020559
0.0197065
0.0188845
0.0180958
0.0173402
0.0166217
0.0159407
0.0152982
0.0146954
0.0141302
0.013602
0.0131117
0.0126595
0.0122502
0.0118857
0.0115759
0.0113406
0.0112165
0.0112726
0.0116424
0.0501346
0.0487517
0.0473967
0.0460677
0.0447641
0.0434856
0.0422322
0.0410037
0.0397992
0.0386195
0.0374635
0.0363306
0.0352214
0.0341356
0.0330735
0.0320353
0.0310201
0.0300278
0.0290576
0.0281098
0.0271842
0.0262809
0.0254009
0.0245436
0.0237092
0.0229006
0.0221169
0.0213614
0.0206386
0.0199524
0.0193131
0.0187302
0.0182124
0.0177599
0.0173737
0.0170588
0.0168222
0.0166725
0.0166207
0.0166763
0.0168502
0.01715
0.0175752
0.0519497
0.0507249
0.0495198
0.0483326
0.0471631
0.0460109
0.0448768
0.0437609
0.0426638
0.0415857
0.040526
0.0394852
0.038462
0.0374563
0.0364675
0.0354963
0.0345427
0.0336066
0.0326892
0.0317915
0.0309149
0.0300596
0.0292273
0.0284203
0.0276399
0.026887
0.0261651
0.0254769
0.0248257
0.024216
0.0236511
0.0231381
0.0226814
0.0222856
0.0219571
0.0217014
0.0215248
0.0214353
0.0214391
0.021544
0.0217529
0.0220701
0.0224933
0.0535809
0.0524945
0.0514217
0.0503609
0.0493118
0.0482741
0.0472482
0.0462349
0.0452357
0.0442505
0.0432807
0.0423262
0.0413865
0.0404608
0.0395488
0.0386505
0.0377661
0.0368959
0.0360402
0.0352008
0.0343793
0.0335761
0.0327935
0.0320342
0.0313005
0.0305942
0.0299174
0.0292727
0.0286647
0.0280967
0.0275719
0.0270962
0.0266749
0.0263126
0.0260154
0.0257897
0.0256408
0.0255754
0.0256003
0.0257192
0.0259359
0.0262529
0.0266693
0.0550313
0.0540652
0.0531071
0.052157
0.0512139
0.0502771
0.0493465
0.0484238
0.0475099
0.046606
0.0457129
0.0448316
0.0439628
0.043107
0.042263
0.0414303
0.0406088
0.0397979
0.038999
0.0382131
0.0374417
0.0366855
0.0359466
0.035228
0.0345322
0.0338622
0.0332206
0.0326098
0.0320333
0.0314941
0.0309971
0.0305468
0.030148
0.0298073
0.0295294
0.0293212
0.0291887
0.0291368
0.0291716
0.0292972
0.0295164
0.0298313
0.0302413
0.0563151
0.0554494
0.0545898
0.0537358
0.052886
0.0520384
0.0511918
0.0503483
0.0495097
0.0486766
0.0478491
0.0470293
0.0462187
0.0454194
0.0446324
0.043856
0.0430893
0.0423308
0.0415809
0.0408418
0.0401158
0.0394018
0.0387011
0.038017
0.0373531
0.0367125
0.0360996
0.0355157
0.0349649
0.0344491
0.0339738
0.0335428
0.0331608
0.0328344
0.0325701
0.0323729
0.0322505
0.0322077
0.0322491
0.0323784
0.0325993
0.032912
0.0333172
0.0574455
0.0566607
0.0558846
0.0551137
0.0543469
0.0535799
0.0528087
0.0520336
0.0512603
0.0504907
0.0497229
0.0489559
0.0481931
0.0474375
0.0466963
0.0459663
0.0452461
0.0445344
0.0438273
0.0431262
0.0424412
0.0417665
0.0411017
0.0404469
0.0398127
0.0391934
0.0386041
0.0380433
0.0375134
0.0370176
0.0365611
0.0361481
0.0357795
0.0354643
0.0352097
0.0350181
0.0349019
0.0348661
0.0349122
0.0350425
0.0352657
0.035579
0.0359808
0.058435
0.0577148
0.0570067
0.0563043
0.0556096
0.0549177
0.0542194
0.0535012
0.0527826
0.0520678
0.0513588
0.0506405
0.0499263
0.0491973
0.0484881
0.0477938
0.047111
0.0464392
0.04578
0.0451027
0.0444557
0.0438103
0.0431912
0.0425528
0.0419627
0.0413515
0.0407811
0.04024
0.0397294
0.0392493
0.0388085
0.0384175
0.0380627
0.0377522
0.0375132
0.0373204
0.037205
0.0371743
0.0372293
0.0373528
0.0375796
0.0378945
0.0382997
0.00484812
0.00637231
0.00751627
0.00870943
0.00998107
0.0113192
0.0127083
0.0141362
0.0155942
0.0170767
0.0185785
0.0200968
0.0216298
0.023176
0.0247343
0.0263035
0.0278827
0.0294711
0.0310686
0.0326749
0.0342889
0.0359109
0.0375406
0.0391771
0.0408206
0.0424706
0.0441265
0.0457882
0.0474547
0.0491259
0.0508008
0.0524791
0.0541603
0.055843
0.0575269
0.0592108
0.0608933
0.0625736
0.0642498
0.0659211
0.0675861
0.069243
0.0708956
0.0122346
0.0129944
0.0138726
0.0148631
0.0159547
0.0171323
0.0183812
0.0196877
0.0210398
0.0224285
0.0238456
0.0252843
0.0267404
0.0282091
0.0296876
0.0311743
0.0326673
0.0341657
0.0356683
0.0371743
0.0386831
0.040194
0.0417067
0.0432205
0.0447358
0.0462522
0.0477689
0.0492866
0.0508044
0.052322
0.0538398
0.0553571
0.0568738
0.0583892
0.0599032
0.0614151
0.0629237
0.0644285
0.0659286
0.0674233
0.0689116
0.0703926
0.0718687
0.0181202
0.0187829
0.0195637
0.0204521
0.0214373
0.0225074
0.0236495
0.0248514
0.0261025
0.0273928
0.0287147
0.0300602
0.0314249
0.0328036
0.0341923
0.0355887
0.0369897
0.038394
0.0397997
0.0412062
0.0426123
0.0440168
0.0454197
0.0468204
0.0482182
0.0496137
0.051006
0.0523952
0.0537813
0.0551642
0.0565443
0.0579215
0.0592956
0.0606662
0.0620331
0.0633961
0.0647543
0.0661072
0.0674543
0.0687955
0.0701301
0.0714578
0.0727799
0.0230191
0.0236497
0.0243859
0.0252201
0.0261425
0.0271447
0.0282152
0.0293433
0.0305197
0.0317349
0.032981
0.0342514
0.0355396
0.0368414
0.0381525
0.03947
0.0407905
0.0421121
0.0434334
0.0447529
0.0460688
0.0473807
0.048688
0.0499901
0.0512863
0.0525766
0.0538612
0.0551397
0.0564127
0.05768
0.058942
0.060199
0.061451
0.0626976
0.0639386
0.0651736
0.0664023
0.067624
0.0688387
0.0700463
0.071247
0.0724411
0.0736287
0.0271818
0.0277921
0.0285001
0.0292989
0.0301804
0.0311362
0.0321562
0.0332303
0.03435
0.035507
0.036693
0.0379018
0.0391274
0.0403651
0.0416106
0.0428612
0.0441131
0.0453643
0.0466134
0.0478581
0.0490973
0.0503298
0.051555
0.0527721
0.0539811
0.0551813
0.0563733
0.0575573
0.0587333
0.0599021
0.0610637
0.0622187
0.0633667
0.0645077
0.0656412
0.0667666
0.0678835
0.0689917
0.0700917
0.0711834
0.0722669
0.0733422
0.0744076
0.0307443
0.0313404
0.0320285
0.0328023
0.0336542
0.0345758
0.0355575
0.0365906
0.0376664
0.0387768
0.0399145
0.0410727
0.0422465
0.0434309
0.0446219
0.0458161
0.0470105
0.0482026
0.0493906
0.0505722
0.0517461
0.0529111
0.0540665
0.0552113
0.0563453
0.0574684
0.0585811
0.059684
0.0607777
0.0618628
0.0629396
0.0640081
0.0650684
0.0661198
0.0671615
0.0681928
0.0692133
0.0702233
0.0712237
0.0722146
0.0731961
0.0741678
0.0751268
0.0338125
0.0343983
0.0350719
0.0358269
0.0366561
0.0375512
0.0385028
0.0395029
0.0405437
0.0416166
0.0427141
0.0438299
0.0449597
0.0461
0.0472458
0.0483927
0.0495383
0.050681
0.0518178
0.052946
0.0540642
0.0551717
0.0562681
0.0573513
0.0584202
0.0594763
0.0605207
0.0615545
0.0625784
0.0635927
0.0645977
0.0655935
0.0665798
0.0675554
0.0685187
0.069469
0.0704061
0.0713311
0.072245
0.0731485
0.0740409
0.0749223
0.0757908
0.0364682
0.0370458
0.0377087
0.0384505
0.0392612
0.0401359
0.0410612
0.0420347
0.0430475
0.0440904
0.0451539
0.0462305
0.0473229
0.0484274
0.0495364
0.050642
0.0517459
0.0528488
0.053943
0.0550249
0.0560953
0.057154
0.0582012
0.0592307
0.0602411
0.0612386
0.0622249
0.0632004
0.0641646
0.0651195
0.0660636
0.0669988
0.0679239
0.0688348
0.0697309
0.0706116
0.0714746
0.0723254
0.0731649
0.0739928
0.0748079
0.0756106
0.0764009
0.0387731
0.0393457
0.039999
0.0407317
0.0415239
0.042386
0.0432827
0.0442351
0.0452257
0.046244
0.047278
0.0483126
0.0493766
0.0504537
0.0515313
0.0525947
0.0536679
0.0547424
0.0557974
0.0568381
0.0578686
0.0588851
0.0598946
0.0608694
0.0618248
0.0627737
0.0637128
0.0646416
0.0655534
0.0664628
0.067355
0.0682453
0.0691213
0.0699759
0.0708135
0.0716327
0.0724274
0.0732161
0.0739917
0.0747561
0.0755035
0.0762388
0.0769607
0.0762665
0.0734809
0.0707452
0.0680513
0.0653934
0.0627693
0.0601787
0.0576215
0.0550987
0.0526128
0.0501654
0.0477585
0.0453949
0.0430763
0.0408058
0.0385843
0.0364153
0.034299
0.0322377
0.0302327
0.0282853
0.0263959
0.0245647
0.0227925
0.0210805
0.0194278
0.0178357
0.0163037
0.014833
0.0134232
0.0120751
0.010789
0.00956554
0.00840667
0.00731187
0.0062854
0.00532987
0.00444774
0.00364526
0.00293651
0.0023918
0.00183487
0.00116872
0.0774635
0.0749936
0.072554
0.0701395
0.0677453
0.0653696
0.0630111
0.06067
0.0583475
0.0560452
0.0537643
0.0515072
0.0492758
0.0470727
0.0448985
0.0427567
0.0406489
0.0385767
0.0365427
0.0345483
0.0325951
0.0306846
0.0288184
0.0269982
0.0252238
0.0234985
0.0218226
0.0201974
0.0186251
0.0171057
0.0156431
0.0142383
0.0128948
0.0116147
0.0104034
0.0092656
0.00821006
0.00725724
0.00642358
0.00557618
0.00467716
0.00367794
0.00248821
0.0786455
0.0764589
0.0742861
0.0721239
0.0699684
0.0678174
0.0656706
0.0635283
0.0613916
0.0592617
0.0571401
0.0550281
0.0529279
0.0508415
0.0487706
0.0467175
0.0446844
0.0426731
0.0406856
0.0387249
0.0367919
0.034889
0.0330184
0.0311808
0.0293795
0.0276174
0.025894
0.0242142
0.0225794
0.0209932
0.0194586
0.0179793
0.0165613
0.0152099
0.0139353
0.0127569
0.0116715
0.0105932
0.00948028
0.00829953
0.00701034
0.00556483
0.00389372
0.0797797
0.0778515
0.0759203
0.0739848
0.0720428
0.0700937
0.0681382
0.0661765
0.0642096
0.0622386
0.0602648
0.0582899
0.0563153
0.0543429
0.0523746
0.0504121
0.0484581
0.0465139
0.0445822
0.0426657
0.0407664
0.0388862
0.0370277
0.0351927
0.0333856
0.0316075
0.0298622
0.0281536
0.0264844
0.0248596
0.023285
0.0217657
0.0203104
0.0189332
0.0176355
0.0163679
0.01509
0.013768
0.0123721
0.010871
0.0092264
0.00739327
0.00531374
0.0808697
0.0791608
0.077442
0.0757078
0.0739557
0.0721865
0.0704012
0.0686013
0.0667877
0.0649613
0.0631237
0.0612761
0.0594194
0.0575564
0.0556872
0.0538141
0.0519393
0.0500644
0.0481929
0.0463276
0.0444688
0.0426213
0.0407868
0.0389683
0.0371681
0.0353913
0.0336413
0.0319226
0.0302396
0.0285993
0.0270082
0.0254761
0.0240062
0.0225779
0.0211594
0.0197222
0.0182394
0.0166834
0.0150288
0.0132419
0.0112868
0.00911907
0.00668843
0.0818718
0.0803662
0.0788393
0.0772844
0.0756993
0.0740877
0.0724527
0.0707971
0.069121
0.0674258
0.0657116
0.0639803
0.0622336
0.0604724
0.0586979
0.0569119
0.0551144
0.0533098
0.0515
0.0496877
0.047876
0.0460671
0.0442653
0.042472
0.040691
0.0389268
0.0371843
0.0354698
0.0337882
0.0321482
0.0305536
0.028997
0.0274628
0.0259274
0.024369
0.0227657
0.0210934
0.0193287
0.0174436
0.0154054
0.0131784
0.0107194
0.00798252
0.0827834
0.0814588
0.0801065
0.0787125
0.0772717
0.0757956
0.0742922
0.0727635
0.0712104
0.0696324
0.0680297
0.0664042
0.0647583
0.0630921
0.0614079
0.0597055
0.0579856
0.0562485
0.054499
0.0527417
0.050979
0.0492144
0.0474511
0.0456916
0.0439385
0.0421953
0.0404685
0.0387655
0.0370913
0.0354464
0.0338227
0.0322086
0.0305876
0.0289422
0.0272527
0.0255002
0.023662
0.0217132
0.0196257
0.0173674
0.0149013
0.0121862
0.00917804
0.0835927
0.0824296
0.0812423
0.079998
0.0786762
0.0773123
0.0759205
0.074503
0.0730599
0.0715886
0.0700866
0.0685554
0.0670014
0.0654231
0.0638224
0.0622024
0.0605588
0.0588896
0.057198
0.0554946
0.0537828
0.0520639
0.0503417
0.0486225
0.0469061
0.0451905
0.0434793
0.0417825
0.0401021
0.0384341
0.0367663
0.0350839
0.0333776
0.0316306
0.0298264
0.0279449
0.0259624
0.0238528
0.0215892
0.0191396
0.016467
0.0135227
0.0102711
0.0842932
0.0832658
0.0822456
0.0811624
0.0799227
0.0786414
0.0773411
0.0760203
0.0746762
0.0733026
0.0718956
0.0704444
0.0689737
0.0674762
0.0659496
0.0644089
0.0628461
0.0612512
0.0596098
0.0579544
0.0562953
0.0546235
0.0529387
0.0512598
0.0495862
0.0479127
0.0462081
0.044499
0.0427907
0.0410979
0.0393933
0.0376401
0.0358528
0.0340153
0.0321118
0.0301206
0.0280173
0.0257652
0.0233478
0.0207357
0.0179012
0.014744
0.0112597
0.000574567
0.00058513
0.000815162
0.00103287
0.00123741
0.00143165
0.00161852
0.00180127
0.0019841
0.00217295
0.00237595
0.00260433
0.00286977
0.00317511
0.00351796
0.00389399
0.00430012
0.00473501
0.00519767
0.00568797
0.00620643
0.00675342
0.00732945
0.00793527
0.00857201
0.00924085
0.00994283
0.0106792
0.0114514
0.0122607
0.0131083
0.0139961
0.0149251
0.0158968
0.0169125
0.0179736
0.0190815
0.0202376
0.0214431
0.0226991
0.0240067
0.0253672
0.0267831
0.00120554
0.000812431
0.0010002
0.00122366
0.0014362
0.00163939
0.00183803
0.00203824
0.00224741
0.00247439
0.00272823
0.00301774
0.00334932
0.00371636
0.00411311
0.00453659
0.00498555
0.00545865
0.00595605
0.0064773
0.00702279
0.00759304
0.00818859
0.00881017
0.00945819
0.0101341
0.0108386
0.011573
0.0123378
0.0131347
0.0139645
0.0148283
0.0157272
0.0166626
0.0176355
0.018647
0.0196981
0.02079
0.0219237
0.0231002
0.0243205
0.0255856
0.0268965
0.00207374
0.00110477
0.00117122
0.00139743
0.00161985
0.00183668
0.00205522
0.00228449
0.0025335
0.00281019
0.00312083
0.00346965
0.00385848
0.00427636
0.00471889
0.00518378
0.00567032
0.00617798
0.00670621
0.00725547
0.00782553
0.0084168
0.00902974
0.009665
0.0103231
0.0110046
0.0117105
0.0124415
0.0131985
0.0139824
0.0147939
0.0156338
0.0165033
0.0174031
0.0183339
0.019297
0.020293
0.0213225
0.0223866
0.0234859
0.0246215
0.0257938
0.0270037
0.00304441
0.00147742
0.00132948
0.0015518
0.00178702
0.00202317
0.00226974
0.0025367
0.00283197
0.00316041
0.00352448
0.00392668
0.00436296
0.00482345
0.0053047
0.00580537
0.00632487
0.00686252
0.00741823
0.00799157
0.00858306
0.00919268
0.00982048
0.0104671
0.0111329
0.0118184
0.0125245
0.0132514
0.014
0.0147709
0.0155647
0.0163816
0.0172227
0.018089
0.0189804
0.0198981
0.0208425
0.021814
0.0228135
0.0238413
0.024898
0.025984
0.0270986
0.00403168
0.00191823
0.00148193
0.00169063
0.00194174
0.00220256
0.00248286
0.00279161
0.00313387
0.00351056
0.00392232
0.00437133
0.00484779
0.00534482
0.00586006
0.00639212
0.00694064
0.00750487
0.00808442
0.00867931
0.00928926
0.00991457
0.0105552
0.0112113
0.0118833
0.0125717
0.0132769
0.0139991
0.0147391
0.015497
0.0162736
0.0170689
0.0178836
0.0187182
0.019573
0.0204485
0.0213452
0.0222633
0.0232032
0.0241652
0.0251495
0.026156
0.0271836
0.0049865
0.00240086
0.00163491
0.00181748
0.00208767
0.00237708
0.00269396
0.0030448
0.00343119
0.0038516
0.00430614
0.0047952
0.00530657
0.00583587
0.0063812
0.00694116
0.00751541
0.00810321
0.0087041
0.00931779
0.00994399
0.0105829
0.0112345
0.0118987
0.0125757
0.0132659
0.0139696
0.0146869
0.0154183
0.016164
0.016924
0.0176988
0.0184887
0.0192939
0.0201147
0.0209513
0.021804
0.0226728
0.023558
0.0244597
0.0253777
0.0263119
0.0272599
0.00588594
0.0028983
0.00179022
0.00193632
0.00222781
0.00254791
0.00290187
0.00329277
0.00371915
0.00417823
0.00467128
0.00519453
0.00573677
0.00629475
0.00686707
0.00745217
0.00804953
0.00865843
0.00927829
0.00990884
0.0105497
0.0112006
0.0118616
0.0125327
0.0132142
0.0139058
0.0146078
0.0153202
0.0160429
0.0167766
0.017521
0.0182764
0.0190431
0.0198212
0.0206105
0.0214113
0.0222231
0.0230464
0.023881
0.0247272
0.0255851
0.0264553
0.0273403
0.00671734
0.00339534
0.0019586
0.00204378
0.00235645
0.00270798
0.00309739
0.00352493
0.00398766
0.00448277
0.00501193
0.00556605
0.00613668
0.00672147
0.00731897
0.00792767
0.00854663
0.00917559
0.0098136
0.0104599
0.0111137
0.0117754
0.0124452
0.0131228
0.013808
0.0145007
0.0151999
0.0159063
0.0166203
0.0173417
0.0180707
0.0188076
0.0195531
0.0203066
0.0210673
0.0218345
0.0226081
0.0233884
0.0241751
0.0249696
0.0257728
0.0265851
0.027407
0.00745206
0.00377495
0.00205198
0.00216523
0.0025116
0.00289552
0.00332233
0.00378976
0.00429272
0.00482193
0.00537898
0.00595765
0.00655271
0.00716359
0.00778665
0.008415
0.00905196
0.00970027
0.0103549
0.0110117
0.0116711
0.0123392
0.0130172
0.0136992
0.0143871
0.0150785
0.0157686
0.0164635
0.017166
0.0178722
0.0185844
0.0193017
0.0200309
0.0207632
0.0214972
0.0222308
0.0229664
0.0237048
0.0244411
0.0251874
0.0259401
0.0266991
0.0274576
0.000134495
0.00052176
0.00116365
0.00193479
0.00269091
0.00343072
0.00415913
0.00487134
0.00557337
0.0062743
0.00698018
0.00769467
0.00842115
0.00916255
0.00991849
0.0106887
0.0114737
0.0122747
0.0130934
0.0139325
0.0147947
0.015683
0.0166005
0.0175507
0.0185365
0.019561
0.0206266
0.0217357
0.0228899
0.0240908
0.0253397
0.0266368
0.0279823
0.0293758
0.0308167
0.0323042
0.033837
0.0354161
0.0370423
0.038717
0.0404415
0.0422177
0.0440363
7.80868e-05
0.000299734
0.000624882
0.00105281
0.00158883
0.00224162
0.00300776
0.00376984
0.00453455
0.00530686
0.00608192
0.00685246
0.00761543
0.0083701
0.00912014
0.00986902
0.0106203
0.0113775
0.0121434
0.0129213
0.0137147
0.0145271
0.0153633
0.0162275
0.0171247
0.0180595
0.0190364
0.0200598
0.0211339
0.0222617
0.0234466
0.0246894
0.0259922
0.0273544
0.0287754
0.0302542
0.0317893
0.0333802
0.0350256
0.0367259
0.0384811
0.0402914
0.0421503
4.95983e-05
0.000236393
0.000461457
0.000728593
0.00105406
0.0014606
0.00195372
0.0025432
0.00323387
0.0040286
0.00488563
0.00573618
0.00658311
0.00742351
0.00825732
0.00908461
0.00990504
0.0107185
0.0115258
0.0123283
0.0131285
0.0139296
0.014736
0.0155528
0.0163859
0.0172416
0.0181267
0.0190488
0.0200156
0.0210338
0.0221097
0.0232487
0.0244554
0.025732
0.0270802
0.0284999
0.0299904
0.0315504
0.0331778
0.0348714
0.03663
0.0384523
0.0403361
4.85885e-05
0.000215878
0.000425899
0.000665451
0.00092551
0.00121141
0.00154721
0.00195424
0.00245241
0.0030519
0.00375345
0.00455702
0.00543802
0.00632699
0.00721804
0.00810825
0.00899651
0.00988196
0.0107635
0.0116399
0.0125095
0.0133709
0.0142244
0.0150717
0.0159158
0.0167611
0.0176137
0.0184813
0.0193731
0.0202986
0.0212678
0.0222908
0.023377
0.0245342
0.0257686
0.0270846
0.0284843
0.0299685
0.0315361
0.0331854
0.0349147
0.0367213
0.0386035
5.13841e-05
0.00024114
0.000466106
0.000713783
0.000961604
0.00120606
0.00145685
0.00173931
0.00210613
0.00256723
0.00312442
0.0037813
0.00453556
0.00538877
0.0062945
0.00720954
0.00812715
0.00904652
0.00996737
0.010889
0.0118102
0.0127291
0.0136437
0.0145515
0.0154508
0.016341
0.0172234
0.0181017
0.0189817
0.0198714
0.0207805
0.0217206
0.0227047
0.0237454
0.0248548
0.0260435
0.0273199
0.0286899
0.0301566
0.031721
0.0333825
0.0351393
0.0369916
5.24007e-05
0.000245834
0.000474767
0.000722988
0.000966107
0.00120183
0.00143734
0.00168674
0.00198062
0.00237002
0.00284883
0.00341715
0.00407499
0.00482246
0.00566267
0.00656427
0.00747964
0.00839987
0.00932466
0.0102547
0.0111901
0.0121302
0.0130737
0.0140187
0.0149623
0.0159009
0.0168315
0.017753
0.0186655
0.0195715
0.0204762
0.0213878
0.0223178
0.0232792
0.0242873
0.0253577
0.026505
0.0277425
0.0290802
0.0305251
0.0320813
0.03375
0.0355307
5.47891e-05
0.000261301
0.00049512
0.000739261
0.000974416
0.0012024
0.00143108
0.0016718
0.0019448
0.00230603
0.0027555
0.00328734
0.00390014
0.00459215
0.00536594
0.00622372
0.0071183
0.00802282
0.0089325
0.00984814
0.0107714
0.0117032
0.0126436
0.0135919
0.0145466
0.0155051
0.0164644
0.0174206
0.01837
0.0193105
0.0202416
0.0211657
0.0220885
0.0230189
0.0239697
0.0249569
0.0259981
0.0271117
0.0283149
0.0296227
0.0310467
0.0325947
0.0342729
5.66656e-05
0.000271689
0.000505475
0.000743703
0.000972264
0.00119553
0.00142195
0.00166254
0.00193569
0.00229614
0.0027444
0.00327163
0.00387442
0.00454962
0.00529892
0.00612558
0.00699999
0.00788853
0.00878203
0.00967992
0.0105839
0.0114959
0.0124175
0.0133494
0.0142912
0.0152426
0.0162019
0.0171663
0.018132
0.0190952
0.0200519
0.0209999
0.0219389
0.022872
0.0238061
0.0247521
0.0257255
0.0267453
0.0278322
0.0290073
0.0302903
0.0316974
0.0332402
5.86414e-05
0.000282827
0.000514237
0.000745537
0.000967908
0.00118775
0.00141416
0.00165823
0.00193865
0.00231318
0.00277377
0.00331162
0.00392163
0.00460052
0.00534927
0.00617048
0.00703948
0.00792324
0.00881073
0.00969993
0.0105921
0.011489
0.0123926
0.0133048
0.0142264
0.0151582
0.0161003
0.0170516
0.0180105
0.0189741
0.0199384
0.0208994
0.0218535
0.0227992
0.0237373
0.0246723
0.0256138
0.0265763
0.027579
0.0286445
0.0297974
0.0310609
0.0324533
6.04096e-05
0.000292122
0.000519311
0.000743884
0.000961128
0.00117869
0.00140669
0.00165729
0.00195248
0.00234714
0.00282548
0.00338029
0.00400515
0.00469746
0.00545828
0.00628918
0.00716585
0.00805712
0.008951
0.00984431
0.0107373
0.0116312
0.0125277
0.0134285
0.014335
0.0152488
0.016171
0.0171019
0.0180416
0.0189892
0.0199428
0.0208991
0.0218543
0.0228048
0.0237479
0.0246832
0.0256139
0.0265477
0.0274985
0.0284855
0.0295331
0.0306676
0.0319135
6.20472e-05
0.000300517
0.00052249
0.0007408
0.000953722
0.0011698
0.00139993
0.00165848
0.00197627
0.00239254
0.00289045
0.003464
0.0041065
0.00481623
0.00559462
0.00644242
0.00733468
0.00824229
0.00915256
0.0100612
0.0109671
0.0118707
0.0127729
0.013675
0.0145781
0.0154837
0.0163931
0.0173076
0.018228
0.0191552
0.0200887
0.0210277
0.0219697
0.0229117
0.0238502
0.0247822
0.025707
0.0266264
0.0275477
0.0284839
0.0294548
0.0304855
0.0316027
6.34896e-05
0.000307635
0.000523972
0.000736773
0.000946367
0.00116186
0.0013945
0.00166065
0.00200621
0.00244519
0.00296327
0.00355509
0.00421541
0.00494354
0.00574117
0.00660863
0.00752109
0.0084505
0.00938373
0.0103155
0.0112436
0.0121672
0.0130865
0.0140019
0.014914
0.0158237
0.016732
0.0176401
0.0185492
0.0194606
0.0203753
0.0212937
0.0222154
0.023139
0.0240622
0.024982
0.0258958
0.0268026
0.0277041
0.0286073
0.0295254
0.0304791
0.0314997
6.47204e-05
0.000313519
0.000524103
0.000732105
0.000939429
0.00115558
0.00139244
0.00166849
0.00204226
0.00250247
0.00303942
0.00364828
0.00432559
0.00507172
0.00588863
0.00677622
0.00771073
0.00866512
0.00962551
0.0105854
0.0115418
0.0124929
0.0134379
0.0143761
0.0153079
0.0162331
0.0171522
0.0180658
0.018975
0.0198805
0.0207841
0.0216869
0.0225895
0.0234924
0.0243946
0.0252946
0.0261904
0.0270796
0.027962
0.0288396
0.0297194
0.0306159
0.0315514
6.57782e-05
0.000318235
0.000523239
0.000727021
0.000932636
0.00115027
0.00139373
0.00168858
0.00208417
0.00256216
0.00311597
0.00374032
0.00443342
0.00519633
0.00603167
0.00693879
0.00789571
0.00887639
0.00986619
0.0108575
0.0118461
0.0128295
0.013806
0.0147744
0.0157339
0.0166838
0.0176239
0.0185541
0.0194746
0.020386
0.0212891
0.0221857
0.0230765
0.0239627
0.0248452
0.0257236
0.0265971
0.027464
0.0283236
0.0291759
0.0300235
0.0308745
0.0317421
6.66954e-05
0.00032181
0.000521653
0.000721967
0.000926226
0.00114501
0.00139453
0.00171348
0.00212819
0.00262197
0.00319062
0.00382889
0.00453635
0.00531474
0.00616689
0.00709255
0.00807168
0.00907888
0.010099
0.0111234
0.0121467
0.0131656
0.0141776
0.015181
0.0161741
0.0171557
0.0181246
0.0190803
0.020022
0.0209497
0.0218638
0.0227648
0.0236539
0.0245321
0.0254012
0.0262617
0.0271138
0.0279572
0.0287915
0.0296164
0.0304327
0.0312438
0.032056
6.76938e-05
0.00032419
0.000519526
0.000717222
0.000920954
0.00114137
0.00139649
0.0017405
0.00217281
0.00268113
0.00326241
0.00391293
0.00463317
0.00542542
0.00629282
0.00723544
0.00823581
0.00926945
0.0103201
0.0113781
0.0124374
0.0134937
0.0145439
0.0155853
0.0166162
0.0176343
0.0186379
0.0196259
0.0205968
0.0215497
0.0224844
0.0234004
0.0242984
0.0251792
0.0260438
0.0268939
0.02773
0.0285529
0.029363
0.0301603
0.0309451
0.0317186
0.0324832
6.94982e-05
0.000325497
0.000516972
0.000712608
0.000916659
0.00114062
0.00140559
0.00177037
0.00221709
0.00273812
0.0033304
0.00399174
0.00472334
0.00552794
0.00640898
0.00736694
0.00838701
0.00944608
0.010527
0.0116189
0.0127145
0.0138091
0.0148988
0.0159805
0.0170516
0.0181096
0.0191522
0.0201775
0.0211836
0.0221688
0.0231318
0.0240719
0.0249886
0.0258821
0.0267527
0.0276016
0.0284301
0.0292391
0.0300295
0.030802
0.0315572
0.0322956
0.0330185
7.28089e-05
0.000325997
0.000514272
0.000708101
0.000912403
0.00114083
0.0014221
0.00180178
0.00226015
0.002792
0.00339392
0.00406484
0.0048066
0.00562215
0.00651521
0.00748687
0.00852504
0.00960803
0.0107182
0.0118435
0.0129757
0.014109
0.015239
0.0163621
0.0174751
0.0185752
0.0196595
0.0207258
0.0217713
0.022794
0.0237918
0.024763
0.0257066
0.0266216
0.027508
0.0283659
0.0291963
0.0300002
0.0307784
0.0315319
0.032262
0.0329696
0.0336558
7.78807e-05
0.000325955
0.000511781
0.000704032
0.000908049
0.00113989
0.00143978
0.00183275
0.00230148
0.00284276
0.00345318
0.00413256
0.00488316
0.00570828
0.00661167
0.0075953
0.00864988
0.00975532
0.0108935
0.0120512
0.0132195
0.0143915
0.0155622
0.0167271
0.0178831
0.0190266
0.0201544
0.0212638
0.0223518
0.0234157
0.024453
0.025461
0.026438
0.0273822
0.0282926
0.0291688
0.0300106
0.0308188
0.0315939
0.0323368
0.0330488
0.0337318
0.0343882
8.50156e-05
0.000325657
0.000509687
0.000700787
0.00090472
0.00113933
0.00145801
0.00186305
0.002341
0.00289053
0.00350823
0.004195
0.00495325
0.00578665
0.00669913
0.00769314
0.00876205
0.00988811
0.0110528
0.0122418
0.0134453
0.0146555
0.0158666
0.0170737
0.0182728
0.0194604
0.0206329
0.0217869
0.0229195
0.0240272
0.0251071
0.0261561
0.0271716
0.028151
0.0290925
0.0299946
0.0308566
0.0316782
0.0324595
0.0332011
0.033904
0.0345697
0.0352016
9.38741e-05
0.000325257
0.000507803
0.000698262
0.000903138
0.00114226
0.00147726
0.00189249
0.00237878
0.00293509
0.00355917
0.00425225
0.00501727
0.00585784
0.00677814
0.00778101
0.00886225
0.0100067
0.011196
0.0124152
0.0136528
0.0149004
0.0161515
0.0174006
0.0186429
0.0198748
0.0210924
0.0222921
0.0234703
0.0246236
0.0257483
0.0268412
0.0278988
0.0289181
0.0298962
0.0308309
0.0317205
0.0325637
0.0333601
0.0341093
0.0348119
0.0354689
0.0360817
0.000103071
0.000324708
0.000505773
0.000695791
0.000902758
0.00115061
0.00149738
0.00192069
0.00241425
0.00297643
0.0036061
0.00430483
0.00507565
0.00592236
0.00684911
0.00785942
0.00895122
0.0101119
0.0113239
0.0125714
0.0138421
0.0151263
0.0164166
0.017707
0.0189925
0.0202685
0.0215312
0.0227767
0.0240011
0.0252009
0.0263721
0.0275107
0.028613
0.0296754
0.0306944
0.0316669
0.0325902
0.0334622
0.0342815
0.0350469
0.0357582
0.0364161
0.0370225
0.000111821
0.000324092
0.000503546
0.000692826
0.00090201
0.0011613
0.00151716
0.0019474
0.00244735
0.00301492
0.00364944
0.00435307
0.00512882
0.00598071
0.00691301
0.00792943
0.00902987
0.0102046
0.0114371
0.0127111
0.0140131
0.0153327
0.0166615
0.0179925
0.0193204
0.0206403
0.0219479
0.0232392
0.0245101
0.0257566
0.0269748
0.0281604
0.0293092
0.0304171
0.0314799
0.032494
0.0334558
0.0343623
0.0352112
0.0360004
0.0367289
0.0373962
0.0380034
0.00011987
0.00032357
0.000501327
0.000689469
0.000900274
0.00117201
0.00153613
0.00197265
0.00247823
0.00305048
0.00368931
0.00439703
0.00517709
0.00603335
0.00697027
0.00799174
0.00909893
0.0102853
0.0115359
0.0128344
0.0141662
0.0155197
0.0168857
0.0182568
0.0196263
0.0209895
0.0223416
0.0236783
0.0249954
0.0262889
0.0275543
0.0287874
0.0299835
0.0311384
0.0322472
0.0333057
0.0343096
0.0352551
0.0361388
0.0369581
0.0377107
0.0383947
0.0390095
0.00012707
0.000323132
0.000499267
0.000686092
0.000897873
0.00118235
0.00155424
0.00199637
0.00250698
0.00308327
0.00372581
0.00443715
0.00522084
0.00608074
0.00702121
0.00804669
0.00915941
0.0103551
0.0116212
0.0129419
0.0143017
0.0156878
0.0170896
0.0184994
0.01991
0.0213156
0.0227115
0.024093
0.0254558
0.0267958
0.0281084
0.0293891
0.030633
0.0318354
0.0329915
0.0340964
0.0351451
0.036133
0.0370558
0.0379099
0.0386922
0.0393998
0.0400306
0.000133553
0.000322794
0.000497531
0.000683217
0.000895761
0.0011926
0.00157152
0.00201878
0.00253379
0.00311361
0.00375928
0.00447367
0.00526027
0.00612317
0.0070665
0.00809497
0.00921173
0.0104148
0.011694
0.0130342
0.0144197
0.0158365
0.0172732
0.0187204
0.0201709
0.0216181
0.0230568
0.0244824
0.0258905
0.0272762
0.0286354
0.0299634
0.0312551
0.0325056
0.0337095
0.0348617
0.0359569
0.0369895
0.0379548
0.0388479
0.0396647
0.0404016
0.0410554
0.000139535
0.000322527
0.000496213
0.000681266
0.000895238
0.00120305
0.00158801
0.00204001
0.00255853
0.00314139
0.00378989
0.00450684
0.00529586
0.00616093
0.00710651
0.0081371
0.00925655
0.0104649
0.0117547
0.013112
0.0145207
0.0159663
0.017436
0.0189196
0.0204086
0.0218964
0.0233773
0.024846
0.0262982
0.0277293
0.0291342
0.0305088
0.031848
0.0331464
0.0343984
0.0355984
0.036741
0.0378199
0.0388297
0.0397649
0.0406203
0.0413911
0.0420735
0.000145015
0.000322201
0.000495045
0.000680184
0.000897342
0.00121356
0.0016035
0.0020596
0.00258123
0.00316665
0.00381743
0.0045365
0.0053275
0.00619433
0.00714138
0.00817346
0.00929465
0.0105064
0.011804
0.0131756
0.0146054
0.0160775
0.0175784
0.0190968
0.0206233
0.0221505
0.0236722
0.0251833
0.0266785
0.0281537
0.0296039
0.0310242
0.0324099
0.0337555
0.0350554
0.0363035
0.0374938
0.0386201
0.039676
0.0406554
0.0415521
0.0423607
0.0430753
0.000149886
0.000321701
0.000493742
0.000679398
0.000901595
0.00122379
0.00161786
0.00207763
0.002602
0.00318963
0.00384226
0.00456298
0.00535531
0.00622338
0.00717134
0.00820405
0.00932604
0.0105399
0.0118431
0.013226
0.0146739
0.0161703
0.0177005
0.0192519
0.0208145
0.0223799
0.0239413
0.0254933
0.0270308
0.0285488
0.030043
0.0315084
0.0329398
0.0343319
0.0356788
0.0369746
0.0382126
0.0393865
0.0404896
0.0415149
0.0424553
0.0433049
0.0440577
0.000154386
0.00032099
0.000492146
0.000678276
0.000906494
0.00123345
0.00163107
0.00209407
0.00262068
0.00321022
0.00386448
0.00458642
0.00537964
0.0062483
0.00719671
0.00822937
0.00935118
0.0105656
0.0118723
0.0132639
0.0147268
0.0162448
0.0178021
0.0193849
0.0209818
0.022584
0.024184
0.0257758
0.0273542
0.0289143
0.0304511
0.0319601
0.0334362
0.0348739
0.0362672
0.0376098
0.0388953
0.0401168
0.0412671
0.0423391
0.0433249
0.0442173
0.0450093
0.00015851
0.000320067
0.000490215
0.00067667
0.000911227
0.00124237
0.00164305
0.00210882
0.00263736
0.00322835
0.00388377