/*--------------------------------*- C++ -*----------------------------------*\
| =========                 |                                                 |
| \\      /  F ield         | OpenFOAM: The Open Source CFD Toolbox           |
|  \\    /   O peration     | Version:  2.3.0                                 |
|   \\  /    A nd           | Web:      www.OpenFOAM.org                      |
|    \\/     M anipulation  |                                                 |
\*---------------------------------------------------------------------------*/
FoamFile
{
    version     2.0;
    format      ascii;
    class       surfaceScalarField;
    location    "1000";
    object      phi;
}
// * * * * * * * * * * * * * * * * * * * * * * * * * * * * * * * * * * * * * //

dimensions      [0 3 -1 0 0 0 0];

internalField   nonuniform List<scalar> 
79042
(
-0.00794987
-0.00532583
0.00584097
0.00743119
-0.00841817
-0.005064
0.00553228
-0.00883718
-0.00481413
0.00523303
-0.00921448
-0.00457657
0.00495386
-0.00955015
-0.00434699
0.00468259
-0.00984195
-0.00413263
0.00442444
-0.0100945
-0.00392339
0.00417593
-0.0103137
-0.00372283
0.00394199
-0.0104971
-0.00353294
0.00371633
-0.0106437
-0.0033496
0.00349623
-0.0107573
-0.00317522
0.00328881
-0.0108388
-0.00300531
0.00308678
-0.0108953
-0.00284071
0.00289721
-0.010917
-0.0026888
0.0027105
-0.0109104
-0.00253838
0.00253178
-0.0108777
-0.00239401
0.00236129
-0.0108153
-0.00225652
0.00219417
-0.010731
-0.00211932
0.00203497
-0.0106157
-0.0019957
0.00188046
-0.0104793
-0.00186664
0.00173022
-0.0103168
-0.00174879
0.00158625
-0.0101341
-0.00163083
0.00144815
-0.00992697
-0.00151992
0.00131278
-0.00970328
-0.00140865
0.00118495
-0.00945787
-0.00130398
0.00105857
-0.0091987
-0.00119869
0.000939518
-0.0089251
-0.00109787
0.000824266
-0.00863939
-0.00100082
0.000715106
-0.00834818
-0.000903155
0.000611944
-0.00805125
-0.00080779
0.000510853
-0.0077576
-0.000712005
0.000418361
-0.00746708
-0.000619658
0.000329129
-0.00718746
-0.000525927
0.000246313
-0.00692559
-0.000430681
0.000168798
-0.00668679
-0.000336831
9.80385e-05
-0.00648423
-0.000236362
3.37981e-05
-0.00631797
-0.000140489
-2.57726e-05
-0.00620471
-3.68072e-05
-7.64645e-05
-0.00615051
6.75764e-05
-0.000121771
-0.00617163
0.000178281
-0.000157175
-0.00626888
0.000282782
-0.000185527
-0.00644162
0.000381799
-0.00020908
0.00047904
-0.00675481
-0.000165834
-0.00718605
-0.00486313
0.00672341
-0.00760468
-0.00464537
-0.00798378
-0.00443505
-0.00832211
-0.00423824
-0.00862232
-0.00404679
-0.00889203
-0.00386293
-0.00912913
-0.0036863
-0.00933068
-0.00352128
-0.0095073
-0.00335632
-0.00965661
-0.00320029
-0.00978097
-0.00305086
-0.00987783
-0.00290845
-0.00994955
-0.002769
-0.0100027
-0.00263561
-0.0100347
-0.00250645
-0.0100477
-0.00238098
-0.0100445
-0.00225969
-0.0100184
-0.00214546
-0.00998338
-0.00203069
-0.00992876
-0.00192126
-0.00986307
-0.00181448
-0.00978344
-0.00171047
-0.00969626
-0.0016071
-0.00959701
-0.00150789
-0.0094903
-0.00141069
-0.00937706
-0.00131194
-0.00925474
-0.00122018
-0.00913288
-0.00112268
-0.00900576
-0.00103027
-0.00887489
-0.000938663
-0.00874081
-0.000846089
-0.00860704
-0.000753436
-0.00847151
-0.000661451
-0.00833225
-0.000569951
-0.00819181
-0.000477274
-0.00804285
-0.000385328
-0.00788872
-0.00029462
-0.0077221
-0.000203433
-0.00753707
-0.00011746
-0.00732639
-3.24034e-05
-0.00708769
4.40805e-05
-0.00681124
0.000105341
0.000158443
-0.00649064
-0.006493
-0.00445092
0.00608083
-0.00686672
-0.00427163
-0.00720155
-0.00410022
-0.00750668
-0.00393311
-0.00777915
-0.00377433
-0.00801825
-0.00362382
-0.00823076
-0.0034738
-0.00841522
-0.00333682
-0.00857522
-0.00319632
-0.00870768
-0.00306783
-0.00881808
-0.00294046
-0.00890887
-0.00281766
-0.00897797
-0.0026999
-0.00902866
-0.00258492
-0.00906149
-0.00247362
-0.00907667
-0.00236579
-0.00907548
-0.00226089
-0.00905984
-0.0021611
-0.0090306
-0.00205994
-0.00899014
-0.00196172
-0.0089353
-0.00186932
-0.00887212
-0.00177364
-0.0087973
-0.00168192
-0.0087114
-0.00159379
-0.00862024
-0.00150185
-0.00851538
-0.0014168
-0.00840793
-0.00132763
-0.00829096
-0.00123965
-0.00816881
-0.00115242
-0.00804107
-0.0010664
-0.00790639
-0.000980769
-0.00776899
-0.000890835
-0.00762433
-0.000806112
-0.00747762
-0.000716662
-0.00732453
-0.000630367
-0.00716433
-0.000545529
-0.00699848
-0.000460469
-0.00682125
-0.000380665
-0.0066396
-0.000299106
-0.0064421
-0.000229913
-0.006233
-0.000165016
-0.00601738
-0.000110277
-6.70928e-05
-0.00579185
-0.00586713
-0.00408374
0.00549999
-0.00620242
-0.00393632
-0.00650471
-0.00379792
-0.0067757
-0.00366212
-0.00701901
-0.00353101
-0.007237
-0.00340584
-0.00742581
-0.00328498
-0.00759434
-0.00316829
-0.00773418
-0.00305649
-0.00785642
-0.00294558
-0.00795758
-0.0028393
-0.00803918
-0.00273605
-0.00810232
-0.00263676
-0.00814547
-0.00254177
-0.008175
-0.00244409
-0.00818979
-0.002351
-0.00819036
-0.00226032
-0.00817749
-0.00217397
-0.0081513
-0.00208612
-0.0081144
-0.00199861
-0.00806704
-0.00191668
-0.00800595
-0.00183473
-0.00793718
-0.00175069
-0.00786283
-0.00166814
-0.00777595
-0.00158873
-0.00768584
-0.00150692
-0.00758374
-0.00142972
-0.00747714
-0.00134625
-0.00736403
-0.00126553
-0.0072432
-0.00118722
-0.00711945
-0.00110452
-0.00698612
-0.00102417
-0.00685102
-0.000941213
-0.00670444
-0.000863235
-0.0065559
-0.000778911
-0.00640026
-0.000701163
-0.00623754
-0.000623189
-0.00607186
-0.000546343
-0.00589565
-0.000475318
-0.00571555
-0.000410014
-0.00553101
-0.00034955
-0.0053456
-0.000295688
-0.000254674
-0.00515802
-0.00530586
-0.0037513
0.00497344
-0.00560641
-0.00363576
-0.00587842
-0.00352591
-0.00612396
-0.00341657
-0.00634221
-0.00331275
-0.00653604
-0.00321202
-0.00670457
-0.00311645
-0.0068543
-0.00301855
-0.0069829
-0.00292789
-0.00709281
-0.00283567
-0.00718161
-0.00275051
-0.00725504
-0.00266262
-0.00731102
-0.00258078
-0.00735366
-0.00249913
-0.00737757
-0.00242018
-0.00738896
-0.00233961
-0.00738829
-0.00226099
-0.00737601
-0.00218625
-0.00735083
-0.0021113
-0.00731503
-0.00203441
-0.00727065
-0.00196106
-0.00721632
-0.00188906
-0.00715062
-0.00181639
-0.00707746
-0.0017413
-0.0069971
-0.00166909
-0.00690984
-0.00159417
-0.00681773
-0.00152184
-0.00671549
-0.00144849
-0.00660871
-0.00137231
-0.00649773
-0.00129821
-0.00637879
-0.00122346
-0.0062572
-0.00114576
-0.00612804
-0.00107037
-0.00599782
-0.000993457
-0.00585769
-0.000919036
-0.00571729
-0.000841564
-0.00557011
-0.000770369
-0.00541848
-0.00069797
-0.00526438
-0.000629419
-0.00510696
-0.00056743
-0.004947
-0.00050951
-0.00478391
-0.000458787
-0.00041571
-0.00462287
-0.00480151
-0.00345284
0.00450305
-0.00506971
-0.00336756
-0.00531509
-0.00328053
-0.00553357
-0.00319809
-0.00573016
-0.00311616
-0.00590385
-0.00303832
-0.00606029
-0.00296
-0.00619493
-0.00288391
-0.00631121
-0.00281162
-0.00640875
-0.00273812
-0.00649312
-0.00266613
-0.0065564
-0.00259934
-0.00660839
-0.00252879
-0.00664315
-0.00246437
-0.00666734
-0.00239598
-0.00667758
-0.00232938
-0.00667588
-0.00226269
-0.00666349
-0.00219864
-0.00664002
-0.00213477
-0.00660612
-0.00206831
-0.00656396
-0.00200321
-0.00651377
-0.00193925
-0.0064559
-0.00187426
-0.00638876
-0.00180843
-0.00631459
-0.00174326
-0.00623347
-0.00167529
-0.00614576
-0.00160954
-0.00605514
-0.00153911
-0.00595654
-0.00147092
-0.00585161
-0.00140314
-0.00574433
-0.00133073
-0.00563116
-0.00125893
-0.00551194
-0.00118959
-0.00539088
-0.00111451
-0.00526542
-0.0010445
-0.00513432
-0.000972666
-0.00500189
-0.000902795
-0.00486594
-0.000833922
-0.00472536
-0.000769995
-0.00458412
-0.000708673
-0.00443938
-0.000654246
-0.00429565
-0.000602518
-0.000560863
-0.0041505
-0.00434516
-0.00318592
0.00407824
-0.00458775
-0.00312496
-0.0048089
-0.00305938
-0.00500801
-0.00299898
-0.00518455
-0.00293962
-0.00534251
-0.00288035
-0.00548301
-0.0028195
-0.00560288
-0.00276404
-0.00570934
-0.00270516
-0.00579621
-0.00265125
-0.00587021
-0.00259213
-0.00593086
-0.00253869
-0.00597421
-0.00248544
-0.00601112
-0.00242746
-0.00603053
-0.00237658
-0.00604185
-0.00231805
-0.00603802
-0.00226652
-0.00602676
-0.0022099
-0.00600493
-0.00215659
-0.00597491
-0.00209833
-0.00593511
-0.00204302
-0.00588881
-0.00198556
-0.00583322
-0.00192984
-0.00577222
-0.00186944
-0.00570429
-0.00181119
-0.00563112
-0.00174846
-0.00554973
-0.00169094
-0.00546542
-0.00162341
-0.00537324
-0.00156309
-0.00527849
-0.0014979
-0.00517967
-0.00142955
-0.00507339
-0.0013652
-0.00496823
-0.00129476
-0.00485571
-0.00122703
-0.00474175
-0.00115846
-0.00462393
-0.00109048
-0.00450332
-0.00102341
-0.00437966
-0.000957582
-0.00425387
-0.000895784
-0.00412617
-0.000836373
-0.00399713
-0.000783285
-0.00386415
-0.000735503
-0.000690302
-0.00373471
-0.00393541
-0.00294495
0.00369445
-0.0041558
-0.00290458
-0.00435098
-0.0028642
-0.00453131
-0.00281865
-0.00469203
-0.00277889
-0.00483561
-0.00273678
-0.00496213
-0.00269298
-0.00507201
-0.00265416
-0.00516518
-0.00261199
-0.00524792
-0.00256852
-0.00531251
-0.00252754
-0.00536843
-0.00248277
-0.0054107
-0.00244318
-0.00544028
-0.00239787
-0.00546012
-0.00235674
-0.0054671
-0.00231107
-0.00546679
-0.00226682
-0.00545678
-0.00221991
-0.00543685
-0.00217652
-0.00540865
-0.00212652
-0.00537314
-0.00207853
-0.0053294
-0.0020293
-0.00528159
-0.00197765
-0.00522332
-0.00192771
-0.00516156
-0.00187295
-0.00509121
-0.00181881
-0.00501975
-0.0017624
-0.00494021
-0.00170295
-0.00485798
-0.00164532
-0.00477161
-0.00158427
-0.00467955
-0.00152161
-0.00458706
-0.00145769
-0.00448533
-0.00139649
-0.00438518
-0.00132718
-0.00427986
-0.00126379
-0.004171
-0.00119934
-0.00406256
-0.00113185
-0.00395087
-0.00106927
-0.00383605
-0.0010106
-0.00371998
-0.00095245
-0.00360268
-0.000900586
-0.00348584
-0.00085234
-0.000811755
-0.00336439
-0.00356686
0.00335125
-0.00272933
-0.00376395
-0.00270749
-0.00394524
-0.0026829
-0.00410597
-0.00265793
-0.00425443
-0.00263043
-0.00438269
-0.00260851
-0.00449428
-0.00258139
-0.00459395
-0.00255449
-0.0046822
-0.00252374
-0.00475294
-0.00249777
-0.00481458
-0.0024659
-0.00486207
-0.00243528
-0.00490381
-0.00240144
-0.00492984
-0.00237185
-0.00494752
-0.00233906
-0.00495803
-0.00230056
-0.00495767
-0.00226718
-0.00494646
-0.00223112
-0.00492786
-0.00219513
-0.00490229
-0.00215209
-0.00487098
-0.00210984
-0.00483247
-0.00206781
-0.00478537
-0.00202475
-0.00473395
-0.00197913
-0.00467681
-0.00193008
-0.0046141
-0.00188152
-0.00454721
-0.0018293
-0.00447428
-0.00177588
-0.00439855
-0.00172105
-0.00431821
-0.00166461
-0.00423593
-0.00160389
-0.0041485
-0.00154512
-0.00405802
-0.00148697
-0.00396274
-0.00142247
-0.00386874
-0.00135778
-0.00377149
-0.00129659
-0.00366863
-0.00123472
-0.0035666
-0.00117129
-0.00346504
-0.00111216
-0.00336074
-0.00105675
-0.00325545
-0.00100587
-0.00314549
-0.000962303
-0.00303742
-0.00091982
-0.00623905
0.000540105
-0.00105587
-0.00589485
0.00052309
-0.000867277
-0.00562627
0.000490323
-0.0007589
-0.00539914
0.000452642
-0.000679761
-0.00519781
0.000410741
-0.000612069
-0.00501485
0.000367474
-0.000550427
-0.00484454
0.000322148
-0.000492465
-0.00468211
0.0002754
-0.000437821
-0.00452547
0.000228932
-0.00038557
-0.00437304
0.000181548
-0.000333976
-0.00422394
0.000133497
-0.000282597
-0.00407775
8.58353e-05
-0.000232023
-0.00393333
3.74348e-05
-0.000181863
-0.00379257
-1.08384e-05
-0.000129915
-0.0036538
-6.01079e-05
-7.86683e-05
-0.00351834
-0.000109436
-2.60167e-05
-0.00338647
-0.000160107
2.82295e-05
-0.00325774
-0.000211267
8.25442e-05
-0.00313353
-0.000263196
0.000138981
-0.00301237
-0.000317941
0.000196781
-0.00289659
-0.000373708
0.000257925
-0.00278589
-0.000429955
0.000319261
-0.00268006
-0.000489427
0.000383591
-0.00258058
-0.000550545
0.000451065
-0.00248812
-0.000612819
0.000520358
-0.00240275
-0.000678681
0.000593317
-0.00232525
-0.000746045
0.000668545
-0.00225785
-0.000815924
0.000748518
-0.00219872
-0.000889804
0.000830674
-0.00215084
-0.000965141
0.000917265
-0.00211438
-0.00104501
0.00100855
-0.00208928
-0.00112726
0.00110216
-0.00207827
-0.00121315
0.00120214
-0.00208059
-0.00130336
0.00130567
-0.0020988
-0.00139605
0.00141426
-0.00213325
-0.00149425
0.00152871
-0.00218397
-0.00159605
0.00164676
-0.00225414
-0.00170224
0.00177241
-0.00234323
-0.0018131
0.00190218
-0.00245311
-0.00192843
0.00203832
-0.00258522
-0.0020488
0.0021809
-0.00274121
-0.00217433
0.00233032
-0.00230538
0.00248533
-0.00292116
-0.00614083
0.000190288
-0.00582368
0.000205939
-0.00553971
0.000206354
-0.00528403
0.000196962
-0.00505198
0.000178684
-0.00483814
0.000153633
-0.00463947
0.000123481
-0.00445472
9.06473e-05
-0.00427911
5.33208e-05
-0.00411491
1.73487e-05
-0.00395693
-2.44836e-05
-0.00380665
-6.44442e-05
-0.00366321
-0.000106007
-0.00352288
-0.000151167
-0.00338963
-0.000193356
-0.00325901
-0.000240057
-0.00313407
-0.000285049
-0.00301284
-0.000332501
-0.0028946
-0.000381433
-0.00278347
-0.000429068
-0.0026769
-0.000480277
-0.00257455
-0.000532307
-0.00247863
-0.000585351
-0.00238889
-0.000640284
-0.00230588
-0.000695823
-0.00223026
-0.000754309
-0.00216191
-0.000814396
-0.00210253
-0.000875298
-0.00205177
-0.000940566
-0.00201072
-0.00100619
-0.00198075
-0.00107498
-0.00196199
-0.00114603
-0.00195457
-0.00122057
-0.00196029
-0.00129764
-0.00197924
-0.00137711
-0.00201319
-0.0014603
-0.00206255
-0.00154668
-0.00212757
-0.00163722
-0.00221081
-0.00172986
-0.00231223
-0.00182701
-0.00243243
-0.0019286
-0.00257358
-0.00203319
-0.00214221
-0.00273674
-0.00556489
-3.66727e-05
-0.00534102
-1.79285e-05
-0.00512655
-8.12005e-06
-0.00491835
-1.1237e-05
-0.00472041
-1.92588e-05
-0.0045325
-3.42758e-05
-0.00435397
-5.50512e-05
-0.00418276
-8.05564e-05
-0.00402081
-0.000108632
-0.0038624
-0.000141062
-0.0037133
-0.000173588
-0.00356695
-0.000210797
-0.00342682
-0.000246129
-0.00329242
-0.000285573
-0.00316172
-0.00032405
-0.00303667
-0.000365115
-0.00291533
-0.000406382
-0.00279896
-0.000448875
-0.00268867
-0.000491726
-0.00258188
-0.000535857
-0.00248076
-0.000581399
-0.00238576
-0.000627309
-0.0022972
-0.000673905
-0.0022146
-0.000722888
-0.00213781
-0.000772611
-0.00206975
-0.000822369
-0.00200858
-0.000875566
-0.00195469
-0.000929189
-0.00191056
-0.000984695
-0.00187511
-0.00104165
-0.00184903
-0.00110106
-0.00183376
-0.00116129
-0.00182948
-0.00122485
-0.00183737
-0.00128975
-0.00185634
-0.00135813
-0.00188927
-0.00142737
-0.00193575
-0.00150021
-0.00199756
-0.00157541
-0.00207404
-0.00165337
-0.00216719
-0.00173387
-0.00227833
-0.00181745
-0.00240753
-0.00190399
-0.00199393
-0.00255581
-0.00497143
-0.00022326
-0.00478678
-0.000202586
-0.00460597
-0.000188926
-0.00443029
-0.000186921
-0.00426048
-0.000189066
-0.0040967
-0.00019805
-0.00393775
-0.000214003
-0.00378499
-0.000233319
-0.00363827
-0.000255355
-0.00349606
-0.00028327
-0.00335955
-0.000310098
-0.00322863
-0.00034171
-0.00310072
-0.000374046
-0.00297829
-0.000407999
-0.00286003
-0.000442309
-0.00274719
-0.000477953
-0.00263771
-0.000515868
-0.00253379
-0.000552794
-0.00243466
-0.000590854
-0.00234039
-0.000630133
-0.00225053
-0.000671254
-0.00216717
-0.000710673
-0.0020879
-0.00075317
-0.0020159
-0.000794888
-0.00194971
-0.0008388
-0.00188915
-0.000882937
-0.00183705
-0.000927664
-0.00179253
-0.00097371
-0.00175572
-0.0010215
-0.00172658
-0.00107079
-0.00170723
-0.00112041
-0.00169603
-0.00117249
-0.00169563
-0.00122525
-0.00170486
-0.00128051
-0.00172646
-0.00133654
-0.00175902
-0.00139481
-0.00180413
-0.0014551
-0.00186258
-0.00151697
-0.00193532
-0.00158062
-0.00202244
-0.00164675
-0.00212495
-0.00171494
-0.00224395
-0.00178499
-0.00185719
-0.00238069
-0.00446105
-0.000385081
-0.00430256
-0.000361071
-0.00414482
-0.000346672
-0.00399213
-0.000339607
-0.00384324
-0.000337955
-0.0036973
-0.000343994
-0.0035572
-0.000354101
-0.00342038
-0.000370135
-0.003287
-0.000388733
-0.00316095
-0.00040932
-0.00303595
-0.000435104
-0.00291698
-0.000460676
-0.00280278
-0.000488241
-0.00269216
-0.000518619
-0.00258534
-0.000549134
-0.00248327
-0.000580024
-0.00238524
-0.000613896
-0.0022922
-0.00064583
-0.00220243
-0.000680623
-0.00211728
-0.000715287
-0.00203886
-0.000749672
-0.00196356
-0.000785975
-0.00189378
-0.000822948
-0.00182971
-0.000858962
-0.00177196
-0.00089655
-0.00172073
-0.000934165
-0.00167572
-0.000972669
-0.00163729
-0.00101214
-0.00160594
-0.00105285
-0.0015836
-0.00109314
-0.00156772
-0.00113629
-0.0015619
-0.00117831
-0.0015638
-0.00122336
-0.00157605
-0.00126827
-0.00159779
-0.00131479
-0.00163
-0.0013626
-0.00167322
-0.00141188
-0.00172893
-0.00146127
-0.00179721
-0.00151234
-0.00187854
-0.00156543
-0.00197327
-0.0016202
-0.00208264
-0.00167563
-0.00173266
-0.00220717
-0.00400835
-0.000527235
-0.00386616
-0.00050326
-0.0037262
-0.000486635
-0.00359037
-0.000475433
-0.00345624
-0.000472084
-0.0033268
-0.000473434
-0.00319958
-0.000481323
-0.00307756
-0.000492157
-0.00295939
-0.000506901
-0.00284287
-0.000525835
-0.00273298
-0.000544996
-0.00262613
-0.000567524
-0.00252237
-0.000592005
-0.00242286
-0.000618126
-0.00232762
-0.000644379
-0.0022347
-0.000672942
-0.00214835
-0.000700245
-0.00206357
-0.000730606
-0.00198462
-0.000759576
-0.00190976
-0.000790143
-0.00183821
-0.00082122
-0.00177222
-0.000851966
-0.00171201
-0.000883158
-0.00165523
-0.00091575
-0.00160503
-0.000946751
-0.00156085
-0.000978339
-0.00152214
-0.00101138
-0.00149015
-0.00104413
-0.00146501
-0.001078
-0.00144649
-0.00111165
-0.00143595
-0.00114683
-0.00143211
-0.00118215
-0.00143711
-0.00121836
-0.00145056
-0.00125482
-0.00147258
-0.00129277
-0.00150436
-0.00133082
-0.00154736
-0.00136888
-0.00160004
-0.00140859
-0.00166423
-0.00144815
-0.00174017
-0.00148948
-0.00182886
-0.00153152
-0.00192985
-0.00157464
-0.00161876
-0.00204374
-0.00360523
-0.000656713
-0.00347904
-0.000629452
-0.00335459
-0.000611081
-0.00323073
-0.000599291
-0.00311121
-0.000591611
-0.00299428
-0.00059036
-0.00288037
-0.000595238
-0.00276949
-0.000603035
-0.00266226
-0.000614126
-0.00255861
-0.000629488
-0.00245864
-0.000644971
-0.00236133
-0.000664829
-0.00226897
-0.00068437
-0.00218007
-0.000707018
-0.0020942
-0.000730253
-0.00201232
-0.000754821
-0.00193328
-0.000779291
-0.00185849
-0.000805388
-0.00178711
-0.00083096
-0.00171934
-0.000857914
-0.00165742
-0.000883138
-0.00159858
-0.00091081
-0.00154489
-0.00093685
-0.00149614
-0.0009645
-0.00145249
-0.000990394
-0.00141432
-0.00101651
-0.00138104
-0.00104467
-0.00135421
-0.00107095
-0.00133357
-0.00109863
-0.00131807
-0.00112716
-0.00131064
-0.00115426
-0.00130967
-0.00118312
-0.00131654
-0.0012115
-0.00133104
-0.00124032
-0.00135343
-0.00127037
-0.0013849
-0.00129935
-0.00142576
-0.00132801
-0.00147693
-0.00135742
-0.00153706
-0.00138802
-0.00160792
-0.00141862
-0.00168958
-0.00144986
-0.0017834
-0.00148082
-0.0015131
-0.00188906
-0.0032482
-0.000772902
-0.00313381
-0.000743843
-0.00302096
-0.000723925
-0.00291099
-0.000709264
-0.00280274
-0.00069986
-0.00269635
-0.000696746
-0.00259353
-0.00069806
-0.0024936
-0.000702962
-0.00239693
-0.000710797
-0.00230482
-0.000721603
-0.00221328
-0.000736507
-0.00212655
-0.000751556
-0.00204303
-0.000767894
-0.00196147
-0.000788578
-0.00188483
-0.000806891
-0.00181169
-0.000827961
-0.00173999
-0.000850995
-0.00167298
-0.000872398
-0.00160984
-0.000894093
-0.00155026
-0.000917498
-0.00149414
-0.000939264
-0.00144229
-0.000962654
-0.00139426
-0.000984879
-0.00135163
-0.00100713
-0.0013138
-0.00102822
-0.00128075
-0.00104955
-0.00125321
-0.00107221
-0.00123006
-0.00109411
-0.00121213
-0.00111656
-0.00120075
-0.00113853
-0.00119558
-0.00115944
-0.00119686
-0.00118183
-0.0012043
-0.00120406
-0.0012187
-0.00122591
-0.00124169
-0.00124738
-0.0012727
-0.00126835
-0.00131136
-0.00128935
-0.00135943
-0.00130936
-0.00141635
-0.0013311
-0.001482
-0.00135296
-0.00155858
-0.00137328
-0.00164498
-0.00139442
-0.0014155
-0.00174258
-0.00293099
-0.000879334
-0.00282678
-0.000848058
-0.00272392
-0.000826783
-0.00262193
-0.000811259
-0.00252763
-0.00079416
-0.00243305
-0.00079132
-0.00233929
-0.000791819
-0.00224723
-0.000795023
-0.00215962
-0.00079841
-0.00207592
-0.000805303
-0.00199442
-0.000818006
-0.00191545
-0.000830527
-0.00183938
-0.000843968
-0.00176635
-0.00086161
-0.00169803
-0.000875206
-0.00163085
-0.000895146
-0.0015664
-0.000915441
-0.00150645
-0.000932355
-0.00144857
-0.000951971
-0.00139595
-0.000970112
-0.00134533
-0.000989886
-0.00129913
-0.00100886
-0.00125726
-0.00102675
-0.00122061
-0.00104378
-0.00118794
-0.0010609
-0.00115791
-0.00107958
-0.00113401
-0.00109611
-0.00111484
-0.00111328
-0.00109977
-0.00113163
-0.00109223
-0.00114607
-0.00108895
-0.00116272
-0.00109103
-0.00117975
-0.0010999
-0.00119519
-0.00111556
-0.00121024
-0.00113632
-0.00122662
-0.00116691
-0.00123776
-0.00120503
-0.00125123
-0.00124978
-0.00126461
-0.00130215
-0.00127873
-0.00136458
-0.00129054
-0.00143499
-0.00130287
-0.00151493
-0.00131448
-0.00160455
-0.00132589
0.00108539
-0.000657969
0.000720851
-0.00114827
0.00103064
-0.000607795
0.000662547
0.000984176
-0.000557351
0.000603812
0.000945571
-0.000507124
0.00054573
0.000914844
-0.000457976
0.000488703
0.0008914
-0.000409943
0.000433387
0.000874844
-0.000363608
0.000380166
0.000864869
-0.000318883
0.000328857
0.000860223
-0.000275725
0.000280372
0.000860277
-0.000234266
0.000234212
0.000864457
-0.000195254
0.000191075
0.000872359
-0.000158091
0.000150188
0.000883331
-0.000122984
0.000112012
0.000896313
-8.96293e-05
7.66482e-05
0.000910614
-5.83104e-05
4.40096e-05
0.000926257
-2.90619e-05
1.34191e-05
0.000942132
-1.56638e-06
-1.43074e-05
0.00095767
2.4316e-05
-3.9854e-05
0.000972902
4.80309e-05
-6.32618e-05
0.00098687
7.06486e-05
-8.46155e-05
0.000999172
9.1227e-05
-0.000103527
0.00100958
0.000110688
-0.000121095
0.00101797
0.000128324
-0.000136714
0.00102377
0.000144973
-0.000150767
0.00102634
0.000160263
-0.000162836
0.001026
0.000174444
-0.000174103
0.00102237
0.000187483
-0.000183846
0.00101506
0.000199544
-0.000192233
0.00100373
0.000210842
-0.000199517
0.000988515
0.000221007
-0.000205784
0.000969234
0.000230546
-0.000211262
0.000945249
0.000239556
-0.000215566
0.000916793
0.00024775
-0.00021929
0.000882716
0.000256223
-0.000222139
0.000843587
0.000263976
-0.000224844
0.000797893
0.000272353
-0.000226651
0.000743721
0.00028181
-0.000227635
0.000678835
0.000294067
-0.000229166
0.000597143
0.000311861
-0.000230168
0.000488972
0.000341779
-0.000233579
0.000332093
0.000398443
-0.000241568
7.79523e-05
0.000518981
-0.000264805
0.000804085
-0.000405624
-0.00032052
0.000986903
-0.000601839
-0.00104303
0.000937369
-0.00055826
0.000894936
-0.000514918
0.000859529
-0.000471717
0.000831273
-0.000429719
0.000809456
-0.000388126
0.000793436
-0.000347588
0.000783066
-0.000308512
0.000777893
-0.000270551
0.000777178
-0.000233551
0.000780266
-0.000198342
0.000786597
-0.000164421
0.00079597
-0.000132357
0.000807509
-0.000101168
0.00082078
-7.15807e-05
0.000835176
-4.34585e-05
0.000850118
-1.65073e-05
0.000865719
8.71467e-06
0.000880919
3.28312e-05
0.000895455
5.61131e-05
0.000908928
7.77541e-05
0.000921176
9.84401e-05
0.000931289
0.000118211
0.000939371
0.000136892
0.000944853
0.000154782
0.000947586
0.000171711
0.000946945
0.000188124
0.000943106
0.000203383
0.000935336
0.000218612
0.000923259
0.000233084
0.000906454
0.000247352
0.000884469
0.000261542
0.000856427
0.000275792
0.000821914
0.000290737
0.000778937
0.000306953
0.000726066
0.000325227
0.000659733
0.000348143
0.000575656
0.000378149
0.000465883
0.000421633
0.000319052
0.000488619
0.000117105
0.000600387
-0.000161365
0.000797461
0.00114728
-0.000504567
0.000894883
-0.000550401
-0.000946322
0.000849963
-0.00051334
0.000811665
-0.00047662
0.000779433
-0.000439485
0.000753636
-0.000403922
0.000733733
-0.000368223
0.000718946
-0.0003328
0.000709423
-0.00029899
0.000703819
-0.000264948
0.000702924
-0.000232655
0.000705103
-0.000200521
0.000710895
-0.000170213
0.000718519
-0.00013998
0.000728706
-0.000111355
0.000740761
-8.3636e-05
0.000753842
-5.65393e-05
0.000767914
-3.05798e-05
0.000782169
-5.54033e-06
0.000795996
1.90037e-05
0.0008099
4.22091e-05
0.000822852
6.48023e-05
0.00083444
8.68519e-05
0.000844343
0.000108308
0.000852407
0.000128828
0.000858238
0.00014895
0.000861371
0.000168578
0.000861529
0.000187966
0.000857913
0.000206997
0.000850359
0.000226166
0.000838446
0.000244996
0.000821346
0.00026445
0.000798399
0.000284488
0.000768268
0.000305922
0.000730377
0.000328626
0.000682593
0.000354736
0.000622254
0.000385566
0.000546816
0.00042358
0.000451015
0.00047395
0.000328958
0.000543688
0.000171569
0.000646009
-2.98943e-05
0.000801847
-0.000277739
0.00104531
0.00141774
-0.000548202
0.000808892
-0.000503804
-0.000855489
0.000768227
-0.000472674
0.000733368
-0.000441762
0.000704559
-0.000410676
0.000680361
-0.000379724
0.000661359
-0.000349221
0.000647545
-0.000318986
0.000637881
-0.000289325
0.00063252
-0.000259588
0.00063041
-0.000230545
0.00063216
-0.000202271
0.000635996
-0.000174049
0.0006427
-0.000146684
0.00065132
-0.000119975
0.000661272
-9.35886e-05
0.000672565
-6.78319e-05
0.000684924
-4.29391e-05
0.000697374
-1.79906e-05
0.000710364
6.01286e-06
0.000722864
2.97093e-05
0.000734382
5.32837e-05
0.000745168
7.60654e-05
0.000754634
9.88413e-05
0.000762157
0.000121304
0.000767831
0.000143276
0.000770779
0.000165629
0.000770791
0.000187953
0.0007673
0.000210488
0.000760043
0.000233422
0.00074822
0.000256817
0.000730963
0.000281706
0.000707723
0.000307727
0.000677363
0.000336279
0.000637833
0.000368155
0.000588042
0.000404525
0.000525963
0.000447644
0.000448374
0.000501167
0.000351476
0.000570847
0.000230878
0.000664285
8.00041e-05
0.000796884
-0.000103548
0.000985397
-0.000320649
0.00126241
0.00165328
-0.000556185
0.000730398
-0.000462013
-0.000772189
0.000693784
-0.000436061
0.00066167
-0.000409647
0.000634675
-0.000383681
0.000612889
-0.000357938
0.0005954
-0.000331733
0.000582218
-0.000305804
0.000572609
-0.000279716
0.000566803
-0.000253782
0.000564741
-0.000228484
0.000564728
-0.000202259
0.000568046
-0.000177367
0.000573076
-0.000151714
0.000580267
-0.000127167
0.000588655
-0.000101977
0.000598495
-7.76718e-05
0.000608951
-5.33962e-05
0.000620433
-2.94727e-05
0.00063162
-5.17429e-06
0.000642568
1.87606e-05
0.000653142
4.27093e-05
0.000662713
6.64939e-05
0.000671243
9.03101e-05
0.000677972
0.000114576
0.000682763
0.000138484
0.000685491
0.000162901
0.000685427
0.000188016
0.00068227
0.000213644
0.000675041
0.00024065
0.000663488
0.000268369
0.000646838
0.000298354
0.00062393
0.000330634
0.000594243
0.000365965
0.000555873
0.000406524
0.000507575
0.000452821
0.000447446
0.000507772
0.000371955
0.000576657
0.00027943
0.000663372
0.000164939
0.000778775
2.63228e-05
0.0009355
-0.000140488
0.00115221
-0.000332759
0.00145468
0.00186269
-0.000542172
0.000658681
-0.000424029
-0.000696665
0.000625126
-0.000402505
0.000595911
-0.000380433
0.00057153
-0.0003593
0.000551219
-0.000337626
0.000534846
-0.00031536
0.000522425
-0.000293384
0.000513301
-0.000270593
0.000507481
-0.000247962
0.000504268
-0.000225271
0.000504323
-0.000202314
0.000506245
-0.000179289
0.000510404
-0.000155874
0.000515884
-0.000132647
0.000523129
-0.000109222
0.000531548
-8.60911e-05
0.00054059
-6.24388e-05
0.000550255
-3.91382e-05
0.000560184
-1.51029e-05
0.000569961
8.98278e-06
0.000579413
3.32563e-05
0.000588017
5.789e-05
0.000595492
8.28341e-05
0.00060167
0.000108398
0.000606048
0.000134105
0.000608079
0.000160869
0.000608044
0.00018805
0.000604579
0.000217109
0.000598012
0.000247216
0.000587222
0.000279158
0.000571644
0.000313931
0.000550537
0.000351741
0.000522416
0.000394084
0.000486566
0.000442374
0.000441043
0.000498343
0.000383547
0.000565268
0.000313357
0.000646846
0.000226431
0.000750297
0.000119827
0.000885378
-7.27505e-06
0.0010626
-0.000158318
0.00130325
-0.000329254
0.00162562
0.00205363
-0.000520193
0.000593329
-0.000389455
-0.000627903
0.000562891
-0.000372067
0.000536569
-0.000354111
0.000514041
-0.000336773
0.000495292
-0.000318877
0.000480392
-0.00030046
0.000468207
-0.000281199
0.000459751
-0.000262137
0.000454111
-0.000242321
0.000450682
-0.000221843
0.000450152
-0.000201784
0.000451417
-0.000180554
0.000454566
-0.000159023
0.00045906
-0.000137141
0.000465325
-0.000115487
0.000471952
-9.2719e-05
0.000479846
-7.03327e-05
0.00048794
-4.72323e-05
0.000496641
-2.38047e-05
0.000505491
1.32422e-07
0.000513669
2.50781e-05
0.000521523
5.00349e-05
0.000528369
7.59879e-05
0.00053367
0.000103096
0.000537168
0.000130606
0.000539223
0.000158814
0.000538802
0.00018847
0.000535961
0.00021995
0.000529653
0.000253523
0.000519288
0.000289523
0.000505228
0.000327991
0.000485776
0.000371192
0.000460322
0.000419537
0.000427141
0.000475554
0.000385256
0.000540227
0.000332914
0.00061761
0.0002676
0.000712159
0.000187365
0.000830532
8.97806e-05
0.000982963
-2.88043e-05
0.00118119
-0.000166853
0.0014413
-0.00032236
0.00178112
0.00222509
-0.00049382
0.000534478
-0.000358178
-0.000565756
0.000507089
-0.000344677
0.000483004
-0.000330026
0.000462459
-0.000316228
0.000445367
-0.000301785
0.000431327
-0.00028642
0.000420215
-0.000270087
0.00041188
-0.000253802
0.000406169
-0.000236611
0.000402948
-0.000218622
0.000401612
-0.000200447
0.00040248
-0.000181422
0.000404946
-0.00016149
0.000409009
-0.000141204
0.000413739
-0.000120217
0.00041981
-9.87907e-05
0.000426342
-7.68646e-05
0.000433723
-5.46139e-05
0.000441366
-3.14478e-05
0.000448732
-7.23392e-06
0.000456368
1.74419e-05
0.000463031
4.33712e-05
0.000469163
6.98561e-05
0.000474332
9.7927e-05
0.0004776
0.000127337
0.000478974
0.00015744
0.000478753
0.000188691
0.000475819
0.000222883
0.000469987
0.000259354
0.000460315
0.000299194
0.000446996
0.000341309
0.00042961
0.000388578
0.000406368
0.000442779
0.000376717
0.000505205
0.000338277
0.000578666
0.000290165
0.000665722
0.000230954
0.000771369
0.000159174
0.000902311
6.90645e-05
0.00107307
-3.99771e-05
0.00129023
-0.000167172
0.00156849
-0.00030792
0.00192187
0.00238019
-0.000463022
0.000481413
-0.000330434
-0.000509157
0.000456954
-0.000320219
0.000433921
-0.000306992
0.000415794
-0.000298101
0.000400307
-0.000286298
0.000387404
-0.000273516
0.000377153
-0.000259836
0.00036945
-0.000246098
0.000363695
-0.000230856
0.000360265
-0.000215192
0.000358454
-0.000198636
0.00035897
-0.000181939
0.000360781
-0.000163301
0.000363757
-0.000144179
0.0003677
-0.000124161
0.000372648