# Forces     
# CofR       : (0.000000e+00 0.000000e+00 0.000000e+00)
# Time       forces(pressure viscous porous) moment(pressure viscous porous)
5.000000e+00	((-4.208761e+01 -2.386908e+02 2.563544e-18) (3.495748e-01 -6.518877e-02 -5.394539e-20) (0.000000e+00 0.000000e+00 0.000000e+00)) ((1.193454e+01 -2.104381e+00 -7.085662e+01) (3.259438e-03 1.747874e-02 -8.532342e-04) (0.000000e+00 0.000000e+00 0.000000e+00))
1.000000e+01	((-4.674450e+00 -2.651010e+01 6.989277e-19) (3.053839e-01 -9.491854e-02 -8.012718e-21) (0.000000e+00 0.000000e+00 0.000000e+00)) ((1.325505e+00 -2.337225e-01 -1.194523e+01) (4.745927e-03 1.526920e-02 -1.152569e-02) (0.000000e+00 0.000000e+00 0.000000e+00))
1.500000e+01	((6.874790e+00 3.898891e+01 -3.069011e-19) (2.689538e-01 -5.956861e-02 5.483842e-21) (0.000000e+00 0.000000e+00 0.000000e+00)) ((-1.949445e+00 3.437395e-01 9.674931e+00) (2.978431e-03 1.344769e-02 -3.921931e-03) (0.000000e+00 0.000000e+00 0.000000e+00))
2.000000e+01	((2.643061e+00 1.498958e+01 -4.445077e-19) (2.407687e-01 -4.309131e-02 -2.571623e-20) (0.000000e+00 0.000000e+00 0.000000e+00)) ((-7.494789e-01 1.321530e-01 8.727885e-01) (2.154566e-03 1.203843e-02 -7.495086e-04) (0.000000e+00 0.000000e+00 0.000000e+00))
2.500000e+01	((2.592731e+00 1.470415e+01 -3.938353e-19) (2.183678e-01 -3.757865e-02 -2.238862e-20) (0.000000e+00 0.000000e+00 0.000000e+00)) ((-7.352074e-01 1.296365e-01 -1.027098e+00) (1.878933e-03 1.091839e-02 -2.875609e-04) (0.000000e+00 0.000000e+00 0.000000e+00))
3.000000e+01	((3.939993e+00 2.234485e+01 -5.710589e-19) (1.981521e-01 -3.411695e-02 -2.767656e-20) (0.000000e+00 0.000000e+00 0.000000e+00)) ((-1.117242e+00 1.969996e-01 1.995560e+00) (1.705848e-03 9.907603e-03 -1.210380e-04) (0.000000e+00 0.000000e+00 0.000000e+00))
3.500000e+01	((3.486727e+00 1.977425e+01 -4.636525e-19) (1.814997e-01 -3.148530e-02 -2.990963e-20) (0.000000e+00 0.000000e+00 0.000000e+00)) ((-9.887127e-01 1.743364e-01 9.752621e-01) (1.574265e-03 9.074986e-03 -5.296818e-05) (0.000000e+00 0.000000e+00 0.000000e+00))
4.000000e+01	((3.821661e+00 2.167376e+01 -5.477001e-19) (1.652121e-01 -2.882331e-02 -3.544746e-20) (0.000000e+00 0.000000e+00 0.000000e+00)) ((-1.083688e+00 1.910831e-01 8.246890e-01) (1.441166e-03 8.260607e-03 -9.168180e-05) (0.000000e+00 0.000000e+00 0.000000e+00))
4.500000e+01	((4.075774e+00 2.311490e+01 -5.704545e-19) (1.501508e-01 -2.622843e-02 -4.045119e-20) (0.000000e+00 0.000000e+00 0.000000e+00)) ((-1.155745e+00 2.037887e-01 1.110633e+00) (1.311421e-03 7.507542e-03 -6.176149e-05) (0.000000e+00 0.000000e+00 0.000000e+00))
5.000000e+01	((4.086781e+00 2.317732e+01 -5.934666e-19) (1.368747e-01 -2.395106e-02 -4.545803e-20) (0.000000e+00 0.000000e+00 0.000000e+00)) ((-1.158866e+00 2.043390e-01 7.448031e-01) (1.197553e-03 6.843735e-03 -6.081488e-05) (0.000000e+00 0.000000e+00 0.000000e+00))
5.500000e+01	((4.267700e+00 2.420337e+01 -5.456486e-19) (1.244515e-01 -2.173450e-02 -4.779280e-20) (0.000000e+00 0.000000e+00 0.000000e+00)) ((-1.210168e+00 2.133850e-01 7.724278e-01) (1.086725e-03 6.222573e-03 -6.907686e-05) (0.000000e+00 0.000000e+00 0.000000e+00))
6.000000e+01	((4.271275e+00 2.422364e+01 -5.249184e-19) (1.137527e-01 -1.983978e-02 -5.192931e-20) (0.000000e+00 0.000000e+00 0.000000e+00)) ((-1.211182e+00 2.135637e-01 5.946809e-01) (9.919891e-04 5.687637e-03 -6.765209e-05) (0.000000e+00 0.000000e+00 0.000000e+00))
6.500000e+01	((4.341954e+00 2.462448e+01 -4.835345e-19) (1.045983e-01 -1.820300e-02 -5.266312e-20) (0.000000e+00 0.000000e+00 0.000000e+00)) ((-1.231224e+00 2.170977e-01 5.698134e-01) (9.101499e-04 5.229917e-03 -8.122606e-05) (0.000000e+00 0.000000e+00 0.000000e+00))
7.000000e+01	((4.349373e+00 2.466655e+01 -4.508386e-19) (9.685075e-02 -1.681699e-02 -5.392240e-20) (0.000000e+00 0.000000e+00 0.000000e+00)) ((-1.233327e+00 2.174686e-01 5.042254e-01) (8.408493e-04 4.842538e-03 -8.569394e-05) (0.000000e+00 0.000000e+00 0.000000e+00))
7.500000e+01	((4.369299e+00 2.477955e+01 -4.021071e-19) (9.056051e-02 -1.570296e-02 -5.105101e-20) (0.000000e+00 0.000000e+00 0.000000e+00)) ((-1.238978e+00 2.184649e-01 4.822950e-01) (7.851482e-04 4.528025e-03 -9.510869e-05) (0.000000e+00 0.000000e+00 0.000000e+00))
8.000000e+01	((4.393985e+00 2.491955e+01 -3.643301e-19) (8.528938e-02 -1.478139e-02 -4.866888e-20) (0.000000e+00 0.000000e+00 0.000000e+00)) ((-1.245978e+00 2.196992e-01 4.922842e-01) (7.390697e-04 4.264469e-03 -9.672991e-05) (0.000000e+00 0.000000e+00 0.000000e+00))
8.500000e+01	((4.416904e+00 2.504954e+01 -3.470176e-19) (8.093955e-02 -1.401697e-02 -4.951488e-20) (0.000000e+00 0.000000e+00 0.000000e+00)) ((-1.252477e+00 2.208452e-01 4.958242e-01) (7.008485e-04 4.046977e-03 -1.010456e-04) (0.000000e+00 0.000000e+00 0.000000e+00))
9.000000e+01	((4.452048e+00 2.524884e+01 -3.090037e-19) (7.730722e-02 -1.338732e-02 -4.863173e-20) (0.000000e+00 0.000000e+00 0.000000e+00)) ((-1.262442e+00 2.226024e-01 5.448909e-01) (6.693660e-04 3.865361e-03 -1.025573e-04) (0.000000e+00 0.000000e+00 0.000000e+00))
9.500000e+01	((4.482178e+00 2.541972e+01 -2.630925e-19) (7.422874e-02 -1.284119e-02 -4.764420e-20) (0.000000e+00 0.000000e+00 0.000000e+00)) ((-1.270986e+00 2.241089e-01 5.896515e-01) (6.420593e-04 3.711437e-03 -1.058224e-04) (0.000000e+00 0.000000e+00 0.000000e+00))
1.000000e+02	((4.522300e+00 2.564726e+01 -2.131611e-19) (7.151066e-02 -1.236797e-02 -4.714485e-20) (0.000000e+00 0.000000e+00 0.000000e+00)) ((-1.282363e+00 2.261150e-01 6.559403e-01) (6.183985e-04 3.575533e-03 -1.074780e-04) (0.000000e+00 0.000000e+00 0.000000e+00))
1.050000e+02	((4.562266e+00 2.587392e+01 -1.597538e-19) (6.908720e-02 -1.193899e-02 -4.743409e-20) (0.000000e+00 0.000000e+00 0.000000e+00)) ((-1.293696e+00 2.281133e-01 7.365004e-01) (5.969494e-04 3.454360e-03 -1.096426e-04) (0.000000e+00 0.000000e+00 0.000000e+00))
1.100000e+02	((4.604240e+00 2.611197e+01 -1.080683e-19) (6.686502e-02 -1.155142e-02 -4.874948e-20) (0.000000e+00 0.000000e+00 0.000000e+00)) ((-1.305599e+00 2.302120e-01 8.262804e-01) (5.775709e-04 3.343251e-03 -1.107697e-04) (0.000000e+00 0.000000e+00 0.000000e+00))
1.150000e+02	((4.652474e+00 2.638552e+01 -6.654125e-20) (6.481720e-02 -1.119115e-02 -5.129590e-20) (0.000000e+00 0.000000e+00 0.000000e+00)) ((-1.319276e+00 2.326237e-01 9.363412e-01) (5.595577e-04 3.240860e-03 -1.123603e-04) (0.000000e+00 0.000000e+00 0.000000e+00))
1.200000e+02	((4.699584e+00 2.665269e+01 -2.276824e-20) (6.290189e-02 -1.085615e-02 -5.051529e-20) (0.000000e+00 0.000000e+00 0.000000e+00)) ((-1.332634e+00 2.349792e-01 1.053826e+00) (5.428074e-04 3.145095e-03 -1.137266e-04) (0.000000e+00 0.000000e+00 0.000000e+00))
1.250000e+02	((4.752467e+00 2.695261e+01 5.076969e-21) (6.109448e-02 -1.053822e-02 -5.046057e-20) (0.000000e+00 0.000000e+00 0.000000e+00)) ((-1.347630e+00 2.376234e-01 1.190498e+00) (5.269112e-04 3.054724e-03 -1.150800e-04) (0.000000e+00 0.000000e+00 0.000000e+00))
1.300000e+02	((4.808892e+00 2.727261e+01 2.283869e-20) (5.938417e-02 -1.023803e-02 -4.850964e-20) (0.000000e+00 0.000000e+00 0.000000e+00)) ((-1.363630e+00 2.404446e-01 1.342425e+00) (5.119016e-04 2.969209e-03 -1.162206e-04) (0.000000e+00 0.000000e+00 0.000000e+00))
1.350000e+02	((4.864667e+00 2.758893e+01 3.027572e-20) (5.775270e-02 -9.950279e-03 -4.584673e-20) (0.000000e+00 0.000000e+00 0.000000e+00)) ((-1.379446e+00 2.432334e-01 1.503550e+00) (4.975139e-04 2.887635e-03 -1.171446e-04) (0.000000e+00 0.000000e+00 0.000000e+00))
1.400000e+02	((4.920980e+00 2.790829e+01 2.719845e-20) (5.620549e-02 -9.677167e-03 -4.046511e-20) (0.000000e+00 0.000000e+00 0.000000e+00)) ((-1.395414e+00 2.460490e-01 1.671372e+00) (4.838583e-04 2.810274e-03 -1.179938e-04) (0.000000e+00 0.000000e+00 0.000000e+00))
1.450000e+02	((4.977891e+00 2.823105e+01 1.416925e-20) (5.474627e-02 -9.418897e-03 -3.618536e-20) (0.000000e+00 0.000000e+00 0.000000e+00)) ((-1.411552e+00 2.488945e-01 1.846549e+00) (4.709449e-04 2.737314e-03 -1.188097e-04) (0.000000e+00 0.000000e+00 0.000000e+00))
1.500000e+02	((5.028354e+00 2.851724e+01 -4.524702e-22) (5.337234e-02 -9.175879e-03 -3.239419e-20) (0.000000e+00 0.000000e+00 0.000000e+00)) ((-1.425862e+00 2.514177e-01 2.018260e+00) (4.587939e-04 2.668617e-03 -1.192472e-04) (0.000000e+00 0.000000e+00 0.000000e+00))
1.550000e+02	((5.079447e+00 2.880700e+01 -2.851415e-20) (5.208717e-02 -8.949314e-03 -2.943487e-20) (0.000000e+00 0.000000e+00 0.000000e+00)) ((-1.440350e+00 2.539723e-01 2.200237e+00) (4.474657e-04 2.604359e-03 -1.202110e-04) (0.000000e+00 0.000000e+00 0.000000e+00))
1.600000e+02	((5.126557e+00 2.907417e+01 -5.946410e-20) (5.090530e-02 -8.741956e-03 -2.662491e-20) (0.000000e+00 0.000000e+00 0.000000e+00)) ((-1.453709e+00 2.563279e-01 2.379063e+00) (4.370978e-04 2.545265e-03 -1.217477e-04) (0.000000e+00 0.000000e+00 0.000000e+00))
1.650000e+02	((5.167569e+00 2.930676e+01 -9.071115e-20) (4.982235e-02 -8.552945e-03 -2.408141e-20) (0.000000e+00 0.000000e+00 0.000000e+00)) ((-1.465338e+00 2.583784e-01 2.548639e+00) (4.276473e-04 2.491118e-03 -1.238788e-04) (0.000000e+00 0.000000e+00 0.000000e+00))
1.700000e+02	((5.200433e+00 2.949315e+01 -1.161572e-19) (4.884190e-02 -8.383657e-03 -2.138970e-20) (0.000000e+00 0.000000e+00 0.000000e+00)) ((-1.474657e+00 2.600217e-01 2.706559e+00) (4.191828e-04 2.442095e-03 -1.267714e-04) (0.000000e+00 0.000000e+00 0.000000e+00))
1.750000e+02	((5.227399e+00 2.964608e+01 -1.455029e-19) (4.797225e-02 -8.235577e-03 -1.933363e-20) (0.000000e+00 0.000000e+00 0.000000e+00)) ((-1.482304e+00 2.613699e-01 2.856036e+00) (4.117788e-04 2.398612e-03 -1.307426e-04) (0.000000e+00 0.000000e+00 0.000000e+00))
1.800000e+02	((5.246564e+00 2.975477e+01 -1.669531e-19) (4.721305e-02 -8.108415e-03 -1.753589e-20) (0.000000e+00 0.000000e+00 0.000000e+00)) ((-1.487739e+00 2.623282e-01 2.989680e+00) (4.054207e-04 2.360652e-03 -1.358235e-04) (0.000000e+00 0.000000e+00 0.000000e+00))
1.850000e+02	((5.257023e+00 2.981408e+01 -1.866697e-19) (4.657419e-02 -8.001123e-03 -1.578453e-20) (0.000000e+00 0.000000e+00 0.000000e+00)) ((-1.490704e+00 2.628511e-01 3.109371e+00) (4.000561e-04 2.328709e-03 -1.394472e-04) (0.000000e+00 0.000000e+00 0.000000e+00))
1.900000e+02	((5.260096e+00 2.983151e+01 -2.106774e-19) (4.606027e-02 -7.915941e-03 -1.435911e-20) (0.000000e+00 0.000000e+00 0.000000e+00)) ((-1.491576e+00 2.630048e-01 3.221269e+00) (3.957971e-04 2.303014e-03 -1.429620e-04) (0.000000e+00 0.000000e+00 0.000000e+00))
1.950000e+02	((5.254246e+00 2.979834e+01 -2.270846e-19) (4.568621e-02 -7.854708e-03 -1.274185e-20) (0.000000e+00 0.000000e+00 0.000000e+00)) ((-1.489917e+00 2.627123e-01 3.315787e+00) (3.927354e-04 2.284310e-03 -1.457534e-04) (0.000000e+00 0.000000e+00 0.000000e+00))
2.000000e+02	((5.239928e+00 2.971713e+01 -2.410344e-19) (4.543939e-02 -7.814835e-03 -1.120850e-20) (0.000000e+00 0.000000e+00 0.000000e+00)) ((-1.485857e+00 2.619964e-01 3.394636e+00) (3.907418e-04 2.271970e-03 -1.473854e-04) (0.000000e+00 0.000000e+00 0.000000e+00))
2.050000e+02	((5.219271e+00 2.959998e+01 -2.538391e-19) (4.534448e-02 -7.800835e-03 -9.751309e-21) (0.000000e+00 0.000000e+00 0.000000e+00)) ((-1.479999e+00 2.609636e-01 3.462409e+00) (3.900418e-04 2.267224e-03 -1.485425e-04) (0.000000e+00 0.000000e+00 0.000000e+00))
2.100000e+02	((5.188604e+00 2.942606e+01 -2.658068e-19) (4.538848e-02 -7.811812e-03 -8.245214e-21) (0.000000e+00 0.000000e+00 0.000000e+00)) ((-1.471303e+00 2.594302e-01 3.520092e+00) (3.905906e-04 2.269424e-03 -1.489198e-04) (0.000000e+00 0.000000e+00 0.000000e+00))
2.150000e+02	((5.153608e+00 2.922758e+01 -2.767571e-19) (4.557285e-02 -7.846996e-03 -6.855873e-21) (0.000000e+00 0.000000e+00 0.000000e+00)) ((-1.461379e+00 2.576804e-01 3.567647e+00) (3.923498e-04 2.278643e-03 -1.489107e-04) (0.000000e+00 0.000000e+00 0.000000e+00))
2.200000e+02	((5.112300e+00 2.899332e+01 -2.867854e-19) (4.590355e-02 -7.908305e-03 -5.499518e-21) (0.000000e+00 0.000000e+00 0.000000e+00)) ((-1.449666e+00 2.556150e-01 3.605418e+00) (3.954153e-04 2.295178e-03 -1.486449e-04) (0.000000e+00 0.000000e+00 0.000000e+00))
2.250000e+02	((5.065184e+00 2.872611e+01 -2.964358e-19) (4.637286e-02 -7.995348e-03 -4.193995e-21) (0.000000e+00 0.000000e+00 0.000000e+00)) ((-1.436305e+00 2.532592e-01 3.634222e+00) (3.997674e-04 2.318643e-03 -1.477005e-04) (0.000000e+00 0.000000e+00 0.000000e+00))
2.300000e+02	((5.013252e+00 2.843159e+01 -3.057164e-19) (4.698412e-02 -8.101710e-03 -2.925957e-21) (0.000000e+00 0.000000e+00 0.000000e+00)) ((-1.421579e+00 2.506626e-01 3.655055e+00) (4.050855e-04 2.349206e-03 -1.473967e-04) (0.000000e+00 0.000000e+00 0.000000e+00))
2.350000e+02	((4.958887e+00 2.812327e+01 -3.146924e-19) (4.773126e-02 -8.236684e-03 -1.779288e-21) (0.000000e+00 0.000000e+00 0.000000e+00)) ((-1.406163e+00 2.479443e-01 3.668113e+00) (4.118342e-04 2.386563e-03 -1.456602e-04) (0.000000e+00 0.000000e+00 0.000000e+00))
2.400000e+02	((4.898146e+00 2.777879e+01 -3.233159e-19) (4.861579e-02 -8.392166e-03 -6.437904e-22) (0.000000e+00 0.000000e+00 0.000000e+00)) ((-1.388939e+00 2.449073e-01 3.671909e+00) (4.196083e-04 2.430789e-03 -1.450232e-04) (0.000000e+00 0.000000e+00 0.000000e+00))
2.450000e+02	((4.834418e+00 2.741737e+01 -3.298882e-19) (4.961089e-02 -8.572744e-03 4.975257e-22) (0.000000e+00 0.000000e+00 0.000000e+00)) ((-1.370868e+00 2.417209e-01 3.667455e+00) (4.286372e-04 2.480544e-03 -1.415517e-04) (0.000000e+00 0.000000e+00 0.000000e+00))
2.500000e+02	((4.762689e+00 2.701058e+01 -3.422470e-19) (5.073741e-02 -8.766644e-03 1.207002e-21) (0.000000e+00 0.000000e+00 0.000000e+00)) ((-1.350529e+00 2.381345e-01 3.651394e+00) (4.383322e-04 2.536871e-03 -1.415869e-04) (0.000000e+00 0.000000e+00 0.000000e+00))
2.550000e+02	((4.692594e+00 2.661305e+01 -3.466658e-19) (5.195983e-02 -8.978767e-03 2.213411e-21) (0.000000e+00 0.000000e+00 0.000000e+00)) ((-1.330652e+00 2.346297e-01 3.628379e+00) (4.489383e-04 2.597991e-03 -1.387456e-04) (0.000000e+00 0.000000e+00 0.000000e+00))
2.600000e+02	((4.620744e+00 2.620557e+01 -3.497825e-19) (5.328202e-02 -9.215217e-03 3.084174e-21) (0.000000e+00 0.000000e+00 0.000000e+00)) ((-1.310278e+00 2.310372e-01 3.595962e+00) (4.607608e-04 2.664101e-03 -1.361900e-04) (0.000000e+00 0.000000e+00 0.000000e+00))
2.650000e+02	((4.541561e+00 2.575650e+01 -3.569371e-19) (5.468465e-02 -9.458618e-03 3.578633e-21) (0.000000e+00 0.000000e+00 0.000000e+00)) ((-1.287825e+00 2.270781e-01 3.550190e+00) (4.729309e-04 2.734232e-03 -1.314120e-04) (0.000000e+00 0.000000e+00 0.000000e+00))
2.700000e+02	((4.459315e+00 2.529005e+01 -3.617679e-19) (5.616263e-02 -9.717518e-03 3.966087e-21) (0.000000e+00 0.000000e+00 0.000000e+00)) ((-1.264503e+00 2.229657e-01 3.493065e+00) (4.858759e-04 2.808131e-03 -1.249508e-04) (0.000000e+00 0.000000e+00 0.000000e+00))
2.750000e+02	((4.377282e+00 2.482482e+01 -3.642470e-19) (5.770227e-02 -9.997157e-03 4.253344e-21) (0.000000e+00 0.000000e+00 0.000000e+00)) ((-1.241241e+00 2.188641e-01 3.427410e+00) (4.998578e-04 2.885113e-03 -1.272248e-04) (0.000000e+00 0.000000e+00 0.000000e+00))
2.800000e+02	((4.299954e+00 2.438627e+01 -3.593908e-19) (5.928093e-02 -1.028180e-02 4.797895e-21) (0.000000e+00 0.000000e+00 0.000000e+00)) ((-1.219314e+00 2.149977e-01 3.359810e+00) (5.140901e-04 2.964046e-03 -1.291348e-04) (0.000000e+00 0.000000e+00 0.000000e+00))
2.850000e+02	((4.218570e+00 2.392472e+01 -3.579167e-19) (6.087722e-02 -1.055586e-02 4.963256e-21) (0.000000e+00 0.000000e+00 0.000000e+00)) ((-1.196236e+00 2.109285e-01 3.280957e+00) (5.277929e-04 3.043861e-03 -1.192489e-04) (0.000000e+00 0.000000e+00 0.000000e+00))
2.900000e+02	((4.132607e+00 2.343720e+01 -3.599957e-19) (6.251000e-02 -1.083758e-02 4.607391e-21) (0.000000e+00 0.000000e+00 0.000000e+00)) ((-1.171860e+00 2.066303e-01 3.189274e+00) (5.418789e-04 3.125500e-03 -1.245596e-04) (0.000000e+00 0.000000e+00 0.000000e+00))
2.950000e+02	((4.048726e+00 2.296149e+01 -3.545465e-19) (6.413485e-02 -1.113090e-02 4.583667e-21) (0.000000e+00 0.000000e+00 0.000000e+00)) ((-1.148074e+00 2.024363e-01 3.093853e+00) (5.565448e-04 3.206742e-03 -1.266858e-04) (0.000000e+00 0.000000e+00 0.000000e+00))
3.000000e+02	((3.965424e+00 2.248906e+01 -3.483240e-19) (6.572098e-02 -1.139964e-02 4.471766e-21) (0.000000e+00 0.000000e+00 0.000000e+00)) ((-1.124453e+00 1.982712e-01 2.993242e+00) (5.699820e-04 3.286049e-03 -1.158060e-04) (0.000000e+00 0.000000e+00 0.000000e+00))
3.050000e+02	((3.892375e+00 2.207478e+01 -3.407470e-19) (6.728640e-02 -1.167832e-02 4.324366e-21) (0.000000e+00 0.000000e+00 0.000000e+00)) ((-1.103739e+00 1.946187e-01 2.901182e+00) (5.839160e-04 3.364320e-03 -1.178218e-04) (0.000000e+00 0.000000e+00 0.000000e+00))
3.100000e+02	((3.826483e+00 2.170109e+01 -3.372307e-19) (6.879435e-02 -1.195452e-02 3.805767e-21) (0.000000e+00 0.000000e+00 0.000000e+00)) ((-1.085054e+00 1.913242e-01 2.812402e+00) (5.977258e-04 3.439717e-03 -1.206072e-04) (0.000000e+00 0.000000e+00 0.000000e+00))
3.150000e+02	((3.758738e+00 2.131689e+01 -3.329556e-19) (7.027970e-02 -1.219275e-02 3.250331e-21) (0.000000e+00 0.000000e+00 0.000000e+00)) ((-1.065844e+00 1.879369e-01 2.717001e+00) (6.096376e-04 3.513985e-03 -1.120755e-04) (0.000000e+00 0.000000e+00 0.000000e+00))
3.200000e+02	((3.700225e+00 2.098504e+01 -3.239495e-19) (7.166696e-02 -1.245969e-02 2.946845e-21) (0.000000e+00 0.000000e+00 0.000000e+00)) ((-1.049252e+00 1.850112e-01 2.629263e+00) (6.229844e-04 3.583348e-03 -1.181775e-04) (0.000000e+00 0.000000e+00 0.000000e+00))
3.250000e+02	((3.645009e+00 2.067190e+01 -3.180195e-19) (7.303727e-02 -1.268175e-02 2.324621e-21) (0.000000e+00 0.000000e+00 0.000000e+00)) ((-1.033595e+00 1.822504e-01 2.539725e+00) (6.340875e-04 3.651864e-03 -1.157612e-04) (0.000000e+00 0.000000e+00 0.000000e+00))
3.300000e+02	((3.595158e+00 2.038918e+01 -3.120802e-19) (7.426975e-02 -1.290770e-02 1.691307e-21) (0.000000e+00 0.000000e+00 0.000000e+00)) ((-1.019459e+00 1.797579e-01 2.454412e+00) (6.453849e-04 3.713488e-03 -1.118046e-04) (0.000000e+00 0.000000e+00 0.000000e+00))
3.350000e+02	((3.554071e+00 2.015616e+01 -3.057104e-19) (7.547427e-02 -1.310563e-02 1.067951e-21) (0.000000e+00 0.000000e+00 0.000000e+00)) ((-1.007808e+00 1.777036e-01 2.375889e+00) (6.552813e-04 3.773713e-03 -1.139778e-04) (0.000000e+00 0.000000e+00 0.000000e+00))
3.400000e+02	((3.518302e+00 1.995330e+01 -3.020000e-19) (7.652721e-02 -1.330672e-02 1.584473e-22) (0.000000e+00 0.000000e+00 0.000000e+00)) ((-9.976652e-01 1.759151e-01 2.298886e+00) (6.653359e-04 3.826360e-03 -1.154712e-04) (0.000000e+00 0.000000e+00 0.000000e+00))
3.450000e+02	((3.491180e+00 1.979949e+01 -2.986029e-19) (7.754516e-02 -1.347350e-02 -6.900927e-22) (0.000000e+00 0.000000e+00 0.000000e+00)) ((-9.899744e-01 1.745590e-01 2.231512e+00) (6.736748e-04 3.877258e-03 -1.195013e-04) (0.000000e+00 0.000000e+00 0.000000e+00))
3.500000e+02	((3.469340e+00 1.967563e+01 -2.976788e-19) (7.839137e-02 -1.363329e-02 -1.740432e-21) (0.000000e+00 0.000000e+00 0.000000e+00)) ((-9.837815e-01 1.734670e-01 2.167873e+00) (6.816644e-04 3.919568e-03 -1.166066e-04) (0.000000e+00 0.000000e+00 0.000000e+00))
3.550000e+02	((3.453017e+00 1.958305e+01 -2.963103e-19) (7.919574e-02 -1.375958e-02 -2.839779e-21) (0.000000e+00 0.000000e+00 0.000000e+00)) ((-9.791526e-01 1.726508e-01 2.105950e+00) (6.879790e-04 3.959787e-03 -1.186784e-04) (0.000000e+00 0.000000e+00 0.000000e+00))
3.600000e+02	((3.442399e+00 1.952284e+01 -2.945716e-19) (7.983009e-02 -1.388252e-02 -3.937372e-21) (0.000000e+00 0.000000e+00 0.000000e+00)) ((-9.761420e-01 1.721200e-01 2.048392e+00) (6.941261e-04 3.991505e-03 -1.157404e-04) (0.000000e+00 0.000000e+00 0.000000e+00))
3.650000e+02	((3.437011e+00 1.949228e+01 -2.929084e-19) (8.041521e-02 -1.397037e-02 -5.015711e-21) (0.000000e+00 0.000000e+00 0.000000e+00)) ((-9.746140e-01 1.718505e-01 1.996097e+00) (6.985186e-04 4.020761e-03 -1.176129e-04) (0.000000e+00 0.000000e+00 0.000000e+00))
3.700000e+02	((3.435889e+00 1.948592e+01 -2.904537e-19) (8.082196e-02 -1.405367e-02 -6.122436e-21) (0.000000e+00 0.000000e+00 0.000000e+00)) ((-9.742960e-01 1.717945e-01 1.945420e+00) (7.026837e-04 4.041098e-03 -1.142094e-04) (0.000000e+00 0.000000e+00 0.000000e+00))
3.750000e+02	((3.439500e+00 1.950640e+01 -2.867237e-19) (8.118277e-02 -1.410231e-02 -7.159352e-21) (0.000000e+00 0.000000e+00 0.000000e+00)) ((-9.753200e-01 1.719750e-01 1.898116e+00) (7.051157e-04 4.059138e-03 -1.161681e-04) (0.000000e+00 0.000000e+00 0.000000e+00))
3.800000e+02	((3.447828e+00 1.955363e+01 -2.859753e-19) (8.136911e-02 -1.414724e-02 -8.396737e-21) (0.000000e+00 0.000000e+00 0.000000e+00)) ((-9.776815e-01 1.723914e-01 1.856945e+00) (7.073620e-04 4.068456e-03 -1.125639e-04) (0.000000e+00 0.000000e+00 0.000000e+00))
3.850000e+02	((3.459427e+00 1.961941e+01 -2.828867e-19) (8.151651e-02 -1.415835e-02 -9.417471e-21) (0.000000e+00 0.000000e+00 0.000000e+00)) ((-9.809705e-01 1.729713e-01 1.819731e+00) (7.079174e-04 4.075826e-03 -1.144975e-04) (0.000000e+00 0.000000e+00 0.000000e+00))
3.900000e+02	((3.475142e+00 1.970853e+01 -2.797592e-19) (8.149121e-02 -1.416655e-02 -1.046391e-20) (0.000000e+00 0.000000e+00 0.000000e+00)) ((-9.854267e-01 1.737571e-01 1.786489e+00) (7.083276e-04 4.074560e-03 -1.107866e-04) (0.000000e+00 0.000000e+00 0.000000e+00))
3.950000e+02	((3.494427e+00 1.981790e+01 -2.768798e-19) (8.143947e-02 -1.414241e-02 -1.147381e-20) (0.000000e+00 0.000000e+00 0.000000e+00)) ((-9.908952e-01 1.747213e-01 1.758044e+00) (7.071205e-04 4.071973e-03 -1.128793e-04) (0.000000e+00 0.000000e+00 0.000000e+00))
4.000000e+02	((3.516868e+00 1.994517e+01 -2.743142e-19) (8.123174e-02 -1.411841e-02 -1.247741e-20) (0.000000e+00 0.000000e+00 0.000000e+00)) ((-9.972586e-01 1.758434e-01 1.733947e+00) (7.059203e-04 4.061587e-03 -1.093038e-04) (0.000000e+00 0.000000e+00 0.000000e+00))
4.050000e+02	((3.541001e+00 2.008204e+01 -2.718523e-19) (8.100397e-02 -1.406372e-02 -1.337885e-20) (0.000000e+00 0.000000e+00 0.000000e+00)) ((-1.004102e+00 1.770500e-01 1.714718e+00) (7.031862e-04 4.050198e-03 -1.114708e-04) (0.000000e+00 0.000000e+00 0.000000e+00))
4.100000e+02	((3.568402e+00 2.023744e+01 -2.689153e-19) (8.063449e-02 -1.401165e-02 -1.420651e-20) (0.000000e+00 0.000000e+00 0.000000e+00)) ((-1.011872e+00 1.784201e-01 1.700469e+00) (7.005823e-04 4.031724e-03 -1.079709e-04) (0.000000e+00 0.000000e+00 0.000000e+00))
4.150000e+02	((3.597748e+00 2.040387e+01 -2.661554e-19) (8.025912e-02 -1.393114e-02 -1.496209e-20) (0.000000e+00 0.000000e+00 0.000000e+00)) ((-1.020194e+00 1.798874e-01 1.690441e+00) (6.965572e-04 4.012956e-03 -1.103579e-04) (0.000000e+00 0.000000e+00 0.000000e+00))
4.200000e+02	((3.628996e+00 2.058109e+01 -2.632492e-19) (7.976159e-02 -1.385656e-02 -1.563373e-20) (0.000000e+00 0.000000e+00 0.000000e+00)) ((-1.029054e+00 1.814498e-01 1.684914e+00) (6.928282e-04 3.988080e-03 -1.071840e-04) (0.000000e+00 0.000000e+00 0.000000e+00))
4.250000e+02	((3.662670e+00 2.077206e+01 -2.574090e-19) (7.926965e-02 -1.375621e-02 -1.599395e-20) (0.000000e+00 0.000000e+00 0.000000e+00)) ((-1.038603e+00 1.831335e-01 1.683981e+00) (6.878103e-04 3.963482e-03 -1.097789e-04) (0.000000e+00 0.000000e+00 0.000000e+00))
4.300000e+02	((3.696507e+00 2.096396e+01 -2.554458e-19) (7.867330e-02 -1.366424e-02 -1.658284e-20) (0.000000e+00 0.000000e+00 0.000000e+00)) ((-1.048198e+00 1.848254e-01 1.686582e+00) (6.832118e-04 3.933665e-03 -1.069054e-04) (0.000000e+00 0.000000e+00 0.000000e+00))
4.350000e+02	((3.730314e+00 2.115569e+01 -2.537427e-19) (7.809131e-02 -1.354815e-02 -1.709545e-20) (0.000000e+00 0.000000e+00 0.000000e+00)) ((-1.057784e+00 1.865157e-01 1.692190e+00) (6.774075e-04 3.904566e-03 -1.098188e-04) (0.000000e+00 0.000000e+00 0.000000e+00))
4.400000e+02	((3.766163e+00 2.135900e+01 -2.492687e-19) (7.742253e-02 -1.344300e-02 -1.734770e-20) (0.000000e+00 0.000000e+00 0.000000e+00)) ((-1.067950e+00 1.883082e-01 1.701939e+00) (6.721498e-04 3.871126e-03 -1.073962e-04) (0.000000e+00 0.000000e+00 0.000000e+00))
4.450000e+02	((3.802649e+00 2.156592e+01 -2.451989e-19) (7.677376e-02 -1.331599e-02 -1.755582e-20) (0.000000e+00 0.000000e+00 0.000000e+00)) ((-1.078296e+00 1.901325e-01 1.715383e+00) (6.657995e-04 3.838688e-03 -1.105005e-04) (0.000000e+00 0.000000e+00 0.000000e+00))
4.500000e+02	((3.838365e+00 2.176847e+01 -2.415750e-19) (7.605266e-02 -1.320158e-02 -1.772681e-20) (0.000000e+00 0.000000e+00 0.000000e+00)) ((-1.088424e+00 1.919182e-01 1.731577e+00) (6.600790e-04 3.802633e-03 -1.084500e-04) (0.000000e+00 0.000000e+00 0.000000e+00))
4.550000e+02	((3.873176e+00 2.196590e+01 -2.383019e-19) (7.533792e-02 -1.307784e-02 -1.787769e-20) (0.000000e+00 0.000000e+00 0.000000e+00)) ((-1.098295e+00 1.936588e-01 1.749771e+00) (6.538920e-04 3.766896e-03 -1.086649e-04) (0.000000e+00 0.000000e+00 0.000000e+00))
4.600000e+02	((3.908181e+00 2.216442e+01 -2.355287e-19) (7.457946e-02 -1.295417e-02 -1.797787e-20) (0.000000e+00 0.000000e+00 0.000000e+00)) ((-1.108221e+00 1.954091e-01 1.770767e+00) (6.477084e-04 3.728973e-03 -1.074067e-04) (0.000000e+00 0.000000e+00 0.000000e+00))
4.650000e+02	((3.943278e+00 2.236346e+01 -2.327444e-19) (7.386606e-02 -1.281523e-02 -1.805635e-20) (0.000000e+00 0.000000e+00 0.000000e+00)) ((-1.118173e+00 1.971639e-01 1.794604e+00) (6.407613e-04 3.693303e-03 -1.109089e-04) (0.000000e+00 0.000000e+00 0.000000e+00))
4.700000e+02	((3.978664e+00 2.256415e+01 -2.302689e-19) (7.309878e-02 -1.269354e-02 -1.808449e-20) (0.000000e+00 0.000000e+00 0.000000e+00)) ((-1.128207e+00 1.989332e-01 1.821521e+00) (6.346770e-04 3.654939e-03 -1.091365e-04) (0.000000e+00 0.000000e+00 0.000000e+00))
4.750000e+02	((4.011247e+00 2.274894e+01 -2.284709e-19) (7.238294e-02 -1.255392e-02 -1.811836e-20) (0.000000e+00 0.000000e+00 0.000000e+00)) ((-1.137447e+00 2.005623e-01 1.848346e+00) (6.276962e-04 3.619147e-03 -1.127586e-04) (0.000000e+00 0.000000e+00 0.000000e+00))
4.800000e+02	((4.041138e+00 2.291846e+01 -2.247852e-19) (7.161897e-02 -1.243217e-02 -1.790503e-20) (0.000000e+00 0.000000e+00 0.000000e+00)) ((-1.145923e+00 2.020569e-01 1.875902e+00) (6.216087e-04 3.580948e-03 -1.113424e-04) (0.000000e+00 0.000000e+00 0.000000e+00))
4.850000e+02	((4.071883e+00 2.309282e+01 -2.236000e-19) (7.090848e-02 -1.229528e-02 -1.786858e-20) (0.000000e+00 0.000000e+00 0.000000e+00)) ((-1.154641e+00 2.035941e-01 1.906478e+00) (6.147638e-04 3.545424e-03 -1.147426e-04) (0.000000e+00 0.000000e+00 0.000000e+00))
4.900000e+02	((4.103073e+00 2.326971e+01 -2.207461e-19) (7.016535e-02 -1.217531e-02 -1.760271e-20) (0.000000e+00 0.000000e+00 0.000000e+00)) ((-1.163485e+00 2.051537e-01 1.941404e+00) (6.087653e-04 3.508267e-03 -1.136721e-04) (0.000000e+00 0.000000e+00 0.000000e+00))
4.950000e+02	((4.133483e+00 2.344217e+01 -2.184497e-19) (6.947688e-02 -1.204387e-02 -1.735614e-20) (0.000000e+00 0.000000e+00 0.000000e+00)) ((-1.172109e+00 2.066741e-01 1.977677e+00) (6.021935e-04 3.473844e-03 -1.167864e-04) (0.000000e+00 0.000000e+00 0.000000e+00))
5.000000e+02	((4.161336e+00 2.360013e+01 -2.170023e-19) (6.876684e-02 -1.192800e-02 -1.707521e-20) (0.000000e+00 0.000000e+00 0.000000e+00)) ((-1.180007e+00 2.080668e-01 2.014250e+00) (5.964002e-04 3.438342e-03 -1.161066e-04) (0.000000e+00 0.000000e+00 0.000000e+00))
5.050000e+02	((4.188127e+00 2.375207e+01 -2.162539e-19) (6.811039e-02 -1.180413e-02 -1.681131e-20) (0.000000e+00 0.000000e+00 0.000000e+00)) ((-1.187604e+00 2.094063e-01 2.052257e+00) (5.902063e-04 3.405519e-03 -1.188762e-04) (0.000000e+00 0.000000e+00 0.000000e+00))
5.100000e+02	((4.213498e+00 2.389596e+01 -2.162116e-19) (6.744417e-02 -1.169475e-02 -1.650183e-20) (0.000000e+00 0.000000e+00 0.000000e+00)) ((-1.194798e+00 2.106749e-01 2.091466e+00) (5.847375e-04 3.372209e-03 -1.184709e-04) (0.000000e+00 0.000000e+00 0.000000e+00))
5.150000e+02	((4.237784e+00 2.403369e+01 -2.169074e-19) (6.683223e-02 -1.158029e-02 -1.620476e-20) (0.000000e+00 0.000000e+00 0.000000e+00)) ((-1.201684e+00 2.118892e-01 2.132044e+00) (5.790144e-04 3.341611e-03 -1.209168e-04) (0.000000e+00 0.000000e+00 0.000000e+00))
5.200000e+02	((4.260072e+00 2.416010e+01 -2.168542e-19) (6.622081e-02 -1.147952e-02 -1.574751e-20) (0.000000e+00 0.000000e+00 0.000000e+00)) ((-1.208005e+00 2.130036e-01 2.173231e+00) (5.739758e-04 3.311041e-03 -1.206461e-04) (0.000000e+00 0.000000e+00 0.000000e+00))
5.250000e+02	((4.281291e+00 2.428043e+01 -2.187925e-19) (6.566396e-02 -1.137600e-02 -1.543754e-20) (0.000000e+00 0.000000e+00 0.000000e+00)) ((-1.214022e+00 2.140646e-01 2.213963e+00) (5.688001e-04 3.283198e-03 -1.229202e-04) (0.000000e+00 0.000000e+00 0.000000e+00))
5.300000e+02	((4.301646e+00 2.439587e+01 -2.198731e-19) (6.511956e-02 -1.128636e-02 -1.493588e-20) (0.000000e+00 0.000000e+00 0.000000e+00)) ((-1.219794e+00 2.150823e-01 2.257031e+00) (5.643182e-04 3.255978e-03 -1.228830e-04) (0.000000e+00 0.000000e+00 0.000000e+00))
5.350000e+02	((4.320086e+00 2.450045e+01 -2.220360e-19) (6.462651e-02 -1.119510e-02 -1.444192e-20) (0.000000e+00 0.000000e+00 0.000000e+00)) ((-1.225022e+00 2.160043e-01 2.301386e+00) (5.597552e-04 3.231325e-03 -1.246474e-04) (0.000000e+00 0.000000e+00 0.000000e+00))
5.400000e+02	((4.335370e+00 2.458713e+01 -2.243031e-19) (6.414899e-02 -1.111655e-02 -1.397198e-20) (0.000000e+00 0.000000e+00 0.000000e+00)) ((-1.229356e+00 2.167685e-01 2.340771e+00) (5.558273e-04 3.207450e-03 -1.247169e-04) (0.000000e+00 0.000000e+00 0.000000e+00))
5.450000e+02	((4.349041e+00 2.466466e+01 -2.255547e-19) (6.373243e-02 -1.103956e-02 -1.344474e-20) (0.000000e+00 0.000000e+00 0.000000e+00)) ((-1.233233e+00 2.174520e-01 2.378876e+00) (5.519782e-04 3.186622e-03 -1.266031e-04) (0.000000e+00 0.000000e+00 0.000000e+00))
5.500000e+02	((4.362581e+00 2.474145e+01 -2.296209e-19) (6.333472e-02 -1.097466e-02 -1.294675e-20) (0.000000e+00 0.000000e+00 0.000000e+00)) ((-1.237072e+00 2.181290e-01 2.421530e+00) (5.487330e-04 3.166736e-03 -1.265214e-04) (0.000000e+00 0.000000e+00 0.000000e+00))
5.550000e+02	((4.372485e+00 2.479762e+01 -2.324313e-19) (6.299341e-02 -1.091130e-02 -1.243598e-20) (0.000000e+00 0.000000e+00 0.000000e+00)) ((-1.239881e+00 2.186243e-01 2.458907e+00) (5.455648e-04 3.149671e-03 -1.279835e-04) (0.000000e+00 0.000000e+00 0.000000e+00))