/*--------------------------------*- C++ -*----------------------------------*\
| =========                 |                                                 |
| \\      /  F ield         | OpenFOAM: The Open Source CFD Toolbox           |
|  \\    /   O peration     | Version:  2.3.0                                 |
|   \\  /    A nd           | Web:      www.OpenFOAM.org                      |
|    \\/     M anipulation  |                                                 |
\*---------------------------------------------------------------------------*/
FoamFile
{
    version     2.0;
    format      ascii;
    class       surfaceScalarField;
    location    "3000";
    object      phi;
}
// * * * * * * * * * * * * * * * * * * * * * * * * * * * * * * * * * * * * * //

dimensions      [0 3 -1 0 0 0 0];

internalField   nonuniform List<scalar> 
78548
(
-0.00502586
-0.00636642
0.00698345
0.00440896
-0.00559721
-0.00611532
0.00668667
-0.00612819
-0.00587232
0.00640331
-0.00660844
-0.00564478
0.00612502
-0.00705422
-0.00541949
0.00586527
-0.00745923
-0.00520533
0.00561033
-0.00782822
-0.00499849
0.00536748
-0.00815965
-0.00480135
0.00513278
-0.0084585
-0.0046089
0.00490775
-0.00872466
-0.00442492
0.00469108
-0.00895916
-0.00424754
0.00448203
-0.00916507
-0.00407596
0.00428187
-0.00934265
-0.00391235
0.00408993
-0.00949365
-0.00375266
0.00390366
-0.00962088
-0.00359923
0.00372646
-0.00972335
-0.00345161
0.00355409
-0.00980347
-0.00330997
0.00339009
-0.00986451
-0.00317072
0.00323176
-0.00990344
-0.00303827
0.0030772
-0.00992603
-0.00290902
0.0029316
-0.00993028
-0.00278453
0.00278878
-0.00991883
-0.00266297
0.00265153
-0.00989154
-0.00254666
0.00251937
-0.00984969
-0.0024316
0.00238976
-0.00979416
-0.00232107
0.00226554
-0.0097222
-0.00221232
0.00214036
-0.00963666
-0.00210632
0.00202077
-0.00953583
-0.00200243
0.0019016
-0.00942065
-0.00189924
0.00178406
-0.0092876
-0.00179906
0.00166601
-0.00913933
-0.00169647
0.0015482
-0.00897374
-0.00159625
0.00143066
-0.00879048
-0.00149568
0.00131242
-0.00858865
-0.00139277
0.00119095
-0.00837144
-0.00128872
0.00107151
-0.00813873
-0.00118245
0.000949742
-0.00789276
-0.00107185
0.000825877
-0.00763405
-0.000961352
0.000702643
-0.00736874
-0.000841466
0.000576151
-0.00709938
-0.000720544
0.000451187
-0.00682986
-0.00059517
0.000325647
-0.00657964
-0.000468899
0.000218678
-0.00034436
-0.00643497
0.000199698
-0.00453684
-0.00581308
0.0039835
-0.00504684
-0.00560532
-0.00551418
-0.00540498
-0.0059468
-0.00521215
-0.00633919
-0.0050271
-0.00669917
-0.00484534
-0.00702389
-0.00467377
-0.00731789
-0.00450735
-0.00757977
-0.00434702
-0.00781149
-0.0041932
-0.00801615
-0.00404288
-0.00819387
-0.00389824
-0.00834698
-0.00375925
-0.00847353
-0.00362611
-0.00857801
-0.00349475
-0.00866034
-0.00336928
-0.0087226
-0.00324771
-0.00876369
-0.00312963
-0.00878672
-0.00301524
-0.00879228
-0.00290346
-0.00878082
-0.00279599
-0.0087529
-0.00269089
-0.00871113
-0.00258843
-0.00865556
-0.00248717
-0.00858781
-0.00238881
-0.00850696
-0.00229317
-0.00841611
-0.00219717
-0.00831464
-0.0021039
-0.00820371
-0.00201018
-0.00808522
-0.00191755
-0.00795479
-0.0018269
-0.00781782
-0.00173323
-0.00767354
-0.00163996
-0.00751869
-0.00154763
-0.00735379
-0.00145362
-0.0071772
-0.00135903
-0.00698309
-0.00126596
-0.00677631
-0.00116813
-0.00654195
-0.00107583
-0.00628031
-0.000982181
-0.00598307
-0.000892417
-0.00564323
-0.000808738
-0.000729139
-0.00525845
-0.0040941
-0.00532164
0.00360265
-0.00454875
-0.00515068
-0.00496579
-0.00498794
-0.00535175
-0.0048262
-0.00570282
-0.00467603
-0.00601992
-0.00452824
-0.00630783
-0.00438586
-0.00656675
-0.00424844
-0.00679737
-0.0041164
-0.00700253
-0.00398805
-0.00718087
-0.00386454
-0.00733476
-0.00374435
-0.007466
-0.00362801
-0.00757621
-0.0035159
-0.0076632
-0.00340775
-0.00773095
-0.00330153
-0.00777955
-0.00319912
-0.00781074
-0.00309844
-0.00782388
-0.0030021
-0.00781926
-0.00290808
-0.00780095
-0.0028143
-0.00776765
-0.0027242
-0.00772123
-0.00263485
-0.00765981
-0.0025486
-0.00758709
-0.00246153
-0.00750209
-0.00237818
-0.0074058
-0.00229345
-0.00729864
-0.00221106
-0.00717964
-0.00212918
-0.0070521
-0.00204509
-0.00691651
-0.00196249
-0.00676844
-0.00188129
-0.00661139
-0.001797
-0.00644669
-0.00171233
-0.00627138
-0.00162893
-0.00608539
-0.00154502
-0.00589303
-0.00145832
-0.00568632
-0.00137484
-0.00547229
-0.00128986
-0.00524588
-0.00120859
-0.00500723
-0.00113107
-0.00475698
-0.00105899
-0.000993482
-0.00449264
-0.00369708
-0.00487979
0.00325523
-0.00410299
-0.00474477
-0.00447898
-0.00461194
-0.00481861
-0.00448657
-0.00513243
-0.00436221
-0.00541546
-0.00424522
-0.00567329
-0.00412803
-0.00590249
-0.00401923
-0.00610743
-0.00391146
-0.00628847
-0.00380701
-0.00644672
-0.00370629
-0.00658223
-0.00360885
-0.00669665
-0.00351358
-0.00679048
-0.00342207
-0.00686691
-0.00333131
-0.00692427
-0.00324418
-0.00696381
-0.00315958
-0.00698633
-0.00307591
-0.00699386
-0.00299458
-0.00698727
-0.00291467
-0.00696466
-0.0028369
-0.00692965
-0.0027592
-0.00688168
-0.00268282
-0.0068216
-0.00260868
-0.00674848
-0.00253465
-0.00666564
-0.00246102
-0.00657252
-0.00238657
-0.00646954
-0.00231404
-0.0063585
-0.00224022
-0.00623604
-0.00216754
-0.0061052
-0.00209333
-0.00596752
-0.00201898
-0.00582029
-0.00194424
-0.00566519
-0.00186743
-0.00550122
-0.0017929
-0.00533046
-0.00171578
-0.00515046
-0.00163831
-0.00496206
-0.00156325
-0.00476258
-0.00148933
-0.00455613
-0.00141504
-0.00434019
-0.00134701
-0.00411661
-0.00128257
-0.00122328
-0.00388681
-0.00333872
-0.00448465
0.00294357
-0.00370226
-0.00438123
-0.00403811
-0.00427609
-0.00434528
-0.0041794
-0.00462439
-0.0040831
-0.00487966
-0.00398995
-0.00510743
-0.00390027
-0.00531264
-0.00381402
-0.00549487
-0.00372923
-0.0056555
-0.00364638
-0.00579585
-0.00356594
-0.00591553
-0.00348916
-0.00601678
-0.00341233
-0.00610047
-0.00333839
-0.00616511
-0.00326667
-0.00621405
-0.00319524
-0.00624794
-0.00312568
-0.00626522
-0.00305863
-0.00626923
-0.00299057
-0.00625885
-0.00292505
-0.00623685
-0.00285891
-0.00620135
-0.0027947
-0.00615369
-0.00273047
-0.00609628
-0.00266609
-0.00602729
-0.00260365
-0.0059492
-0.00253911
-0.00586051
-0.00247526
-0.00576278
-0.00241177
-0.00565543
-0.00234756
-0.00554113
-0.00228185
-0.00541922
-0.00221524
-0.00528865
-0.00214955
-0.00515139
-0.0020815
-0.00500569
-0.00201313
-0.00485328
-0.00194532
-0.00469463
-0.00187442
-0.00452821
-0.00180473
-0.00435579
-0.00173567
-0.00417734
-0.00166778
-0.00399165
-0.00160074
-0.00380067
-0.00153799
-0.00360369
-0.00147954
-0.00142515
-0.00340183
-0.00301549
-0.00413085
0.00266169
-0.00334407
-0.00405265
-0.00364249
-0.00397767
-0.00391931
-0.00390258
-0.00416946
-0.00383294
-0.00439658
-0.00376283
-0.00460263
-0.00369422
-0.00478658
-0.00363007
-0.00495039
-0.00356543
-0.00509365
-0.00350311
-0.0052177
-0.00344188
-0.0053255
-0.00338136
-0.00541465
-0.00332319
-0.00548791
-0.00326513
-0.00554511
-0.00320947
-0.00558804
-0.00315231
-0.00561569
-0.00309803
-0.0056316
-0.00304273
-0.00563226
-0.0029899
-0.00562266
-0.00293465
-0.00559877
-0.0028828
-0.00556469
-0.00282878
-0.00552012
-0.00277505
-0.00546526
-0.00272094
-0.00540115
-0.00266776
-0.00532682
-0.00261344
-0.00524373
-0.00255834
-0.00515414
-0.00250137
-0.0050554
-0.0024463
-0.00494939
-0.00238786
-0.0048354
-0.00232923
-0.00471507
-0.00226987
-0.00458825
-0.00220831
-0.00445437
-0.00214701
-0.00431468
-0.002085
-0.00416945
-0.00201966
-0.00401648
-0.0019577
-0.00385952
-0.00189263
-0.00369687
-0.00183043
-0.00352831
-0.00176929
-0.00335584
-0.00171046
-0.00317995
-0.00165542
-0.00160506
-0.00300004
-0.00272528
-0.00381196
0.0024064
-0.00301954
-0.00375839
-0.0032917
-0.00370552
-0.00353735
-0.00365693
-0.00376459
-0.0036057
-0.00396883
-0.0035586
-0.00415176
-0.00351128
-0.00431602
-0.00346582
-0.00446285
-0.0034186
-0.00459129
-0.00337467
-0.00470328
-0.00332989
-0.00479882
-0.00328582
-0.00487848
-0.00324353
-0.00494311
-0.00320049
-0.00499538
-0.00315721
-0.00503192
-0.00311577
-0.00505626
-0.00307369
-0.00506832
-0.00303067
-0.00506966
-0.00298856
-0.00505784
-0.00294647
-0.00503632
-0.00290432
-0.00500449
-0.00286061
-0.0049619
-0.00281764
-0.00491019
-0.00277266
-0.00485104
-0.00272691
-0.00478303
-0.00268145
-0.00470717
-0.0026342
-0.0046229
-0.00258564
-0.00453164
-0.00253755
-0.00443398
-0.00248552
-0.00432892
-0.0024343
-0.00421811
-0.00238068
-0.00410194
-0.00232448
-0.00397934
-0.00226962
-0.00385181
-0.00221254
-0.00371803
-0.00215343
-0.00357992
-0.00209581
-0.00343627
-0.00203627
-0.00328874
-0.00197797
-0.00313682
-0.00192121
-0.00298147
-0.00186581
-0.00282112
-0.00181577
-0.00176658
-0.00265961
-0.00246431
-0.00352376
0.0021761
-0.00272787
-0.00349482
-0.00297192
-0.00346147
-0.00319627
-0.00343258
-0.00339814
-0.00340383
-0.00358206
-0.00337468
-0.00374679
-0.00334655
-0.00389676
-0.00331585
-0.00402882
-0.00328653
-0.00414419
-0.00325931
-0.00424395
-0.00323013
-0.00432899
-0.00320078
-0.00440184
-0.00317068
-0.00445991
-0.00314242
-0.00450431
-0.00311281
-0.00453787
-0.0030822
-0.00455902
-0.00305255
-0.00456875
-0.00302093
-0.00456741
-0.00298991
-0.00455716
-0.00295672
-0.00453707
-0.00292441
-0.00450745
-0.00289022
-0.00446834
-0.00285675
-0.00442077
-0.00282023
-0.00436576
-0.00278192
-0.00430349
-0.00274372
-0.00423338
-0.00270431
-0.00415562
-0.0026634
-0.00407303
-0.00262014
-0.00398297
-0.00257559
-0.00388659
-0.00253067
-0.00378608
-0.00248119
-0.00367853
-0.00243203
-0.00356675
-0.0023814
-0.00345069
-0.0023286
-0.00332878
-0.00227534
-0.00320302
-0.00222157
-0.00307243
-0.00216686
-0.00293745
-0.00211295
-0.00279946
-0.0020592
-0.0026582
-0.00200707
-0.00251459
-0.00195939
-0.00191433
-0.00236683
-0.00222711
0.00196609
-0.00326274
-0.00246723
-0.0032547
-0.00268648
-0.00324222
-0.00288737
-0.00323169
-0.00306808
-0.00322311
-0.00323515
-0.00320761
-0.00338693
-0.00319477
-0.00351981
-0.00318297
-0.00363899
-0.00316736
-0.00374408
-0.00315421
-0.00383296
-0.00314125
-0.00391056
-0.00312318
-0.00397475
-0.00310649
-0.00402633
-0.00309084
-0.0040676
-0.00307154
-0.00409661
-0.0030532
-0.00411492
-0.00303424
-0.00412315
-0.0030127
-0.00412311
-0.00298995
-0.00411349
-0.00296634
-0.00409424
-0.00294366
-0.00406634
-0.00291812
-0.00403171
-0.00289137
-0.00398725
-0.0028647
-0.00393599
-0.00283318
-0.0038783
-0.00280141
-0.0038134
-0.00276921
-0.00374393
-0.00273288
-0.00366785
-0.00269622
-0.00358401
-0.00265943
-0.00349787
-0.0026168
-0.00340436
-0.0025747
-0.00330583
-0.00253057
-0.00320487
-0.00248235
-0.00309899
-0.00243449
-0.00298702
-0.00238731
-0.0028727
-0.0023359
-0.00275332
-0.00228623
-0.00263044
-0.00223583
-0.00250556
-0.00218408
-0.00237764
-0.00213499
-0.00224808
-0.00208895
-0.0021144
-0.00204802
-0.00563107
-0.000265077
-0.000538823
-0.00507669
-0.000273069
-0.000281312
-0.00462532
-0.000300913
-0.000150461
-0.00423618
-0.000336176
-5.29581e-05
-0.00389073
-0.000375245
2.97947e-05
-0.00357512
-0.000420189
0.000104577
-0.00328604
-0.000464995
0.000175912
-0.00301629
-0.000514404
0.000244659
-0.0027626
-0.000564988
0.000311301
-0.00252193
-0.000617366
0.000376697
-0.00229383
-0.000671559
0.000443452
-0.00207669
-0.0007266
0.000509462
-0.00186982
-0.000783188
0.000576324
-0.00167179
-0.000842324
0.000644294
-0.00148406
-0.000901629
0.00071389
-0.00130527
-0.000963465
0.000784676
-0.00113585
-0.00102671
0.000857298
-0.000975674
-0.00109195
0.000931776
-0.000825996
-0.00115944
0.00100977
-0.000686181
-0.00122879
0.00108897
-0.000556489
-0.00130115
0.00117146
-0.000437951
-0.00137523
0.00125669
-0.000330683
-0.00145271
0.00134545
-0.000235638
-0.0015327
0.00143766
-0.000152983
-0.00161606
0.0015334
-8.36962e-05
-0.00170214
0.00163285
-2.81681e-05
-0.00179259
0.00173706
1.2403e-05
-0.00188561
0.00184504
3.68968e-05
-0.00198283
0.00195834
4.52911e-05
-0.00208421
0.00207582
3.60946e-05
-0.00219
0.00219919
8.22258e-06
-0.00229951
0.00232739
-3.93574e-05
-0.00241431
0.00246189
-0.000107047
-0.00253377
0.00260145
-0.000197195
-0.00265812
0.00274827
-0.000309907
-0.00278844
0.00290115
-0.000447616
-0.00292345
0.00306116
-0.000610497
-0.003065
0.00322788
-0.000800485
-0.00321293
0.00340292
-0.00101907
-0.00336672
0.00358531
-0.00126785
-0.00352738
0.00377616
-0.00154802
-0.00369573
0.00397591
-0.00387107
0.0041857
-0.00186266
-0.00484436
-0.000679166
-0.00445915
-0.000658282
-0.00410852
-0.000651541
-0.00378607
-0.000658629
-0.00348739
-0.000673923
-0.00320996
-0.000697621
-0.00294876
-0.000726194
-0.00270282
-0.000760337
-0.00247129
-0.000796518
-0.00225175
-0.000836915
-0.00204421
-0.000879094
-0.00184605
-0.00092476
-0.00165755
-0.000971685
-0.00147833
-0.00102154
-0.0013081
-0.00107186
-0.00114688
-0.00112469
-0.000994626
-0.00117896
-0.000851404
-0.00123517
-0.000716823
-0.00129402
-0.000591851
-0.00135376
-0.000476713
-0.00141629
-0.000372064
-0.00147988
-0.00027757
-0.00154721
-0.000194018
-0.00161626
-0.000122487
-0.00168759
-6.29355e-05
-0.00176169
-1.67887e-05
-0.00183874
1.5933e-05
-0.00191833
3.42768e-05
-0.00200118
3.74851e-05
-0.00208742
2.46626e-05
-0.00217717
-5.07063e-06
-0.00226978
-5.26473e-05
-0.00236674
-0.000119064
-0.00246735
-0.000204946
-0.00257224
-0.00031216
-0.00268123
-0.000440665
-0.00279494
-0.000592098
-0.00291357
-0.000768261
-0.00303677
-0.000969699
-0.00316528
-0.00119717
-0.00329991
-0.00145364
-0.00343926
-0.00358563
-0.00173908
-0.00422056
-0.000951243
-0.00394694
-0.000931901
-0.00367736
-0.000921118
-0.00341682
-0.000919172
-0.00316457
-0.000926173
-0.00292448
-0.000937706
-0.00269338
-0.0009573
-0.00247402
-0.000979696
-0.00226326
-0.00100728
-0.00206162
-0.00103856
-0.00186886
-0.00107186
-0.00168574
-0.00110787
-0.0015101
-0.00114733
-0.00134454
-0.00118709
-0.00118667
-0.00122973
-0.00103706
-0.0012743
-0.00089611
-0.00131992
-0.000763192
-0.00136809
-0.000639776
-0.00141744
-0.000525748
-0.00146779
-0.00042053
-0.00152151
-0.000324479
-0.00157593
-0.000239607
-0.00163208
-0.000165325
-0.00169054
-0.000101815
-0.0017511
-4.94962e-05
-0.00181401
-9.73335e-06
-0.0018785
1.71049e-05
-0.00194517
3.12709e-05
-0.00201534
3.10803e-05
-0.00208723
1.62942e-05
-0.00216239
-1.38978e-05
-0.00223959
-6.07236e-05
-0.00231991
-0.000124178
-0.00240389
-0.00020558
-0.00249084
-0.000305875
-0.00258093
-0.000425624
-0.0026752
-0.000566587
-0.0027726
-0.000729112
-0.00287424
-0.000914331
-0.00298006
-0.00112431
-0.00308993
-0.00135864
-0.00320493
-0.00332426
-0.00162002
-0.00365331
-0.00118475
-0.00342201
-0.0011632
-0.00319542
-0.00114771
-0.00297269
-0.0011419
-0.00275857
-0.0011403
-0.00254997
-0.00114631
-0.00234964
-0.00115762
-0.00215662
-0.00117272
-0.00197171
-0.00119219
-0.00179422
-0.00121605
-0.00162395
-0.00124212
-0.00146084
-0.00127098
-0.00130594
-0.00130224
-0.00115828
-0.00133475
-0.00101738
-0.00137064
-0.000884676
-0.001407
-0.000759587
-0.001445
-0.000642387
-0.00148529
-0.000534022
-0.00152581
-0.000432496
-0.00156931
-0.000340415
-0.00161359
-0.000257569
-0.00165878
-0.00018324
-0.00170641
-0.000118814
-0.00175496
-6.47465e-05
-0.00180516
-2.13877e-05
-0.00185737
1.07648e-05
-0.00191065
3.2583e-05
-0.00196698
4.09988e-05
-0.00202376
3.73466e-05
-0.00208358
1.9597e-05
-0.00214464
-1.15759e-05
-0.00220842
-5.73499e-05
-0.00227414
-0.000118924
-0.00234232
-0.000196632
-0.00241313
-0.000291288
-0.00248628
-0.000403731
-0.00256275
-0.000534868
-0.00264147
-0.000685327
-0.00272378
-0.000856299
-0.00280909
-0.0010487
-0.00289753
-0.0012641
-0.00298952
-0.00308559
-0.00150278
-0.00320003
-0.00138655
-0.00299975
-0.00136348
-0.00280211
-0.00134534
-0.00261046
-0.00133355
-0.00242199
-0.00132877
-0.00223972
-0.00132857
-0.00206383
-0.00133352
-0.00189249
-0.00134405
-0.00172796
-0.00135672
-0.00157027
-0.00137374
-0.00141868
-0.00139372
-0.00127315
-0.00141651
-0.00113487
-0.00144052
-0.00100214
-0.00146748
-0.00087676
-0.00149602
-0.000758127
-0.00152564
-0.000646552
-0.00155658
-0.000542537
-0.00158931
-0.000444609
-0.00162373
-0.000355693
-0.00165823
-0.000274433
-0.00169485
-0.000200943
-0.00173227
-0.000136124
-0.00177123
-8.01759e-05
-0.00181091
-3.36562e-05
-0.00185168
2.90478e-06
-0.00189393
2.98574e-05
-0.00193761
4.54831e-05
-0.00198261
5.07847e-05
-0.00202906
4.3785e-05
-0.00207658
2.53068e-05
-0.00212616
-6.60573e-06
-0.0021765
-5.12695e-05
-0.00222947
-0.000110219
-0.00228337
-0.000184147
-0.0023392
-0.000272938
-0.00239748
-0.000378088
-0.0024576
-0.000499613
-0.00251994
-0.000639114
-0.00258428
-0.000796901
-0.0026513
-0.000974069
-0.00272036
-0.00117167
-0.00279192
-0.00286664
-0.00139061
-0.00281854
-0.00156805
-0.00264144
-0.00154058
-0.00246681
-0.00151997
-0.0022953
-0.00150506
-0.00212876
-0.00149532
-0.00196712
-0.00149021
-0.00181011
-0.00149053
-0.00165872
-0.00149544
-0.00151217
-0.00150327
-0.00137078
-0.00151513
-0.00123448
-0.00153002
-0.00110542
-0.00154557
-0.000981039
-0.0015649
-0.000862431
-0.00158609
-0.000751191
-0.00160726
-0.0006454
-0.00163143
-0.000545549
-0.00165643
-0.000452351
-0.0016825
-0.000366817
-0.00170927
-0.000286921
-0.00173812
-0.000215158
-0.00176661
-0.000150618
-0.00179681
-9.45989e-05
-0.00182725
-4.63109e-05
-0.0018592
-6.50438e-06
-0.00189149
2.49521e-05
-0.00192539
4.6493e-05
-0.00195915
5.87145e-05
-0.00199483
6.01462e-05
-0.00203049
5.13338e-05
-0.00206777
3.13156e-05
-0.00210614
4.10576e-07
-0.0021456
-4.37262e-05
-0.00218534
-9.99443e-05
-0.00222715
-0.000169319
-0.00226983
-0.000252817
-0.00231399
-0.000350702
-0.00235972
-0.000463992
-0.00240665
-0.000592777
-0.0024555
-0.0007386
-0.00250548
-0.000901905
-0.00255706
-0.00108333
-0.00261049
-0.00266594
-0.00128404
-0.00249827
-0.00172939
-0.00233781
-0.00170103
-0.00218188
-0.00167591
-0.00202903
-0.0016579
-0.00188018
-0.00164417
-0.00173503
-0.00163537
-0.00159376
-0.0016318
-0.00145833
-0.00163086
-0.00132633
-0.00163527
-0.00119966
-0.0016418
-0.00107904
-0.00165064
-0.000961722
-0.00166288
-0.000850103
-0.00167652
-0.000745385
-0.0016908
-0.000644309
-0.00170833
-0.000549984
-0.00172575
-0.000461196
-0.00174522
-0.000378192
-0.00176551
-0.000301199
-0.00178626
-0.000231023
-0.0018083
-0.000166793
-0.00183084
-0.000110357
-0.00185324
-6.03066e-05
-0.0018773
-1.88978e-05
-0.00190061
1.60616e-05
-0.00192645
4.16742e-05
-0.001951
5.98087e-05
-0.00197728
6.84371e-05
-0.00200346
6.77414e-05
-0.0020298
5.78203e-05
-0.00205785
3.77366e-05
-0.00208606
6.45375e-06
-0.00211432
-3.50996e-05
-0.00214378
-8.84855e-05
-0.00217377
-0.000154098
-0.00220421
-0.000232057
-0.00223603
-0.000323253
-0.00226852
-0.000428068
-0.00230184
-0.000547563
-0.002336
-0.000682022
-0.00237102
-0.000832272
-0.00240681
-0.000998945
-0.00244382
-0.00248134
-0.00118355
-0.00222061
-0.00187561
-0.0020773
-0.00184434
-0.00193628
-0.00181692
-0.00179869
-0.0017955
-0.0016641
-0.00177876
-0.00153399
-0.00176547
-0.00140787
-0.00175791
-0.00128539
-0.00175335
-0.00116761
-0.00175305
-0.00105388
-0.00175554
-0.000943681
-0.00176084
-0.000839827
-0.00176674
-0.000740145
-0.0017762
-0.000644583
-0.00178637
-0.000555145
-0.00179777
-0.000469474
-0.00181143
-0.000390346
-0.00182435
-0.000315762
-0.00184009
-0.000247152
-0.00185487
-0.000184241
-0.00187121
-0.000127597
-0.00188749
-7.76192e-05
-0.00190322
-3.40066e-05
-0.00192091
3.08312e-06
-0.0019377
3.21739e-05
-0.00195554
5.48296e-05
-0.00197366
6.8814e-05
-0.00199127
7.50336e-05
-0.00200968
7.33937e-05
-0.00202816
6.24865e-05
-0.00204694
4.18618e-05
-0.00206543
1.22882e-05
-0.00208474
-2.73813e-05
-0.00210411
-7.82601e-05
-0.00212289
-0.000139698
-0.00214278
-0.000212682
-0.00216304
-0.000297231
-0.00218397
-0.000393804
-0.00220526
-0.000503975
-0.00222583
-0.000627804
-0.00224719
-0.000765982
-0.00226863
-0.000918476
-0.00229133
-0.00231363
-0.00108618
-0.00198224
-0.00200777
-0.00185313
-0.00197345
-0.00172466
-0.0019454
-0.00160105
-0.00191911
-0.00148036
-0.00189945
-0.0013618
-0.00188404
-0.00124832
-0.00187139
-0.00113791
-0.00186376
-0.00103055
-0.00186041
-0.000929495
-0.00185659
-0.000830358
-0.00185998
-0.000735867
-0.00186123
-0.000645501
-0.00186657
-0.000560378
-0.00187149
-0.00047847
-0.00187968
-0.000401938
-0.00188796
-0.00033028
-0.001896
-0.000264131
-0.00190624
-0.000201821
-0.00191718
-0.000145435
-0.0019276
-9.54503e-05
-0.00193747
-5.0138e-05
-0.00194853
-1.12074e-05
-0.00195984
2.01245e-05
-0.00196903
4.67278e-05
-0.00198214
6.43875e-05
-0.00199132
7.6591e-05
-0.00200347
8.09633e-05
-0.00201405
7.74222e-05
-0.00202462
6.58989e-05
-0.00203542
4.67247e-05
-0.00204626
1.74383e-05
-0.00205546
-2.06999e-05
-0.00206598
-6.78996e-05
-0.00207569
-0.00012517
-0.00208551
-0.000192741
-0.00209547
-0.000270809
-0.0021059
-0.000360891
-0.00211518
-0.000463125
-0.0021236
-0.000576897
-0.00213342
-0.000703416
-0.00214211
-0.00084405
-0.00215069
-0.000998029
-0.00215965
0.000674589
0.000784264
-0.000855451
-0.000603403
0.000730085
0.000699536
-0.000755031
0.000772333
0.000622551
-0.000664799
0.000803264
0.000552253
-0.000583184
0.000824524
0.000488553
-0.000509812
0.000837696
0.000431113
-0.000444286
0.000843959
0.000379067
-0.00038533
0.000844915
0.000332022
-0.000332978
0.000841877
0.000289561
-0.000286522
0.000835207
0.00025174
-0.00024507
0.000825938
0.000217828
-0.000208559
0.000815015
0.000187703
-0.00017678
0.000803075
0.000160684
-0.000148744
0.000790661
0.000137099
-0.000124685
0.000778042
0.000116313
-0.000103694
0.000765987
9.81005e-05
-8.60454e-05
0.000754601
8.22689e-05
-7.0883e-05
0.000744135
6.89985e-05
-5.85323e-05
0.000734749
5.75649e-05
-4.81795e-05
0.000726564
4.81816e-05
-3.99963e-05
0.000719818
4.05194e-05
-3.37733e-05
0.000714313
3.46567e-05
-2.91514e-05
0.000710225
3.00557e-05
-2.59681e-05
0.000707215
2.72577e-05
-2.42471e-05
0.000705416
2.55057e-05
-2.37074e-05
0.000704392
2.51983e-05
-2.41739e-05
0.000704131
2.60302e-05
-2.57692e-05
0.00070435
2.79508e-05
-2.81701e-05
0.000704551
3.11238e-05
-3.13245e-05
0.000704705
3.51638e-05
-3.53181e-05
0.000703975
4.06512e-05
-3.99212e-05
0.000701958
4.70557e-05
-4.50386e-05
0.000698122
5.47041e-05
-5.0868e-05
0.000691186
6.39007e-05
-5.69655e-05
0.000680038
7.48186e-05
-6.36703e-05
0.000662945
8.80449e-05
-7.09516e-05
0.000637404
0.000104484
-7.89432e-05
0.000599493
0.000125695
-8.77837e-05
0.000542778
0.000154799
-9.80853e-05
0.000456712
0.000197645
-0.000111578
0.000322473
0.000265763
-0.000131525
0.000101689
0.000385772
-0.000164988
0.000623368
-0.000300602
-0.000221078
0.000620882
0.000719917
-0.000556534
0.000672185
0.000648232
0.000712258
0.000582478
0.000742363
0.000522149
0.000763751
0.000467165
0.000778026
0.000416839
0.000786328
0.000370765
0.000789692
0.000328658
0.000788573
0.00029068
0.000784214
0.000256099
0.000777332
0.000224711
0.000768552
0.000196483
0.000758453
0.000170782
0.000747509
0.000148044
0.000736147
0.000127676
0.000724743
0.000109504
0.000713614
9.33982e-05
0.000703189
7.94235e-05
0.000693501
6.72525e-05
0.000684885
5.6798e-05
0.000677047
4.83572e-05
0.000670645
4.10587e-05
0.000665255
3.54459e-05
0.000661058
3.14541e-05
0.000657919
2.86454e-05
0.000655513
2.76045e-05
0.000653805
2.77375e-05
0.000652505
2.92511e-05
0.000651214
3.24147e-05
0.000649275
3.71033e-05
0.000646636
4.329e-05
0.000641919
5.17727e-05
0.000634085
6.25384e-05
0.000622122
7.58642e-05
0.000603981
9.2959e-05
0.000577372
0.000114654
0.000538558
0.000143298
0.000482853
0.0001814
0.000403563
0.00023409
0.00029105
0.000310158
0.000132394
0.000424419
-8.39549e-05
0.000602122
0.000884769
-0.000345355
0.000569041
0.000661282
-0.000510406
0.000616142
0.000601131
0.000653405
0.000545215
0.000681691
0.000493863
0.000702531
0.000446325
0.000717024
0.000402345
0.000726048
0.000361741
0.000730065
0.000324641
0.000730494
0.000290252
0.000727592
0.000259
0.000722403
0.000229901
0.000715269
0.000203617
0.000706683
0.000179368
0.000697068
0.000157659
0.000686817
0.000137926
0.00067645
0.000119871
0.000666057
0.000103791
0.000656073
8.94081e-05
0.000646486
7.68391e-05
0.000637446
6.5838e-05
0.000629459
5.6345e-05
0.00062218
4.83374e-05
0.000615621
4.20055e-05
0.000610132
3.69428e-05
0.000605218
3.35599e-05
0.000600906
3.19157e-05
0.000597165
3.14792e-05
0.00059328
3.31363e-05
0.000589058
3.66359e-05
0.000583953
4.22086e-05
0.000577269
4.9974e-05
0.000568148
6.08941e-05
0.000555643
7.50432e-05
0.000538046
9.34617e-05
0.000513492
0.000117512
0.000479482
0.000148665
0.000433357
0.000189422
0.000370631
0.000244126
0.000286004
0.000318717
0.000173475
0.000422687
2.71807e-05
0.000570713
-0.000154652
0.000783955
0.00108749
-0.000357369
0.000519724
0.000608029
-0.000466471
0.000563231
0.000557624
0.000597644
0.000510802
0.000624437
0.00046707
0.000644614
0.000426149
0.000658794
0.000388165
0.000668007
0.000352528
0.00067295
0.000319698
0.000674304
0.000288898
0.000672853
0.000260451
0.000668739
0.000234015
0.00066284
0.000209516
0.000655163
0.000187045
0.000646717
0.000166105
0.000637411
0.000147232
0.000627551
0.000129731
0.000617595
0.000113748
0.000607573
9.94304e-05
0.00059786
8.6552e-05
0.000588633
7.50651e-05
0.000579964
6.50136e-05
0.000571745
5.65569e-05
0.000564397
4.93534e-05
0.000557289
4.40505e-05
0.000550918
3.9931e-05
0.00054514
3.76944e-05
0.000539145
3.74735e-05
0.000533213
3.90693e-05
0.000526913
4.29352e-05
0.000519354
4.9768e-05
0.000510069
5.92591e-05
0.000498386
7.25771e-05
0.000483067
9.03624e-05
0.000462897
0.000113632
0.000436178
0.000144232
0.000400901
0.000183942
0.000354141
0.000236182
0.000292751
0.000305517
0.00021264
0.000398828
0.000109602
0.000525726
-2.01291e-05
0.000700444
-0.000177501
0.000941326
0.00126382
-0.000353834
0.000474259
0.000559963
-0.000426192
0.000513558
0.000518326
0.000545462
0.000478897
0.00057063
0.000441903
0.000589648
0.00040713
0.000603691
0.000374122
0.000612959
0.00034326
0.000618487
0.000314171
0.000620394
0.000286991
0.00061967
0.000261175
0.000616759
0.000236926
0.000611633
0.000214642
0.000605309
0.000193369
0.000597491
0.000173924
0.0005891
0.000155623
0.000579982
0.000138849
0.000570367
0.000123363
0.00056067
0.000109128
0.000551081
9.61409e-05
0.000541712
8.44343e-05
0.000532705
7.40202e-05
0.000523919
6.53427e-05
0.000515797
5.74756e-05
0.00050813
5.1718e-05
0.000500648
4.74127e-05
0.000493605
4.47378e-05
0.000486605
4.44731e-05
0.000479355
4.63193e-05
0.000471475
5.08154e-05
0.000462647
5.85961e-05
0.000451883
7.00233e-05
0.000438804
8.56561e-05
0.00042243
0.000106736
0.000401592
0.00013447
0.000375042
0.000170781
0.000340559
0.000218425
0.000295951
0.00028079
0.000238351
0.000363118
0.000164999
0.00047218
7.14336e-05
0.000619291
-4.3449e-05
0.000815327
-0.000181898
0.00107978
0.00142555
-0.000343625
0.000432049
0.000516874
-0.000388961
0.000468124
0.00048225
0.00049732
0.000449702
0.000520524
0.000418698
0.000538688
0.000388966
0.000551966
0.000360844
0.000561312
0.000333914
0.000566731
0.000308751
0.000569615
0.000284107
0.000569339
0.000261451
0.000566988
0.000239277
0.000563092
0.000218538
0.000557118
0.000199343
0.000550457
0.000180585
0.000542514
0.000163566
0.00053414
0.000147223
0.000525121
0.000132382
0.000516055
0.000118194
0.000506719
0.000105477
0.000497456
9.36978e-05
0.000488156
8.33201e-05
0.000479477
7.40213e-05
0.000470708
6.62445e-05
0.000462657
5.97693e-05
0.000454683
5.53869e-05
0.00044686
5.25613e-05
0.000439196
5.21371e-05
0.000431254
5.42613e-05
0.00042252
5.95489e-05
0.000413074
6.80423e-05
0.000401912
8.11857e-05
0.000388167
9.94009e-05
0.000371681
0.000123223
0.000351333
0.000154817
0.000325771
0.000196344
0.000293545
0.000250651
0.000252
0.000322335
0.000199276
0.000415842
0.000132189
0.000539267
4.84246e-05
0.000703056
-5.61312e-05
0.000919883
-0.000181739
0.00120538
0.00157232
-0.000328515
0.000393059
0.000477182
-0.000353366
0.000425971
0.000449338
0.000452892
0.000422782
0.000474385
0.000397206
0.000491175
0.000372176
0.000504011
0.000348008
0.00051305
0.000324876
0.000519125
0.000302676
0.000521703
0.000281529
0.000522343
0.000260812
0.000520606
0.000241014
0.00051696
0.000222185
0.000512275
0.000204028
0.000506025
0.000186835
0.000498916
0.000170675
0.000491106
0.000155034
0.00048295
0.000140538
0.000473996
0.000127148
0.000465056
0.000114417
0.000456086
0.000102667
0.000447326
9.20803e-05
0.000438454
8.28933e-05
0.000429894
7.48042e-05
0.000421349
6.83147e-05
0.000413204
6.3532e-05
0.000405129
6.06364e-05
0.000396977
6.02885e-05
0.000388532
6.2706e-05
0.000379911
6.81701e-05
0.000369984
7.79694e-05
0.000358899
9.22707e-05
0.000345549
0.000112751
0.000328758
0.000140014
0.000309071
0.000174504
0.000285439
0.000219975
0.000255605
0.000280485
0.000217771
0.000360169
0.000169697
0.000463917
0.000109065
0.000599899
3.26134e-05
0.000779508
-6.02929e-05
0.00101279
-0.000175302
0.00132039
0.00170966
-0.000312643
0.000357225
0.000441592
-0.000321636
0.000387282
0.000419281
0.000412058
0.000398006
0.0004318
0.000377463
0.000447553
0.000356423
0.000459777
0.000335783
0.000468398
0.000316256
0.00047428
0.000296793
0.0004773
0.000278509
0.000477769
0.000260342
0.000476661
0.000242122
0.00047397
0.000224876
0.000469354
0.000208644
0.000463793
0.000192395
0.000457565
0.000176903
0.00045026
0.000162339
0.000442569
0.000148229
0.000434346
0.00013537
0.000426041
0.000122723
0.000417457
0.000111251
0.000408835
0.000100703
0.000400237
9.14911e-05
0.000391751
8.329e-05
0.00038336
7.67056e-05
0.000375147
7.1745e-05
0.000367027
6.87566e-05
0.000358958
6.83575e-05
0.00035072
7.09445e-05
0.000341785
7.71045e-05
0.000332314
8.74404e-05
0.000321891
0.000102694
0.000309152
0.00012549
0.000292698
0.000156468
0.000273274
0.000193928
0.000251302
0.000241947
0.000224757
0.000307031
0.000190471
0.000394455
0.000146346
0.000508041
9.25458e-05
0.000653699
2.11773e-05
0.000850876
-6.24883e-05
0.00109645
-0.000168343
0.00142625
0.00183839
-0.000297071
0.000324579
-0.000291849
0.000408862
0.000352006
0.000391853
0.000374953
0.000375059
0.000393619
0.000358797
0.000408162
0.00034188
0.000419468
0.000324477
0.000428407
0.000307317
0.000434149
0.000291051
0.00043758
0.000275078
0.000438748
0.000259174
0.000437723
0.000243147
0.000435427
0.000227173
0.000432011
0.00021206
0.000426946
0.00019746
0.000421009
0.00018284
0.00041492
0.000168428
0.000407885
0.000155263
0.000400389
0.000142867
0.000392068
0.000131044
0.000384081
0.000119238
0.00037564
0.000109144
0.000367456
9.96753e-05
0.000359077
9.16692e-05