# Forces     
# CofR       : (0.000000e+00 0.000000e+00 0.000000e+00)
# Time       forces(pressure viscous porous) moment(pressure viscous porous)
5.000000e+00	((-5.600345e+02 -1.656335e+03 9.166938e-18) (5.116055e-01 -8.630286e-02 9.997700e-21) (0.000000e+00 0.000000e+00 0.000000e+00)) ((8.281674e+01 -2.800172e+01 -7.019292e+02) (4.315143e-03 2.558028e-02 -3.051161e-02) (0.000000e+00 0.000000e+00 0.000000e+00))
1.000000e+01	((-3.429756e+02 -1.008029e+03 5.199738e-18) (4.651496e-01 -1.436572e-01 3.043814e-20) (0.000000e+00 0.000000e+00 0.000000e+00)) ((5.040143e+01 -1.714878e+01 -4.311987e+02) (7.182861e-03 2.325748e-02 -5.507022e-02) (0.000000e+00 0.000000e+00 0.000000e+00))
1.500000e+01	((-1.210087e+02 -3.490454e+02 1.796133e-18) (4.533193e-01 -1.351394e-01 1.895131e-20) (0.000000e+00 0.000000e+00 0.000000e+00)) ((1.745227e+01 -6.050435e+00 -1.535156e+02) (6.756969e-03 2.266597e-02 -5.131799e-02) (0.000000e+00 0.000000e+00 0.000000e+00))
2.000000e+01	((-1.848877e+01 -4.468864e+01 2.849288e-19) (4.464503e-01 -1.185048e-01 8.095770e-21) (0.000000e+00 0.000000e+00 0.000000e+00)) ((2.234432e+00 -9.244383e-01 -2.526029e+01) (5.925242e-03 2.232252e-02 -4.420921e-02) (0.000000e+00 0.000000e+00 0.000000e+00))
2.500000e+01	((8.984297e+00 3.705269e+01 -1.495226e-19) (4.368891e-01 -1.079549e-01 4.556970e-21) (0.000000e+00 0.000000e+00 0.000000e+00)) ((-1.852635e+00 4.492149e-01 9.071558e+00) (5.397747e-03 2.184446e-02 -3.985956e-02) (0.000000e+00 0.000000e+00 0.000000e+00))
3.000000e+01	((1.050141e+01 4.261172e+01 -2.132400e-19) (4.256781e-01 -1.025692e-01 4.628633e-21) (0.000000e+00 0.000000e+00 0.000000e+00)) ((-2.130586e+00 5.250706e-01 1.074914e+01) (5.128460e-03 2.128391e-02 -3.776188e-02) (0.000000e+00 0.000000e+00 0.000000e+00))
3.500000e+01	((7.714540e+00 3.546424e+01 -1.948750e-19) (4.133778e-01 -9.929225e-02 5.718353e-21) (0.000000e+00 0.000000e+00 0.000000e+00)) ((-1.773212e+00 3.857270e-01 7.027494e+00) (4.964612e-03 2.066889e-02 -3.656132e-02) (0.000000e+00 0.000000e+00 0.000000e+00))
4.000000e+01	((6.187358e+00 3.168065e+01 -1.739494e-19) (4.018251e-01 -9.670375e-02 6.849098e-21) (0.000000e+00 0.000000e+00 0.000000e+00)) ((-1.584032e+00 3.093679e-01 4.960253e+00) (4.835188e-03 2.009125e-02 -3.565518e-02) (0.000000e+00 0.000000e+00 0.000000e+00))
4.500000e+01	((6.075385e+00 3.169081e+01 -1.583155e-19) (3.899006e-01 -9.408177e-02 7.635490e-21) (0.000000e+00 0.000000e+00 0.000000e+00)) ((-1.584541e+00 3.037693e-01 4.748620e+00) (4.704089e-03 1.949503e-02 -3.472085e-02) (0.000000e+00 0.000000e+00 0.000000e+00))
5.000000e+01	((6.311606e+00 3.258162e+01 -1.512906e-19) (3.786897e-01 -9.152862e-02 8.203397e-21) (0.000000e+00 0.000000e+00 0.000000e+00)) ((-1.629081e+00 3.155803e-01 5.004555e+00) (4.576431e-03 1.893449e-02 -3.380154e-02) (0.000000e+00 0.000000e+00 0.000000e+00))
5.500000e+01	((6.332293e+00 3.305715e+01 -1.551271e-19) (3.675128e-01 -8.898468e-02 8.696283e-21) (0.000000e+00 0.000000e+00 0.000000e+00)) ((-1.652857e+00 3.166146e-01 4.943941e+00) (4.449234e-03 1.837564e-02 -3.287408e-02) (0.000000e+00 0.000000e+00 0.000000e+00))
6.000000e+01	((6.432648e+00 3.378229e+01 -1.561053e-19) (3.564767e-01 -8.649989e-02 9.233625e-21) (0.000000e+00 0.000000e+00 0.000000e+00)) ((-1.689115e+00 3.216324e-01 4.980262e+00) (4.324994e-03 1.782383e-02 -3.196084e-02) (0.000000e+00 0.000000e+00 0.000000e+00))
6.500000e+01	((6.579890e+00 3.450274e+01 -1.509073e-19) (3.455402e-01 -8.408358e-02 9.529423e-21) (0.000000e+00 0.000000e+00 0.000000e+00)) ((-1.725137e+00 3.289945e-01 5.105290e+00) (4.204179e-03 1.727701e-02 -3.105485e-02) (0.000000e+00 0.000000e+00 0.000000e+00))
7.000000e+01	((6.679738e+00 3.515264e+01 -1.503424e-19) (3.346164e-01 -8.175446e-02 9.784249e-21) (0.000000e+00 0.000000e+00 0.000000e+00)) ((-1.757632e+00 3.339869e-01 5.156375e+00) (4.087723e-03 1.673082e-02 -3.015311e-02) (0.000000e+00 0.000000e+00 0.000000e+00))
7.500000e+01	((6.798054e+00 3.587964e+01 -1.498176e-19) (3.236193e-01 -7.948843e-02 1.004082e-20) (0.000000e+00 0.000000e+00 0.000000e+00)) ((-1.793982e+00 3.399027e-01 5.225914e+00) (3.974422e-03 1.618097e-02 -2.925295e-02) (0.000000e+00 0.000000e+00 0.000000e+00))
8.000000e+01	((6.916167e+00 3.659349e+01 -1.467862e-19) (3.126317e-01 -7.730438e-02 1.018489e-20) (0.000000e+00 0.000000e+00 0.000000e+00)) ((-1.829674e+00 3.458084e-01 5.297821e+00) (3.865219e-03 1.563159e-02 -2.835338e-02) (0.000000e+00 0.000000e+00 0.000000e+00))
8.500000e+01	((7.034870e+00 3.734978e+01 -1.444951e-19) (3.017565e-01 -7.519677e-02 1.030116e-20) (0.000000e+00 0.000000e+00 0.000000e+00)) ((-1.867489e+00 3.517435e-01 5.361965e+00) (3.759838e-03 1.508782e-02 -2.746386e-02) (0.000000e+00 0.000000e+00 0.000000e+00))
9.000000e+01	((7.159147e+00 3.815015e+01 -1.425263e-19) (2.912674e-01 -7.322611e-02 1.038522e-20) (0.000000e+00 0.000000e+00 0.000000e+00)) ((-1.907507e+00 3.579574e-01 5.427332e+00) (3.661306e-03 1.456337e-02 -2.660460e-02) (0.000000e+00 0.000000e+00 0.000000e+00))
9.500000e+01	((7.284407e+00 3.896733e+01 -1.402296e-19) (2.815241e-01 -7.146520e-02 1.041819e-20) (0.000000e+00 0.000000e+00 0.000000e+00)) ((-1.948367e+00 3.642203e-01 5.491025e+00) (3.573260e-03 1.407620e-02 -2.580851e-02) (0.000000e+00 0.000000e+00 0.000000e+00))
1.000000e+02	((7.407998e+00 3.980154e+01 -1.381364e-19) (2.723374e-01 -6.982933e-02 1.045720e-20) (0.000000e+00 0.000000e+00 0.000000e+00)) ((-1.990077e+00 3.703999e-01 5.548042e+00) (3.491467e-03 1.361687e-02 -2.506582e-02) (0.000000e+00 0.000000e+00 0.000000e+00))
1.050000e+02	((7.529721e+00 4.062147e+01 -1.362627e-19) (2.636124e-01 -6.825168e-02 1.048640e-20) (0.000000e+00 0.000000e+00 0.000000e+00)) ((-2.031073e+00 3.764860e-01 5.604545e+00) (3.412584e-03 1.318062e-02 -2.436274e-02) (0.000000e+00 0.000000e+00 0.000000e+00))
1.100000e+02	((7.648382e+00 4.143904e+01 -1.344857e-19) (2.552858e-01 -6.673059e-02 1.053599e-20) (0.000000e+00 0.000000e+00 0.000000e+00)) ((-2.071952e+00 3.824191e-01 5.655812e+00) (3.336529e-03 1.276429e-02 -2.369169e-02) (0.000000e+00 0.000000e+00 0.000000e+00))
1.150000e+02	((7.759510e+00 4.223072e+01 -1.332329e-19) (2.473982e-01 -6.528218e-02 1.064369e-20) (0.000000e+00 0.000000e+00 0.000000e+00)) ((-2.111536e+00 3.879755e-01 5.698393e+00) (3.264109e-03 1.236991e-02 -2.305709e-02) (0.000000e+00 0.000000e+00 0.000000e+00))
1.200000e+02	((7.865284e+00 4.299925e+01 -1.319645e-19) (2.398929e-01 -6.391155e-02 1.073109e-20) (0.000000e+00 0.000000e+00 0.000000e+00)) ((-2.149962e+00 3.932642e-01 5.735790e+00) (3.195577e-03 1.199464e-02 -2.245596e-02) (0.000000e+00 0.000000e+00 0.000000e+00))
1.250000e+02	((7.961257e+00 4.372546e+01 -1.309211e-19) (2.327186e-01 -6.259541e-02 1.083816e-20) (0.000000e+00 0.000000e+00 0.000000e+00)) ((-2.186273e+00 3.980628e-01 5.763687e+00) (3.129770e-03 1.163593e-02 -2.188518e-02) (0.000000e+00 0.000000e+00 0.000000e+00))
1.300000e+02	((8.044433e+00 4.438437e+01 -1.303642e-19) (2.258080e-01 -6.131992e-02 1.100722e-20) (0.000000e+00 0.000000e+00 0.000000e+00)) ((-2.219218e+00 4.022217e-01 5.781696e+00) (3.065996e-03 1.129040e-02 -2.133899e-02) (0.000000e+00 0.000000e+00 0.000000e+00))
1.350000e+02	((8.125487e+00 4.503205e+01 -1.297562e-19) (2.191253e-01 -6.007824e-02 1.118386e-20) (0.000000e+00 0.000000e+00 0.000000e+00)) ((-2.251602e+00 4.062743e-01 5.798080e+00) (3.003912e-03 1.095627e-02 -2.081347e-02) (0.000000e+00 0.000000e+00 0.000000e+00))
1.400000e+02	((8.190545e+00 4.560607e+01 -1.295078e-19) (2.126657e-01 -5.887925e-02 1.140514e-20) (0.000000e+00 0.000000e+00 0.000000e+00)) ((-2.280303e+00 4.095273e-01 5.799920e+00) (2.943962e-03 1.063328e-02 -2.030669e-02) (0.000000e+00 0.000000e+00 0.000000e+00))
1.450000e+02	((8.243674e+00 4.611467e+01 -1.294509e-19) (2.064044e-01 -5.773474e-02 1.166172e-20) (0.000000e+00 0.000000e+00 0.000000e+00)) ((-2.305734e+00 4.121837e-01 5.793102e+00) (2.886737e-03 1.032022e-02 -1.981532e-02) (0.000000e+00 0.000000e+00 0.000000e+00))
1.500000e+02	((8.287486e+00 4.656875e+01 -1.295080e-19) (2.003405e-01 -5.662937e-02 1.193145e-20) (0.000000e+00 0.000000e+00 0.000000e+00)) ((-2.328438e+00 4.143743e-01 5.780239e+00) (2.831469e-03 1.001702e-02 -1.934185e-02) (0.000000e+00 0.000000e+00 0.000000e+00))
1.550000e+02	((8.321640e+00 4.697578e+01 -1.295853e-19) (1.944379e-01 -5.556074e-02 1.218023e-20) (0.000000e+00 0.000000e+00 0.000000e+00)) ((-2.348789e+00 4.160820e-01 5.759132e+00) (2.778037e-03 9.721897e-03 -1.888270e-02) (0.000000e+00 0.000000e+00 0.000000e+00))
1.600000e+02	((8.346314e+00 4.732964e+01 -1.299095e-19) (1.887124e-01 -5.452604e-02 1.245419e-20) (0.000000e+00 0.000000e+00 0.000000e+00)) ((-2.366482e+00 4.173157e-01 5.731393e+00) (2.726302e-03 9.435618e-03 -1.843854e-02) (0.000000e+00 0.000000e+00 0.000000e+00))
1.650000e+02	((8.361886e+00 4.763113e+01 -1.304988e-19) (1.831467e-01 -5.352647e-02 1.274891e-20) (0.000000e+00 0.000000e+00 0.000000e+00)) ((-2.381557e+00 4.180943e-01 5.697558e+00) (2.676323e-03 9.157334e-03 -1.800746e-02) (0.000000e+00 0.000000e+00 0.000000e+00))
1.700000e+02	((8.369222e+00 4.788774e+01 -1.311528e-19) (1.777787e-01 -5.255753e-02 1.307468e-20) (0.000000e+00 0.000000e+00 0.000000e+00)) ((-2.394387e+00 4.184611e-01 5.657692e+00) (2.627877e-03 8.888936e-03 -1.759232e-02) (0.000000e+00 0.000000e+00 0.000000e+00))
1.750000e+02	((8.369202e+00 4.809299e+01 -1.319314e-19) (1.725588e-01 -5.161875e-02 1.339808e-20) (0.000000e+00 0.000000e+00 0.000000e+00)) ((-2.404649e+00 4.184601e-01 5.614787e+00) (2.580937e-03 8.627941e-03 -1.718935e-02) (0.000000e+00 0.000000e+00 0.000000e+00))
1.800000e+02	((8.363031e+00 4.826416e+01 -1.327574e-19) (1.675165e-01 -5.070800e-02 1.375456e-20) (0.000000e+00 0.000000e+00 0.000000e+00)) ((-2.413208e+00 4.181515e-01 5.567488e+00) (2.535400e-03 8.375826e-03 -1.680031e-02) (0.000000e+00 0.000000e+00 0.000000e+00))
1.850000e+02	((8.351124e+00 4.839110e+01 -1.336652e-19) (1.626305e-01 -4.982492e-02 1.412563e-20) (0.000000e+00 0.000000e+00 0.000000e+00)) ((-2.419555e+00 4.175562e-01 5.518699e+00) (2.491246e-03 8.131524e-03 -1.642337e-02) (0.000000e+00 0.000000e+00 0.000000e+00))
1.900000e+02	((8.335111e+00 4.848838e+01 -1.346328e-19) (1.579067e-01 -4.896716e-02 1.450195e-20) (0.000000e+00 0.000000e+00 0.000000e+00)) ((-2.424419e+00 4.167556e-01 5.468420e+00) (2.448358e-03 7.895335e-03 -1.605898e-02) (0.000000e+00 0.000000e+00 0.000000e+00))
1.950000e+02	((8.313772e+00 4.855615e+01 -1.356160e-19) (1.533151e-01 -4.813488e-02 1.488773e-20) (0.000000e+00 0.000000e+00 0.000000e+00)) ((-2.427808e+00 4.156886e-01 5.414337e+00) (2.406744e-03 7.665756e-03 -1.570472e-02) (0.000000e+00 0.000000e+00 0.000000e+00))
2.000000e+02	((8.291104e+00 4.859747e+01 -1.367147e-19) (1.488882e-01 -4.732561e-02 1.527785e-20) (0.000000e+00 0.000000e+00 0.000000e+00)) ((-2.429873e+00 4.145552e-01 5.363295e+00) (2.366281e-03 7.444410e-03 -1.536259e-02) (0.000000e+00 0.000000e+00 0.000000e+00))
2.050000e+02	((8.264784e+00 4.861161e+01 -1.377674e-19) (1.445928e-01 -4.653948e-02 1.568345e-20) (0.000000e+00 0.000000e+00 0.000000e+00)) ((-2.430580e+00 4.132392e-01 5.311096e+00) (2.326974e-03 7.229640e-03 -1.503025e-02) (0.000000e+00 0.000000e+00 0.000000e+00))
2.100000e+02	((8.237386e+00 4.860957e+01 -1.388483e-19) (1.404385e-01 -4.577550e-02 1.609349e-20) (0.000000e+00 0.000000e+00 0.000000e+00)) ((-2.430478e+00 4.118693e-01 5.260257e+00) (2.288775e-03 7.021923e-03 -1.470813e-02) (0.000000e+00 0.000000e+00 0.000000e+00))
2.150000e+02	((8.208574e+00 4.859106e+01 -1.399415e-19) (1.364297e-01 -4.503225e-02 1.650359e-20) (0.000000e+00 0.000000e+00 0.000000e+00)) ((-2.429553e+00 4.104287e-01 5.210214e+00) (2.251613e-03 6.821487e-03 -1.439639e-02) (0.000000e+00 0.000000e+00 0.000000e+00))
2.200000e+02	((8.178696e+00 4.855608e+01 -1.410490e-19) (1.325432e-01 -4.430756e-02 1.693080e-20) (0.000000e+00 0.000000e+00 0.000000e+00)) ((-2.427804e+00 4.089348e-01 5.161615e+00) (2.215378e-03 6.627162e-03 -1.409389e-02) (0.000000e+00 0.000000e+00 0.000000e+00))
2.250000e+02	((8.148548e+00 4.850937e+01 -1.421624e-19) (1.287950e-01 -4.360055e-02 1.735192e-20) (0.000000e+00 0.000000e+00 0.000000e+00)) ((-2.425468e+00 4.074274e-01 5.114964e+00) (2.180028e-03 6.439749e-03 -1.380159e-02) (0.000000e+00 0.000000e+00 0.000000e+00))
2.300000e+02	((8.118000e+00 4.845179e+01 -1.432784e-19) (1.251681e-01 -4.291221e-02 1.778429e-20) (0.000000e+00 0.000000e+00 0.000000e+00)) ((-2.422589e+00 4.059000e-01 5.069832e+00) (2.145610e-03 6.258403e-03 -1.351826e-02) (0.000000e+00 0.000000e+00 0.000000e+00))
2.350000e+02	((8.086454e+00 4.838182e+01 -1.445108e-19) (1.216712e-01 -4.224309e-02 1.828596e-20) (0.000000e+00 0.000000e+00 0.000000e+00)) ((-2.419091e+00 4.043227e-01 5.025419e+00) (2.112155e-03 6.083561e-03 -1.324439e-02) (0.000000e+00 0.000000e+00 0.000000e+00))
2.400000e+02	((8.055137e+00 4.830659e+01 -1.457497e-19) (1.182893e-01 -4.159278e-02 1.879444e-20) (0.000000e+00 0.000000e+00 0.000000e+00)) ((-2.415329e+00 4.027569e-01 4.982538e+00) (2.079639e-03 5.914466e-03 -1.297942e-02) (0.000000e+00 0.000000e+00 0.000000e+00))
2.450000e+02	((8.026223e+00 4.823188e+01 -1.468081e-19) (1.150210e-01 -4.096356e-02 1.925211e-20) (0.000000e+00 0.000000e+00 0.000000e+00)) ((-2.411594e+00 4.013111e-01 4.944041e+00) (2.048178e-03 5.751051e-03 -1.272295e-02) (0.000000e+00 0.000000e+00 0.000000e+00))
2.500000e+02	((7.994708e+00 4.814027e+01 -1.477813e-19) (1.118732e-01 -4.035456e-02 1.964810e-20) (0.000000e+00 0.000000e+00 0.000000e+00)) ((-2.407013e+00 3.997354e-01 4.904207e+00) (2.017728e-03 5.593660e-03 -1.247589e-02) (0.000000e+00 0.000000e+00 0.000000e+00))
2.550000e+02	((7.963926e+00 4.804713e+01 -1.489183e-19) (1.088368e-01 -3.976357e-02 2.008225e-20) (0.000000e+00 0.000000e+00 0.000000e+00)) ((-2.402357e+00 3.981963e-01 4.866064e+00) (1.988179e-03 5.441841e-03 -1.223770e-02) (0.000000e+00 0.000000e+00 0.000000e+00))
2.600000e+02	((7.932655e+00 4.794901e+01 -1.500561e-19) (1.058988e-01 -3.919018e-02 2.053125e-20) (0.000000e+00 0.000000e+00 0.000000e+00)) ((-2.397451e+00 3.966328e-01 4.828048e+00) (1.959509e-03 5.294940e-03 -1.200706e-02) (0.000000e+00 0.000000e+00 0.000000e+00))
2.650000e+02	((7.901454e+00 4.784593e+01 -1.509963e-19) (1.030590e-01 -3.863225e-02 2.091726e-20) (0.000000e+00 0.000000e+00 0.000000e+00)) ((-2.392297e+00 3.950727e-01 4.791198e+00) (1.931612e-03 5.152950e-03 -1.178402e-02) (0.000000e+00 0.000000e+00 0.000000e+00))
2.700000e+02	((7.869662e+00 4.773742e+01 -1.520982e-19) (1.003163e-01 -3.808802e-02 2.129805e-20) (0.000000e+00 0.000000e+00 0.000000e+00)) ((-2.386871e+00 3.934831e-01 4.754376e+00) (1.904401e-03 5.015816e-03 -1.156845e-02) (0.000000e+00 0.000000e+00 0.000000e+00))
2.750000e+02	((7.837691e+00 4.762501e+01 -1.530659e-19) (9.765958e-02 -3.755633e-02 2.162627e-20) (0.000000e+00 0.000000e+00 0.000000e+00)) ((-2.381250e+00 3.918846e-01 4.718035e+00) (1.877816e-03 4.882979e-03 -1.135962e-02) (0.000000e+00 0.000000e+00 0.000000e+00))
2.800000e+02	((7.805010e+00 4.750781e+01 -1.539426e-19) (9.508646e-02 -3.703665e-02 2.194711e-20) (0.000000e+00 0.000000e+00 0.000000e+00)) ((-2.375390e+00 3.902505e-01 4.681363e+00) (1.851833e-03 4.754323e-03 -1.115727e-02) (0.000000e+00 0.000000e+00 0.000000e+00))
2.850000e+02	((7.772999e+00 4.739195e+01 -1.547044e-19) (9.259425e-02 -3.652847e-02 2.224198e-20) (0.000000e+00 0.000000e+00 0.000000e+00)) ((-2.369597e+00 3.886499e-01 4.645667e+00) (1.826423e-03 4.629713e-03 -1.096117e-02) (0.000000e+00 0.000000e+00 0.000000e+00))
2.900000e+02	((7.737771e+00 4.726466e+01 -1.554516e-19) (9.016984e-02 -3.603086e-02 2.249468e-20) (0.000000e+00 0.000000e+00 0.000000e+00)) ((-2.363233e+00 3.868885e-01 4.606338e+00) (1.801543e-03 4.508492e-03 -1.077060e-02) (0.000000e+00 0.000000e+00 0.000000e+00))
2.950000e+02	((7.705610e+00 4.714398e+01 -1.560957e-19) (8.782323e-02 -3.554359e-02 2.271758e-20) (0.000000e+00 0.000000e+00 0.000000e+00)) ((-2.357199e+00 3.852805e-01 4.571367e+00) (1.777180e-03 4.391162e-03 -1.058602e-02) (0.000000e+00 0.000000e+00 0.000000e+00))
3.000000e+02	((7.671997e+00 4.701783e+01 -1.565904e-19) (8.554841e-02 -3.506618e-02 2.293981e-20) (0.000000e+00 0.000000e+00 0.000000e+00)) ((-2.350892e+00 3.835999e-01 4.534822e+00) (1.753309e-03 4.277420e-03 -1.040697e-02) (0.000000e+00 0.000000e+00 0.000000e+00))
3.050000e+02	((7.638403e+00 4.689089e+01 -1.571016e-19) (8.334664e-02 -3.459840e-02 2.320726e-20) (0.000000e+00 0.000000e+00 0.000000e+00)) ((-2.344545e+00 3.819201e-01 4.498477e+00) (1.729920e-03 4.167332e-03 -1.023346e-02) (0.000000e+00 0.000000e+00 0.000000e+00))
3.100000e+02	((7.605854e+00 4.676761e+01 -1.574218e-19) (8.120971e-02 -3.413965e-02 2.346149e-20) (0.000000e+00 0.000000e+00 0.000000e+00)) ((-2.338381e+00 3.802927e-01 4.463325e+00) (1.706983e-03 4.060485e-03 -1.006491e-02) (0.000000e+00 0.000000e+00 0.000000e+00))
3.150000e+02	((7.569929e+00 4.663292e+01 -1.577599e-19) (7.913416e-02 -3.368968e-02 2.379615e-20) (0.000000e+00 0.000000e+00 0.000000e+00)) ((-2.331646e+00 3.784964e-01 4.424236e+00) (1.684484e-03 3.956708e-03 -9.901371e-03) (0.000000e+00 0.000000e+00 0.000000e+00))
3.200000e+02	((7.535351e+00 4.650340e+01 -1.579843e-19) (7.711852e-02 -3.324788e-02 2.408883e-20) (0.000000e+00 0.000000e+00 0.000000e+00)) ((-2.325170e+00 3.767675e-01 4.386591e+00) (1.662394e-03 3.855926e-03 -9.742422e-03) (0.000000e+00 0.000000e+00 0.000000e+00))
3.250000e+02	((7.502355e+00 4.637868e+01 -1.580530e-19) (7.516107e-02 -3.281380e-02 2.425001e-20) (0.000000e+00 0.000000e+00 0.000000e+00)) ((-2.318934e+00 3.751178e-01 4.350902e+00) (1.640690e-03 3.758053e-03 -9.587846e-03) (0.000000e+00 0.000000e+00 0.000000e+00))
3.300000e+02	((7.469111e+00 4.625143e+01 -1.581754e-19) (7.326262e-02 -3.238731e-02 2.433832e-20) (0.000000e+00 0.000000e+00 0.000000e+00)) ((-2.312572e+00 3.734556e-01 4.315277e+00) (1.619366e-03 3.663131e-03 -9.437770e-03) (0.000000e+00 0.000000e+00 0.000000e+00))
3.350000e+02	((7.435477e+00 4.612470e+01 -1.580870e-19) (7.141814e-02 -3.196813e-02 2.433387e-20) (0.000000e+00 0.000000e+00 0.000000e+00)) ((-2.306235e+00 3.717739e-01 4.278813e+00) (1.598407e-03 3.570907e-03 -9.291808e-03) (0.000000e+00 0.000000e+00 0.000000e+00))
3.400000e+02	((7.402133e+00 4.600077e+01 -1.579200e-19) (6.962495e-02 -3.155570e-02 2.450979e-20) (0.000000e+00 0.000000e+00 0.000000e+00)) ((-2.300038e+00 3.701067e-01 4.242310e+00) (1.577785e-03 3.481247e-03 -9.149693e-03) (0.000000e+00 0.000000e+00 0.000000e+00))
3.450000e+02	((7.369634e+00 4.587885e+01 -1.577930e-19) (6.788135e-02 -3.114998e-02 2.479952e-20) (0.000000e+00 0.000000e+00 0.000000e+00)) ((-2.293943e+00 3.684817e-01 4.206964e+00) (1.557499e-03 3.394068e-03 -9.011282e-03) (0.000000e+00 0.000000e+00 0.000000e+00))
3.500000e+02	((7.337138e+00 4.575857e+01 -1.573433e-19) (6.618604e-02 -3.075083e-02 2.483070e-20) (0.000000e+00 0.000000e+00 0.000000e+00)) ((-2.287928e+00 3.668569e-01 4.171285e+00) (1.537541e-03 3.309302e-03 -8.876485e-03) (0.000000e+00 0.000000e+00 0.000000e+00))
3.550000e+02	((7.305364e+00 4.564216e+01 -1.568964e-19) (6.453953e-02 -3.035813e-02 2.476224e-20) (0.000000e+00 0.000000e+00 0.000000e+00)) ((-2.282108e+00 3.652682e-01 4.136144e+00) (1.517907e-03 3.226976e-03 -8.745285e-03) (0.000000e+00 0.000000e+00 0.000000e+00))
3.600000e+02	((7.274614e+00 4.552909e+01 -1.563828e-19) (6.293784e-02 -2.997160e-02 2.475558e-20) (0.000000e+00 0.000000e+00 0.000000e+00)) ((-2.276455e+00 3.637307e-01 4.102224e+00) (1.498580e-03 3.146892e-03 -8.617425e-03) (0.000000e+00 0.000000e+00 0.000000e+00))
3.650000e+02	((7.244187e+00 4.541804e+01 -1.557590e-19) (6.138121e-02 -2.959172e-02 2.243370e-20) (0.000000e+00 0.000000e+00 0.000000e+00)) ((-2.270902e+00 3.622093e-01 4.068488e+00) (1.479586e-03 3.069061e-03 -8.493034e-03) (0.000000e+00 0.000000e+00 0.000000e+00))
3.700000e+02	((7.214227e+00 4.531012e+01 -1.550142e-19) (5.986825e-02 -2.921826e-02 1.963272e-20) (0.000000e+00 0.000000e+00 0.000000e+00)) ((-2.265506e+00 3.607113e-01 4.034970e+00) (1.460913e-03 2.993413e-03 -8.371933e-03) (0.000000e+00 0.000000e+00 0.000000e+00))
3.750000e+02	((7.185042e+00 4.520619e+01 -1.541432e-19) (5.839691e-02 -2.885073e-02 2.383587e-20) (0.000000e+00 0.000000e+00 0.000000e+00)) ((-2.260310e+00 3.592521e-01 4.002068e+00) (1.442536e-03 2.919845e-03 -8.253873e-03) (0.000000e+00 0.000000e+00 0.000000e+00))
3.800000e+02	((7.156622e+00 4.510592e+01 -1.531407e-19) (5.696761e-02 -2.848886e-02 2.585494e-20) (0.000000e+00 0.000000e+00 0.000000e+00)) ((-2.255296e+00 3.578311e-01 3.969835e+00) (1.424443e-03 2.848381e-03 -8.138803e-03) (0.000000e+00 0.000000e+00 0.000000e+00))
3.850000e+02	((7.128948e+00 4.500920e+01 -1.520057e-19) (5.557798e-02 -2.813240e-02 2.569320e-20) (0.000000e+00 0.000000e+00 0.000000e+00)) ((-2.250460e+00 3.564474e-01 3.938257e+00) (1.406620e-03 2.778899e-03 -8.026531e-03) (0.000000e+00 0.000000e+00 0.000000e+00))
3.900000e+02	((7.102047e+00 4.491623e+01 -1.507327e-19) (5.422599e-02 -2.778108e-02 2.609142e-20) (0.000000e+00 0.000000e+00 0.000000e+00)) ((-2.245812e+00 3.551024e-01 3.907340e+00) (1.389054e-03 2.711300e-03 -7.916918e-03) (0.000000e+00 0.000000e+00 0.000000e+00))
3.950000e+02	((7.075920e+00 4.482710e+01 -1.493163e-19) (5.291091e-02 -2.743479e-02 2.729043e-20) (0.000000e+00 0.000000e+00 0.000000e+00)) ((-2.241355e+00 3.537960e-01 3.877069e+00) (1.371740e-03 2.645546e-03 -7.809866e-03) (0.000000e+00 0.000000e+00 0.000000e+00))
4.000000e+02	((7.050578e+00 4.474185e+01 -1.477562e-19) (5.162999e-02 -2.709334e-02 2.784889e-20) (0.000000e+00 0.000000e+00 0.000000e+00)) ((-2.237093e+00 3.525289e-01 3.847459e+00) (1.354667e-03 2.581499e-03 -7.705172e-03) (0.000000e+00 0.000000e+00 0.000000e+00))
4.050000e+02	((7.026044e+00 4.466050e+01 -1.460524e-19) (5.038283e-02 -2.675655e-02 2.806771e-20) (0.000000e+00 0.000000e+00 0.000000e+00)) ((-2.233025e+00 3.513022e-01 3.818544e+00) (1.337828e-03 2.519142e-03 -7.602762e-03) (0.000000e+00 0.000000e+00 0.000000e+00))
4.100000e+02	((7.002338e+00 4.458304e+01 -1.442068e-19) (4.916934e-02 -2.642433e-02 2.810144e-20) (0.000000e+00 0.000000e+00 0.000000e+00)) ((-2.229152e+00 3.501169e-01 3.790365e+00) (1.321216e-03 2.458467e-03 -7.502589e-03) (0.000000e+00 0.000000e+00 0.000000e+00))
4.150000e+02	((6.979499e+00 4.450978e+01 -1.423553e-19) (4.798689e-02 -2.609643e-02 2.809082e-20) (0.000000e+00 0.000000e+00 0.000000e+00)) ((-2.225489e+00 3.489750e-01 3.762934e+00) (1.304822e-03 2.399345e-03 -7.404451e-03) (0.000000e+00 0.000000e+00 0.000000e+00))
4.200000e+02	((6.957461e+00 4.443927e+01 -1.402681e-19) (4.683554e-02 -2.577276e-02 2.801081e-20) (0.000000e+00 0.000000e+00 0.000000e+00)) ((-2.221964e+00 3.478730e-01 3.736425e+00) (1.288638e-03 2.341777e-03 -7.308356e-03) (0.000000e+00 0.000000e+00 0.000000e+00))
4.250000e+02	((6.935913e+00 4.437309e+01 -1.380076e-19) (4.571384e-02 -2.545322e-02 2.810167e-20) (0.000000e+00 0.000000e+00 0.000000e+00)) ((-2.218654e+00 3.467956e-01 3.709930e+00) (1.272661e-03 2.285692e-03 -7.214149e-03) (0.000000e+00 0.000000e+00 0.000000e+00))
4.300000e+02	((6.915516e+00 4.431138e+01 -1.356300e-19) (4.462083e-02 -2.513776e-02 2.831232e-20) (0.000000e+00 0.000000e+00 0.000000e+00)) ((-2.215569e+00 3.457758e-01 3.684654e+00) (1.256888e-03 2.231041e-03 -7.121754e-03) (0.000000e+00 0.000000e+00 0.000000e+00))
4.350000e+02	((6.895840e+00 4.425275e+01 -1.331384e-19) (4.355610e-02 -2.482634e-02 2.863009e-20) (0.000000e+00 0.000000e+00 0.000000e+00)) ((-2.212638e+00 3.447920e-01 3.660083e+00) (1.241317e-03 2.177805e-03 -7.031136e-03) (0.000000e+00 0.000000e+00 0.000000e+00))
4.400000e+02	((6.876881e+00 4.419754e+01 -1.305426e-19) (4.251858e-02 -2.451886e-02 2.899935e-20) (0.000000e+00 0.000000e+00 0.000000e+00)) ((-2.209877e+00 3.438440e-01 3.636142e+00) (1.225943e-03 2.125929e-03 -6.942210e-03) (0.000000e+00 0.000000e+00 0.000000e+00))
4.450000e+02	((6.858763e+00 4.414612e+01 -1.278526e-19) (4.150699e-02 -2.421522e-02 2.909436e-20) (0.000000e+00 0.000000e+00 0.000000e+00)) ((-2.207306e+00 3.429382e-01 3.612981e+00) (1.210761e-03 2.075349e-03 -6.854879e-03) (0.000000e+00 0.000000e+00 0.000000e+00))
4.500000e+02	((6.841460e+00 4.409825e+01 -1.250793e-19) (4.052149e-02 -2.391549e-02 2.898293e-20) (0.000000e+00 0.000000e+00 0.000000e+00)) ((-2.204913e+00 3.420730e-01 3.590604e+00) (1.195775e-03 2.026075e-03 -6.769150e-03) (0.000000e+00 0.000000e+00 0.000000e+00))
4.550000e+02	((6.824956e+00 4.405383e+01 -1.222349e-19) (3.956066e-02 -2.361971e-02 2.890208e-20) (0.000000e+00 0.000000e+00 0.000000e+00)) ((-2.202691e+00 3.412478e-01 3.569002e+00) (1.180985e-03 1.978033e-03 -6.684966e-03) (0.000000e+00 0.000000e+00 0.000000e+00))
4.600000e+02	((6.809277e+00 4.401287e+01 -1.193300e-19) (3.862451e-02 -2.332797e-02 2.873104e-20) (0.000000e+00 0.000000e+00 0.000000e+00)) ((-2.200643e+00 3.404638e-01 3.548220e+00) (1.166399e-03 1.931226e-03 -6.602353e-03) (0.000000e+00 0.000000e+00 0.000000e+00))
4.650000e+02	((6.794422e+00 4.397528e+01 -1.163741e-19) (3.771308e-02 -2.304038e-02 2.834413e-20) (0.000000e+00 0.000000e+00 0.000000e+00)) ((-2.198764e+00 3.397211e-01 3.528276e+00) (1.152019e-03 1.885654e-03 -6.521335e-03) (0.000000e+00 0.000000e+00 0.000000e+00))
4.700000e+02	((6.780337e+00 4.394139e+01 -1.133437e-19) (3.682490e-02 -2.275699e-02 2.791846e-20) (0.000000e+00 0.000000e+00 0.000000e+00)) ((-2.197069e+00 3.390168e-01 3.509000e+00) (1.137849e-03 1.841245e-03 -6.441847e-03) (0.000000e+00 0.000000e+00 0.000000e+00))
4.750000e+02	((6.767569e+00 4.391090e+01 -1.103314e-19) (3.596038e-02 -2.247781e-02 2.725925e-20) (0.000000e+00 0.000000e+00 0.000000e+00)) ((-2.195545e+00 3.383784e-01 3.491476e+00) (1.123891e-03 1.798019e-03 -6.363926e-03) (0.000000e+00 0.000000e+00 0.000000e+00))
4.800000e+02	((6.755021e+00 4.388236e+01 -1.072903e-19) (3.511910e-02 -2.220303e-02 2.707014e-20) (0.000000e+00 0.000000e+00 0.000000e+00)) ((-2.194118e+00 3.377511e-01 3.473962e+00) (1.110151e-03 1.755955e-03 -6.287606e-03) (0.000000e+00 0.000000e+00 0.000000e+00))
4.850000e+02	((6.743155e+00 4.385758e+01 -1.041997e-19) (3.429980e-02 -2.193263e-02 2.791789e-20) (0.000000e+00 0.000000e+00 0.000000e+00)) ((-2.192879e+00 3.371578e-01 3.456933e+00) (1.096632e-03 1.714990e-03 -6.212826e-03) (0.000000e+00 0.000000e+00 0.000000e+00))
4.900000e+02	((6.732940e+00 4.383709e+01 -1.011402e-19) (3.350300e-02 -2.166675e-02 2.864945e-20) (0.000000e+00 0.000000e+00 0.000000e+00)) ((-2.191855e+00 3.366470e-01 3.442099e+00) (1.083337e-03 1.675150e-03 -6.139607e-03) (0.000000e+00 0.000000e+00 0.000000e+00))
4.950000e+02	((6.723026e+00 4.381813e+01 -9.805454e-20) (3.272791e-02 -2.140552e-02 2.923545e-20) (0.000000e+00 0.000000e+00 0.000000e+00)) ((-2.190907e+00 3.361513e-01 3.427510e+00) (1.070276e-03 1.636395e-03 -6.068006e-03) (0.000000e+00 0.000000e+00 0.000000e+00))
5.000000e+02	((6.714230e+00 4.380310e+01 -9.504264e-20) (3.197439e-02 -2.114898e-02 2.927105e-20) (0.000000e+00 0.000000e+00 0.000000e+00)) ((-2.190155e+00 3.357115e-01 3.414191e+00) (1.057449e-03 1.598720e-03 -5.998009e-03) (0.000000e+00 0.000000e+00 0.000000e+00))
5.050000e+02	((6.706022e+00 4.379059e+01 -9.192421e-20) (3.124229e-02 -2.089732e-02 2.855414e-20) (0.000000e+00 0.000000e+00 0.000000e+00)) ((-2.189529e+00 3.353011e-01 3.401446e+00) (1.044866e-03 1.562114e-03 -5.929681e-03) (0.000000e+00 0.000000e+00 0.000000e+00))
5.100000e+02	((6.698942e+00 4.378173e+01 -8.892221e-20) (3.053098e-02 -2.065060e-02 2.754351e-20) (0.000000e+00 0.000000e+00 0.000000e+00)) ((-2.189086e+00 3.349471e-01 3.390050e+00) (1.032530e-03 1.526549e-03 -5.863006e-03) (0.000000e+00 0.000000e+00 0.000000e+00))
5.150000e+02	((6.692834e+00 4.377574e+01 -8.588303e-20) (2.984035e-02 -2.040889e-02 2.593332e-20) (0.000000e+00 0.000000e+00 0.000000e+00)) ((-2.188787e+00 3.346417e-01 3.379872e+00) (1.020445e-03 1.492017e-03 -5.798016e-03) (0.000000e+00 0.000000e+00 0.000000e+00))
5.200000e+02	((6.687576e+00 4.377246e+01 -8.294314e-20) (2.916956e-02 -2.017218e-02 2.445838e-20) (0.000000e+00 0.000000e+00 0.000000e+00)) ((-2.188623e+00 3.343788e-01 3.370720e+00) (1.008609e-03 1.458478e-03 -5.734693e-03) (0.000000e+00 0.000000e+00 0.000000e+00))
5.250000e+02	((6.683198e+00 4.377212e+01 -7.996424e-20) (2.851817e-02 -1.994046e-02 2.291503e-20) (0.000000e+00 0.000000e+00 0.000000e+00)) ((-2.188606e+00 3.341599e-01 3.362599e+00) (9.970232e-04 1.425909e-03 -5.673030e-03) (0.000000e+00 0.000000e+00 0.000000e+00))
5.300000e+02	((6.679994e+00 4.377473e+01 -7.715024e-20) (2.788633e-02 -1.971376e-02 2.056062e-20) (0.000000e+00 0.000000e+00 0.000000e+00)) ((-2.188737e+00 3.339997e-01 3.356058e+00) (9.856881e-04 1.394317e-03 -5.613055e-03) (0.000000e+00 0.000000e+00 0.000000e+00))
5.350000e+02	((6.677120e+00 4.377978e+01 -7.420546e-20) (2.727178e-02 -1.949210e-02 1.772989e-20) (0.000000e+00 0.000000e+00 0.000000e+00)) ((-2.188989e+00 3.338560e-01 3.349626e+00) (9.746048e-04 1.363589e-03 -5.554688e-03) (0.000000e+00 0.000000e+00 0.000000e+00))
5.400000e+02	((6.675824e+00 4.378873e+01 -7.131325e-20) (2.667569e-02 -1.927547e-02 1.487453e-20) (0.000000e+00 0.000000e+00 0.000000e+00)) ((-2.189437e+00 3.337912e-01 3.345332e+00) (9.637733e-04 1.333784e-03 -5.497983e-03) (0.000000e+00 0.000000e+00 0.000000e+00))
5.450000e+02	((6.675345e+00 4.379977e+01 -6.854240e-20) (2.609718e-02 -1.906392e-02 1.210542e-20) (0.000000e+00 0.000000e+00 0.000000e+00)) ((-2.189989e+00 3.337672e-01 3.342128e+00) (9.531960e-04 1.304859e-03 -5.442946e-03) (0.000000e+00 0.000000e+00 0.000000e+00))
5.500000e+02	((6.675686e+00 4.381356e+01 -6.576731e-20) (2.553560e-02 -1.885744e-02 9.667545e-21) (0.000000e+00 0.000000e+00 0.000000e+00)) ((-2.190678e+00 3.337843e-01 3.339888e+00) (9.428721e-04 1.276780e-03 -5.389560e-03) (0.000000e+00 0.000000e+00 0.000000e+00))
5.550000e+02	((6.677150e+00 4.383045e+01 -6.309540e-20) (2.499033e-02 -1.865593e-02 8.307159e-21) (0.000000e+00 0.000000e+00 0.000000e+00)) ((-2.191522e+00 3.338575e-01 3.339100e+00) (9.327966e-04 1.249516e-03 -5.337791e-03) (0.000000e+00 0.000000e+00 0.000000e+00))