/*--------------------------------*- C++ -*----------------------------------*\
| =========                 |                                                 |
| \\      /  F ield         | OpenFOAM: The Open Source CFD Toolbox           |
|  \\    /   O peration     | Version:  2.3.0                                 |
|   \\  /    A nd           | Web:      www.OpenFOAM.org                      |
|    \\/     M anipulation  |                                                 |
\*---------------------------------------------------------------------------*/
FoamFile
{
    version     2.0;
    format      ascii;
    class       volScalarField;
    location    "10000";
    object      nuTilda;
}
// * * * * * * * * * * * * * * * * * * * * * * * * * * * * * * * * * * * * * //

dimensions      [0 2 -1 0 0 0 0];

internalField   nonuniform List<scalar> 
122108
(
0.0402597
0.0390465
0.0378493
0.0366693
0.0355062
0.0343605
0.0332323
0.0321216
0.0310284
0.0299525
0.0288942
0.0278531
0.026829
0.0258222
0.0248324
0.0238592
0.0229029
0.021963
0.0210399
0.020133
0.0192415
0.018366
0.0175067
0.016663
0.0158341
0.0150202
0.0142224
0.0134404
0.0126738
0.0119221
0.0111876
0.0104703
0.00977031
0.00909097
0.00843301
0.00779883
0.00719348
0.00661904
0.0060786
0.00556886
0.00506704
0.00448986
0.00364443
0.0410408
0.0399472
0.0388682
0.0378032
0.0367518
0.0357144
0.034691
0.0336818
0.0326862
0.0317044
0.0307364
0.0297818
0.0288403
0.0279125
0.0269976
0.0260962
0.0252078
0.0243324
0.0234704
0.0226213
0.0217852
0.0209625
0.0201525
0.0193559
0.0185724
0.0178028
0.0170476
0.0163076
0.0155833
0.0148752
0.0141861
0.0135166
0.0128703
0.0122505
0.0116596
0.0111053
0.0105915
0.0101256
0.00971685
0.00937375
0.00910505
0.00891375
0.0088025
0.0417752
0.0407883
0.0398135
0.0388495
0.0378961
0.0369538
0.0360223
0.0351015
0.0341915
0.0332917
0.0324024
0.0315235
0.0306548
0.029796
0.0289474
0.0281088
0.0272797
0.0264608
0.0256527
0.0248547
0.0240673
0.0232906
0.0225244
0.0217694
0.0210267
0.0202965
0.0195783
0.0188746
0.0181867
0.0175158
0.0168631
0.0162308
0.0156238
0.0150437
0.0144953
0.013984
0.0135145
0.0130924
0.0127234
0.0124151
0.0121719
0.0119958
0.0118913
0.0424618
0.0415705
0.0406876
0.0398128
0.0389457
0.0380866
0.0372355
0.0363922
0.0355565
0.0347283
0.0339077
0.0330944
0.0322887
0.0314901
0.0306985
0.0299142
0.0291367
0.0283664
0.0276042
0.02685
0.0261039
0.0253666
0.0246384
0.0239196
0.0232111
0.0225132
0.0218268
0.021153
0.0204937
0.0198514
0.0192269
0.0186233
0.0180434
0.0174912
0.0169697
0.0164848
0.0160406
0.0156421
0.0152942
0.015003
0.0147706
0.0146006
0.0144962
0.043102
0.0422948
0.0414935
0.0406972
0.0399057
0.0391194
0.0383387
0.0375627
0.0367917
0.0360259
0.0352648
0.0345088
0.0337579
0.0330107
0.0322682
0.0315306
0.0307974
0.0300687
0.0293456
0.0286283
0.0279171
0.0272129
0.0265163
0.0258278
0.0251475
0.0244762
0.0238156
0.0231662
0.0225302
0.0219095
0.0213063
0.0207233
0.0201634
0.0196303
0.0191268
0.0186581
0.0182286
0.0178434
0.0175072
0.0172243
0.0169962
0.0168288
0.0167219
0.043697
0.0429647
0.0422347
0.0415072
0.0407821
0.04006
0.0393399
0.0386227
0.0379082
0.0371963
0.0364872
0.0357805
0.0350763
0.0343741
0.0336747
0.0329773
0.0322818
0.0315889
0.0308994
0.0302131
0.0295308
0.0288541
0.0281835
0.0275194
0.0268627
0.0262136
0.0255738
0.0249445
0.0243276
0.0237237
0.0231365
0.0225685
0.0220232
0.0215032
0.0210121
0.0205546
0.0201346
0.019757
0.019427
0.0191473
0.0189226
0.0187551
0.0186451
0.0442479
0.0435821
0.0429147
0.0422477
0.0415809
0.0409149
0.0402485
0.0395825
0.0389163
0.0382514
0.0375874
0.0369233
0.0362592
0.0355961
0.0349341
0.0342721
0.0336089
0.0329467
0.0322856
0.0316253
0.0309674
0.0303133
0.0296644
0.0290209
0.0283825
0.0277517
0.0271301
0.0265183
0.0259163
0.0253251
0.0247502
0.0241941
0.0236595
0.0231489
0.0226675
0.0222175
0.0218028
0.0214301
0.0211027
0.0208256
0.0206017
0.0204325
0.0203207
0.0447594
0.0441503
0.0435364
0.0429237
0.042307
0.0416921
0.0410715
0.0404506
0.0398263
0.0392009
0.0385765
0.0379508
0.037321
0.0366899
0.0360601
0.0354304
0.0347958
0.0341592
0.0335228
0.0328843
0.0322489
0.0316116
0.0309806
0.0303545
0.0297324
0.0291143
0.0285076
0.0279122
0.0273252
0.0267426
0.0261765
0.0256288
0.0251024
0.0246007
0.0241251
0.0236824
0.0232698
0.0228991
0.0225736
0.0222982
0.022073
0.0219035
0.0217889
0.0452425
0.0446757
0.044103
0.0435432
0.0429641
0.0424006
0.0418144
0.0412366
0.0406491
0.0400522
0.0394614
0.0388731
0.0382725
0.0376661
0.0370584
0.0364603
0.0358539
0.0352348
0.0346269
0.0340002
0.0333925
0.0327634
0.032146
0.0315338
0.0309319
0.0303211
0.0297249
0.0291428
0.028581
0.0280025
0.0274406
0.026899
0.0263768
0.025883
0.0254077
0.0249812
0.0245633
0.0241948
0.0238676
0.0235954
0.0233688
0.0232019
0.0230845
0.00366304
0.00450261
0.00499796
0.00543367
0.00588691
0.00637162
0.00688748
0.00742823
0.00799321
0.00857579
0.00917396
0.00978632
0.0104114
0.0110483
0.0116966
0.0123557
0.0130254
0.0137052
0.0143955
0.0150959
0.0158074
0.0165286
0.0172604
0.0180037
0.0187572
0.019522
0.0202976
0.0210851
0.0218842
0.0226949
0.0235175
0.0243521
0.0251991
0.0260586
0.0269306
0.0278156
0.0287139
0.0296256
0.0305508
0.0314896
0.0324421
0.0334079
0.0343863
0.00877157
0.00881724
0.00894444
0.00915212
0.00943106
0.00977297
0.0101669
0.0106062
0.0110814
0.0115869
0.0121177
0.0126701
0.0132411
0.0138273
0.0144276
0.0150408
0.0156649
0.0162993
0.0169449
0.0175991
0.018263
0.0189359
0.0196175
0.0203076
0.0210076
0.0217153
0.0224333
0.0231596
0.0238947
0.0246391
0.0253932
0.0261565
0.0269293
0.0277119
0.0285047
0.0293079
0.0301217
0.0309462
0.0317819
0.0326289
0.033487
0.0343563
0.0352367
0.0118548
0.0118856
0.0119864
0.0121534
0.0123844
0.0126715
0.0130101
0.0133935
0.0138139
0.014268
0.0147497
0.0152559
0.0157815
0.0163252
0.0168837
0.0174556
0.0180396
0.0186345
0.019238
0.0198512
0.0204724
0.0211017
0.0217385
0.022383
0.023034
0.023693
0.0243582
0.025031
0.0257105
0.0263972
0.0270905
0.027791
0.0284987
0.0292143
0.0299378
0.0306692
0.031409
0.0321573
0.0329147
0.033681
0.0344563
0.0352406
0.0360337
0.0144539
0.0144749
0.0145577
0.0147023
0.0149043
0.0151601
0.0154651
0.0158129
0.0161985
0.0166169
0.0170634
0.0175347
0.0180272
0.0185369
0.0190629
0.0196012
0.0201521
0.0207125
0.0212824
0.0218601
0.0224456
0.0230374
0.0236357
0.02424
0.0248502
0.025466
0.0260876
0.026714
0.0273456
0.0279813
0.0286223
0.0292682
0.0299197
0.0305768
0.0312398
0.0319087
0.032584
0.0332658
0.0339544
0.03465
0.0353523
0.0360618
0.0367785
0.0166749
0.016687
0.0167584
0.016888
0.0170725
0.0173078
0.0175906
0.0179148
0.0182762
0.0186695
0.0190908
0.0195368
0.0200035
0.0204881
0.0209867
0.0214988
0.0220226
0.0225559
0.0230969
0.0236455
0.0242003
0.0247607
0.0253265
0.0258978
0.0264735
0.0270535
0.0276369
0.0282241
0.0288134
0.0294061
0.0300013
0.0306002
0.0312026
0.0318092
0.03242
0.0330348
0.033654
0.0342777
0.0349063
0.0355399
0.0361782
0.0368211
0.037469
0.0185937
0.0185994
0.0186625
0.0187813
0.018953
0.019174
0.0194404
0.019748
0.020092
0.0204674
0.0208703
0.0212968
0.0217436
0.022207
0.0226848
0.023176
0.0236778
0.0241879
0.0247059
0.0252303
0.0257595
0.0262934
0.0268326
0.0273755
0.0279224
0.0284721
0.0290242
0.0295767
0.0301304
0.0306846
0.0312406
0.0317985
0.0323593
0.0329227
0.0334884
0.0340561
0.0346262
0.0351993
0.0357757
0.0363551
0.0369371
0.0375213
0.0381073
0.0202649
0.0202655
0.020322
0.0204326
0.0205938
0.0208044
0.0210592
0.021354
0.021685
0.0220475
0.0224363
0.0228479
0.0232785
0.0237248
0.0241856
0.0246592
0.0251432
0.0256357
0.0261341
0.0266376
0.0271449
0.0276564
0.0281724
0.0286933
0.0292175
0.0297423
0.030266
0.0307888
0.03131
0.0318311
0.032353
0.0328762
0.0334014
0.033928
0.0344545
0.0349809
0.035508
0.0360371
0.0365682
0.0371006
0.0376333
0.0381662
0.0387007
0.0217292
0.0217255
0.0217767
0.0218803
0.0220337
0.0222357
0.0224821
0.0227668
0.0230878
0.0234405
0.0238192
0.0242185
0.0246353
0.0250674
0.0255136
0.0259733
0.026445
0.026922
0.0274031
0.0278877
0.028375
0.0288678
0.029367
0.029871
0.0303774
0.0308792
0.0313779
0.0318734
0.0323649
0.0328572
0.0333503
0.0338443
0.03434
0.0348359
0.0353276
0.0358162
0.036306
0.0367979
0.03729
0.0377816
0.0382704
0.0387572
0.039244
0.023019
0.0230123
0.0230579
0.0231543
0.0233003
0.0234944
0.0237341
0.0240095
0.024324
0.0246695
0.025038
0.0254249
0.0258297
0.0262486
0.0266839
0.0271331
0.0275966
0.0280558
0.0285217
0.0289881
0.0294588
0.0299391
0.030428
0.0309194
0.0314107
0.031886
0.0323637
0.0328337
0.0332977
0.0337695
0.0342387
0.03471
0.0351821
0.0356514
0.0361086
0.0365638
0.0370242
0.0374866
0.0379455
0.0384016
0.0388497
0.0392951
0.03974
0.00908891
0.00854256
0.00802257
0.00752817
0.00705862
0.00661321
0.00619134
0.00579259
0.00541678
0.0050641
0.00473543
0.00443264
0.00415883
0.00391497
0.00369649
0.0034982
0.00331612
0.00314745
0.00299012
0.00284247
0.00270315
0.00257098
0.0024449
0.00232394
0.00220718
0.00209381
0.00198305
0.00187419
0.00176656
0.00165955
0.00155256
0.00144507
0.00133657
0.00122661
0.00111482
0.00100085
0.000884482
0.000765711
0.000644789
0.000522439
0.000399886
0.000277127
0.000142671
0.00905149
0.00854615
0.00806324
0.00760211
0.00716213
0.00674275
0.00634347
0.00596392
0.00560389
0.00526348
0.00494324
0.00464447
0.00436951
0.00412066
0.00389614
0.00369183
0.00350413
0.00333023
0.00316799
0.0030157
0.00287195
0.00273558
0.00260551
0.0024808
0.00236055
0.00224397
0.00213025
0.00201864
0.00190844
0.00179897
0.0016896
0.00157969
0.00146866
0.00135599
0.00124117
0.00112387
0.00100378
0.000880842
0.000755237
0.000627124
0.000495278
0.000353089
0.000222254
0.00901945
0.00855331
0.00810594
0.00767675
0.00726524
0.00687093
0.00649343
0.00613247
0.00578786
0.00545964
0.00514818
0.00485435
0.00457985
0.00432721
0.00409711
0.00388673
0.00369283
0.00351286
0.00334478
0.0031869
0.00303782
0.00289633
0.00276139
0.00263205
0.00250743
0.00238673
0.00226916
0.00215395
0.00204039
0.00192772
0.00181526
0.00170232
0.00158823
0.00147235
0.0013541
0.00123298
0.00110861
0.000980767
0.000849324
0.000713521
0.0005697
0.000411512
0.000280188
0.00899044
0.0085607
0.00814602
0.00774621
0.00736089
0.00698974
0.00663245
0.00628881
0.00595872
0.00564221
0.00533954
0.00505134
0.00477888
0.00452433
0.00428973
0.00407384
0.00387394
0.00368776
0.00351346
0.00334949
0.00319452
0.00304738
0.00290704
0.00277254
0.00264301
0.00251766
0.00239571
0.00227638
0.00215891
0.00204257
0.0019266
0.00181026
0.00169278
0.00157345
0.00145159
0.00132656
0.00119783
0.001065
0.000927535
0.000783557
0.000627595
0.000458772
0.000324373
0.00896746
0.00856854
0.00818307
0.00780986
0.00744842
0.00709845
0.00675973
0.0064321
0.00611553
0.00581008
0.00551597
0.00523371
0.00496427
0.00470946
0.00447162
0.00425104
0.00404567
0.00385353
0.00367302
0.00350281
0.00334168
0.00318857
0.00304249
0.00290249
0.00276772
0.00263739
0.00251072
0.00238693
0.00226527
0.00214495
0.00202521
0.00190525
0.00178424
0.00166138
0.00153587
0.00140698
0.00127404
0.00113644
0.000993125
0.000841124
0.000673619
0.000497132
0.000359634
0.00894536
0.00857606
0.00821718
0.00786809
0.00752836
0.00719774
0.00687603
0.00656312
0.00625907
0.00596394
0.00567801
0.00540169
0.00513582
0.00488182
0.00464196
0.00441759
0.00420746
0.00400984
0.0038234
0.00364703
0.00347973
0.00332053
0.00316853
0.00302285
0.00288265
0.00274715
0.00261557
0.00248715
0.00236111
0.00223666
0.00211302
0.00198933
0.00186475
0.00173836
0.00160931
0.0014767
0.00133976
0.00119765
0.00104881
0.000889193
0.000711013
0.000528502
0.000388639
0.00892516
0.00858301
0.00824847
0.00792133
0.00760139
0.00728853
0.00698248
0.00668312
0.00639054
0.00610493
0.00582663
0.00555613
0.00529409
0.00504163
0.00480074
0.00457339
0.00435919
0.00415668
0.00396474
0.00378246
0.00360905
0.00344378
0.00328587
0.00313449
0.00298881
0.00284804
0.00271146
0.00257832
0.00244783
0.00231921
0.00219165
0.00206426
0.0019361
0.00180622
0.00167373
0.00153767
0.00139704
0.00125075
0.00109675
0.000929991
0.00074194
0.000554452
0.000413059
0.0089068
0.00858935
0.00827708
0.00796981
0.00766793
0.00737179
0.00708071
0.00679415
0.0065121
0.00623507
0.00596343
0.00569814
0.00544035
0.00519029
0.00494933
0.00471969
0.00450206
0.00429531
0.00409841
0.00391051
0.00373084
0.00355921
0.00339517
0.00323817
0.0030874
0.00294155
0.00279975
0.00266177
0.00252683
0.00239373
0.00226204
0.00213104
0.00199982
0.00186671
0.00173038
0.0015905
0.0014463
0.00129628
0.00113775
0.000964434
0.000767427
0.00057605
0.000434085
0.00888912
0.00859484
0.00830334
0.00801361
0.00772706
0.00744796
0.00717321
0.00690079
0.00662876
0.00635947
0.00609291
0.00582924
0.00557679
0.00533174
0.00509376
0.00486321
0.00464312
0.00443365
0.00423274
0.00404164
0.00385496
0.00367467
0.00350214
0.00333673
0.00318239
0.003035
0.00288956
0.00274439
0.00260778
0.00246991
0.00233063
0.00219322
0.0020574
0.00193036
0.00179601
0.00165114
0.00149949
0.00134247
0.00117744
0.000998562
0.000792122
0.000594461
0.00045121
0.000121228
0.000205334
0.000273972
0.000342765
0.000411278
0.000481758
0.000557163
0.000641087
0.000737647
0.000849889
0.000975815
0.00111385
0.00126322
0.00142364
0.00159509
0.00177771
0.00197175
0.00217754
0.00239545
0.00262591
0.00286928
0.00312611
0.00339683
0.00368196
0.00398206
0.00429764
0.0046293
0.00497749
0.00534278
0.00572575
0.00612691
0.00654674
0.00698574
0.00744429
0.00792274
0.00842129
0.00894005
0.00947894
0.0100377
0.0106158
0.0112123
0.0118258
0.0124545
0.000189487
0.000260253
0.000333242
0.000409744
0.000489326
0.000575094
0.000670405
0.00077787
0.000899071
0.00103501
0.00118485
0.00134575
0.00151708
0.0016987
0.00189061
0.00209288
0.00230571
0.00252937
0.00276404
0.00301006
0.00326777
0.00353747
0.00381954
0.00411434
0.00442228
0.00474376
0.00507909
0.00542877
0.00579314
0.00617258
0.00656748
0.00697813
0.00740484
0.00784786
0.00830733
0.00878335
0.00927585
0.00978467
0.0103094
0.0108495
0.0114041
0.0119717
0.0125502
0.000245876
0.000310807
0.000390511
0.000477923
0.000572695
0.000677904
0.000795769
0.000927013
0.00107142
0.00122936
0.0014011
0.00158326
0.00177524
0.00197687
0.00218809
0.00240896
0.00263953
0.00287995
0.00313038
0.00339097
0.00366195
0.00394355
0.00423594
0.00453942
0.00485421
0.00518059
0.00551878
0.00586902
0.00623163
0.00660677
0.00699469
0.00739556
0.00780949
0.00823659
0.00867685
0.00913023
0.00959657
0.0100756
0.0105669
0.0110697
0.0115834
0.0121066
0.0126382
0.000291724
0.000356761
0.000445505
0.000546398
0.000658793
0.000784694
0.000924611
0.00107774
0.00124315
0.00142152
0.00161331
0.00181501
0.00202596
0.00224598
0.00247492
0.00271278
0.00295954
0.0032152
0.00347985
0.00375353
0.00403634
0.0043284
0.0046298
0.00494066
0.00526115
0.00559133
0.00593138
0.00628142
0.00664156
0.0070119
0.00739252
0.00778346
0.00818469
0.0085962
0.00901792
0.00944965
0.00989117
0.0103421
0.010802
0.0112701
0.0117458
0.0122277
0.0127145
0.000330044
0.000399207
0.000498858
0.000614847
0.000745664
0.00089176
0.00105206
0.00122489
0.00140943
0.00160692
0.00181708
0.00203667
0.00226502
0.00250188
0.00274703
0.00300036
0.00326181
0.00353125
0.00380867
0.00409402
0.00438732
0.00468857
0.00499775
0.00531488
0.00564
0.0059731
0.00631423
0.0066634
0.00702061
0.00738585
0.00775908
0.00814021
0.00852912
0.00892569
0.00932975
0.00974105
0.0101593
0.0105841
0.0110149
0.0114511
0.0118918
0.012336
0.012782
0.00036307
0.000438862
0.000550688
0.000682513
0.0008315
0.000996466
0.00117525
0.0013659
0.00156792
0.00178326
0.00201033
0.00224634
0.00249064
0.0027429
0.00300284
0.00327026
0.00354499
0.00382688
0.00411582
0.00441162
0.00471422
0.00502355
0.00533948
0.00566193
0.00599085
0.00632616
0.00666774
0.00701556
0.00736952
0.00772953
0.00809537
0.00846694
0.00884399
0.00922633
0.00961374
0.0100059
0.0104026
0.0108032
0.0112073
0.0116143
0.0120233
0.0124336
0.0128445
0.000392647
0.000476937
0.000601691
0.000749215
0.000915221
0.00109727
0.00129267
0.0014995
0.00171763
0.00194946
0.00219203
0.00244311
0.00270204
0.00296841
0.0032419
0.00352223
0.00380913
0.00410237
0.0044017
0.00470695
0.0050179
0.00533437
0.00565621
0.00598321
0.00631516
0.00665194
0.00699344
0.0073395
0.00769004
0.00804477
0.00840334
0.00876555
0.00913117
0.00949997
0.00987175
0.0102462
0.010623
0.0110014
0.0113811
0.0117614
0.0121417
0.0125213
0.0128993
0.000418432
0.000510934
0.000647853
0.000810178
0.000992444
0.00119104
0.00140247
0.00162444
0.00185745
0.00210455
0.00236182
0.00262727
0.00290014
0.00317994
0.00346628
0.00375877
0.00405703
0.00436079
0.00466977
0.00498355
0.00530189
0.00562462
0.00595152
0.0062821
0.00661597
0.00695316
0.00729364
0.00763759
0.00798473
0.00833415
0.00868531
0.00903817
0.00939259
0.00974837
0.0101054
0.0104636
0.0108224
0.0111807
0.0115381
0.0118942
0.0122484
0.0126005
0.0129494
0.000446008
0.000553153
0.000707993
0.000889107
0.00108814
0.00129927
0.00151892
0.00174986
0.001999
0.0022639
0.00253784
0.0028173
0.00310327
0.00339553
0.00369368
0.00399662
0.00430437
0.00461693
0.00493369
0.00525388
0.00557708
0.00590415
0.0062345
0.00656613
0.00689867
0.00723388
0.00757148
0.00791349
0.00825818
0.00860156
0.00894407
0.00928696
0.00962988
0.00997267
0.0103155
0.01066
0.0110033
0.0113432
0.0116803
0.0120145
0.0123449
0.0126722
0.012999
0.000363915
0.00113361
0.00187467
0.00258931
0.00328851
0.00398386
0.0046821
0.00538769
0.00610233
0.00682726
0.00756405
0.00831241
0.0090736
0.00984892
0.0106369
0.0114386
0.0122554
0.013087
0.0139339
0.0147964
0.0156739
0.016568
0.0174793
0.0184072
0.0193517
0.0203144
0.0212944
0.0222923
0.023309
0.0243435
0.0253969
0.0264694
0.0275603
0.0286703
0.0297997
0.0309481
0.0321153
0.0333019
0.0345072
0.0357312
0.036974
0.0382342
0.0395116
0.000104067
0.000428332
0.000966946
0.00155006
0.00216595
0.00280686
0.00346855
0.00414922
0.00484768
0.00556358
0.00629537
0.00704351
0.0078082
0.00858878
0.00938478
0.0101979
0.0110275
0.0118724
0.0127345
0.0136133
0.014509
0.0154213
0.0163513
0.0172988
0.0182642
0.019247
0.0202477
0.0212674
0.0223052
0.0233618
0.0244376
0.025532
0.026645
0.0277774
0.028929
0.0300991
0.0312886
0.0324971
0.0337241
0.03497
0.0362341
0.0375149
0.0388121
3.15573e-05
0.000306543
0.000704099
0.0011695
0.00168588
0.0022432
0.00283469
0.00345592
0.00410484
0.00477872
0.00547607
0.00619575
0.00693703
0.00769836
0.00848009
0.00928223
0.0101034
0.0109436
0.0118033
0.0126825
0.0135799
0.0144958
0.0154312
0.0163853
0.0173579
0.0183498
0.0193608
0.0203912
0.0214409
0.0225094
0.023598
0.0247057
0.0258323
0.0269785
0.0281443
0.0293292
0.0305334
0.0317566
0.0329991
0.0342599
0.0355391
0.0368358
0.03815
7.18155e-05
0.000279834
0.000601964
0.000994299
0.0014402
0.00193114
0.00246117
0.00302672
0.00362462
0.00425237
0.00490838
0.0055909
0.00629926
0.0070324
0.00778943
0.00856979
0.00937234
0.010197
0.0110441
0.0119123
0.0128017
0.0137124
0.014644
0.0155959
0.0165687
0.0175619
0.0185754
0.0196101
0.0206648
0.0217394
0.0228346
0.0239503
0.0250853
0.0262408
0.0274165
0.0286117
0.0298267
0.0310614
0.0323153
0.0335885
0.0348802
0.036191
0.0375211
7.64331e-05
0.00026412
0.000542732
0.000889472
0.00128799
0.00173099
0.00221406
0.00273412
0.00328807
0.00387453
0.00449144
0.00513754
0.0058123
0.00651497
0.00724381
0.00799829
0.00877769
0.00958237
0.0104112
0.0112639
0.0121404
0.0130397
0.0139617
0.0149062
0.0158733
0.0168626
0.017874
0.0189073
0.0199622
0.0210384
0.0221364
0.0232554
0.0243952
0.0255563
0.0267381
0.0279408
0.0291636
0.0304065
0.0316694
0.0329522
0.0342542
0.0355762
0.0369178
7.42679e-05
0.000252956
0.000499122
0.000814664
0.00117901
0.00158641
0.00203334
0.00251686
0.00303496
0.00358613
0.00416937
0.00478304
0.00542662
0.00609927
0.00680034
0.00752873
0.00828473
0.00906753
0.00987613
0.0107108
0.0115708
0.0124553
0.0133646
0.0142985
0.0152562
0.0162382
0.0172436
0.0182718
0.0193233
0.020398
0.0214951
0.0226146
0.0237562
0.0249196
0.0261051
0.0273118
0.02854
0.0297889
0.0310586
0.0323485
0.0336584
0.0349881
0.0363378
7.15764e-05
0.000244296
0.000464182
0.000756017
0.00109445
0.00147426
0.00189231
0.00234647
0.00283476
0.00335639
0.00391027
0.00449541
0.00511105
0.00575674
0.00643178
0.00713569
0.00786833
0.00862887
0.00941675
0.0102324
0.0110747
0.0119434
0.0128383
0.0137592
0.0147055
0.0156775
0.0166741
0.0176955
0.0187412
0.0198114
0.0209054
0.0220226
0.0231629
0.0243267
0.0255132
0.026722
0.0279533
0.0292058
0.0304797
0.0317749
0.0330902
0.0344262
0.035782
6.98059e-05
0.000237334
0.000435694
0.00070843
0.00102625
0.00138363
0.00177808
0.00220803
0.00267151
0.00316784
0.00369631
0.00425609
0.00484699
0.00546832
0.00611963
0.00680064
0.00751074
0.00824989
0.00901794
0.00981454
0.0106392
0.011491
0.0123707
0.0132774
0.0142113
0.0151713
0.016158
0.0171704
0.0182088
0.0192724
0.0203608
0.0214739
0.0226117
0.0237736
0.024959
0.0261681
0.0274
0.0286543
0.0299309
0.0312293
0.0325488
0.0338891
0.0352499
6.83697e-05
0.000231353
0.00041211
0.00066905
0.000969444
0.00130816
0.00168305
0.00209221
0.00253428
0.00300895
0.00351528
0.004053
0.00462197
0.00522127
0.00585113
0.00651085
0.0072002
0.00791919
0.0086679
0.00944613
0.0102526
0.0110879
0.0119521
0.0128446
0.0137645
0.0147125
0.0156877
0.0166901
0.0177197
0.0187752
0.0198568
0.0209645
0.0220977
0.0232559
0.024439
0.0256465
0.0268778
0.0281324
0.02941
0.0307103
0.0320325
0.0333757
0.0347394
6.70786e-05
0.000226129
0.000392164
0.000635697
0.000921193
0.00124408
0.00160201
0.0019934
0.00241705
0.0028726
0.00335979
0.00387805
0.00442691
0.00500623
0.00561629
0.0062567
0.00692682
0.00762721
0.00835774
0.00911763
0.00990721
0.0107264
0.0115752
0.0124525
0.013359
0.0142942
0.0152575
0.016249
0.0172687
0.0183154
0.0193893
0.0204901
0.0216175
0.0227712
0.0239505
0.0251549
0.026384
0.0276377
0.0289153
0.0302162
0.0315396
0.0328842
0.0342498
6.60473e-05
0.00022149
0.000375109
0.000607165
0.000880069
0.00118911
0.00153204
0.00190786
0.0023154
0.00275419
0.00322406
0.00372467
0.00425582
0.00481713
0.00540905
0.00603144
0.00668397
0.00736685
0.00807987
0.00882309
0.00959636
0.0103999
0.011233
0.0120961
0.0129888
0.0139109
0.0148619
0.0158421
0.0168514
0.0178887
0.018954
0.0200473
0.0211681
0.0223158
0.0234903
0.0246907
0.0259169
0.0271687
0.0284449
0.0297452
0.0310688
0.0324139
0.0337802
6.52055e-05
0.000217227
0.000360426
0.000582372
0.000844203
0.00114101
0.00147092
0.00183296
0.00222595
0.00264966
0.00310411
0.00358896
0.0041039
0.00464878
0.00522416
0.00583009
0.00646626
0.00713262
0.00782969
0.0085568
0.00931448
0.0101026
0.0109213
0.0117702
0.0126491
0.0135582
0.014497
0.0154658
0.016464
0.0174916
0.0185481
0.0196329
0.0207461
0.0218875
0.0230564
0.0242521
0.025475
0.0267234
0.0279972
0.0292966
0.03062
0.0319674
0.0333394
6.44779e-05
0.000213555
0.000348312
0.000560627
0.000812483
0.0010984
0.00141676
0.00176638
0.00214645
0.0025567
0.00299725
0.00346775
0.00396784
0.00449807
0.00505836
0.0056489
0.00626969
0.0069208
0.00760236
0.00831464
0.00905756
0.00983118
0.0106356
0.0114705
0.012336
0.0132324
0.0141594
0.0151163
0.0161038
0.0171213
0.0181681
0.0192444
0.0203495
0.021484
0.0226466
0.0238372
0.0250552
0.0262997
0.0275712
0.0288685
0.0301917
0.0315408
0.0329179
6.37954e-05
0.000210535
0.000338993
0.000541379
0.000784298
0.0010605
0.00136834
0.00170684
0.00207525
0.00247341
0.00290133
0.00335863
0.00384534
0.00436179
0.00490804
0.00548439
0.00609085
0.00672743
0.00739481
0.00809296
0.00882166
0.00958136
0.0103723
0.0111939
0.0120467
0.0129305
0.0138451
0.0147909
0.0157675
0.0167743
0.0178119
0.0188791
0.0199763
0.0211033
0.0222591
0.0234436
0.0246561
0.0258969
0.0271645
0.0284593
0.029781
0.0311289
0.0325042
6.32012e-05
0.000208325
0.00033234
0.000524421
0.000759029
0.00102652
0.0013249
0.00165323
0.00201102
0.00239807
0.00281436
0.00325948
0.00373375
0.00423747
0.00477082
0.00533409
0.00592712
0.00655051
0.00720431
0.00788895
0.00860437
0.00935084
0.0101286
0.0109375
0.0117779
0.0126495
0.0135524
0.0144868
0.0154521
0.0164491
0.0174768
0.018535
0.0196236
0.0207427
0.0218915
0.0230697
0.0242769
0.0255124
0.0267761
0.0280677
0.0293861
0.0307307
0.0321005
6.29143e-05
0.000207045
0.000328012
0.000509497
0.000736274
0.000995884
0.00128559
0.00160465
0.0019528
0.00232954
0.00273485
0.00316893
0.00363187
0.00412376
0.00464523
0.00519621
0.00577697
0.00638763
0.00702867
0.00770087
0.00840366
0.00913747
0.00990242
0.0106991
0.0115273
0.012387
0.0132786
0.0142017
0.0151566
0.016143
0.0171609
0.01821
0.0192901
0.0204012
0.0215425
0.022714
0.0239149
0.0251452
0.0264045
0.0276917
0.0290061
0.0303471
0.0317131
6.27867e-05
0.000206245
0.000324926
0.000496293
0.000715768
0.000967867
0.00124968
0.00156046
0.00189955
0.00226665
0.00266219
0.00308618
0.00353842
0.00401948
0.00452951
0.00506893
0.00563803
0.00623703
0.00686636
0.00752641
0.00821717
0.00893881
0.00969204
0.0104769
0.0112931
0.0121413
0.0130217
0.0139341
0.0148783
0.0158544
0.0168629
0.0179027
0.0189741
0.0200768
0.0212108
0.022375
0.0235697
0.0247946
0.0260485
0.0273312
0.0286415
0.0299791
0.031342
6.25599e-05
0.000205323
0.000321862
0.00048428
0.000697112
0.000942265
0.00121668
0.00151967
0.00185052
0.00220901
0.00259539
0.00300955
0.00345199
0.00392283
0.0044225
0.00495115
0.00550918
0.00609707
0.00671512
0.00736385
0.00804297
0.00875314
0.00949486
0.0102683
0.0110736
0.0119108
0.01278
0.0136818
0.0146157
0.0155822
0.0165807
0.0176113
0.0186738
0.0197684
0.0208945
0.0220517
0.0232401
0.0244588
0.0257076
0.0269856
0.0282925
0.0296276
0.0309914
6.23577e-05
0.000204555
0.00031907
0.000473477
0.000679912
0.00091875
0.00118648
0.00148205
0.0018052
0.0021557
0.00253339
0.0029388
0.00337203
0.00383317
0.00432296
0.00484148
0.00538934
0.00596675
0.0065741
0.00721189
0.00788004
0.00857939
0.00931019
0.010073
0.0108673
0.0116936
0.0125524
0.0134438
0.0143677
0.0153241
0.0163133
0.0173346
0.0183888
0.0194747
0.0205931
0.0217434
0.022925
0.0241375
0.0253808
0.0266543
0.0279576
0.0292904
0.0306532
6.2136e-05
0.00020375
0.000316315
0.000463664
0.000664058
0.000897038
0.00115846
0.00144731
0.00176334
0.0021062
0.00247595
0.00287296
0.00329749
0.00374977
0.0042303
0.00473935
0.00527757
0.00584477
0.00644203
0.00706947
0.00772751
0.00841634
0.00913669
0.00988875
0.0106726
0.011489
0.0123376
0.0132187
0.0141324
0.0150795
0.0160591
0.0170718
0.0181171
0.0191951
0.0203056
0.0214486
0.0226232
0.0238296
0.0250672
0.026336
0.0276357
0.0289655
0.0303271
6.19635e-05
0.000203008
0.000313895
0.000455274
0.000649612
0.000876931
0.00113245
0.00141501
0.00172432
0.00205995
0.00242232
0.00281167
0.00322794
0.00367186
0.0041437
0.0046437
0.00517255
0.00573045
0.00631808
0.00693596
0.00758403
0.00826287
0.00897317
0.00971486
0.0104888
0.011295
0.0121338
0.0130051
0.0139093
0.0148469
0.0158175
0.0168213
0.0178582
0.0189278
0.0200308
0.0211662
0.022334
0.0235339
0.024766
0.0260299
0.0273247
0.0286508
0.0300086
6.17681e-05
0.000202249
0.000311737
0.000448306
0.000636192
0.000858256
0.00110832
0.0013849
0.00168778
0.00201684
0.00237217
0.00275419
0.00316286
0.00359882
0.00406233
0.00455404
0.00507405
0.00562297
0.00620155
0.00680989
0.00744855
0.00811789
0.00881848
0.00955074
0.0103148
0.0111112
0.0119405
0.0128025
0.0136975
0.0146256
0.0155873
0.0165823
0.0176104
0.0186725
0.0197675
0.0208956
0.0220565
0.0232501
0.0244762
0.0257342
0.027024
0.0283446
0.0296945
6.16324e-05
0.000201801
0.000310162
0.000442918
0.000624111
0.000841011
0.00108574
0.0013567
0.00165379
0.00197652
0.00232536
0.00270034
0.00310186
0.00353028
0.00398601
0.00446949
0.00498118
0.00552153
0.00609129
0.00669093
0.00732063
0.00798089
0.00867225
0.00939519
0.0101499
0.0109369
0.0117569
0.0126097
0.0134955
0.0144148
0.0153674
0.0163539
0.0173741
0.0184278
0.0195151
0.0206359
0.02179
0.0229767
0.0241968
0.0254493
0.0267335
0.0280492
0.0293955
6.15044e-05
0.00020143
0.000308988
0.000438695
0.00061293
0.000824747
0.00106452
0.0013303
0.00162169
0.00193858
0.00228118
0.00264953
0.00304412
0.00346552
0.00391386
0.00438976
0.00489359
0.00542583
0.00598718
0.00657821
0.00719931
0.00785087
0.00853346
0.00924733
0.00999303
0.0107713
0.011582
0.0124259
0.0133028
0.0142132
0.0151574
0.0161355
0.0171475
0.0181932
0.0192726
0.0203864
0.0215333
0.0227137
0.0239276
0.0251738
0.0264529
0.0277635
0.0291057
6.15063e-05
0.000201317
0.000308118
0.000435219
0.000602674
0.000809583
0.0010446
0.00130552
0.00159165
0.00190288
0.00223962
0.00260171
0.00298974
0.00340424
0.00384563
0.0043143
0.00481055
0.00533505
0.00588864
0.00647164
0.00708426
0.00772741
0.00840141
0.00910662
0.00984388
0.0106131
0.0114154
0.0122502
0.0131187
0.0140209
0.0149566
0.0159262
0.0169301
0.0179678
0.0190398
0.0201461
0.0212862
0.0224602
0.0236675
0.0249082
0.0261816
0.0274872
0.0288249
6.14855e-05
0.000201166
0.000307449
0.000432312
0.000593327
0.000795478
0.00102608
0.00128224
0.00156325
0.00186934
0.00220032
0.00255651
0.00293849
0.00334653
0.00378117
0.00424284
0.00473188
0.00524895
0.00579496
0.00637019
0.00697494
0.00760989
0.00827569
0.00897282
0.00970139
0.0104625
0.0112561
0.0120826
0.0129428
0.0138365
0.0147639
0.0157256
0.0167214
0.0177514
0.0188161
0.019915
0.0210483
0.0222154
0.0234168
0.0246514
0.0259192
0.0272194
0.0285518
6.1443e-05
0.000201045
0.000306838
0.000429698
0.00058475
0.000782327
0.00100853
0.00126005
0.00153636
0.00183744
0.00216313
0.00251375
0.0028898
0.00329163
0.00371985
0.00417483
0.00465698
0.00516714
0.00570595
0.00627369
0.00687076
0.0074979
0.00815594
0.00884477
0.0095655
0.0103184
0.0111038
0.0119221
0.0127741
0.0136596
0.0145793
0.015533
0.0165209
0.0175435
0.0186006
0.0196923
0.0208185
0.0219794
0.0231742
0.0244028
0.0256649
0.0269603
0.0282884
6.13799e-05
0.000200863
0.000306231
0.000427191
0.000576686
0.000769794
0.000991929
0.00123928
0.00151104
0.0018072
0.00212782
0.00247308
0.00284346
0.00323955
0.00366161
0.00411021
0.00458588
0.00508937
0.00562097
0.00618159
0.0067713
0.0073911
0.00804119
0.00872249
0.0094354
0.0101804
0.010958
0.0117685
0.0126124
0.01349
0.0144018
0.0153477
0.0163281
0.0173432
0.018393
0.0194775
0.0205969
0.0217511
0.0229396
0.0241623
0.025419
0.0267097
0.0280338
6.14195e-05
0.00020085
0.000305613
0.000424794
0.000569357
0.000757991
0.000976143
0.00121947
0.00148686
0.00177839
0.00209418
0.00243447
0.00279953
0.00318986
0.0036061
0.00404868
0.00451805
0.00501491
0.00553991
0.00609355
0.00667632
0.00728893
0.00793166
0.0086056
0.00931109
0.0100484
0.0108182
0.0116209