/*--------------------------------*- C++ -*----------------------------------*\
| =========                 |                                                 |
| \\      /  F ield         | OpenFOAM: The Open Source CFD Toolbox           |
|  \\    /   O peration     | Version:  2.3.0                                 |
|   \\  /    A nd           | Web:      www.OpenFOAM.org                      |
|    \\/     M anipulation  |                                                 |
\*---------------------------------------------------------------------------*/
FoamFile
{
    version     2.0;
    format      ascii;
    class       volScalarField;
    location    "10000";
    object      p;
}
// * * * * * * * * * * * * * * * * * * * * * * * * * * * * * * * * * * * * * //

dimensions      [0 2 -2 0 0 0 0];

internalField   nonuniform List<scalar> 
122108
(
5.4827e-05
0.314762
0.592249
0.848493
1.09792
1.34021
1.57749
1.80865
2.03078
2.24833
2.45825
2.65898
2.85424
3.04548
3.22511
3.40468
3.57565
3.74792
3.91863
4.09047
4.27045
4.45606
4.65823
4.88176
5.12064
5.39583
5.70696
6.06562
6.46904
6.94379
7.48973
8.10244
8.82978
9.65504
10.619
11.7471
13.0432
14.628
16.5995
18.9699
21.3681
24.3548
35.0495
1.75317
2.10418
2.43776
2.75168
3.06371
3.37238
3.68044
3.98758
4.291
4.5934
4.89636
5.19176
5.48707
5.77774
6.06316
6.34449
6.6158
6.88323
7.14158
7.38652
7.62992
7.85607
8.07854
8.29269
8.49895
8.71201
8.92836
9.17344
9.43638
9.76073
10.1659
10.6631
11.3357
12.1951
13.3391
14.8492
16.816
19.3978
22.7567
27.0808
32.7101
40.3774
51.0013
3.39353
3.75102
4.10469
4.44319
4.78549
5.12907
5.47506
5.82581
6.18025
6.53618
6.90355
7.27271
7.65295
8.03938
8.44026
8.84953
9.26975
9.7136
10.1728
10.6518
11.1616
11.6962
12.2647
12.8732
13.5327
14.2352
14.9975
15.8392
16.7571
17.7732
18.8957
20.161
21.5903
23.1967
25.0468
27.1576
29.5839
32.3668
35.5608
39.2246
43.3521
47.9826
53.0736
4.88684
5.22726
5.58834
5.94047
6.2999
6.6665
7.03747
7.41463
7.79861
8.19007
8.5897
8.99957
9.42129
9.85042
10.296
10.7535
11.2187
11.7056
12.2089
12.7308
13.2781
13.8544
14.4611
15.1066
15.7986
16.5417
17.3476
18.224
19.1968
20.2665
21.4587
22.7898
24.2997
25.9905
27.9172
30.0969
32.5695
35.3548
38.4849
41.9672
45.7902
49.9174
54.2408
6.19629
6.52962
6.89803
7.25936
7.62789
8.00524
8.39237
8.7834
9.18565
9.59676
10.0194
10.4599
10.9113
11.3775
11.8667
12.375
12.8963
13.4418
14.0127
14.6086
15.2351
15.8976
16.6001
17.3481
18.1427
18.9985
19.9213
20.9125
22.0044
23.1787
24.4858
25.9009
27.4913
29.2277
31.1692
33.3088
35.6869
38.2878
41.1618
44.2526
47.5717
51.0714
54.6516
7.339
7.68461
8.06118
8.42202
8.79956
9.17535
9.57381
9.96973
10.3812
10.7993
11.2284
11.6832
12.1427
12.6324
13.139
13.6732
14.2224
14.7956
15.39
16.0158
16.6681
17.3657
18.091
18.8812
19.7108
20.5997
21.5546
22.5966
23.7261
24.9416
26.2753
27.722
29.3232
31.0665
33.0017
35.0944
37.4082
39.8978
42.602
45.4882
48.55
51.7305
54.9737
8.39364
8.71139
9.09136
9.43805
9.82448
10.1902
10.6071
11.0023
11.4264
11.8503
12.2756
12.7378
13.1985
13.6927
14.2202
14.7777
15.3594
15.9465
16.5592
17.2142
17.8855
18.618
19.3639
20.1848
21.0514
21.958
22.9163
23.9788
25.125
26.3664
27.7055
29.1841
30.7764
32.5139
34.4192
36.4557
38.6939
41.0691
43.6314
46.3363
49.177
52.1083
55.1114
9.30048
9.62075
9.99946
10.3098
10.7043
11.0282
11.4825
11.8734
12.329
12.736
13.1552
13.6451
14.1075
14.5506
15.0544
15.6348
16.2866
16.8712
17.4759
18.1654
18.8225
19.6012
20.332
21.1757
22.1039
23.0567
24.0167
25.0867
26.2403
27.4721
28.7507
30.2509
31.8172
33.5327
35.4143
37.4367
39.6654
41.9216
44.3799
46.9512
49.6762
52.5077
55.3496
10.5045
10.718
11.1587
11.239
11.7108
11.7948
12.3745
12.5874
13.0326
13.3609
13.6557
14.1993
14.7077
15.0797
15.4297
15.8136
16.6835
17.451
17.8988
18.7719
19.2056
20.2084
20.6865
21.3835
22.4364
23.7037
24.6557
25.7127
27.1258
28.6815
29.6884
30.9341
32.2785
33.8967
36.1498
37.9428
40.6223
42.6326
44.7564
47.2754
50.6058
53.5985
56.4002
65.8617
77.5586
82.1128
85.5427
88.4563
90.7977
92.642
94.146
95.3135
96.2771
97.0658
97.7057
98.2246
98.647
98.9888
99.2648
99.4888
99.6699
99.818
99.9345
100.026
100.107
100.174
100.229
100.284
100.333
100.385
100.434
100.486
100.545
100.608
100.673
100.746
100.824
100.907
100.997
101.09
101.19
101.295
101.403
101.516
101.633
101.763
62.7283
72.3948
79.1173
83.9838
87.6666
90.4473
92.539
94.0859
95.2072
96.0214
96.5884
96.9868
97.2488
97.4292
97.5466
97.6213
97.6759
97.7116
97.7478
97.7928
97.8361
97.8915
97.9591
98.037
98.1208
98.2201
98.3252
98.4424
98.5645
98.6959
98.8316
98.971
99.1179
99.2686
99.419
99.5754
99.7325
99.8929
100.053
100.215
100.375
100.534
100.717
58.2795
63.318
67.8557
71.8427
75.2957
78.2614
80.793
82.9419
84.782
86.3448
87.6813
88.8353
89.8297
90.6955
91.4598
92.1283
92.7295
93.2628
93.7473
94.189
94.589
94.9541
95.2932
95.6123
95.9049
96.1842
96.4467
96.6952
96.9325
97.163
97.3874
97.6021
97.8118
98.0181
98.2182
98.4168
98.6111
98.8049
98.9947
99.1832
99.3699
99.5498
99.7806
58.6058
62.8267
66.7716
70.3579
73.5549
76.3753
78.8423
80.9661
82.818
84.4127
85.7962
86.9922
88.0296
88.938
89.7323
90.4423
91.0722
91.6328
92.1423
92.6136
93.0443
93.4446
93.8157
94.1635
94.492
94.8019
95.0998
95.3892
95.6666
95.9389
96.1986
96.4532
96.696
96.9375
97.1695
97.3989
97.6206
97.8359
98.0481
98.2531
98.4537
98.6412
98.88
58.2683
61.7802
65.1481
68.2847
71.1573
73.7635
76.1012
78.1822
80.0262
81.6573
83.1056
84.3922
85.5281
86.5478
87.4618
88.2875
89.0247
89.7022
90.3252
90.8987
91.4202
91.9124
92.3643
92.78
93.1758
93.5503
93.9096
94.2492
94.5785
94.8907
95.1898
95.4792
95.7513
96.0156
96.2699
96.5185
96.7579
96.9863
97.2095
97.4277
97.6388
97.8413
98.0893
58.2161
61.3959
64.4513
67.3456
70.0185
72.4855
74.7185
76.7466
78.5517
80.1805
81.6396
82.9511
84.1264
85.1811
86.1361
86.9981
87.773
88.4919
89.153
89.7711
90.3296
90.8552
91.3352
91.7786
92.1932
92.5878
92.9724
93.3442
93.703
94.0413
94.3573
94.6604
94.944
95.219
95.497
95.759
96.0043
96.2403
96.4695
96.699
96.9322
97.1813
97.4643
58.0967
61.0434
63.8797
66.5748
69.0927
71.4254
73.578
75.5656
77.3211
78.9137
80.3761
81.6831
82.8815
83.9836
84.9707
85.8493
86.6485
87.4049
88.1099
88.7788
89.3818
89.9371
90.4258
90.8641
91.2809
91.7145
92.137
92.5587
92.9454
93.3049
93.6314
93.9417
94.2296
94.5124
94.8184
95.0831
95.3317
95.5664
95.7967
96.0319
96.2596
96.4986
96.6486
58.1478
60.9233
63.614
66.1435
68.5408
70.81
72.9299
74.867
76.5089
78.0533
79.5366
80.8444
82.059
83.1794
84.1369
84.981
85.8131
86.6378
87.3784
88.0944
88.688
89.1978
89.6435
90.0701
90.5348
91.064
91.5304
92.0132
92.4065
92.7442
93.0473
93.3348
93.622
93.9438
94.3004
94.534
94.7622
94.9795
95.2096
95.4655
95.6903
95.9118
96.041
59.0658
61.7554
64.3028
66.6427
68.9526
71.2451
73.6618
75.2665
76.6687
78.5874
80.221
81.2755
82.6733
83.7768
84.5115
85.2588
86.1943
87.0564
87.85
88.6324
89.0166
89.3561
89.683
90.1188
90.7117
91.388
91.8164
92.3405
92.458
92.7961
93.0449
93.2267
93.4638
93.8831
94.3587
94.3903
94.5015
94.6193
94.806
95.0761
95.2754
95.5984
95.7779
-117.058
-116.531
-116.043
-115.519
-114.968
-114.389
-113.781
-113.145
-112.478
-111.78
-111.049
-110.287
-109.492
-108.666
-107.81
-106.926
-106.018
-105.09
-104.148
-103.196
-102.241
-101.291
-100.351
-99.4295
-98.5334
-97.6696
-96.8443
-96.0633
-95.3323
-94.6559
-94.0374
-93.4785
-92.9797
-92.5405
-92.1586
-91.8295
-91.5458
-91.2995
-91.0815
-90.8836
-90.7221
-90.5462
-90.154
-116.54
-116.07
-115.638
-115.18
-114.707
-114.22
-113.72
-113.209
-112.687
-112.157
-111.618
-111.072
-110.52
-109.961
-109.396
-108.823
-108.243
-107.654
-107.055
-106.446
-105.824
-105.189
-104.539
-103.873
-103.19
-102.49
-101.77
-101.033
-100.276
-99.4988
-98.7027
-97.8878
-97.0545
-96.2041
-95.3372
-94.4562
-93.5663
-92.6763
-91.8028
-90.9615
-90.1484
-89.2705
-88.8556
-116.118
-115.687
-115.285
-114.864
-114.43
-113.984
-113.526
-113.056
-112.576
-112.085
-111.585
-111.075
-110.555
-110.025
-109.486
-108.935
-108.373
-107.798
-107.211
-106.611
-105.996
-105.367
-104.721
-104.059
-103.38
-102.682
-101.965
-101.227
-100.468
-99.6896
-98.8896
-98.0686
-97.2272
-96.3667
-95.4893
-94.5999
-93.7046
-92.8148
-91.9487
-91.1207
-90.3042
-89.2867
-88.5276
-115.752
-115.337
-114.946
-114.537
-114.113
-113.675
-113.223
-112.756
-112.274
-111.778
-111.266
-110.741
-110.201
-109.647
-109.079
-108.495
-107.897
-107.284
-106.655
-106.012
-105.353
-104.679
-103.991
-103.289
-102.573
-101.842
-101.096
-100.336
-99.5594
-98.7682
-97.9632
-97.1456
-96.3168
-95.4786
-94.6337
-93.7855
-92.9411
-92.111
-91.3109
-90.5485
-89.7969
-88.8683
-88.121
-115.442
-115.049
-114.678
-114.289
-113.885
-113.469
-113.04
-112.596
-112.138
-111.664
-111.176
-110.674
-110.159
-109.629
-109.083
-108.522
-107.945
-107.351
-106.739
-106.109
-105.459
-104.79
-104.104
-103.401
-102.682
-101.945
-101.19
-100.416
-99.6237
-98.8136
-97.9867
-97.147
-96.2988
-95.445
-94.5876
-93.7281
-92.8736
-92.0382
-91.2389
-90.4762
-89.7196
-88.8346
-88.0772
-115.191
-114.821
-114.473
-114.107
-113.728
-113.338
-112.937
-112.522
-112.091
-111.645
-111.183
-110.706
-110.217
-109.715
-109.198
-108.663
-108.111
-107.542
-106.956
-106.35
-105.719
-105.064
-104.386
-103.69
-102.978
-102.252
-101.506
-100.738
-99.9514
-99.1442
-98.311
-97.46
-96.5998
-95.7526
-94.9222
-94.0887
-93.2421
-92.3992
-91.5911
-90.8221
-90.0449
-89.1777
-88.3795
-114.993
-114.643
-114.313
-113.966
-113.606
-113.235
-112.857
-112.466
-112.056
-111.632
-111.188
-110.73
-110.254
-109.776
-109.277
-108.754
-108.217
-107.658
-107.091
-106.504
-105.892
-105.249
-104.572
-103.88
-103.171
-102.451
-101.708
-100.943
-100.16
-99.3633
-98.5279
-97.6766
-96.8047
-95.914
-95.0926
-94.3068
-93.4997
-92.6778
-91.9038
-91.1687
-90.4021
-89.5318
-88.6183
-114.823
-114.493
-114.181
-113.855
-113.515
-113.165
-112.815
-112.465
-112.076
-111.681
-111.249
-110.805
-110.326
-109.881
-109.437
-108.93
-108.429
-107.876
-107.332
-106.787
-106.207
-105.591
-104.893
-104.162
-103.436
-102.768
-102.092
-101.307
-100.542
-99.8548
-98.9721
-98.0695
-97.1079
-96.2618
-95.6509
-95.0531
-94.2886
-93.3275
-92.4119
-91.6833
-90.946
-90.0991
-89.1922
-114.759
-114.407
-114.088
-113.769
-113.426
-113.023
-112.646
-112.32
-111.958
-111.616
-111.217
-110.853
-110.255
-109.755
-109.34
-108.797
-108.339
-107.728
-107.171
-106.611
-106.109
-105.659
-104.999
-104.363
-103.374
-102.53
-101.893
-101.261
-100.042
-99.6531
-98.9781
-98.319
-97.349
-95.0854
-94.2334
-94.0706
-93.8148
-93.0418
-92.3437
-91.6991
-91.37
-90.3779
-88.424
-87.1348
-83.4459
-80.3018
-77.4498
-74.8841
-72.5639
-70.4558
-68.5287
-66.7549
-65.1125
-63.5799
-62.1396
-60.7774
-59.4831
-58.2474
-57.0628
-55.9248
-54.8285
-53.7699
-52.7469
-51.7576
-50.7998
-49.873
-48.9758
-48.1086
-47.2703
-46.462
-45.6839
-44.9368
-44.2208
-43.5379
-42.8888
-42.2751
-41.6984
-41.1598
-40.6615
-40.2055
-39.7939
-39.4294
-39.1126
-38.8354
-38.6349
-38.6421
-87.053
-85.1067
-83.162
-80.979
-78.7817
-76.617
-74.5274
-72.5313
-70.6352
-68.8391
-67.1385
-65.5282
-64.0017
-62.5536
-61.1782
-59.8702
-58.626
-57.4412
-56.3126
-55.2363
-54.2113
-53.2342
-52.3039
-51.4184
-50.5767
-49.7775
-49.0201
-48.3033
-47.6267
-46.9899
-46.3928
-45.835
-45.3166
-44.8382
-44.4003
-44.0031
-43.6478
-43.3359
-43.0692
-42.8477
-42.6683
-42.5675
-42.5926
-86.434
-84.5484
-82.7273
-80.812
-78.9256
-77.051
-75.2182
-73.44
-71.728
-70.0869
-68.5189
-67.0236
-65.6
-64.2454
-62.9574
-61.7327
-60.569
-59.4621
-58.4104
-57.4108
-56.4606
-55.5586
-54.702
-53.8898
-53.12
-52.3913
-51.704
-51.0555
-50.4456
-49.8749
-49.3424
-48.848
-48.392
-47.9754
-47.598
-47.2604
-46.9638
-46.7093
-46.499
-46.3334
-46.211
-46.1517
-46.1885
-86.3072
-84.6298
-82.9012
-81.1248
-79.3786
-77.6499
-75.9665
-74.3356
-72.7643
-71.2561
-69.8126
-68.4341
-67.1194
-65.8666
-64.6745
-63.5403
-62.4618
-61.437
-60.4633
-59.5388
-58.6612
-57.8288
-57.04
-56.2936
-55.5878
-54.922
-54.2949
-53.7056
-53.1533
-52.6382
-52.1598
-51.718
-51.313
-50.9451
-50.6146
-50.3217
-50.0674
-49.8529
-49.6797
-49.5481
-49.4576
-49.4169
-49.4622
-86.4693
-84.9721
-83.3837
-81.7593
-80.1343
-78.5162
-76.9339
-75.3958
-73.9107
-72.4831
-71.115
-69.807
-68.5596
-67.3707
-66.2402
-65.1653
-64.1451
-63.1775
-62.2599
-61.391
-60.569
-59.7919
-59.0586
-58.3675
-57.7179
-57.1085
-56.5373
-56.0037
-55.5068
-55.0461
-54.6222
-54.2341
-53.8825
-53.567
-53.2864
-53.0408
-52.8318
-52.66
-52.5268
-52.4312
-52.374
-52.3571
-52.3915
-86.83
-85.3952
-83.8815
-82.3473
-80.8036
-79.2693
-77.7675
-76.3056
-74.8923
-73.5324
-72.2286
-70.9825
-69.7943
-68.6634
-67.5892
-66.57
-65.6051
-64.6925
-63.8292
-63.0152
-62.2481
-61.5255
-60.8466
-60.2106
-59.6164
-59.0625
-58.5447
-58.0628
-57.617
-57.2074
-56.8348
-56.4974
-56.1948
-55.9277
-55.692
-55.4884
-55.32
-55.1882
-55.0922
-55.0305
-55.007
-55.0243
-55.1121
-87.0597
-85.7127
-84.274
-82.8176
-81.351
-79.8987
-78.4784
-77.0925
-75.7479
-74.4548
-73.2165
-72.0332
-70.9058
-69.8339
-68.8156
-67.8528
-66.9437
-66.086
-65.2751
-64.5133
-63.7987
-63.1259
-62.4958
-61.9098
-61.3647
-60.8613
-60.3894
-59.9511
-59.5495
-59.1849
-58.8579
-58.5641
-58.303
-58.0784
-57.8793
-57.7087
-57.5775
-57.4808
-57.4166
-57.3798
-57.3823
-57.436
-57.6014
-87.7406
-86.4117
-84.938
-83.4727
-81.9989
-80.5671
-79.1907
-77.8491
-76.5523
-75.3096
-74.1212
-72.9833
-71.9009
-70.8728
-69.8946
-68.977
-68.1148
-67.3007
-66.5288
-65.8102
-65.1431
-64.5082
-63.9222
-63.3909
-62.8993
-62.456
-62.0222
-61.6199
-61.2584
-60.9395
-60.6613
-60.4123
-60.1978
-60.0278
-59.8592
-59.7145
-59.6184
-59.5527
-59.5167
-59.4968
-59.5264
-59.6108
-59.8203
-86.7763
-86.2048
-84.9201
-83.5654
-82.2454
-80.9616
-79.7544
-78.5193
-77.2615
-76.0833
-74.966
-73.8896
-72.8737
-71.9096
-70.9852
-70.1424
-69.3415
-68.5802
-67.8547
-67.2055
-66.6065
-66.0025
-65.4778
-65.024
-64.5638
-64.1569
-63.6756
-63.285
-62.9763
-62.7144
-62.4803
-62.256
-62.0662
-61.9255
-61.6892
-61.5227
-61.4807
-61.4512
-61.4477
-61.4419
-61.4616
-61.3877
-61.4729
-126.248
-104.982
-87.3659
-74.2139
-63.0687
-53.2182
-44.6784
-37.3453
-31.1091
-25.8223
-21.3455
-17.5771
-14.4041
-11.7488
-9.53256
-7.68746
-6.15522
-4.88904
-3.84067
-2.97804
-2.27459
-1.70525
-1.2437
-0.876124
-0.589392
-0.371793
-0.213558
-0.104046
-0.040662
-0.0155224
-0.0242992
-0.0657125
-0.133205
-0.225317
-0.339629
-0.473849
-0.62588
-0.795554
-0.980053
-1.17759
-1.38909
-1.62651
-1.91338
-41.1663
-41.1712
-40.3379
-38.6061
-36.3085
-33.7502
-31.1035
-28.4618
-25.8813
-23.4177
-21.0972
-18.9459
-16.9614
-15.1602
-13.531
-12.0666
-10.7616
-9.60444
-8.58188
-7.68372
-6.89901
-6.21673
-5.62387
-5.11421
-4.67802
-4.30796
-3.99828
-3.73954
-3.53038
-3.36376
-3.2349
-3.14344
-3.08421
-3.05398
-3.05086
-3.07329
-3.11733
-3.18276
-3.26744
-3.36905
-3.48779
-3.63362
-3.85371
-21.5091
-23.0107
-23.81
-24.2964
-24.5422
-24.5164
-24.2131
-23.6667
-22.9196
-22.0202
-21.006
-19.9181
-18.7887
-17.6495
-16.5188
-15.4147
-14.3609
-13.358
-12.4175
-11.5425
-10.7393
-10.0048
-9.3382
-8.73784
-8.20174
-7.72556
-7.30532
-6.93716
-6.61923
-6.34634
-6.1141
-5.92245
-5.7672
-5.64395
-5.55181
-5.48793
-5.45018
-5.43589
-5.44339
-5.47013
-5.51525
-5.58405
-5.74323
-30.1759
-30.0438
-29.4218
-28.8748
-28.3271
-27.7106
-27.0101
-26.2303
-25.3815
-24.4738
-23.5213
-22.5341
-21.5288
-20.5161
-19.5093
-18.5171
-17.5526
-16.6198
-15.7261
-14.8768
-14.0772
-13.3262
-12.6284
-11.9843
-11.3908
-10.8498
-10.3583
-9.91266
-9.51587
-9.163
-8.84973
-8.57705
-8.34251
-8.14074
-7.97245
-7.83365
-7.72361
-7.63923
-7.57881
-7.53891
-7.51887
-7.52176
-7.61367
-31.2496
-30.8492
-30.2779
-29.7458
-29.1725
-28.5521
-27.8917
-27.1965
-26.4697
-25.7115
-24.9297
-24.126
-23.305
-22.4741
-21.639
-20.8069
-19.9836
-19.1713
-18.3806
-17.6114
-16.8702
-16.1602
-15.4854
-14.846
-14.2446
-13.6822
-13.1597
-12.6757
-12.2308
-11.8256
-11.4564
-11.1243
-10.8276
-10.5631
-10.3313
-10.1292
-9.95551
-9.80961
-9.68748
-9.58802
-9.50897
-9.45441
-9.48053
-29.1618
-28.9726
-28.758
-28.5378
-28.2736
-27.9651
-27.6109
-27.2105
-26.7643
-26.2742
-25.7438
-25.1777
-24.5786
-23.9533
-23.3068
-22.6443
-21.9704
-21.2919
-20.6142
-19.9403
-19.2784
-18.6307
-18.0014
-17.3938
-16.8107
-16.2526
-15.7247
-15.2271
-14.7595
-14.3228
-13.9185
-13.5454
-13.2038
-12.8924
-12.6101
-12.3569
-12.1303
-11.932
-11.7573
-11.6065
-11.4777
-11.3769
-11.358
-29.3689
-29.2273
-29.0699
-28.9012
-28.7056
-28.4809
-28.2231
-27.9289
-27.598
-27.2291
-26.8243
-26.3851
-25.9149
-25.4147
-24.8911
-24.3454
-23.7816
-23.2063
-22.6217
-22.0318
-21.442
-20.8565
-20.2765
-19.7087
-19.1537
-18.6156
-18.0962
-17.5991
-17.1238
-16.6726
-16.2471
-15.8479
-15.4749
-15.128
-14.8078
-14.5135
-14.2444
-14.0021
-13.783
-13.5881
-13.4181
-13.278
-13.2158
-30.4671
-30.3337
-30.171
-29.9926
-29.7921
-29.571
-29.3267
-29.0573
-28.7623
-28.4409
-28.0932
-27.7189
-27.3195
-26.8958
-26.4493
-25.9834
-25.4989
-25
-24.4872
-23.965
-23.4369
-22.9064
-22.3749
-21.8471
-21.3243
-20.8117
-20.3091
-19.8208
-19.3478
-18.893
-18.4572
-18.0424
-17.6484
-17.2768
-16.9274
-16.6011
-16.2976
-16.0188
-15.7614
-15.5275
-15.3173
-15.1358
-15.0272
-31.4618
-31.3504
-31.2085
-31.0526
-30.8772
-30.6832
-30.4682
-30.2338
-29.9788
-29.7007
-29.4012
-29.0785
-28.7333
-28.3676
-27.9802
-27.575
-27.1516
-26.7121
-26.2576
-25.7906
-25.3157
-24.8321
-24.3435
-23.853
-23.3633
-22.8757
-22.3948
-21.9196
-21.4547
-21.0035
-20.5646
-20.1411
-19.7336
-19.3452
-18.9739
-18.6233
-18.2921
-17.9819
-17.6926
-17.4234
-17.1773
-16.9611
-16.847
-32.6937
-32.5706
-32.4263
-32.2766
-32.1118
-31.931
-31.7344
-31.5214
-31.2915
-31.0432
-30.7757
-30.4888
-30.1836
-29.8592
-29.5153
-29.1537
-28.7756
-28.381
-27.971
-27.549
-27.1152
-26.671
-26.2185
-25.7621
-25.3005
-24.8381
-24.3777
-23.9183
-23.4645
-23.0192
-22.5814
-22.1558
-21.7406
-21.3402
-20.9533
-20.5837
-20.2301
-19.8933
-19.5747
-19.2709
-18.9823
-18.7167
-18.6031
-34.0715
-33.9406
-33.7995
-33.6514
-33.4883
-33.3121
-33.1234
-32.9206
-32.7036
-32.471
-32.2229
-31.9581
-31.6771
-31.3799
-31.0652
-30.7351
-30.3889
-30.0272
-29.6518
-29.2625
-28.8614
-28.4485
-28.0271
-27.5974
-27.1614
-26.7214
-26.28
-25.8362
-25.3942
-24.9565
-24.5226
-24.0967
-23.678
-23.2694
-22.872
-22.4881
-22.1161
-21.7587
-21.4171
-21.0887
-20.7732
-20.4865
-20.509
-35.5146
-35.3861
-35.2465
-35.0973
-34.9352
-34.7624
-34.5775
-34.3803
-34.1719
-33.9503
-33.7144
-33.4641
-33.2003
-32.9225
-32.6289
-32.3202
-31.9977
-31.6605
-31.3098
-30.9465
-30.5702
-30.1831
-29.7848
-29.3781
-28.9635
-28.5427
-28.1175
-27.6885
-27.2578
-26.8277
-26.3991
-25.9747
-25.5553
-25.1415
-24.7363
-24.3398
-23.9532
-23.5788
-23.2157
-22.8609
-22.514
-22.1782
-22.0128
-36.9666
-36.8456
-36.7101
-36.5656
-36.4095
-36.2426
-36.0637
-35.8737
-35.6726
-35.4592
-35.2331
-34.9943
-34.7431
-34.4781
-34.2001
-33.9077
-33.603
-33.2841
-32.9526
-32.6084
-32.2519
-31.8837
-31.5048
-31.1168
-30.7196
-30.3144
-29.9029
-29.4866
-29.0662
-28.6434
-28.2203
-27.7987
-27.3789
-26.9617
-26.5513
-26.1453
-25.7484
-25.3598
-24.9805
-24.6089
-24.2452
-23.8996
-23.7007
-38.4323
-38.3275
-38.2006
-38.0619
-37.9119
-37.7507
-37.5782
-37.394
-37.1991
-36.9925
-36.7733
-36.5432
-36.301
-36.0462
-35.7794
-35.4992
-35.2068
-34.9024
-34.5845
-34.2545
-33.9133
-33.5598
-33.1958
-32.8217
-32.4385
-32.0459
-31.6469
-31.24
-30.8288
-30.4132
-29.9945
-29.5759
-29.1561
-28.7374
-28.3221
-27.9106
-27.5048
-27.105
-26.7136
-26.3301
-25.9568
-25.6047
-25.4071
-40.0866
-39.9574
-39.8079
-39.6534
-39.4942
-39.3257
-39.1477
-38.9608
-38.7643
-38.5577
-38.3406
-38.1137
-37.8762
-37.6272
-37.3664
-37.0942
-36.8106
-36.5151
-36.2077
-35.8883
-35.5584
-35.2158
-34.8636
-34.5
-34.127
-33.7456
-33.355
-32.9572
-32.5536
-32.1429
-31.7292
-31.3125
-30.8929
-30.4734
-30.0542
-29.6377
-29.2231
-28.8147
-28.4107
-28.0126
-27.6223
-27.2457
-26.9979
-41.7387
-41.5867
-41.4274
-41.2644
-41.0972
-40.921
-40.7376
-40.5464
-40.3467
-40.1384
-39.9219
-39.6957
-39.4596
-39.214
-38.9568
-38.6897
-38.4113
-38.1229
-37.8229
-37.5105
-37.1884
-36.8548
-36.511
-36.1561
-35.7913
-35.4174
-35.0341
-34.6432
-34.245
-33.8395
-33.4284
-33.0142
-32.595
-32.1745
-31.7517
-31.3304
-30.9092
-30.4915
-30.0762
-29.6657
-29.2598
-28.8674
-28.6142
-43.1597
-43.0425
-42.9114
-42.7692
-42.6176
-42.4544
-42.2814
-42.0973
-41.9045
-41.7029
-41.4904
-41.2681
-41.0367
-40.795
-40.543
-40.2805
-40.007
-39.7234
-39.4282
-39.1221
-38.8056
-38.4788
-38.1405
-37.792
-37.4345
-37.066
-36.6884
-36.3015
-35.9082
-35.5065
-35.0976
-34.6844
-34.2654
-33.8435
-33.4181
-32.9928
-32.565
-32.1392
-31.7142
-31.2922
-30.8722
-30.4646
-30.2072
-44.698
-44.5922
-44.4643
-44.3213
-44.1705
-44.0099
-43.84
-43.6597
-43.4696
-43.2704
-43.0612
-42.8431
-42.6142
-42.3755
-42.1262
-41.8672
-41.5973
-41.3173
-41.0259
-40.724
-40.4122
-40.0895
-39.756
-39.4117
-39.0579
-38.6941
-38.3208
-37.9376
-37.5468
-37.1468
-36.7402
-36.3274
-35.9086
-35.4845
-35.0567
-34.6265
-34.1929
-33.76
-33.3258
-32.8922
-32.4598
-32.0383
-31.7597
-46.4179
-46.2847
-46.1309
-45.9705
-45.8067
-45.6345
-45.4535
-45.2653
-45.0692
-44.8647
-44.6526
-44.4309
-44.2007
-43.9615
-43.7124
-43.454
-43.1848
-42.9064
-42.6167
-42.3175
-42.008
-41.6882
-41.3574
-41.016
-40.6646
-40.304
-39.9331
-39.5524
-39.1632
-38.7648
-38.3592
-37.9457
-37.5262
-37.1007
-36.6696
-36.2345
-35.7964
-35.3561
-34.9147
-34.471
-34.0285
-33.5929
-33.2837
-47.9339
-47.8213
-47.6884
-47.5417
-47.3839
-47.2146
-47.0367
-46.8492
-46.6525
-46.448
-46.2353
-46.0133
-45.7828
-45.5428
-45.2936
-45.0348
-44.766
-44.4886
-44.1999
-43.9018
-43.5931
-43.275
-42.9453
-42.6066
-42.2566
-41.8967
-41.5273
-41.1483
-40.7604
-40.3621
-39.9567
-39.5418
-39.1209
-38.6933
-38.2585
-37.8192
-37.3761
-36.9291
-36.4804
-36.0288
-35.5785
-35.1393
-34.8132
-49.527
-49.4079
-49.2707
-49.1182
-48.9579
-48.789
-48.6108
-48.4235
-48.2272
-48.0228
-47.8097
-47.5871
-47.3565
-47.1161
-46.867
-46.608
-46.3399
-46.0621
-45.7738
-45.4754
-45.1675
-44.8499
-44.5215
-44.1835
-43.8341
-43.4752
-43.1056
-42.7277
-42.3389
-41.9412
-41.534
-41.1185
-40.695
-40.2647
-39.8265
-39.3831
-38.9344
-38.4811
-38.0241
-37.5645
-37.1033
-36.6463
-36.3009
-51.1629
-51.0412
-50.8945
-50.7332
-50.5657
-50.3886
-50.2036
-50.0108
-49.8108
-49.6024
-49.3859
-49.1611
-48.9281
-48.6858
-48.4354
-48.1749
-47.9058
-47.6275
-47.3386
-47.0401
-46.7321
-46.4138
-46.0857
-45.7468
-45.3983
-45.0395
-44.6692
-44.2902
-43.901
-43.5024
-43.0937
-42.6767
-42.2509
-41.8168
-41.3752
-40.9265
-40.4724
-40.012
-39.5458
-39.0756
-38.5974
-38.1159
-37.7542
-52.7057
-52.5855
-52.4463
-52.2914
-52.1263
-51.9518
-51.7692
-51.5779
-51.3763
-51.1679
-50.95
-50.7241
-50.4896
-50.2465
-49.9943
-49.7334
-49.4634
-49.1838
-48.8946
-48.5946
-48.2857
-47.9667
-47.6376
-47.2982
-46.9491
-46.5892
-46.2184
-45.8377
-45.4474
-45.0475
-44.637
-44.2179
-43.7886
-43.3517
-42.9063
-42.4523
-41.9925
-41.5255
-41.0517
-40.5714
-40.0798
-39.5871
-39.2902
-54.2353
-54.1248
-53.9897
-53.8363
-53.6741
-53.502
-53.3201
-53.1287
-52.929
-52.7198
-52.5022
-52.2762
-52.0412
-51.7968
-51.5439
-51.2814
-51.0104
-50.7299
-50.4395
-50.1391
-49.8287
-49.5084
-49.1781
-48.8377
-48.4872
-48.1255
-47.7539
-47.3722
-46.9794
-46.5776
-46.1651
-45.7423
-45.3105
-44.8701
-44.4206
-43.962
-43.4971
-43.0232
-42.5429
-42.0545
-41.5551
-41.06
-40.7719
-55.8861
-55.7534
-55.6036
-55.4379
-55.2632
-55.0808
-54.8915
-54.6936
-54.4882
-54.2752
-54.0535
-53.8249
-53.5877
-53.3413
-53.0861
-52.822
-52.5492
-52.267
-51.9746
-51.6726
-51.3612
-51.0392
-50.7075
-50.3654
-50.013
-49.6501
-49.2763
-48.893
-48.498
-48.0929
-47.6783
-47.2529
-46.8176
-46.3739
-45.9194
-45.4565
-44.9857
-44.5061
-44.0203
-43.5261
-43.0236
-42.5265
-42.2377
-57.3557
-57.2436
-57.1082
-56.952
-56.7851
-56.6091
-56.4226
-56.227
-56.0237
-55.8102
-55.5892
-55.3595
-55.1211
-54.8736
-54.617
-54.3516
-54.0776
-53.7939
-53.4996
-53.1958
-52.8828
-52.5592
-52.2257
-51.8814
-51.5275
-51.1618
-50.7867
-50.4004
-50.0029
-49.5954
-49.1772
-48.749
-48.3104
-47.8619
-47.404
-46.9358
-46.4597
-45.9744
-45.4812
-44.9804
-44.4727
-43.9675
-43.639
-58.8698
-58.7567
-58.6245
-58.4701
-58.3045
-58.1299
-57.9456
-57.7524
-57.5487
-57.3356
-57.1141
-56.8838
-56.6446
-56.3965
-56.1389
-55.8719
-55.5963
-55.3105
-55.0145
-54.7086
-54.394
-54.0684
-53.7325
-53.3868
-53.03
-52.662
-52.2845
-51.8955
-51.4953
-51.085
-50.6631
-50.2312
-49.7893
-49.336
-48.8738
-48.4006
-47.9187
-47.427
-46.9273
-46.4181
-45.9005
-45.3815
-45.0053
-60.3957
-60.2886
-60.1548
-59.9997
-59.8346
-59.6594
-59.4725
-59.2764
-59.0713
-58.857
-58.6339
-58.402
-58.1613
-57.9108
-57.6515
-57.383
-57.1051
-56.8172
-56.5196
-56.2118
-55.8949
-55.5668
-55.2294
-54.8806
-54.5215
-54.151
-53.7703
-53.3784
-52.9756
-52.5614
-52.1366
-51.7007
-51.2545
-50.7974
-50.33
-49.8526
-49.3642
-48.8663
-48.3594
-47.8429
-47.3147
-46.7824
-46.3758
-62.0256
-61.8957
-61.7468
-61.5786
-61.3998
-61.2131
-61.0178
-60.8141
-60.603
-60.3831
-60.1547
-59.9183
-59.6735
-59.4206
-59.1579
-58.8867
-58.6058
-58.316
-58.0154
-57.7054
-57.3852
-57.0554
-56.715
-56.3634
-56.0015
-55.6284
-55.2446
-54.8496
-54.4438
-54.0265
-53.5981
-53.1583
-52.7076
-52.2462
-51.7736
-51.2907
-50.7974
-50.2935
-49.7793
-49.2557
-48.7203
-48.1819
-47.7854
-63.4667
-63.357
-63.2227
-63.064
-62.8928
-62.7105
-62.5175
-62.3157
-62.1048
-61.8853
-61.6559
-61.4183
-61.1722
-60.917
-60.6518
-60.3785
-60.0956
-59.8035
-59.501
-59.1886
-58.8652
-58.5331
-58.19
-57.8353
-57.4708
-57.0948
-56.7082
-56.31
-55.8999
-55.4797
-55.0474
-54.6039
-54.1487
-53.6832
-53.2055
-52.7165
-52.2178
-51.7082
-51.1877
-50.6574
-50.1172
-49.5727
-49.1741
-64.9472
-64.832
-64.6969
-64.5409
-64.3713
-64.1912
-64.0003
-63.7999
-63.5895
-63.3701
-63.1414
-62.9039
-62.6568
-62.4003
-62.134
-61.859
-61.5743
-61.2797
-60.9751
-60.6603
-60.3348
-59.9999
-59.6538
-59.2969
-58.9295
-58.5507
-58.1604
-57.7588
-57.345
-56.921
-56.4845
-56.0375
-55.5778
-55.1074
-54.6248
-54.131
-53.6265
-53.1107
-52.5835
-52.0452
-51.4951
-50.9393
-50.5099
-66.4779
-66.3588
-66.2198
-66.0574
-65.8804
-65.6923
-65.4969
-65.2923
-65.0791
-64.8572
-64.6256
-64.3851
-64.1358
-63.8764
-63.6083
-63.3314
-63.0441
-62.7469
-62.4398
-62.1224
-61.7946
-61.4566
-61.1081
-60.7476
-60.3773
-59.9948
-59.6016
-59.1967
-58.7794
-58.3514
-57.9107
-57.4594
-56.9955
-56.52
-56.0327
-55.5338
-55.0235
-54.5026
-53.9691
-53.4236
-52.8678
-52.3066
-51.8692
-67.8921
-67.7897
-67.661
-67.5074
-67.3387
-67.1585
-66.9669
-66.7647
-66.5517
-66.3286
-66.0958
-65.8545
-65.6033
-65.3428
-65.0728
-64.7932
-64.5035
-64.204
-63.8942
-63.5745
-63.244
-62.9033
-62.5515
-62.1881
-61.8143
-61.4282
-61.0319
-60.6234
-60.2029
-59.7706
-59.3262
-58.8703
-58.4025
-57.922
-57.43
-56.9262
-56.4097
-55.8826
-55.344
-54.793
-54.2327
-53.6644
-53.1951
-69.4231
-69.3103
-69.17
-69.0084
-68.8314
-68.643
-68.4458
-68.2382
-68.0224
-67.797
-67.5619
-67.3171
-67.0634
-66.8006
-66.5277
-66.2457
-65.9534
-65.6517
-65.3392
-65.0168
-64.6828
-64.3394
-63.9848
-63.6186
-63.241
-62.8518
-62.4512
-62.0389
-61.6153
-61.1788
-60.7304
-60.2704
-59.798
-59.3123
-58.8157
-58.3061
-57.7851
-57.251
-56.706
-56.1484
-55.5785
-54.9957
-54.4706
-70.9152
-70.7938
-70.6526
-70.4887
-70.3098
-70.1185
-69.9171
-69.7067
-69.487
-69.2581
-69.02
-68.7725
-68.5161
-68.25
-67.9744
-67.689
-67.3945
-67.0894
-66.7741
-66.4482
-66.1115
-65.7648
-65.4071
-65.0381
-64.6575
-64.2649
-63.8609
-63.4449
-63.0168
-62.5768
-62.1239
-61.6597
-61.1823
-60.6921
-60.1901
-59.6752
-59.149
-58.6095
-58.0587
-57.4956
-56.9217
-56.335
-55.8033
-72.3669
-72.2472
-72.1059
-71.942
-71.7617
-71.5697
-71.3683
-71.1564
-70.9348
-70.7044
-70.4639
-70.2135
-69.9543
-69.6861
-69.4083
-69.121
-68.8237
-68.5161
-68.1976
-67.8693
-67.5302
-67.1802
-66.8192
-66.4467
-66.0629
-65.6672
-65.2596
-64.8401
-64.4079
-63.9638
-63.5074
-63.0377
-62.5559
-62.0613
-61.5539
-61.0342
-60.5018
-59.9565
-59.4002
-58.8298
-58.2474
-57.6556
-57.1608
-73.7484
-73.6432
-73.5123
-73.3552
-73.18
-72.9912
-72.7928
-72.5821
-72.3617
-72.1312
-71.8904
-71.6398
-71.3799
-71.1098
-70.8308
-70.5411
-70.2416
-69.9311
-69.6105
-69.2798
-68.9379
-68.5852
-68.2207
-67.8453
-67.4584
-67.0588
-66.6476
-66.2241
-65.7888
-65.3405
-64.8798
-64.4054
-63.9194
-63.4197
-62.9074
-62.382
-61.8441
-61.2935
-60.7324
-60.159
-59.5732
-58.9886
-58.637
-75.2554
-75.1286
-74.981
-74.812
-74.6278
-74.4334
-74.228
-74.013
-73.7887
-73.5546
-73.311
-73.0583
-72.7957
-72.5241
-72.2428
-71.9511
-71.6492
-71.3364
-71.0132
-70.68
-70.3353
-69.9797
-69.6122
-69.2338
-68.8433
-68.4407
-68.0256
-67.5983
-67.1591
-66.7066
-66.2414
-65.7629
-65.272
-64.7669
-64.2497
-63.7188
-63.1753
-62.6181
-62.0483
-61.4648
-60.8651
-60.2478
-59.7386
-76.6123
-76.5046
-76.3703
-76.2103
-76.0326
-75.8393
-75.6364
-75.4224
-75.1989
-74.9646
-74.7207
-74.4661
-74.2025
-73.9287
-73.6446
-73.3508
-73.0468
-72.7315
-72.4063
-72.0696
-71.7228
-71.3641
-70.9938
-70.6121
-70.2175
-69.8122
-69.393
-68.9619
-68.5186
-68.062
-67.5922
-67.1097
-66.6138
-66.1041
-65.5811
-65.0455
-64.4957
-63.9325
-63.3559
-62.7652
-62.161
-61.5416
-61.0244
-77.9435
-77.8445
-77.7201
-77.5709
-77.4019
-77.2168
-77.0189
-76.8093
-76.5873
-76.3547
-76.1111
-75.8577
-75.5932
-75.3187
-75.0339
-74.738
-74.4323
-74.1154
-73.7884
-73.4488
-73.0991
-72.7376
-72.3648
-71.9795
-71.5817
-71.1731
-70.7504
-70.3156
-69.8683
-69.4075
-68.9333
-68.4459
-67.9455
-67.4313
-66.9027
-66.362
-65.8063
-65.2372
-64.6547
-64.0585
-63.4494
-62.8324
-62.3405
-79.5061
-79.3755
-79.221
-79.0476
-78.8583
-78.6563
-78.4463
-78.2267
-77.9977
-77.759
-77.5106
-77.2519
-76.9837
-76.7061
-76.418
-76.1195
-75.8102
-75.4913
-75.1611
-74.8191
-74.4662
-74.1015
-73.7255
-73.3372
-72.9363
-72.5239
-72.0979
-71.6595
-71.2083
-70.7433
-70.2646
-69.7724
-69.2678
-68.7482
-68.2146
-67.6678
-67.1064
-66.5319
-65.9424
-65.3392
-64.7223
-64.096
-63.6008
-80.8138
-80.7023
-80.5693
-80.4096
-80.2294
-80.0342
-79.827
-79.6091
-79.3797
-79.1398
-78.8905
-78.6307
-78.3601
-78.0805
-77.7906
-77.4896
-77.1781
-76.856
-76.5231
-76.1785
-75.8233
-75.4553
-75.0765
-74.6848
-74.2812
-73.8648
-73.4355
-72.9933
-72.5381
-72.0688
-71.5862
-71.0894
-70.5797
-70.0546
-69.5166
-68.9637
-68.3963
-67.8151
-67.2189
-66.608
-65.9811
-65.3408
-64.8152
-82.2009
-82.0846
-81.9471
-81.7839
-81.6028
-81.4061
-81.1979
-80.9783
-80.7487
-80.5084