/*--------------------------------*- C++ -*----------------------------------*\
| =========                 |                                                 |
| \\      /  F ield         | OpenFOAM: The Open Source CFD Toolbox           |
|  \\    /   O peration     | Version:  2.3.0                                 |
|   \\  /    A nd           | Web:      www.OpenFOAM.org                      |
|    \\/     M anipulation  |                                                 |
\*---------------------------------------------------------------------------*/
FoamFile
{
    version     2.0;
    format      ascii;
    class       surfaceScalarField;
    location    "10000";
    object      phi;
}
// * * * * * * * * * * * * * * * * * * * * * * * * * * * * * * * * * * * * * //

dimensions      [0 3 -1 0 0 0 0];

internalField   nonuniform List<scalar> 
243276
(
-2.21419e-05
-0.00223021
0.00243346
-0.000181107
-0.000209938
-0.0021508
0.0023386
-0.000384428
-0.00207368
0.00224817
-0.000544143
-0.00200033
0.00216004
-0.00069121
-0.00192949
0.00207656
-0.000825208
-0.0018616
0.0019956
-0.000946358
-0.00179641
0.00191756
-0.00105691
-0.00173283
0.00184339
-0.00115559
-0.00167326
0.00177193
-0.00124361
-0.0016147
0.00170272
-0.00132133
-0.0015589
0.00163662
-0.00138911
-0.00150578
0.00157356
-0.00144641
-0.00145439
0.00151169
-0.00149623
-0.00140376
0.00145357
-0.00153622
-0.0013574
0.00139739
-0.00156849
-0.00131075
0.00134303
-0.00159244
-0.00126741
0.00129135
-0.0016093
-0.00122453
0.00124139
-0.00161839
-0.00118392
0.00119301
-0.00162003
-0.00114555
0.00114719
-0.00161638
-0.00110744
0.0011038
-0.00160581
-0.00107149
0.00106092
-0.00158859
-0.00103666
0.00101945
-0.00156693
-0.00100291
0.000981249
-0.00153917
-0.000972153
0.000944392
-0.00150654
-0.000940415
0.000907782
-0.00146932
-0.000910596
0.000873375
-0.00142779
-0.000881662
0.000840135
-0.00138123
-0.000855586
0.000809027
-0.00133195
-0.000828295
0.000779018
-0.00128025
-0.000801711
0.000750004
-0.00122334
-0.000778902
0.000721996
-0.00116568
-0.000753607
0.000695944
-0.00110444
-0.000730906
0.000669663
-0.00104095
-0.000708697
0.00064521
-0.000977712
-0.000685707
0.000622468
-0.000910664
-0.000665072
0.000598024
-0.000843447
-0.000643329
0.000576112
-0.000776424
-0.000621248
0.000554224
-0.000708946
-0.000599557
0.000532078
-0.000641803
-0.000575415
0.000508274
-0.00057845
-0.000549998
0.000486644
-0.000519832
-0.000511136
0.00045252
-1.86887e-05
-0.00204671
-0.000164812
-0.000188684
-0.00198081
-0.000345593
-0.00191677
-0.000489435
-0.00185649
-0.000621478
-0.00179745
-0.00074216
-0.00174092
-0.000852316
-0.00168625
-0.00095072
-0.00163443
-0.00103994
-0.00158404
-0.00111844
-0.00153621
-0.00118828
-0.00148905
-0.00124896
-0.0014451
-0.00130166
-0.00140169
-0.00134397
-0.00136144
-0.00138067
-0.0013207
-0.00140845
-0.00128298
-0.00142937
-0.00124649
-0.00144278
-0.00121111
-0.00144985
-0.00117686
-0.00145085
-0.00114454
-0.00144595
-0.00111235
-0.0014345
-0.00108293
-0.00141764
-0.00105352
-0.00139465
-0.0010259
-0.00136863
-0.000998179
-0.00133688
-0.000972164
-0.00129962
-0.000947854
-0.001259
-0.000922274
-0.00121532
-0.000899268
-0.00116677
-0.00087685
-0.00111354
-0.000854943
-0.00105896
-0.000833474
-0.00100117
-0.000811404
-0.000939424
-0.000792649
-0.000877091
-0.00077103
-0.00081118
-0.000751617
-0.000744047
-0.000732205
-0.000674683
-0.000712694
-0.000602985
-0.000692945
-0.00053073
-0.000671812
-0.000453758
-0.000652387
-0.000371275
-0.000632481
-0.000610118
-0.000280989
-1.58846e-05
-0.00188189
-0.00014894
-0.000169503
-0.00182719
-0.000310896
-0.00177538
-0.000441123
-0.00172626
-0.000560609
-0.00167796
-0.000669581
-0.00163195
-0.00076761
-0.00158822
-0.000856908
-0.00154513
-0.000936745
-0.0015042
-0.00100751
-0.00146545
-0.00106952
-0.00142704
-0.00112389
-0.00139072
-0.00117004
-0.00135555
-0.00121002
-0.00132146
-0.00124142
-0.0012893
-0.00126628
-0.00125812
-0.00128395
-0.00122882
-0.00129643
-0.00119862
-0.00130218
-0.00117111
-0.0013023
-0.00114442
-0.00129611
-0.00111853
-0.00128566
-0.00109339
-0.00126925
-0.00106993
-0.00124898
-0.00104617
-0.00122407
-0.00102308
-0.00119379
-0.00100245
-0.00116019
-0.000981445
-0.00112152
-0.000960949
-0.00107987
-0.000940916
-0.00103543
-0.000921287
-0.000986396
-0.000903981
-0.000934838
-0.000885032
-0.000878948
-0.000867294
-0.000821833
-0.000849764
-0.000760533
-0.000832331
-0.00069721
-0.000814939
-0.000631901
-0.000797515
-0.000563609
-0.000780985
-0.000492214
-0.00076434
-0.000417543
-0.000746483
-0.000340501
-0.000729429
-0.000260685
-0.000712297
-0.000694224
-0.000176579
-1.33856e-05
-0.00173153
-0.000136975
-0.000151351
-0.00168922
-0.000279398
-0.00164733
-0.000397138
-0.00160852
-0.00050435
-0.00157075
-0.000602526
-0.00153377
-0.000692303
-0.00149845
-0.000772425
-0.00146501
-0.000843794
-0.00143283
-0.000908512
-0.00140073
-0.000964218
-0.00137133
-0.00101295
-0.00134199
-0.00105495
-0.00131355
-0.00108869
-0.00128771
-0.00111705
-0.00126094
-0.00113935
-0.00123583
-0.00115586
-0.00121231
-0.00116495
-0.00118953
-0.00116958
-0.00116649
-0.00116898
-0.00114502
-0.00116339
-0.00112413
-0.00115295
-0.00110383
-0.0011388
-0.00108407
-0.00111925
-0.00106572
-0.00109445
-0.00104788
-0.00106737
-0.00102953
-0.00103629
-0.00101252
-0.00100043
-0.000996818
-0.000961789
-0.000979553
-0.000918613
-0.000964463
-0.000874906
-0.000947689
-0.000825939
-0.000933999
-0.000775693
-0.00091754
-0.000721391
-0.000904066
-0.000665019
-0.000888702
-0.000605717
-0.000874242
-0.000543514
-0.000859718
-0.000479415
-0.000845085
-0.000414422
-0.000829333
-0.000345493
-0.000815412
-0.000273502
-0.00080142
-0.000200359
-0.00078544
-0.000771562
-0.00012302
-1.04017e-05
-0.00159639
-0.000124739
-0.000136263
-0.00156336
-0.000251216
-0.00153238
-0.000357739
-0.001502
-0.000455024
-0.00147347
-0.000543681
-0.00144511
-0.000623722
-0.00141841
-0.00069617
-0.00139256
-0.000761528
-0.00136747
-0.000818273
-0.00134398
-0.000869222
-0.00132038
-0.000913737
-0.00129748
-0.000950348
-0.00127694
-0.000981841
-0.00125622
-0.0010067
-0.00123608
-0.00102599
-0.00121653
-0.00103992
-0.00119838
-0.00104957
-0.00117988
-0.00105334
-0.00116271
-0.00105232
-0.00114604
-0.00104665
-0.0011298
-0.00103651
-0.00111397
-0.00102208
-0.00109851
-0.00100436
-0.00108344
-0.000982645
-0.00106959
-0.000956141
-0.00105604
-0.000926817
-0.00104185
-0.000894827
-0.00102881
-0.000859343
-0.00101504
-0.000820527
-0.00100328
-0.000778411
-0.000989804
-0.000734151
-0.00097826
-0.000686811
-0.00096488
-0.000637486
-0.000953391
-0.000585277
-0.000940911
-0.000530249
-0.000929269
-0.000474394
-0.000915573
-0.000414898
-0.00090458
-0.000353646
-0.000890585
-0.000289733
-0.000879326
-0.000225094
-0.000866059
-0.000157745
-0.000852789
-0.000841539
-8.77679e-05
-9.34715e-06
-0.00147317
-0.000113869
-0.000122511
-0.0014502
-0.000226637
-0.00142825
-0.000322151
-0.00140648
-0.000410714
-0.0013849
-0.000490268
-0.00136556
-0.000562872
-0.0013458
-0.000628631
-0.0013268
-0.000686935
-0.00130917
-0.000739753
-0.00129116
-0.000784766
-0.00127537
-0.000823849
-0.00125839
-0.000857229
-0.00124356
-0.000886012
-0.00122744
-0.000908588
-0.00121351
-0.000926038
-0.00119908
-0.000938536
-0.00118588
-0.000946257
-0.00117216
-0.000949368
-0.0011596
-0.000948018
-0.00114739
-0.000942424
-0.0011354
-0.000933544
-0.00112285
-0.000919771
-0.00111228
-0.000903049
-0.00110017
-0.000882582
-0.00109006
-0.000859413
-0.00107921
-0.000831857
-0.0010694
-0.000802759
-0.00105791
-0.000769479
-0.00104832
-0.000733971
-0.00103879
-0.000695449
-0.00102833
-0.000654904
-0.0010188
-0.000611493
-0.00100829
-0.000565269
-0.000999615
-0.000518216
-0.000987963
-0.000468545
-0.00097894
-0.000415315
-0.000968804
-0.000362409
-0.000957486
-0.000305127
-0.000947867
-0.000248272
-0.000936181
-0.000188956
-0.000925375
-0.000126321
-0.000915425
-0.000903672
-6.41875e-05
-6.91393e-06
-0.00136227
-0.000103989
-0.000109207
-0.0013479
-0.000204314
-0.00133314
-0.000291054
-0.00131974
-0.000370221
-0.00130574
-0.000443305
-0.00129247
-0.000509236
-0.00127987
-0.000567898
-0.00126814
-0.000620575
-0.00125649
-0.000667407
-0.00124433
-0.00070863
-0.00123415
-0.000744444
-0.00122258
-0.000775007
-0.001213
-0.000799606
-0.00120284
-0.000820204
-0.00119291
-0.000835229
-0.00118406
-0.000846492
-0.00117462
-0.000853352
-0.0011653
-0.000855923
-0.00115703
-0.00085442
-0.00114889
-0.000849798
-0.00114002
-0.000840476
-0.00113217
-0.000829214
-0.00112354
-0.000812559
-0.00111682
-0.000794236
-0.00110838
-0.000772531
-0.00110091
-0.000748508
-0.00109343
-0.000720425
-0.00108599
-0.000690193
-0.00107855
-0.000657923
-0.00107106
-0.000622823
-0.00106343
-0.000585877
-0.00105575
-0.000545318
-0.00104885
-0.000504929
-0.00104
-0.000460095
-0.0010328
-0.000414663
-0.00102437
-0.000367702
-0.00101576
-0.000317484
-0.0010077
-0.000266831
-0.00099852
-0.000213932
-0.00098908
-0.000158812
-0.000980495
-0.000103344
-0.000970892
-0.000961264
-4.57523e-05
-5.14366e-06
-0.0012625
-9.46241e-05
-9.77343e-05
-0.00125531
-0.000183351
-0.00124753
-0.000262462
-0.00124063
-0.00033422
-0.00123398
-0.000400111
-0.00122658
-0.000458866
-0.00122112
-0.000512882
-0.00121412
-0.000561297
-0.00120807
-0.000602639
-0.00120299
-0.000640473
-0.00119631
-0.000672478
-0.00119057
-0.000699659
-0.00118582
-0.000722156
-0.00118034
-0.00074015
-0.00117491
-0.000754618
-0.00116959
-0.000764842
-0.0011644
-0.0007701
-0.00116004
-0.000772302
-0.00115483
-0.000771514
-0.00114968
-0.000767084
-0.00114445
-0.00075906
-0.0011402
-0.000746739
-0.00113586
-0.000732861
-0.0011307
-0.00071571
-0.00112554
-0.000696311
-0.00112031
-0.00067301
-0.00111673
-0.000648571
-0.00111043
-0.00062037
-0.00110675
-0.000591171
-0.00110026
-0.000558421
-0.00109618
-0.000524006
-0.00109016
-0.000488923
-0.00108393
-0.000450483
-0.00107844
-0.000410472
-0.00107281
-0.000369074
-0.00106577
-0.000325364
-0.00105947
-0.000280407
-0.00105266
-0.000234263
-0.00104466
-0.000185991
-0.00103735
-0.000136598
-0.00102989
-8.51665e-05
-0.00102232
-0.00101379
-3.26429e-05
-4.28017e-06
-0.00117161
-8.66067e-05
-8.8823e-05
-0.00117077
-0.000166068
-0.00117028
-0.000237293
-0.00116941
-0.000302525
-0.00116875
-0.000361364
-0.00116775
-0.000415282
-0.0011672
-0.00046425
-0.00116515
-0.000507196
-0.00116513
-0.000545978
-0.00116421
-0.000579138
-0.00116315
-0.000607661
-0.00116205
-0.000632606
-0.00116087
-0.000653261
-0.00115969
-0.000669655
-0.00115852
-0.000682932
-0.00115631
-0.000691468
-0.00115586
-0.000696888
-0.00115462
-0.000698816
-0.0011529
-0.000697061
-0.00115143
-0.000692003
-0.00114951
-0.000684374
-0.00114783
-0.000674488
-0.00114575
-0.000662452
-0.00114273
-0.00064645
-0.00114154
-0.000627415
-0.00113935
-0.000607401
-0.00113674
-0.000583795
-0.00113403
-0.000559282
-0.00113126
-0.000531156
-0.00112838
-0.000502416
-0.00112492
-0.000472177
-0.0011204
-0.000438745
-0.00111737
-0.000403977
-0.00111321
-0.000367504
-0.00110928
-0.000329091
-0.00110418
-0.000289268
-0.0010993
-0.000248376
-0.00109355
-0.000205536
-0.0010875
-0.000162598
-0.00108029
-0.00011756
-0.00107493
-7.16322e-05
-0.00106825
-2.38341e-05
-0.00106159
-0.00035213
-0.000500701
0.000341696
-0.000214286
-0.000501277
0.000363433
-8.49455e-05
-0.000507237
0.000377897
3.47702e-05
-0.000514125
0.00039441
0.000148633
-0.000525016
0.000411154
0.000257
-0.000537307
0.000428939
0.000360204
-0.00055074
0.000447537
0.000455904
-0.000564237
0.000468537
0.000547801
-0.000580374
0.000488477
0.000634315
-0.000596392
0.000509878
0.000715616
-0.000613972
0.000532671
0.000791736
-0.000631355
0.000555235
0.000862801
-0.000650274
0.000579209
0.000928856
-0.000669837
0.000603782
0.000989901
-0.000690059
0.000629015
0.00104593
-0.000710961
0.000654928
0.00109697
-0.000733365
0.000682323
0.00114301
-0.000757264
0.000711233
0.00118386
-0.000780229
0.000739371
0.00121878
-0.000804776
0.000769859
0.00124936
-0.000830997
0.000800421
0.0012737
-0.000857791
0.00083345
0.00129175
-0.000885475
0.000867425
0.00130506
-0.000914955
0.000901638
0.00131203
-0.000944408
0.000937444
0.00131312
-0.000976389
0.000975294
0.00130676
-0.00100777
0.00101413
0.00129398
-0.0010415
0.00105428
0.00127513
-0.0010773
0.00109615
0.00124904
-0.0011134
0.00113949
0.00121545
-0.00115055
0.00118414
0.00117407
-0.0011903
0.00123167
0.00112511
-0.00123069
0.00127965
0.00106797
-0.00127297
0.00133011
0.00100251
-0.00131727
0.00138272
0.000927782
-0.00136237
0.0014371
0.00084434
-0.00141015
0.0014936
0.00075241
-0.00145956
0.00155149
0.000650013
-0.00151043
0.00161283
0.000537738
-0.00156358
0.00167585
0.000414967
-0.001619
0.00174177
0.000281425
-0.00167568
0.00180922
-0.00173531
0.00188024
0.000136489
-0.00017994
-0.000601751
-7.76425e-05
-0.000603575
2.27932e-05
-0.000607673
0.000121783
-0.000613115
0.00021565
-0.000618882
0.000306043
-0.0006277
0.000391954
-0.000636651
0.000474281
-0.000646564
0.000552161
-0.000658254
0.000625633
-0.000669864
0.000694765
-0.000683104
0.000759624
-0.000696214
0.000821023
-0.000711673
0.000878157
-0.000726971
0.000930985
-0.000742886
0.000980254
-0.00076023
0.0010245
-0.000777609
0.00106338
-0.000796145
0.00109942
-0.000816267
0.00112995
-0.000835303
0.00115579
-0.000856843
0.00117699
-0.000878992
0.00119326
-0.000901746
0.00120298
-0.000924671
0.00120885
-0.000950281
0.00120719
-0.000974722
0.00120171
-0.00100229
0.00118991
-0.00102971
0.00117137
-0.00105875
0.00114611
-0.00108814
0.00111488
-0.00111932
0.00107653
-0.00115195
0.00103161
-0.00118578
0.00097861
-0.00121997
0.000917934
-0.00125659
0.000849977
-0.00129441
0.000774074
-0.00133425
0.000688945
-0.00137443
0.0005953
-0.00141679
0.00049203
-0.00146031
0.000379676
-0.00150664
0.000257627
-0.00155363
-0.0016031
0.00012542
-9.08684e-05
-0.000687462
-6.32488e-06
-0.000688118
7.74015e-05
-0.000691399
0.000158786
-0.0006945
0.000239346
-0.000699442
0.000315965
-0.000704319
0.000389371
-0.000710056
0.000461244
-0.000718437
0.000528769
-0.000725779
0.000593646
-0.000734741
0.000654931
-0.00074439
0.000713398
-0.00075468
0.000767279
-0.000765555
0.000818327
-0.000778018
0.00086538
-0.000789939
0.000908731
-0.000803581
0.000947949
-0.000816827
0.000984007
-0.000832203
0.00101504
-0.000847303
0.00104282
-0.000863078
0.0010655
-0.00087952
0.00108356
-0.000897057
0.0010972
-0.000915383
0.0011067
-0.000934174
0.00111032
-0.000953905
0.00111027
-0.000974671
0.00110362
-0.000995638
0.00109203
-0.00101812
0.00107434
-0.00104106
0.00105185
-0.00106565
0.00102283
-0.0010903
0.000987309
-0.00111643
0.000945166
-0.00114363
0.000896798
-0.0011716
0.000841372
-0.00120117
0.000778597
-0.00123163
0.000708182
-0.00126384
0.000630153
-0.0012964
0.000544056
-0.00133069
0.000450421
-0.00136668
0.000346971
-0.00140319
0.000235553
-0.00144221
-0.00148193
0.000114382
-4.69068e-05
-0.000763575
3.02406e-05
-0.000765266
0.000104304
-0.000765463
0.000177006
-0.000767202
0.000247124
-0.00076956
0.000315425
-0.000772621
0.000380872
-0.000775504
0.000443308
-0.000780873
0.000503542
-0.000786014
0.000561472
-0.00079267
0.0006161
-0.000799018
0.000667488
-0.000806068
0.000716425
-0.000814492
0.000760857
-0.00082245
0.000803752
-0.000832835
0.000842064
-0.000841893
0.000877583
-0.000852346
0.000908428
-0.000863048
0.000936522
-0.000875398
0.000960633
-0.000887189
0.000981547
-0.000900434
0.000997598
-0.000913108
0.00100957
-0.000927358
0.00101733
-0.00094193
0.00102041
-0.000956981
0.00101841
-0.000972679
0.00101253
-0.000989755
0.00100101
-0.0010066
0.000985316
-0.00102536
0.00096317
-0.0010435
0.000936727
-0.00106386
0.000903408
-0.00108311
0.000865172
-0.0011054
0.000820481
-0.00112691
0.000770048
-0.00115073
0.000712725
-0.00117431
0.000647862
-0.00119897
0.000577026
-0.00122557
0.000498218
-0.00125188
0.000411822
-0.00128028
0.000318204
-0.00130957
0.000215262
-0.00133927
-0.00137116
0.00010449
-1.75464e-05
-0.000833797
5.05716e-05
-0.000833384
0.000117447
-0.000832339
0.000181991
-0.000831746
0.000245013
-0.000832582
0.000305495
-0.000833103
0.000365107
-0.000835116
0.000421093
-0.000836858
0.00047511
-0.000840031
0.000526304
-0.000843864
0.000575245
-0.00084796
0.000621351
-0.000852174
0.00066417
-0.000857312
0.00070567
-0.000863949
0.000743099
-0.000870263
0.000777135
-0.00087593
0.000808739
-0.00088395
0.000837754
-0.000892063
0.000862495
-0.000900139
0.000883617
-0.000908311
0.000901572
-0.000918389
0.000916094
-0.00092763
0.000925966
-0.00093723
0.000932531
-0.000948495
0.000935063
-0.000959513
0.000934158
-0.000971774
0.000927509
-0.000983106
0.000917882
-0.000996969
0.000901708
-0.00100919
0.00088226
-0.00102405
0.000857248
-0.00103885
0.000827931
-0.00105379
0.000792224
-0.00106969
0.000751389
-0.00108607
0.000704117
-0.00110346
0.000651433
-0.00112163
0.00059286
-0.0011404
0.000527066
-0.00115977
0.000455767
-0.00118058
0.000376659
-0.00120117
0.000290281
-0.0012232
0.000197657
-0.00124665
-0.00126969
9.61952e-05
-7.97199e-08
-0.000897904
6.09891e-05
-0.000894452
0.000121687
-0.000893036
0.000180146
-0.000890205
0.000237139
-0.000889575
0.000291739
-0.000887703
0.000344738
-0.000888114
0.000395236
-0.000887356
0.000443875
-0.00088867
0.000489838
-0.000889828
0.000534031
-0.000892152
0.000576109
-0.000894252
0.000615426
-0.000896628
0.000651837
-0.000900361
0.000685194
-0.00090362
0.000716451
-0.000907187
0.000745277
-0.000912776
0.00077015
-0.000916935
0.000792498
-0.000922487
0.000811578
-0.000927391
0.000827552
-0.000934364
0.000839789
-0.000939867
0.000849931
-0.000947373
0.000855592
-0.000954156
0.000857712
-0.000961633
0.000855124
-0.000969186
0.000850036
-0.000978018
0.000839427
-0.000986359
0.000826012
-0.000995776
0.000807113
-0.00100516
0.000784215
-0.00101595
0.000756406
-0.00102598
0.000723757
-0.00103704
0.000686654
-0.00104897
0.000644227
-0.00106103
0.000595845
-0.00107325
0.000542034
-0.00108659
0.000482804
-0.00110054
0.000416353
-0.00111413
0.000344706
-0.00112952
0.000265724
-0.00114421
0.000180596
-0.00116152
-0.00117714
8.80387e-05
1.18449e-05
-0.000955502
6.82355e-05
-0.000950843
0.000121631
-0.000946431
0.000175525
-0.000944099
0.000226303
-0.000940353
0.000275689
-0.000937089
0.000323679
-0.000936105
0.000370042
-0.000933719
0.000413079
-0.000931707
0.000455187
-0.000931936
0.00049422
-0.000931185
0.000531336
-0.000931368
0.000567522
-0.000932815
0.000600032
-0.000932871
0.000630772
-0.00093436
0.000659396
-0.000935811
0.00068421
-0.00093759
0.000706982
-0.000939707
0.000726653
-0.000942158
0.000744168
-0.000944905
0.000758417
-0.000948613
0.000770308
-0.000951758
0.000777871
-0.000954935
0.00078236
-0.000958645
0.000783894
-0.000963167
0.000782513
-0.000967805
0.000776956
-0.000972461
0.000767647
-0.00097705
0.000754582
-0.000982711
0.000737987
-0.00098856
0.000716773
-0.000994734
0.000691865
-0.00100107
0.000662053
-0.00100723
0.00062774
-0.00101466
0.000588111
-0.00102141
0.000544348
-0.00102948
0.000495099
-0.00103734
0.000440573
-0.00104602
0.000380788
-0.00105435
0.000314435
-0.00106317
0.000243192
-0.00107297
0.000164472
-0.0010828
-0.00109344
8.07702e-05
1.89042e-05
-0.00100705
7.02542e-05
-0.00100219
0.000119537
-0.000995714
0.000166732
-0.000991295
0.000213571
-0.000987192
0.000258375
-0.000981892
0.000300758
-0.000978488
0.000342716
-0.000975677
0.000383179
-0.00097217
0.000420597
-0.000969354
0.000456281
-0.000966869
0.000490375
-0.000965462
0.000521339
-0.000963779
0.000551365
-0.000962897
0.000578634
-0.000961628
0.000604124
-0.000961301
0.000626925
-0.000960391
0.000647873
-0.000960655
0.000665911
-0.000960196
0.000681958
-0.000960952
0.0006943
-0.000960955
0.000704122
-0.000961581
0.000711904
-0.000962717
0.000716295
-0.000963035
0.000717496
-0.000964367
0.000715574
-0.000965884
0.000710197
-0.000967084
0.000701932
-0.000968785
0.000690223
-0.000971002
0.000674921
-0.000973259
0.000654987
-0.000974799
0.000631996
-0.000978084
0.000604794
-0.000980028
0.000572896
-0.000982757
0.000537881
-0.000986391
0.000497298
-0.000988899
0.00045206
-0.000992103
0.000402339
-0.000996297
0.000347672
-0.000999679
0.000287899
-0.0010034
0.000222203
-0.00100727
0.000151458
-0.00101206
-0.00101568
7.36974e-05
2.38798e-05
-0.00105476
6.96079e-05
-0.00104792
0.000115165
-0.00104127
0.000158744
-0.00103487
0.000199397
-0.00102785
0.000240569
-0.00102306
0.000279961
-0.00101788
0.000316794
-0.00101251
0.000352555
-0.00100793
0.000386941
-0.00100374
0.000419849
-0.000999778
0.000450465
-0.000996078
0.00047892
-0.000992233
0.000505897
-0.000989874
0.000531187
-0.000986919
0.0005538
-0.000983913
0.00057465
-0.000981242
0.000592903
-0.000978908
0.000609569
-0.000976861
0.000623647
-0.00097503
0.000635489
-0.000972798
0.000643994
-0.000970086
0.000650128
-0.000968851
0.000654119
-0.000967027
0.000655057
-0.000965306
0.000653247
-0.000964073
0.000648662
-0.000962499
0.000641137
-0.000961261
0.000630154
-0.000960019
0.000615086
-0.000958191
0.000597924
-0.000957637
0.000576466
-0.000956626
0.000551795
-0.000955357
0.000523422
-0.000954384
0.000490556
-0.000953525
0.000454119
-0.000952461
0.000413672
-0.000951656
0.000367208
-0.000949833
0.000317113
-0.000949584
0.00026235
-0.000948633
0.000202757
-0.000947682
0.000137643
-0.000946941
-0.000946291
6.82584e-05
-1.83783e-05
0.00263448
-0.00286653
0.000250423
0.000195589
0.00253819
-0.00275216
0.000392282
0.00244554
-0.00264224
0.000572231
0.00235628
-0.00253623
0.000736217
0.00227038
-0.00243437
0.000884748
0.00218756
-0.0023361
0.00101834
0.00210755
-0.00224114
0.00113774
0.00203031
-0.00214971
0.00124321
0.00195607
-0.00206153
0.00133496
0.00188453
-0.00197629
0.00141427
0.0018149
-0.00189421
0.0014806
0.0017479
-0.00181423
0.00153546
0.00168274
-0.00173759
0.00157809
0.00162013
-0.00166276
0.00161001
0.00155881
-0.00159073
0.00163102
0.00149976
-0.00152076
0.00164141
0.00144245
-0.00145284
0.001642
0.00138639
-0.00138698
0.00163291
0.0013323
-0.0013232
0.00161498
0.00127942
-0.0012615
0.00158837
0.00122826
-0.00120166
0.00155353
0.00117807
-0.00114322
0.00151136
0.0011291
-0.00108693
0.0014619
0.00108181
-0.00103234
0.00140587
0.00103527
-0.000979241
0.00134381
0.000989942
-0.000927882
0.00127627
0.000945814
-0.000878277
0.00120405
0.000902427
-0.000830209
0.00112731
0.000860212
-0.000783472
0.00104668
0.000818912
-0.000738277
0.000962995
0.000778071
-0.000694388
0.000876702
0.000738271
-0.000651978
0.0007887
0.000698805
-0.000610802
0.000699682
0.000659794
-0.000570776
0.000609828
0.000621282
-0.000531428
0.000520292
0.000582694
-0.000493158
0.000431942
0.000543915
-0.000455565
0.00034523
0.000504518
-0.000417805
0.000261631
0.000463452
-0.000379853
0.000182247
0.000419908
-0.000340525
0.000107964
0.000371993
-0.000297709
3.36709e-05
0.000321554
-0.000247264
0.000303096
-9.49847e-05
-0.00017444
-1.90521e-05
0.00242407
0.000229465
0.000174965
0.00234417
0.000353383
0.00226713
0.00051673
0.00219293
0.000665527
0.00212158
0.000800556
0.00205254
0.000921823
0.00198628
0.0010301
0.00192203
0.0011259
0.00186027
0.00120973
0.0018007
0.00128184
0.00174279
0.00134298
0.00168676
0.00139288
0.00163283
0.00143282
0.0015802
0.00146229
0.00152934
0.00148232
0.00147973
0.00149294
0.00143183
0.00149444
0.00138488
0.00148763
0.00133911
0.00147234
0.00129472
0.00144965
0.00125095
0.00141919
0.00120852
0.00138161
0.00116668
0.00133754
0.00112588
0.0012872
0.00108561
0.00123128
0.00104586
0.00117003
0.00100707
0.00110373
0.000968717
0.00103339
0.000930556
0.000959539
0.000892763
0.000882121
0.000855489
0.00080218
0.000818212
0.000720144
0.000780841
0.000636301
0.000743636
0.000551968
0.000705616
0.000467547
0.000667115
0.000383717
0.000627744
0.000301673
0.000586563
0.000222386
0.000542739
0.000146735
0.000495559
7.47031e-05
0.000444024
-2.09566e-06
0.000398351
0.000424944
-0.000123943
-1.89829e-05
0.00223324
0.000209812
0.000157102
0.00216809
0.000318703
0.00210553
0.00046687
0.00204477
0.000602143
0.00198631
0.000724265
0.00193041
0.000834536
0.00187601
0.000932964
0.0018236
0.00102006
0.00177317
0.0010966
0.00172416
0.00116232
0.00167708
0.00121773
0.00163136
0.00126384
0.00158672
0.00130013
0.0015439
0.00132764
0.00150184
0.0013461
0.00146126
0.00135631
0.00142163
0.00135852
0.00138267
0.00135279
0.00134483
0.00133991
0.0013076
0.00131946
0.00127141
0.00129249
0.00123549
0.00125913
0.00120005
0.00121948
0.00116552
0.00117418
0.00113091
0.00112341
0.00109663
0.00106783
0.00106265
0.00100789
0.00102865
0.000943408
0.00099504
0.000875343
0.000960829
0.000804227
0.000926605
0.000730409
0.000892031
0.000654287
0.000856963
0.000576706
0.000821217
0.000498168
0.000784154
0.000419053
0.00074623
0.00034079
0.000706007
0.000263639
0.000663713
0.000189085
0.000617293
0.000117862
0.000566781
4.853e-05
0.000513356
-2.92766e-05
0.000476157
0.000539807
-0.000144139
-1.90245e-05
0.00206003
0.000192232
0.000140796
0.00200827
0.000288019
0.0019583
0.000422406
0.00191038
0.000544737
0.00186398
0.000656068
0.00181908
0.00075588
0.0017762
0.000845216
0.00173427
0.000924339
0.00169405
0.00099377
0.00165473
0.0010535
0.00161734
0.00110431
0.00158055
0.00114592
0.00154511
0.00117937
0.00151045
0.00120439
0.00147681
0.00122175
0.0014439
0.00123146
0.00141192
0.0012338
0.00138033
0.00122903
0.0013496
0.00121745
0.00131918
0.0011996
0.00128926
0.00117554
0.00125955
0.00114559
0.00123
0.00111009
0.00120103
0.00106914
0.00117185
0.00102337
0.00114241
0.000972918
0.0011131
0.000917984
0.00108359
0.000859692
0.00105333
0.00079738
0.00102314
0.000732224
0.00099176
0.000664312
0.000959943
0.000594213
0.000927062
0.000522736
0.000892694
0.000449931
0.000856958
0.000376928
0.000819233
0.000303818
0.000779118
0.000232478
0.000735053
0.000162729
0.000687042
9.60808e-05
0.000633429
3.02796e-05
0.000579157
-4.5686e-05
0.000552123
0.000645513
-0.000151392
-1.84232e-05
0.0019028
0.000175655
0.000126525
0.00186332
0.000259729
0.0018251
0.000381969
0.00178814
0.000493263
0.00175269
0.000594127
0.00171822
0.000685091
0.00168524
0.000766163
0.00165319
0.000838382
0.00162183
0.000900975
0.00159214
0.000955752
0.00156257
0.00100168
0.00153462
0.00104005
0.00150674
0.00107058
0.00147992
0.00109354
0.00145385
0.00110944
0.001428
0.00111854
0.00140282
0.00112084
0.00137803
0.00111712
0.00135332
0.0011069
0.0013294
0.00109096
0.0013052
0.00106936
0.00128116
0.00104238
0.00125697
0.00101035
0.00123306
0.000973586
0.00120862
0.000932189
0.00118381
0.000886287
0.001159
0.000836735
0.00113314
0.000783246
0.00110682
0.000726489
0.0010799
0.000666936
0.00105131
0.00060464
0.00102224
0.000540562
0.00099114
0.000474425
0.000958831
0.000407481
0.000923903
0.000339827
0.000886887
0.000272667
0.000846278
0.000206192
0.000801528
0.000141908
0.000751326
7.96504e-05
0.000695686
1.76932e-05
0.000641114
-5.47562e-05
0.000624572
0.000741893
-0.000151136
-1.80131e-05
0.00176016
0.000160659
0.000113711
0.00173159
0.000235036
0.00170377
0.000345717
0.00167746
0.000446799
0.0016516
0.000538545
0.00162647
0.000620962
0.00160282
0.000695082
0.00157907
0.000760144
0.00155677
0.000817695
0.00153459
0.000866982
0.00151328
0.000909282
0.00149232
0.000943831
0.00147219
0.000971639
0.00145211
0.000992954
0.00143254
0.00100754
0.00141342
0.00101614
0.00139422
0.00101852
0.00137564
0.00101495
0.0013569
0.00100642
0.00133793
0.000992208
0.0013194
0.00097286
0.0013005
0.000948436
0.00128139
0.000919721
0.00126178
0.000886283
0.00124206
0.000848672
0.00122142
0.000807452
0.00120022
0.000762056
0.00117853
0.000713327
0.00115555
0.000661886
0.00113134
0.000607071
0.00110613
0.000550492
0.00107882
0.000491571
0.00105006
0.000431225
0.00101918
0.000369551
0.000985576
0.000307225
0.000949213
0.000245099
0.000908404
0.000183936
0.000862691
0.000124465
0.000810797
6.7023e-05
0.000753129
9.14854e-06
0.000698988
-5.90888e-05
0.000692809
0.000830146
-0.000147341
-1.70756e-05
0.00163045
0.000146787
0.000102529
0.00161199
0.0002123
0.001594
0.000313282
0.00157647
0.000404963
0.00155992
0.000488143
0.00154329
0.000563326
0.00152764
0.000630249
0.00151215
0.000689707
0.00149731
0.000741697
0.0014826
0.000787004
0.00146797
0.000825114
0.00145421
0.00085708
0.00144023
0.000882356
0.00142684
0.000901703
0.00141319
0.000915384
0.00139974
0.00092289
0.00138671
0.00092551
0.00137302
0.000922722
0.00135969
0.000914774
0.00134588
0.000901921
0.00133226
0.000884691
0.00131773
0.0008629
0.00130319
0.000836601
0.00128808
0.000806843
0.00127182
0.000772686
0.00125558
0.000734907
0.001238
0.000694075
0.00121937
0.000649875
0.00119975
0.000602847
0.00117837
0.000553211
0.00115576
0.000500967
0.00113106
0.000447134
0.00110389
0.000391986
0.00107432
0.000335571
0.00104199
0.000278707
0.00100608
0.000221241
0.00096587
0.000164836
0.000919096
0.000110121
0.000865512
5.68297e-05
0.00080642
3.10486e-06
0.000752713
-6.09925e-05
0.000756906
0.000910682
-0.000141529
-1.63958e-05
0.00151285
0.000133994
9.24361e-05
0.00150316
0.000192244
0.00149419
0.000283555
0.00148516
0.000367163
0.00147632
0.000442812
0.00146764
0.00051103
0.00145942
0.000571777
0.0014514
0.000626139
0.00144295
0.000673572
0.00143516
0.000714111
0.00142743
0.000749019
0.0014193
0.000778111
0.00141114
0.000801326
0.00140362
0.000818848
0.00139567
0.000831297
0.00138729
0.000838586
0.00137942
0.000840827
0.00137078
0.000838481
0.00136203
0.000831502
0.00135285
0.000820174
0.00134358
0.000804177
0.00133373
0.000784675
0.00132269
0.00076121
0.00131154
0.000733828
0.0012992
0.000703217
0.00128619
0.000668915
0.0012723
0.000631637
0.00125664
0.000591693
0.0012397
0.00054841
0.00122165
0.0005031
0.00120108
0.000455816
0.00117835
0.000406401
0.00115331
0.000356104
0.00112462
0.000304542
0.00109355
0.000251972
0.00105865
0.000199221
0.00101862
0.00014745
0.000970868
9.72625e-05
0.000915699
4.87648e-05
0.000854918
-1.2266e-06
0.000802704
-6.04263e-05
0.000816106
0.000984188
-0.000133932
-1.54913e-05
0.00140581
0.00012253
8.31184e-05
0.00140455
0.000174032
0.00140328
0.000257262
0.00140193
0.000332805
0.00140077
0.000401487
0.00139896
0.000463573
0.00139733
0.000519224
0.00139575
0.000568243
0.00139393
0.000611361
0.00139205
0.000648933
0.00138986
0.000680284
0.00138795
0.000706504
0.00138492
0.000728029
0.0013821
0.000744267
0.00137943
0.000755518
0.00137603
0.000762303
0.00137264
0.000764623
0.00136846
0.00076247
0.00136419
0.000756202
0.00135912
0.000746109
0.00135368
0.000731956
0.00134788
0.000713806
0.00134084
0.00069229