/*--------------------------------*- C++ -*----------------------------------*\
| =========                 |                                                 |
| \\      /  F ield         | OpenFOAM: The Open Source CFD Toolbox           |
|  \\    /   O peration     | Version:  2.3.0                                 |
|   \\  /    A nd           | Web:      www.OpenFOAM.org                      |
|    \\/     M anipulation  |                                                 |
\*---------------------------------------------------------------------------*/
FoamFile
{
    version     2.0;
    format      ascii;
    class       surfaceScalarField;
    location    "4000";
    object      phi;
}
// * * * * * * * * * * * * * * * * * * * * * * * * * * * * * * * * * * * * * //

dimensions      [0 3 -1 0 0 0 0];

internalField   nonuniform List<scalar> 
78778
(
-0.0062928
-0.00516975
0.00566916
0.00579358
-0.00675292
-0.00494551
0.00540563
-0.00717328
-0.00473025
0.00515062
-0.00755653
-0.00452658
0.00490983
-0.00790219
-0.00432878
0.00467444
-0.00821595
-0.00413806
0.00445182
-0.00849413
-0.00395717
0.00423535
-0.00874139
-0.00378295
0.0040302
-0.00895902
-0.00361444
0.00383206
-0.00915064
-0.00345
0.00364162
-0.00931266
-0.00329837
0.00346039
-0.00944901
-0.00314564
0.00328199
-0.00956387
-0.00300098
0.00311583
-0.00965045
-0.00286351
0.0029501
-0.00971567
-0.00273118
0.00279639
-0.00976175
-0.00259796
0.00264405
-0.00978511
-0.00247546
0.00249882
-0.00978712
-0.00235389
0.00235589
-0.00977255
-0.00223568
0.00222111
-0.00973705
-0.00212588
0.00209038
-0.0096851
-0.00201397
0.00196202
-0.0096151
-0.00190789
0.00183789
-0.00952667
-0.00180514
0.00171672
-0.0094214
-0.00170447
0.00159919
-0.00929836
-0.00160567
0.00148263
-0.00915931
-0.00150988
0.00137083
-0.0090046
-0.00141521
0.00126049
-0.00883202
-0.00132453
0.00115195
-0.00864529
-0.00123274
0.00104601
-0.00844314
-0.00114252
0.000940373
-0.00823001
-0.00105225
0.000839117
-0.00800673
-0.00096403
0.000740748
-0.00777664
-0.000873215
0.000643135
-0.00754189
-0.000783704
0.000548941
-0.00730809
-0.000692178
0.000458383
-0.00707888
-0.000599385
0.000370168
-0.00686092
-0.000503671
0.000285718
-0.00666112
-0.000406587
0.000206773
-0.0064865
-0.000308
0.000133392
-0.00634728
-0.000206695
6.74414e-05
-0.00624531
-0.000109419
7.46011e-06
-0.00618909
-1.46818e-05
-4.1557e-05
7.70596e-05
-0.00625633
-9.80698e-06
-0.00567915
-0.00472162
0.00523102
-0.00608789
-0.00453676
-0.00646221
-0.00435593
-0.00680485
-0.00418394
-0.00711196
-0.00402168
-0.00738944
-0.00386057
-0.00764084
-0.00370577
-0.00786225
-0.00356154
-0.00805764
-0.00341905
-0.00822594
-0.0032817
-0.00837283
-0.00315147
-0.00849664
-0.00302183
-0.0085978
-0.00289982
-0.00867943
-0.00278188
-0.00874124
-0.00266937
-0.00878422
-0.00255498
-0.00880944
-0.00245024
-0.00881805
-0.00234528
-0.0088111
-0.00224263
-0.00879101
-0.00214597
-0.00875681
-0.00204817
-0.00871005
-0.00195465
-0.00865082
-0.00186438
-0.00858178
-0.0017735
-0.00850237
-0.00168508
-0.00841379
-0.00159846
-0.00831684
-0.00151216
-0.00821383
-0.00142754
-0.00810401
-0.00134256
-0.00798631
-0.00126022
-0.00786273
-0.00117583
-0.00773318
-0.00109358
-0.00759586
-0.00101053
-0.00745156
-0.000928008
-0.0072975
-0.000846228
-0.00713512
-0.00076177
-0.00695683
-0.000681956
-0.00676335
-0.000600079
-0.00654884
-0.000522504
-0.00630894
-0.000446604
-0.00604415
-0.000374203
-0.00574817
-0.000310672
-0.000251406
-0.0054197
-0.00512511
-0.00432288
0.00472637
-0.00549297
-0.0041689
-0.00582532
-0.00402358
-0.00612986
-0.00387939
-0.00640604
-0.00374549
-0.00665317
-0.00361345
-0.00687055
-0.00348839
-0.00706818
-0.00336391
-0.00724214
-0.00324509
-0.0073905
-0.00313334
-0.00752041
-0.00302157
-0.00762549
-0.00291675
-0.00771399
-0.00281132
-0.00778402
-0.00271185
-0.00783741
-0.00261598
-0.00787123
-0.00252117
-0.00789225
-0.00242922
-0.00789815
-0.00233938
-0.00788865
-0.00225213
-0.00786786
-0.00216677
-0.00783282
-0.00208321
-0.00778428
-0.00200319
-0.00772669
-0.00192197
-0.00765803
-0.00184215
-0.00757946
-0.00176365
-0.00748927
-0.00168865
-0.00739189
-0.00160954
-0.00728465
-0.00153478
-0.00716947
-0.00145773
-0.00704714
-0.00138256
-0.00691631
-0.00130666
-0.00678073
-0.00122916
-0.00663583
-0.00115543
-0.00648536
-0.00107849
-0.00633099
-0.0010006
-0.00616628
-0.000926474
-0.00599625
-0.000851992
-0.00582058
-0.000775746
-0.00563595
-0.000707134
-0.00544509
-0.000637469
-0.00524456
-0.000574728
-0.00503813
-0.000517112
-0.000469826
-0.0048197
-0.00462749
-0.00396613
0.00427074
-0.00495476
-0.00384163
-0.00525271
-0.00372563
-0.00552272
-0.00360938
-0.0057693
-0.00349891
-0.00599059
-0.00339215
-0.00618918
-0.00328981
-0.00636206
-0.00319103
-0.00651586
-0.00309128
-0.00664899
-0.00300021
-0.00676338
-0.00290718
-0.00685974
-0.00282038
-0.00693649
-0.00273458
-0.00699814
-0.00265019
-0.00704472
-0.00256941
-0.00707529
-0.0024906
-0.00709082
-0.00241369
-0.00709474
-0.00233545
-0.00708287
-0.00226401
-0.00706173
-0.00218791
-0.00702659
-0.00211834
-0.00698276
-0.00204702
-0.00692731
-0.00197742
-0.00686275
-0.00190671
-0.00678887
-0.00183753
-0.00670649
-0.00177103
-0.00661724
-0.00169879
-0.0065192
-0.00163282
-0.00641335
-0.00156358
-0.00630096
-0.00149495
-0.00618121
-0.00142641
-0.00605404
-0.00135633
-0.0059231
-0.00128637
-0.00578508
-0.00121651
-0.00563869
-0.00114698
-0.00548703
-0.00107814
-0.0053302
-0.00100882
-0.00516316
-0.000942786
-0.00499252
-0.000877769
-0.00481531
-0.000814687
-0.00463086
-0.000759175
-0.00444131
-0.000706665
-0.000662694
-0.00424844
-0.0041809
-0.00364585
0.00386062
-0.00447301
-0.00354953
-0.00474162
-0.00345702
-0.00498504
-0.00336597
-0.00520448
-0.00327947
-0.0054014
-0.00319522
-0.00557801
-0.0031132
-0.00573571
-0.00303333
-0.00587056
-0.00295644
-0.00599028
-0.0028805
-0.00609056
-0.00280689
-0.00617514
-0.0027358
-0.00624396
-0.00266577
-0.00629772
-0.00259643
-0.00633819
-0.00252894
-0.00636363
-0.00246515
-0.00637807
-0.00239924
-0.00637605
-0.00233747
-0.0063679
-0.00227217
-0.00634312
-0.00221268
-0.00631255
-0.00214892
-0.00627065
-0.00208892
-0.00621757
-0.00203049
-0.00615801
-0.00196627
-0.00608774
-0.0019078
-0.00601177
-0.001847
-0.00592375
-0.00178681
-0.00583418
-0.00172239
-0.0057337
-0.00166407
-0.00562835
-0.00160029
-0.00551793
-0.00153684
-0.00539965
-0.0014746
-0.00527673
-0.00140928
-0.00514828
-0.00134496
-0.00501416
-0.0012811
-0.00487496
-0.00121734
-0.00473048
-0.0011533
-0.00458261
-0.00109065
-0.00442995
-0.00103043
-0.00427149
-0.000973148
-0.00411054
-0.000920127
-0.00394514
-0.000872062
-0.000829903
-0.00377793
-0.00377487
-0.00335837
0.00348739
-0.00403928
-0.00328511
-0.00427986
-0.00321643
-0.00449791
-0.00314793
-0.00469678
-0.0030806
-0.00487358
-0.00301842
-0.00503256
-0.00295422
-0.00517305
-0.00289284
-0.00529719
-0.00283231
-0.00540316
-0.00277452
-0.00549264
-0.00271741
-0.00556919
-0.00265925
-0.00563138
-0.00260358
-0.00567836
-0.00254945
-0.00571234
-0.00249496
-0.00573351
-0.00244399
-0.00574627
-0.00238648
-0.00574723
-0.00233651
-0.00573475
-0.00228465
-0.0057147
-0.00223273
-0.00568402
-0.0021796
-0.00564345
-0.00212949
-0.00559797
-0.00207597
-0.00553863
-0.00202562
-0.00547492
-0.00197151
-0.00540425
-0.00191768
-0.00532668
-0.00186437
-0.0052394
-0.00180968
-0.00514917
-0.00175429
-0.00505262
-0.00169684
-0.0049492
-0.00164026
-0.00484317
-0.00158063
-0.00472908
-0.00152337
-0.00461123
-0.00146282
-0.0044889
-0.00140343
-0.0043619
-0.00134433
-0.00423084
-0.00128437
-0.00409584
-0.00122565
-0.0039559
-0.00117038
-0.00381372
-0.00111532
-0.00366732
-0.00106653
-0.00351877
-0.00102062
-0.000978755
-0.00336991
-0.00341376
-0.00310067
0.00315606
-0.00364976
-0.00304911
-0.00386653
-0.00299967
-0.0040633
-0.00295116
-0.00424036
-0.00290354
-0.00440196
-0.00285682
-0.00454414
-0.00281204
-0.00466996
-0.00276702
-0.00477997
-0.00272229
-0.00487624
-0.00267825
-0.00495888
-0.00263477
-0.00502521
-0.00259291
-0.00508013
-0.00254866
-0.00512195
-0.00250763
-0.00515295
-0.00246396
-0.00517455
-0.00242239
-0.00518243
-0.0023786
-0.00518167
-0.00233727
-0.00517062
-0.0022957
-0.00515158
-0.00225177
-0.00512351
-0.00220768
-0.00508883
-0.00216416
-0.00504246
-0.00212235
-0.00499256
-0.00207552
-0.00493293
-0.00203113
-0.00486655
-0.00198405
-0.00479453
-0.00193639
-0.00471715
-0.00188706
-0.00463357
-0.00183787
-0.00454355
-0.00178686
-0.00445093
-0.00173289
-0.00435064
-0.00168092
-0.00424714
-0.00162686
-0.00413946
-0.0015705
-0.00402765
-0.00151525
-0.00391231
-0.00145968
-0.00379335
-0.00140332
-0.00366998
-0.00134902
-0.00354517
-0.00129518
-0.00341518
-0.00124531
-0.00328373
-0.00119799
-0.00315048
-0.00115387
-0.00111439
-0.00301484
-0.00308777
-0.00286637
0.00285347
-0.00330026
-0.00283662
-0.00349604
-0.00280389
-0.00367324
-0.00277396
-0.00383321
-0.00274357
-0.00397619
-0.00271383
-0.0041052
-0.00268304
-0.00421912
-0.00265309
-0.00431924
-0.00262218
-0.00440502
-0.00259248
-0.00447952
-0.00256027
-0.00454089
-0.00253154
-0.00458907
-0.00250047
-0.00462802
-0.00246869
-0.00465424
-0.00243774
-0.00467401
-0.00240262
-0.00468051
-0.0023721
-0.00467967
-0.00233811
-0.00466901
-0.00230636
-0.00465101
-0.00226977
-0.0046236
-0.00223509
-0.00459124
-0.00219653
-0.00455243
-0.00216115
-0.00450343
-0.00212452
-0.00445034
-0.00208423
-0.0043911
-0.0020433
-0.00432501
-0.00200248
-0.00425394
-0.00195813
-0.00417772
-0.00191409
-0.00409537
-0.00186921
-0.00400884
-0.00181941
-0.0039192
-0.00177057
-0.00382451
-0.00172155
-0.00372596
-0.00166904
-0.00362394
-0.00161727
-0.00351869
-0.00156492
-0.00340888
-0.00151313
-0.00329798
-0.00145992
-0.00318397
-0.0014092
-0.00306777
-0.00136151
-0.00294942
-0.00131635
-0.00282803
-0.00127525
-0.00123777
-0.00270466
-0.00279135
0.00258193
-0.00265695
-0.00298552
-0.00264246
-0.00316115
-0.00262826
-0.00331951
-0.0026156
-0.00346504
-0.00259804
-0.00359697
-0.0025819
-0.00371458
-0.00256543
-0.00381927
-0.0025484
-0.00390713
-0.00253432
-0.00398577
-0.00251384
-0.00405144
-0.00249461
-0.00410843
-0.00247455
-0.00415265
-0.00245625
-0.00418761
-0.00243373
-0.00421264
-0.00241271
-0.00422695
-0.00238831
-0.00423342
-0.00236563
-0.00423271
-0.00233882
-0.00422484
-0.00231423
-0.00420738
-0.00228723
-0.00418414
-0.00225833
-0.00415085
-0.00222982
-0.0041153
-0.0021967
-0.00407247
-0.00216735
-0.00402302
-0.00213368
-0.0039678
-0.00209851
-0.00390925
-0.00206103
-0.00384558
-0.0020218
-0.00377519
-0.00198447
-0.00369984
-0.00194456
-0.00362034
-0.00189892
-0.00353784
-0.00185307
-0.00345165
-0.00180773
-0.00336133
-0.00175936
-0.0032678
-0.00171081
-0.00317142
-0.0016613
-0.00307189
-0.00161267
-0.00296876
-0.00156304
-0.00286394
-0.00151401
-0.00275972
-0.00146573
-0.0026506
-0.00142547
-0.00254061
-0.00138525
-0.00243002
-0.00134836
-0.0056323
0.000134403
-0.000758436
-0.00521075
0.000119939
-0.000541482
-0.00487079
9.05241e-05
-0.000430471
-0.00457995
5.71541e-05
-0.000347989
-0.00432005
1.83758e-05
-0.000278269
-0.0040835
-2.1972e-05
-0.000214569
-0.00386386
-6.44488e-05
-0.000155193
-0.00365739
-0.000108603
-9.78621e-05
-0.00346272
-0.000153055
-4.16049e-05
-0.00327702
-0.000198915
1.32176e-05
-0.00310001
-0.000245011
6.80008e-05
-0.00292894
-0.000293445
0.000122372
-0.00276486
-0.000342281
0.000178213
-0.00260671
-0.000391121
0.000232966
-0.00245413
-0.000443062
0.000290487
-0.00230657
-0.000495892
0.00034833
-0.00216483
-0.000549077
0.00040734
-0.00202908
-0.000604941
0.000469192
-0.0018996
-0.000662158
0.000532679
-0.00177614
-0.000721588
0.000598127
-0.00165933
-0.000782695
0.000665885
-0.0015501
-0.000845787
0.000736564
-0.00144848
-0.00091159
0.000809973
-0.00135462
-0.000980094
0.000886226
-0.00127015
-0.00105071
0.000966245
-0.00119545
-0.00112428
0.00104958
-0.00113064
-0.00120139
0.00113658
-0.00107717
-0.00128104
0.00122757
-0.00103553
-0.0013643
0.00132266
-0.001007
-0.00145106
0.00142253
-0.00099227
-0.00154153
0.0015268
-0.000992109
-0.00163642
0.00163626
-0.0010076
-0.00173518
0.00175067
-0.00104002
-0.00183854
0.00187096
-0.00109074
-0.00194605
0.00199677
-0.00116045
-0.00205878
0.0021285
-0.00125059
-0.00217677
0.00226692
-0.00136265
-0.00230006
0.00241212
-0.00149747
-0.00242912
0.00256394
-0.00165707
-0.00256384
0.00272345
-0.00184294
-0.00270485
0.00289072
-0.00205644
-0.00285282
0.00306632
-0.00300763
0.00324978
-0.00229859
-0.00507299
-0.00021231
-0.00475704
-0.000195999
-0.00447465
-0.00019187
-0.00421596
-0.000201537
-0.00397919
-0.000218391
-0.00376064
-0.000240518
-0.00355617
-0.000268922
-0.0033654
-0.000299373
-0.00318311
-0.000335343
-0.00301004
-0.000371985
-0.00284396
-0.000411087
-0.00268517
-0.000452232
-0.00253298
-0.000494475
-0.00238487
-0.000539226
-0.0022438
-0.000584136
-0.00210817
-0.000631518
-0.00197668
-0.000680567
-0.00185252
-0.000729094
-0.00173378
-0.000780903
-0.00162142
-0.000833944
-0.00151515
-0.00088896
-0.00141628
-0.000944661
-0.00132467
-0.0010032
-0.00124131
-0.00106346
-0.00116646
-0.00112556
-0.0011005
-0.00119025
-0.0010444
-0.00125748
-0.000998895
-0.00132655
-0.000964053
-0.00139914
-0.000941418
-0.00147369
-0.000931135
-0.00155182
-0.000934936
-0.00163262
-0.000953176
-0.00171694
-0.000986903
-0.00180482
-0.00103644
-0.00189651
-0.00110297
-0.00199225
-0.00118854
-0.0020912
-0.00129283
-0.00219578
-0.00141849
-0.00230345
-0.00156556
-0.00241678
-0.00173547
-0.00253494
-0.00192979
-0.0026585
-0.00278733
-0.00215009
-0.00459426
-0.000437757
-0.00436803
-0.000422226
-0.00414534
-0.000414567
-0.00393137
-0.000415505
-0.00372595
-0.000423805
-0.00352811
-0.000438363
-0.00333992
-0.000457109
-0.00315783
-0.000481467
-0.00298458
-0.000508592
-0.00281785
-0.000538719
-0.00265821
-0.000570732
-0.0025044
-0.000606036
-0.00235647
-0.000642403
-0.00221493
-0.00068077
-0.00207907
-0.000719997
-0.00194978
-0.000760805
-0.0018262
-0.000804153
-0.00170789
-0.000847397
-0.0015958
-0.000892995
-0.00149092
-0.000938829
-0.00139298
-0.000986896
-0.00130152
-0.00103612
-0.00121771
-0.00108701
-0.00114142
-0.00113975
-0.00107375
-0.00119322
-0.00101466
-0.00124934
-0.000965247
-0.00130689
-0.000925027
-0.00136677
-0.000896379
-0.00142779
-0.000877757
-0.00149231
-0.000871532
-0.00155804
-0.000877378
-0.00162678
-0.000896206
-0.00169811
-0.000929188
-0.00177183
-0.000976908
-0.00184879
-0.00104066
-0.0019285
-0.00112049
-0.00201137
-0.00121834
-0.00209793
-0.00133395
-0.00218785
-0.00146938
-0.00228134
-0.00162559
-0.00237873
-0.00180351
-0.00248058
-0.00258672
-0.00200412
-0.00405475
-0.000631452
-0.00386402
-0.000612953
-0.00367663
-0.00060196
-0.00349293
-0.000599198
-0.00331493
-0.000601809
-0.00314396
-0.000609333
-0.00297797
-0.000623104
-0.00281807
-0.000641364
-0.0026643
-0.000662362
-0.0025154
-0.000687619
-0.00237237
-0.000713766
-0.00223513
-0.000743274
-0.00210347
-0.00077406
-0.00197674
-0.000807499
-0.00185498
-0.000841764
-0.00173824
-0.000877545
-0.00162751
-0.000914878
-0.00152224
-0.000952668
-0.00142334
-0.000991896
-0.00132967
-0.00103249
-0.00124289
-0.00107368
-0.00116217
-0.00111684
-0.00108894
-0.00116024
-0.00102259
-0.0012061
-0.000964026
-0.00125178
-0.000913355
-0.00130001
-0.000871386
-0.00134886
-0.00083894
-0.00139921
-0.000815319
-0.00145141
-0.000802641
-0.00150499
-0.000799762
-0.00156092
-0.000808588
-0.00161795
-0.00082954
-0.00167716
-0.000863258
-0.00173812
-0.000909935
-0.00180211
-0.000970826
-0.00186761
-0.00104609
-0.0019361
-0.00113785
-0.00200617
-0.00124577
-0.00207993
-0.00137113
-0.00215598
-0.00151453
-0.00223533
-0.0016776
-0.00231751
-0.00240299
-0.00186133
-0.00361029
-0.000799089
-0.00344415
-0.000779098
-0.00328064
-0.000765472
-0.00312138
-0.000758459
-0.00296598
-0.000757207
-0.00281255
-0.00076276
-0.00266584
-0.000769818
-0.00252285
-0.000784349
-0.00238456
-0.000800662
-0.00225218
-0.000819995
-0.00212362
-0.000842329
-0.00199914
-0.000867747
-0.00187976
-0.000893448
-0.00176537
-0.000921886
-0.00165541
-0.00095173
-0.0015514
-0.000981552
-0.00145225
-0.00101402
-0.00135784
-0.00104708
-0.00126862
-0.00108112
-0.00118561
-0.0011155
-0.00110758
-0.00115171
-0.00103625
-0.00118817
-0.000971497
-0.001225
-0.000913343
-0.00126426
-0.000862539
-0.00130259
-0.000819239
-0.00134331
-0.000783502
-0.00138459
-0.000756221
-0.0014265
-0.000738083
-0.00146955
-0.000729071
-0.001514
-0.000730115
-0.00155988
-0.000740873
-0.00160719
-0.000762902
-0.00165513
-0.000796183
-0.00170483
-0.000841755
-0.00175654
-0.000899696
-0.00180966
-0.000971523
-0.00186428
-0.00105693
-0.00192077
-0.00115728
-0.00197957
-0.00127369
-0.00203957
-0.00140604
-0.00210299
-0.00155619
-0.00216736
-0.00223505
-0.00172414
-0.00322022
-0.000948789
-0.00307199
-0.00092732
-0.00292719
-0.000910276
-0.00278415
-0.000901501
-0.00264426
-0.000897092
-0.00251012
-0.000896904
-0.00237741
-0.00090253
-0.00225063
-0.000911128
-0.00212697
-0.000924321
-0.00200642
-0.000940551
-0.00189115
-0.000957601
-0.00178006
-0.000978832
-0.00167257
-0.00100094
-0.00156972
-0.00102474
-0.00147214
-0.00104931
-0.00137787
-0.00107582
-0.00128854
-0.00110336
-0.00120442
-0.00113119
-0.00112494
-0.00116061
-0.00105038
-0.00119006
-0.000982333
-0.00121976
-0.000919868
-0.00125063
-0.000862396
-0.00128247
-0.000811893
-0.00131476
-0.000767233
-0.00134725
-0.000730553
-0.00137999
-0.000700743
-0.0014144
-0.000678787
-0.00144845
-0.00066456
-0.00148378
-0.000658861
-0.0015197
-0.000662282
-0.00155646
-0.000675316
-0.00159416
-0.000697505
-0.00163294
-0.00073004
-0.0016723
-0.0007743
-0.00171228
-0.00082956
-0.0017544
-0.000896999
-0.00179684
-0.000977087
-0.00184068
-0.00107126
-0.0018854
-0.00117829
-0.00193254
-0.001301
-0.00198028
-0.00143859
-0.00202976
-0.00208122
-0.00159242
-0.00288065
-0.00108298
-0.00274825
-0.00105971
-0.00261686
-0.00104167
-0.00248903
-0.00102933
-0.00236497
-0.00102114
-0.00224269
-0.00101919
-0.00212455
-0.00102066
-0.00200874
-0.00102694
-0.0018975
-0.00103557
-0.00179081
-0.00104724
-0.00168601
-0.0010624
-0.00158587
-0.00107897
-0.00148954
-0.00109727
-0.00139729
-0.00111699
-0.00130854
-0.00113806
-0.001224
-0.00116036
-0.00114405
-0.00118331
-0.00106817
-0.00120707
-0.00099784
-0.00123094
-0.000932612
-0.00125529
-0.000870678
-0.00128169
-0.000815042
-0.00130627
-0.000764797
-0.00133271
-0.000721202
-0.00135835
-0.000682748
-0.0013857
-0.000650081
-0.00141266
-0.000625436
-0.00143905
-0.000607292
-0.0014666
-0.000596466
-0.0014946
-0.000593445
-0.00152272
-0.000598757
-0.00155114
-0.000612635
-0.00158028
-0.000635651
-0.00160993
-0.000667896
-0.00164006
-0.000709806
-0.00167037
-0.000762449
-0.00170176
-0.000825943
-0.00173334
-0.000901069
-0.00176556
-0.000987654
-0.00179881
-0.0010876
-0.00183259
-0.00120023
-0.00186765
-0.00132672
-0.00190328
-0.00193975
-0.00146818
-0.00258262
-0.00120501
-0.00246212
-0.00118021
-0.00234387
-0.00115993
-0.00222992
-0.00114328
-0.0021172
-0.00113387
-0.00200706
-0.00112934
-0.00189938
-0.00112834
-0.00179661
-0.00112971
-0.00169543
-0.00113674
-0.00159816
-0.00114452
-0.00150417
-0.00115639
-0.00141418
-0.00116896
-0.00132715
-0.00118431
-0.00124351
-0.00120063
-0.00116378
-0.0012178
-0.00108798
-0.00123616
-0.0010164
-0.00125489
-0.000949805
-0.00127366
-0.000886049
-0.0012947
-0.000826259
-0.00131508
-0.00077273
-0.00133522
-0.000722987
-0.00135601
-0.000678839
-0.00137686
-0.000639665
-0.00139753
-0.000606009
-0.00141936
-0.000578813
-0.00143986
-0.000557398
-0.00146046
-0.000543113
-0.00148088
-0.00053511
-0.00150261
-0.000534152
-0.00152368
-0.000540606
-0.00154469
-0.000555001
-0.00156588
-0.000577451
-0.00158748
-0.000608715
-0.00160879
-0.000648778
-0.00163031
-0.00069839
-0.00165215
-0.000757868
-0.00167387
-0.000827977
-0.00169545
-0.000908786
-0.001718
-0.00100068
-0.00174069
-0.00110516
-0.00176318
-0.00122162
-0.00178682
-0.00181022
-0.00135115
-0.00231837
-0.00131665
-0.00220962
-0.00128897
-0.00210409
-0.00126545
-0.00199978
-0.00124759
-0.00189779
-0.00123585
-0.00179883
-0.0012283
-0.00170199
-0.00122518
-0.00160747
-0.00122423
-0.00151789
-0.00122632
-0.00142967
-0.00123275
-0.00134482
-0.00124123
-0.00126217
-0.00125162
-0.00118376
-0.00126271
-0.00110859
-0.0012758
-0.00103645
-0.00128994
-0.00096832
-0.00130429
-0.000904275
-0.00131894
-0.000842991
-0.00133494
-0.000786198
-0.00135149
-0.000734003
-0.00136727
-0.000685527
-0.0013837
-0.000641729
-0.00139981
-0.000602819
-0.00141577
-0.000568566
-0.00143178
-0.000538579
-0.00144934
-0.000514763
-0.00146367
-0.000497612
-0.00147762
-0.000485486
-0.00149301
-0.000479148
-0.00150894
-0.000480228
-0.0015226
-0.000487725
-0.00153719
-0.000502028
-0.00155158
-0.000523734
-0.00156577
-0.000553586
-0.00157894
-0.000591602
-0.00159229
-0.000638483
-0.00160527
-0.000694617
-0.00161773
-0.000759609
-0.00163046
-0.000834585
-0.00164303
-0.000919526
-0.00165575
-0.00101494
-0.00166776
-0.00112226
-0.0016795
-0.00169209
-0.00124039
0.0012339
-0.00099431
0.00109185
-0.00133144
0.00114982
-0.000912742
0.000996816
0.00107902
-0.000834081
0.000904888
0.00102086
-0.000759294
0.000817445
0.000974234
-0.000687168
0.000733799
0.000937805
-0.000618396
0.000654825
0.000911434
-0.000553262
0.000579633
0.000893305
-0.000491023
0.000509152
0.000883145
-0.000432567
0.000442727
0.000879262
-0.000376721
0.000380604
0.000881353
-0.000324256
0.000322165
0.00088828
-0.000274802
0.000267875
0.000898843
-0.000227847
0.000217285
0.00091295
-0.000184499
0.000170392
0.000929045
-0.000142982
0.000126888
0.000946756
-0.000104526
8.68146e-05
0.000965099
-6.8257e-05
4.99138e-05
0.000983812
-3.46279e-05
1.59152e-05
0.00100243
-3.37923e-06
-1.52345e-05
0.00101978
2.64081e-05
-4.37616e-05
0.00103546
5.38103e-05
-6.94889e-05
0.00104907
7.93864e-05
-9.29971e-05
0.00106015
0.000102978
-0.000114062
0.00106875
0.000125059
-0.000133652
0.00107366
0.000145647
-0.000150564
0.00107507
0.00016472
-0.000166126
0.00107278
0.000182132
-0.000179847
0.00106583
0.00019891
-0.000191959
0.00105484
0.00021396
-0.000202963
0.00103904
0.000228013
-0.000212221
0.00101799
0.000241607
-0.000220554
0.000991844
0.000253698
-0.000227551
0.000959909
0.000265609
-0.000233674
0.000922448
0.000276412
-0.000238951
0.00087797
0.000287476
-0.000242999
0.000826168
0.000298366
-0.000246564
0.00076529
0.000310257
-0.000249379
0.000692741
0.000324607
-0.000252059
0.000603924
0.000343292
-0.000254475
0.000488417
0.000373759
-0.000258251
0.000326248
0.000428348
-0.000266178
7.3421e-05
0.000541471
-0.000288644
0.000810341
-0.000396302
-0.000340618
0.00112077
-0.000906367
-0.00120871
0.00104556
-0.000837532
0.000981775
-0.000770299
0.000928745
-0.000706265
0.000885809
-0.000644232
0.000852266
-0.000584854
0.000827015
-0.000528011
0.0008096
-0.000473609
0.00079884
-0.000421807
0.000794261
-0.000372142
0.000795174
-0.000325169
0.000800398
-0.000280027
0.000809554
-0.000237003
0.00082167
-0.000196615
0.000836232
-0.000157544
0.000852667
-0.000120961
0.000870501
-8.60912e-05
0.000888769
-5.28953e-05
0.000906674
-2.1285e-05
0.000924607
8.475e-06
0.000941411
3.70064e-05
0.000956631
6.41672e-05
0.000969968
8.96405e-05
0.000980727
0.0001143
0.000988687
0.000137687
0.000993515
0.000159892
0.000994374
0.000181274
0.00099155
0.000201735
0.000983892
0.000221617
0.000971517
0.000240389
0.000954014
0.000259111
0.00093
0.000277712
0.00089955
0.000296059
0.000861314
0.000314647
0.000814361
0.00033443
0.000755978
0.000356749
0.000683853
0.000382383
0.000593547
0.000414913
0.00047756
0.000459279
0.000325329
0.00052599
0.000119519
0.000634158
-0.000159001
0.000819991
0.00114875
-0.000497407
0.00101681
-0.000827869
-0.00109531
0.000948622
-0.000769342
0.000891007
-0.000712684
0.000842961
-0.000658219
0.000804084
-0.000605355
0.000773376
-0.000554145
0.000750293
-0.000504927
0.000733976
-0.000457292
0.000723771
-0.000411601
0.000719122
-0.000367493
0.000719159
-0.000325206
0.000723319
-0.000284187
0.000731484
-0.000245168
0.000741955
-0.000207086
0.000755157
-0.000170746
0.000769842
-0.000135646
0.00078589
-0.000102139
0.000802638
-6.96429e-05
0.000819842
-3.84886e-05
0.00083625
-7.93359e-06
0.000852075
2.11815e-05
0.00086663
4.96129e-05
0.000879253
7.70166e-05
0.000890021
0.000103533
0.000897932
0.000129776
0.000902793
0.00015503
0.000904336
0.000179731
0.000901688
0.000204382
0.000894971
0.000228335
0.000882468
0.000252891
0.000864358
0.000277221
0.000840214
0.000301856
0.000808294
0.00032798
0.00076701
0.000355931
0.000715317
0.000386123
0.000651118
0.000420948
0.000570507
0.000462994
0.000470153
0.000515267
0.000342618
0.000586813
0.000180461
0.000688147
-2.31969e-05
0.000837816
-0.000271673
0.00106847
0.00141904
-0.000541966
0.000919227
-0.000757184
-0.000989912
0.000857885
-0.000708
0.000806403
-0.000661201
0.000762668
-0.000614485
0.000726911
-0.000569598
0.00069833
-0.000525565
0.000676475
-0.000483072
0.000660532
-0.000441349
0.000650582
-0.000401651
0.000645529
-0.000362441
0.000644364
-0.00032404
0.000647374
-0.000287198
0.000653281
-0.000251075
0.000661936
-0.00021574
0.000673025
-0.000181835
0.000686243
-0.000148864
0.000700345
-0.000116242
0.000715009
-8.43065e-05
0.000730199
-5.36785e-05
0.000745222
-2.29563e-05
0.000759471
6.93197e-06
0.000773
3.60838e-05
0.000785064
6.49531e-05
0.000794595
9.40021e-05
0.000802246
0.000122125
0.000806961
0.000150315
0.000808354
0.000178338
0.000805963
0.000206774
0.000798744
0.000235554
0.0007869
0.000264735
0.000768906
0.000295214
0.00074401
0.000326752
0.00071156
0.00036043
0.000670035
0.000397456
0.000617465
0.000438693
0.000551524
0.000486888
0.000470362
0.000544156
0.000369172
0.000616457
0.000243921
0.000712064
9.07348e-05
0.000841333
-9.55206e-05
0.00102407
-0.000312859
0.00128581
0.0016527
-0.000546522
0.000829729
-0.000693654
-0.000893259
0.000775337
-0.000653608
0.00072776
-0.000613624
0.00068819
-0.000574916
0.000654981
-0.000536388
0.000628649
-0.000499233
0.000608135
-0.000462557
0.000593371
-0.000426585
0.000583054
-0.000391335
0.000577355
-0.000356741
0.00057557
-0.000322255
0.000577275
-0.000288903
0.000582038
-0.000255839
0.000589386
-0.000223088
0.000598741
-0.00019119
0.000609406
-0.000159529
0.000621199
-0.000128035
0.000634492
-9.75996e-05
0.000647776
-6.69621e-05
0.000661272
-3.64524e-05
0.000674212
-6.00767e-06
0.000686254
2.40412e-05
0.000696963
5.42445e-05
0.000706101
8.48636e-05
0.000712984
0.000115242
0.000717176
0.000146123
0.000718049
0.000177465
0.000715429
0.000209394
0.000708591
0.000242391
0.000696911
0.000276415
0.000679724
0.000312401
0.000655903
0.000350574
0.000624193
0.00039214
0.000583694
0.000437955
0.00053234
0.000490047
0.000469172
0.000550057
0.000390504
0.000622824
0.000293929
0.000713032
0.000177188
0.000828805
3.62863e-05
0.000982235
-0.000131738
0.0011921
-0.000324133
0.0014782
0.00186122
-0.00053265
0.000749259
-0.000636594
-0.000806319
0.000698995
-0.000603343
0.000656403
-0.000571033
0.000619968
-0.000538481
0.000589766
-0.000506186
0.000565351
-0.000474818
0.000546004
-0.000443211
0.000531474
-0.000412055
0.000521586
-0.000381447
0.000515194
-0.000350349
0.000513045
-0.000320107
0.000513738
-0.000289595
0.000517129
-0.000259229
0.000523054
-0.000229013
0.000530827
-0.000198963
0.000539785
-0.000168487
0.000550462
-0.000138711
0.00056153
-0.000108667
0.000572991
-7.8424e-05
0.00058501
-4.84712e-05
0.000596756
-1.77534e-05
0.000607491
1.33063e-05
0.000617207
4.45282e-05
0.000625307
7.67641e-05
0.000631499
0.00010905
0.000635143
0.00014248
0.000636073
0.000176535
0.000633498
0.000211968
0.00062725
0.00024864
0.000616056
0.000287609
0.00059986
0.000328597
0.000577537
0.000372896
0.000548244
0.000421433
0.000510119
0.00047608
0.000462191
0.000537975
0.000402061
0.000610186
0.000328668
0.000696217
0.000238708
0.000802992
0.000130717
0.000936796
1.6519e-06
0.0011113
-0.000148638
0.00134239
-0.000321535
0.0016511
0.00205174
-0.000512053
0.000674548
-0.00058462
-0.000726522
0.000629769
-0.000558565
0.000590864
-0.000532127
0.000557758
-0.000505375
0.000530502
-0.000478929
0.000507434
-0.000451751
0.000489424
-0.0004252
0.000475813
-0.000398444
0.000465747
-0.000371381
0.000459702
-0.000344305
0.000456651
-0.000317055
0.000456598
-0.000289543
0.000459417
-0.000262048
0.000464009
-0.000233606
0.000470446
-0.0002054
0.000478185
-0.000176226
0.000486888
-0.000147414
0.000496465
-0.000118244
0.000506875
-8.88346e-05
0.000517196
-5.8792e-05
0.000527405
-2.79627e-05
0.000537326
3.38559e-06
0.000545994
3.58599e-05
0.000553605
6.91532e-05
0.000558965
0.00010369
0.000562261
0.000139184
0.000563022
0.000175774
0.000560493
0.000214497
0.000554676
0.000254457
0.000544566
0.000297719
0.000529374
0.000343789
0.000508824
0.000393447
0.000481915
0.000448343
0.000447111
0.000510884
0.000403143
0.000581943
0.000347899
0.000665431
0.000279674
0.000764442
0.000196127
0.000886539
9.62686e-05
0.00103665
-1.99205e-05
0.00122749
-0.000156065
0.00147853
-0.000312895
0.00180793
0.00222458
-0.000485743
0.000608341
-0.000538445
-0.000654516
0.00056748
-0.000517704
0.000532097
-0.000496744
0.000502238
-0.000475517
0.000476249
-0.00045294
0.000455639
-0.000431141
0.000438477
-0.000408038
0.0004255
-0.000385467
0.000416035
-0.000361916
0.00040984
-0.000338109
0.000406624
-0.000313839
0.000406329
-0.000289248
0.000408101
-0.00026382
0.000411881
-0.000237386
0.000417279
-0.000210798
0.000424099
-0.000183046
0.000431579
-0.000154893
0.000439874
-0.000126539
0.00044854
-9.75e-05
0.000457854
-6.81066e-05
0.000467087
-3.71953e-05
0.000475551
-5.07834e-06
0.000483595
2.78152e-05
0.000490165
6.25833e-05
0.00049531
9.85448e-05
0.000498504
0.00013599
0.000499248
0.000175029
0.000496692
0.000217054
0.00049132
0.000259829
0.000482155
0.000306884
0.000468128
0.000357815
0.000449555
0.00041202
0.000424835
0.000473063
0.000393681
0.000542039
0.000353468
0.000622156
0.000303501
0.000715398
0.00024111
0.000826833
0.000164958
0.000962691
7.17912e-05
0.00112982
-3.31071e-05
0.00133239
-0.000155108
0.00160053
-0.000298628
0.00195145
0.00238002
-0.000454064
0.000547612
-0.000588269
-0.000497788
0.000511066
-0.000481159
0.000479662
-0.00046534
0.00045194
-0.000447794
0.000428431
-0.000429431
0.000408363
-0.000411074
0.000392979
-0.000392654
0.000380621
-0.000373109
0.000371605
-0.0003529
0.000365339
-0.000331842
0.000361768
-0.000310269
0.000360603
-0.000288083
0.00036173
-0.000264946
0.000364978
-0.000240634
0.00036933
-0.00021515
0.000375119