/*--------------------------------*- C++ -*----------------------------------*\
| =========                 |                                                 |
| \\      /  F ield         | OpenFOAM: The Open Source CFD Toolbox           |
|  \\    /   O peration     | Version:  2.3.0                                 |
|   \\  /    A nd           | Web:      www.OpenFOAM.org                      |
|    \\/     M anipulation  |                                                 |
\*---------------------------------------------------------------------------*/
FoamFile
{
    version     2.0;
    format      ascii;
    class       volScalarField;
    location    "6000";
    object      nut;
}
// * * * * * * * * * * * * * * * * * * * * * * * * * * * * * * * * * * * * * //

dimensions      [0 2 -1 0 0 0 0];

internalField   nonuniform List<scalar> 
14767
(
0.0490384
0.0459785
0.0430368
0.0402489
0.0376394
0.0352381
0.0330745
0.0311237
0.0292297
0.0274032
0.0256695
0.024035
0.0224957
0.0210417
0.0196624
0.018349
0.0170927
0.0158882
0.0147326
0.0136236
0.0125604
0.0115434
0.0105962
0.00993296
0.0530899
0.0505283
0.0480616
0.0456996
0.043448
0.0413089
0.0392868
0.0373808
0.035586
0.0339027
0.0323343
0.0308857
0.0295617
0.0283651
0.027302
0.0263754
0.0255918
0.0249556
0.0244719
0.024145
0.0239779
0.0239711
0.0241258
0.0244373
0.0567347
0.054595
0.0525409
0.0505767
0.0487042
0.0469255
0.0452425
0.0436556
0.0421671
0.0407789
0.0394926
0.0383123
0.0372415
0.0362841
0.0354436
0.0347251
0.0341314
0.033667
0.0333352
0.0331369
0.0330727
0.0331403
0.0333338
0.0336468
0.0599846
0.0581919
0.0564741
0.0548321
0.0532668
0.0517794
0.050371
0.0490429
0.0477968
0.0466339
0.0455574
0.0445708
0.043676
0.0428774
0.0421794
0.0415855
0.0410989
0.0407236
0.0404622
0.0403162
0.0402864
0.0403709
0.0405665
0.0408682
0.0628724
0.0613597
0.0599127
0.0585276
0.057205
0.0559456
0.0547505
0.0536211
0.0525584
0.0515644
0.0506423
0.049794
0.0490242
0.0483354
0.0477336
0.0472212
0.0468032
0.0464829
0.0462636
0.0461474
0.046135
0.0462269
0.0464206
0.0467126
0.0654186
0.0641421
0.0629148
0.0617354
0.0606047
0.0595236
0.0584941
0.057518
0.0565961
0.0557308
0.0549246
0.0541799
0.0535007
0.052892
0.0523572
0.0519016
0.0515297
0.0512451
0.0510523
0.0509539
0.0509517
0.0510457
0.0512361
0.0515194
0.0676731
0.0665875
0.0655374
0.064523
0.0635451
0.062605
0.0617048
0.0608475
0.0600353
0.05927
0.0585535
0.0578886
0.057279
0.0567289
0.0562438
0.0558289
0.055489
0.0552294
0.0550538
0.0549664
0.0549695
0.0550642
0.0552506
0.0555269
0.0696696
0.0687382
0.067831
0.0669507
0.0660964
0.0652689
0.0644705
0.0637059
0.062979
0.0622925
0.0616479
0.0610466
0.0604919
0.0599879
0.0595404
0.0591561
0.0588401
0.0585972
0.0584323
0.0583515
0.0583572
0.0584511
0.0586339
0.0589041
0.071435
0.0706342
0.06984
0.0690691
0.0683173
0.0675812
0.0668662
0.0661714
0.0655107
0.0648859
0.0642994
0.0637517
0.0632425
0.0627789
0.062358
0.0619974
0.0617005
0.0614719
0.0613107
0.0612326
0.0612387
0.0613312
0.0615109
0.0617763
0.0730034
0.0723207
0.0716013
0.0709192
0.0702573
0.0695932
0.0689551
0.0683075
0.0676955
0.0671166
0.0665721
0.0660755
0.065604
0.0651906
0.0647831
0.0644411
0.0641563
0.0639472
0.0637823
0.0637053
0.0637084
0.0637973
0.0639741
0.0642368
0.0109919
0.013162
0.0146517
0.0161264
0.0177316
0.0194977
0.0214188
0.0234848
0.0256843
0.0280071
0.0304434
0.0329853
0.0356262
0.03836
0.0411813
0.0440846
0.0470641
0.0501137
0.0532271
0.0563968
0.0596154
0.0628742
0.0661644
0.0694795
0.0248899
0.0254979
0.0262849
0.0272535
0.0284006
0.0297196
0.0312015
0.0328347
0.0346064
0.036505
0.038519
0.0406375
0.0428515
0.0451526
0.0475333
0.0499876
0.0525095
0.0550934
0.0577342
0.0604264
0.0631653
0.0659457
0.068762
0.0716108
0.0340685
0.0346115
0.0352955
0.0361223
0.0370912
0.0381977
0.0394364
0.0407999
0.0422798
0.0438676
0.0455549
0.047333
0.0491948
0.0511334
0.0531422
0.0552159
0.0573498
0.059539
0.0617794
0.0640671
0.0663983
0.0687705
0.0711807
0.0736283
0.04127
0.0417791
0.0424079
0.0431559
0.0440221
0.0450029
0.0460929
0.0472859
0.0485754
0.0499542
0.0514151
0.0529514
0.0545563
0.0562249
0.0579513
0.0597309
0.0615599
0.0634348
0.0653524
0.0673098
0.0693046
0.0713349
0.0733981
0.0754857
0.0470995
0.0475852
0.0481766
0.0488724
0.0496703
0.0505662
0.0515548
0.0526299
0.0537854
0.0550144
0.0563108
0.0576683
0.0590814
0.060545
0.0620549
0.0636067
0.0651973
0.0668234
0.0684828
0.0701734
0.0718934
0.0736423
0.0754177
0.0772041
0.0518933
0.0523607
0.0529244
0.053582
0.0543306
0.0551651
0.0560797
0.0570684
0.0581247
0.059242
0.0604148
0.0616374
0.0629044
0.0642113
0.0655539
0.0669284
0.0683317
0.069761
0.0712139
0.0726893
0.074186
0.0757043
0.0772447
0.0787912
0.0558903
0.0563425
0.0568846
0.0575133
0.0582244
0.0590125
0.0598711
0.0607933
0.0617725
0.0628031
0.0638799
0.0649974
0.0661506
0.0673349
0.0685465
0.0697812
0.071036
0.072308
0.0735949
0.0748957
0.0762096
0.077537
0.0788793
0.0802499
0.0592592
0.0596988
0.0602228
0.0608287
0.0615116
0.062264
0.0630787
0.0639482
0.0648656
0.0658265
0.0668261
0.0678599
0.0689225
0.0700091
0.0711163
0.0722397
0.0733756
0.074521
0.0756731
0.0768308
0.077994
0.0791643
0.080342
0.0815386
0.0621239
0.0625533
0.0630609
0.063648
0.0643107
0.065037
0.0658168
0.066642
0.0675073
0.0684108
0.069345
0.0703123
0.0713018
0.072309
0.0733331
0.0743663
0.075406
0.0764484
0.0774902
0.0785288
0.0795659
0.0806071
0.081648
0.0826813
0.0645744
0.0649962
0.0654856
0.0660579
0.0667078
0.0674103
0.0681595
0.0689463
0.0697645
0.0706183
0.0714868
0.0724073
0.0733358
0.0742807
0.0752414
0.0761989
0.0771624
0.0781209
0.0790722
0.0800086
0.0809338
0.0818732
0.0828351
0.0837509
0.0805276
0.0746499
0.0690116
0.063585
0.0583695
0.0533707
0.0485964
0.0440549
0.0397528
0.0356954
0.0318864
0.0283264
0.0250126
0.0219436
0.0191175
0.0165327
0.0141835
0.0120609
0.0101656
0.00853401
0.00727457
0.00606634
0.00477855
0.00329784
0.0841738
0.0790301
0.074074
0.0692678
0.0646075
0.0600971
0.0557443
0.0515585
0.0475492
0.0437246
0.0400899
0.0366507
0.0334101
0.0303709
0.0275418
0.0249565
0.0226603
0.0205872
0.0185801
0.016555
0.014475
0.0122932
0.00994524
0.00734596
0.0879981
0.0835924
0.0793051
0.0751136
0.0710165
0.0670181
0.0631262
0.0593516
0.0557057
0.0522014
0.0488545
0.0456797
0.042683
0.0398471
0.0371355
0.0345058
0.0319214
0.0293466
0.0267372
0.0240454
0.0212222
0.0182215
0.014995
0.0114902
0.0920121
0.0882637
0.0845916
0.0809747
0.0774114
0.0739053
0.0704635
0.0670933
0.0638025
0.0605953
0.0574709
0.0544242
0.0514463
0.048521
0.0456254
0.0427291
0.0398025
0.0368118
0.033723
0.0304953
0.0270866
0.0234529
0.0195474
0.0153312
0.09607
0.0928699
0.0897014
0.0865449
0.0833986
0.0802649
0.0771478
0.0740506
0.0709765
0.0679263
0.0648948
0.0618736
0.0588538
0.0558204
0.0527527
0.0496305
0.0464255
0.0431077
0.0396436
0.035996
0.0321232
0.0279829
0.0235315
0.0187283
0.0999295
0.0971358
0.0943362
0.0915145
0.0886702
0.0858033
0.0829144
0.0800054
0.0770769
0.0741274
0.0711503
0.0681372
0.0650771
0.0619556
0.0587561
0.0554569
0.0520334
0.0484563
0.0446921
0.0407036
0.0364512
0.031892
0.026982
0.0216801
0.103427
0.100932
0.0984071
0.0958365
0.0932196
0.0905532
0.0878361
0.0850678
0.0822489
0.0793765
0.0764425
0.0734366
0.0703467
0.0671595
0.0638577
0.0604209
0.056824
0.0530375
0.0490275
0.0447564
0.0401851
0.0352693
0.0299652
0.0242309
0.106492
0.104251
0.101944
0.0995721
0.0971347
0.0946266
0.0920446
0.0893879
0.086656
0.0838477
0.080955
0.0779603
0.0748502
0.0716121
0.0682298
0.0646835
0.0609479
0.0569904
0.0527753
0.0482654
0.0434213
0.0381983
0.0325521
0.0264389
0.109202
0.107144
0.105015
0.102806
0.100515
0.0981347
0.0956612
0.0930952
0.0904339
0.0876796
0.0848314
0.0818572
0.0787328
0.0754511
0.072001
0.0683661
0.0645217
0.060427
0.056038
0.0513202
0.0462406
0.0407533
0.0348105
0.028366
0.111543
0.109649
0.107676
0.105615
0.103445
0.10117
0.0987821
0.0962917
0.0936879
0.0909705
0.0881783
0.0852485
0.0821109
0.0787831
0.075269
0.0715555
0.0676335
0.0634409
0.0588972
0.0539878
0.0487051
0.042994
0.0367993
0.0300863
0.00162302
0.000873912
0.00112012
0.00141123
0.00169364
0.00198405
0.00230502
0.0026885
0.00317554
0.00379158
0.00451093
0.00533036
0.00625237
0.00728283
0.00842929
0.00969921
0.0111002
0.012641
0.0143305
0.0161788
0.0181964
0.0203948
0.0227847
0.0253686
0.00442017
0.00196644
0.00144546
0.001714
0.00203191
0.00238539
0.00279985
0.00329847
0.00389789
0.00460735
0.00540284
0.00628449
0.00725554
0.00832095
0.00948635
0.0107573
0.0121399
0.0136414
0.0152694
0.0170327
0.0189403
0.0210012
0.0232236
0.0256162
0.00764114
0.00380079
0.00194023
0.00202271
0.00239967
0.00284237
0.00336268
0.00396849
0.00466429
0.005453
0.0063149
0.00725129
0.0082648
0.00935909
0.010538
0.0118055
0.0131667
0.0146273
0.0161939
0.0178733
0.0196728
0.0215993
0.0236602
0.0258628
0.0107313
0.005912
0.00268595
0.00234936
0.002789
0.00332741
0.00394603
0.00464278
0.0054241
0.00628056
0.00720013
0.0081838
0.0092333
0.0103507
0.0115384
0.0127997
0.0141386
0.0155593
0.0170669
0.018667
0.0203649
0.0221659
0.0240745
0.0260902
0.0135039
0.00795193
0.00361464
0.00270656
0.00318984
0.00381888
0.00452429
0.0053009
0.00615593
0.00707139
0.00804141
0.00906593
0.0101459
0.0112819
0.0124754
0.0137289
0.0150455
0.0164282
0.0178807
0.019407
0.021011
0.0226968
0.0244693
0.0263403
0.0159232
0.00978129
0.00460319
0.00309515
0.00359143
0.004302
0.00508395
0.00593233
0.00684978
0.00781744
0.00883176
0.00989214
0.0109978
0.0121488
0.0133461
0.0145914
0.0158863
0.0172331
0.0186344
0.0200927
0.0216111
0.0231933
0.0248445
0.0265735
0.0180101
0.011372
0.00555634
0.00350391
0.00398478
0.00476638
0.00561481
0.00652945
0.00750116
0.00851541
0.00956897
0.0106602
0.0117878
0.0129514
0.0141512
0.0153878
0.0166622
0.0179757
0.0193299
0.0207263
0.0221673
0.0236561
0.0251977
0.0268002
0.0198087
0.0127433
0.00642976
0.00391742
0.00436407
0.00520737
0.00611602
0.00708919
0.0081088
0.00916432
0.0102526
0.0113709
0.0125176
0.0136915
0.0148928
0.016121
0.0173761
0.018659
0.0199698
0.02131
0.0226812
0.0240855
0.0255255
0.027003
0.0213744
0.01393
0.00720632
0.00431959
0.00472521
0.00562193
0.00658639
0.00761054
0.00867256
0.0097645
0.0108837
0.0120264
0.0131897
0.0143726
0.0155747
0.016795
0.0180323
0.0192863
0.0205566
0.0218446
0.0231523
0.0244799
0.0258279
0.0271984
0.0227917
0.0150134
0.00794148
0.00471422
0.0050635
0.00601776
0.00703088
0.00809213
0.00918857
0.0103235
0.0114793
0.0126392
0.0138115
0.0150024
0.0162078
0.0174192
0.0186379
0.0198586
0.0210812
0.0223171
0.0235715
0.0248331
0.0261003
0.0273923
0.000347948
0.00119565
0.0025334
0.00413529
0.00575794
0.00737003
0.00898805
0.0106246
0.0122795
0.0139538
0.0156505
0.0173757
0.0191388
0.020952
0.0228279
0.0247759
0.0267959
0.0288901
0.0311146
0.033511
0.0360496
0.0387975
0.041863
0.0451427
0.000255045
0.000681302
0.00158258
0.00282583
0.00431086
0.00579831
0.00728497
0.00876853
0.0102639
0.0117882
0.0133533
0.014964
0.0166253
0.0183446
0.0201313
0.0219965
0.0239503
0.0260037
0.0281793
0.0305083
0.0330037
0.0357028
0.0386552
0.0417514
7.09827e-05
0.000409047
0.000978511
0.00178876
0.0028639
0.00422359
0.00590029
0.00765249
0.00935657
0.0110117
0.0126277
0.0142199
0.0158043
0.0173966
0.0190158
0.0206836
0.0224246
0.0242652
0.0262338
0.0283637
0.0306877
0.0332393
0.0360478
0.0390712
9.46123e-05
0.000339785
0.000802398
0.00144753
0.00230429
0.00339902
0.00476545
0.0064405
0.00827938
0.0101218
0.0119362
0.0137141
0.0154472
0.0171313
0.0187697
0.020376
0.0219759
0.0236063
0.0253135
0.0271515
0.0291781
0.0314483
0.0340057
0.0368564
5.18805e-05
0.000293393
0.000692156
0.00124326
0.00197897
0.00291642
0.00408354
0.00551317
0.00724184
0.00918861
0.0111554
0.013098
0.0150052
0.0168656
0.018665
0.0203914
0.0220424
0.0236324
0.0251975
0.026797
0.0285094
0.0304232
0.0326224
0.0351595
4.83439e-05
0.00027277
0.000625277
0.00111673
0.00177008
0.00260433
0.00364292
0.00491609
0.00645894
0.00830747
0.0103419
0.0124049
0.0144537
0.0164725
0.0184449
0.02035
0.0221655
0.0238751
0.02548
0.0270092
0.028527
0.0301334
0.031951
0.0341071
4.02605e-05
0.000265249
0.000574148
0.00102217
0.00161564
0.00237608
0.00332211
0.00448072
0.00588365
0.00756748
0.00955665
0.0116913
0.0138499
0.015997
0.018115
0.0201837
0.0221776
0.024067
0.025826
0.0274441
0.0289433
0.0303926
0.0319123
0.0336466
3.7227e-05
0.000259492
0.000536593
0.000951572
0.0014995
0.00220317
0.00307859
0.00415024
0.00544779
0.00700551
0.00886168
0.0109927
0.0132235
0.0154721
0.0177102
0.0199178
0.0220705
0.0241374
0.0260824
0.0278713
0.0294862
0.0309459
0.0323257
0.0337528
3.40859e-05
0.000255233
0.000506911
0.000896035
0.00140854
0.00206637
0.00288577
0.00388857
0.00510215
0.00655879
0.00829522
0.010344
0.0126012
0.0149253
0.0172612
0.0195847
0.0218729
0.0240967
0.0262192
0.0281977
0.0299917
0.0315783
0.0329753
0.0342552
3.20793e-05
0.000251241
0.000483665
0.000852209
0.00133646
0.00195689
0.0027309
0.00367782
0.00482321
0.00619734
0.00783531
0.00977595
0.0120077
0.0143771
0.0167905
0.0192103
0.0216131
0.023972
0.0262523
0.0284102
0.0303968
0.0321651
0.0336885
0.0349831
3.06669e-05
0.000248026
0.000465491
0.000817057
0.00127845
0.00186847
0.00260557
0.00350675
0.00459608
0.00590226
0.00745857
0.00930322
0.0114652
0.0138466
0.0163169
0.0188161
0.0213155
0.0237898
0.0262069
0.0285255
0.0306947
0.0326578
0.0343619
0.035777
3.00107e-05
0.000245941
0.00045229
0.000789093
0.00123181
0.00179706
0.00250391
0.00336757
0.00441061
0.00566033
0.00714863
0.00891219
0.0109894
0.0133507
0.0158562
0.0184195
0.0210007
0.0235734
0.0261085
0.0285677
0.0309019
0.0330517
0.0349524
0.0365455
2.98768e-05
0.000245006
0.000443723
0.000766966
0.00119439
0.00173941
0.00242144
0.00325421
0.00425915
0.00546208
0.00689357
0.00858892
0.0105876
0.0129025
0.0154219
0.0180346
0.020685
0.0233426
0.0259797
0.0285612
0.0310415
0.0333625
0.0354564
0.0372553
3.02333e-05
0.000244954
0.000438686
0.000749407
0.00116441
0.00169313
0.00235448
0.00316196
0.00413553
0.0052999
0.00668427
0.00832269
0.0102539
0.0125096
0.0150239
0.0176723
0.0203815
0.0231133
0.0258398
0.0285287
0.0311377
0.0336127
0.035887
0.0378867
3.0939e-05
0.000245364
0.000435868
0.000735319
0.00114008
0.00165563
0.00229977
0.00308647
0.00403421
0.00516673
0.00651214
0.0081031
0.0099774
0.0121732
0.0146674
0.0173393
0.0200985
0.0228965
0.0257029
0.0284873
0.0312112
0.0338237
0.0362611
0.0384465
3.18441e-05
0.000245877
0.000434146
0.000723698
0.00111995
0.00162456
0.00225445
0.00302387
0.00395033
0.00505654
0.00636951
0.00792093
0.00974752
0.0118891
0.0143527
0.0170376
0.0198392
0.0226975
0.0255772
0.0284486
0.0312763
0.0340133
0.0365998
0.0389627
3.29191e-05
0.0002464
0.000433049
0.000713959
0.00110298
0.00159841
0.00221627
0.00297135
0.00387995
0.00496415
0.00625002
0.00776826
0.00955465
0.0116493
0.0140766
0.0167654
0.0196028
0.0225164
0.0254646
0.0284172
0.0313404
0.0341914
0.0369139
0.0394377
3.40953e-05
0.00024688
0.000432297
0.0007057
0.00108841
0.00157593
0.00218349
0.00292626
0.00381973
0.00488507
0.00614789
0.00763802
0.00939012
0.011444
0.0138334
0.016518
0.0193849
0.0223496
0.0253628
0.0283917
0.0314044
0.0343605
0.0372075
0.0398776
3.53876e-05
0.000247287
0.000431744
0.00069849
0.00107569
0.00155624
0.00215479
0.00288676
0.00376698
0.00481602
0.00605872
0.00752437
0.00924672
0.0112648
0.0136173
0.0162905
0.0191803
0.0221916
0.0252661
0.0283676
0.0314643
0.0345182
0.0374796
0.0402837
3.67485e-05
0.000247677
0.00043136
0.000692077
0.00106429
0.00153865
0.00212908
0.00285148
0.00371988
0.00475434
0.00597926
0.00742316
0.00911909
0.0111054
0.0134227
0.0160781
0.0189839
0.0220365
0.0251688
0.0283391
0.0315148
0.0346596
0.0377256
0.040649
3.80431e-05
0.000247968
0.000430956
0.000686291
0.00105395
0.00152257
0.00210562
0.00281922
0.0036769
0.00469814
0.00590688
0.00733107
0.00900308
0.0109605
0.0132448
0.0158773
0.0187917
0.0218803
0.0250661
0.0283015
0.0315522
0.0347825
0.0379473
0.0409883
3.93491e-05
0.000248204
0.000430562
0.000680933
0.00104436
0.00150771
0.00208389
0.00278939
0.00363714
0.00464624
0.00584002
0.00724603
0.008896
0.0108268
0.0130799
0.0156861
0.0186016
0.0217198
0.0249546
0.0282514
0.0315726
0.0348826
0.0381367
0.041273
4.06766e-05
0.00024845
0.000430279
0.000676021
0.00103542
0.00149378
0.00206355
0.00276148
0.0035999
0.00459759
0.00577749
0.0071665
0.00879591
0.0107019
0.0129255
0.0155033
0.0184131
0.0215543
0.0248332
0.0281875
0.0315758
0.034962
0.0383029
0.0415424
4.1952e-05
0.000248663
0.000430001
0.000671469
0.00102705
0.00148067
0.00204433
0.00273503
0.00356465
0.00455159
0.00571836
0.00709141
0.00870147
0.0105841
0.0127798
0.0153284
0.0182261
0.0213836
0.0247013
0.0281092
0.0315614
0.0350202
0.0384432
0.0417734
4.32009e-05
0.000248888
0.000429795
0.000667278
0.00101919
0.00146832
0.00202617
0.00270992
0.00353113
0.00450782
0.00566212
0.00702002
0.00861177
0.0104723
0.0126415
0.0151611
0.0180415
0.0212085
0.0245595
0.028017
0.0315298
0.0350585
0.038562
0.0419887
4.44094e-05
0.000249124
0.000429632
0.000663419
0.00101177
0.00145666
0.00200908
0.00268598
0.0034991
0.004466
0.0056084
0.00695189
0.00852621
0.0103657
0.0125098
0.0150009
0.0178601
0.0210303
0.0244087
0.0279113
0.0314811
0.0350761
0.0386548
0.0421649
4.55644e-05
0.000249375
0.000429522
0.000659901
0.00100472
0.00144553
0.00199278
0.00266309
0.00346847
0.00442598
0.005557
0.00688674
0.00844443
0.0102639
0.012384
0.0148474
0.0176829
0.0208504
0.0242505
0.0277937
0.031417
0.0350754
0.0387269
0.0423212
4.66809e-05
0.000249662
0.000429489
0.000656758
0.000998034
0.00143492
0.00197722
0.00264125
0.00343924
0.00438779
0.00550794
0.00682449
0.00836626
0.0101666
0.0122638
0.0147005
0.0175107
0.0206704
0.0240866
0.0276655
0.0313388
0.0350578
0.03878
0.0424551
4.77778e-05
0.000249985
0.000429551
0.000654017
0.000991747
0.00142486
0.00196243
0.00262048
0.00341142
0.00435143
0.0054612
0.00676515
0.00829171
0.0100737
0.012149
0.01456
0.0173443
0.0204916
0.0239185
0.0275284
0.0312478
0.0350249
0.0388168
0.0425773
4.88835e-05
0.00025037
0.000429745
0.000651714
0.00098587
0.00141536
0.00194844
0.0026008
0.00338508
0.00431699
0.00541689
0.00670885
0.00822093
0.00998554
0.0120399
0.0144262
0.0171843
0.0203158
0.023748
0.0273837
0.0311448
0.0349756
0.038833
0.0426755
4.99901e-05
0.000250802
0.000430056
0.000649826
0.00098039
0.00140642
0.00193526
0.00258225
0.00336021
0.00428449
0.00537507
0.0066557
0.00815406
0.00990211
0.0119366
0.0142993
0.0170316
0.0201445
0.0235773
0.0272337
0.0310314
0.0349103
0.0388242
0.0427271
5.1112e-05
0.00025129
0.000430495
0.00064835
0.000975325
0.00139806
0.0019229
0.00256483
0.00333687
0.00425398
0.0053358
0.00660577
0.00809122
0.00982365
0.0118394
0.0141797
0.0168869
0.0199797
0.023409
0.0270815
0.0309114
0.0348345
0.0388021
0.0427689
5.22379e-05
0.000251824
0.000431044
0.000647245
0.000970654
0.00139027
0.00191135
0.00254856
0.00331506
0.00422544
0.00529906
0.00655906
0.00803242
0.00975026
0.0117484
0.0140677
0.0167511
0.019823
0.0232458
0.0269304
0.0307886
0.0347524
0.0387704
0.0427967
5.33618e-05
0.000252382
0.000431665
0.000646454
0.00096637
0.00138304
0.00190062
0.00253341
0.00329475
0.00419886
0.00526481
0.00651551
0.00797761
0.00968184
0.0116636
0.0139633
0.0166243
0.0196755
0.0230897
0.0267835
0.030667
0.0346682
0.0387328
0.0428126
5.4509e-05
0.00025297
0.000432369
0.000645945
0.00096247
0.00137639
0.00189072
0.0025194
0.00327593
0.00417418
0.005233
0.00647504
0.00792664
0.0096182
0.0115847
0.0138663
0.0165064
0.0195375
0.0229422
0.0266432
0.03055
0.0345875
0.0386985
0.0428346
5.56706e-05
0.000253578
0.000433129
0.000645674
0.000958953
0.00137031
0.0018816
0.00250648
0.00325858
0.0041514
0.00520359
0.00643755
0.00787933
0.00955906
0.0115114
0.0137761
0.0163966
0.0194085
0.0228031
0.0265099
0.0304387
0.0345117
0.0386689
0.0428617
5.68466e-05
0.000254203
0.000433938
0.000645593
0.000955776
0.00136475
0.00187327
0.00249466
0.00324265
0.00413046
0.00517651
0.00640295
0.00783559
0.00950426
0.0114433
0.0136921
0.0162942
0.0192875
0.0226712
0.0263825
0.030332
0.0344396
0.0386423
0.0428898
5.80397e-05
0.000254836
0.000434781
0.000645668
0.000952915
0.00135969
0.00186567
0.00248385
0.00322807
0.00411128
0.00515167
0.00637116
0.0077953
0.00945365
0.0113803
0.0136141
0.0161986
0.0191737
0.0225457
0.0262596
0.030228
0.0343689
0.038617
0.04292
5.92468e-05
0.000255474
0.000435647
0.000645861
0.000950331
0.00135507
0.00185873
0.00247397
0.00321475
0.00409377
0.00512898
0.00634206
0.00775836
0.00940716
0.0113221
0.0135419
0.0161098
0.0190671
0.0224262
0.0261403
0.0301248
0.0342964
0.0385878
0.0429479
6.04634e-05
0.000256112
0.000436523
0.000646143
0.000947999
0.00135087
0.00185239
0.00246496
0.00320261
0.0040778
0.00510828
0.00631553
0.00772466
0.00936463
0.0112688
0.0134756
0.0160279
0.018968
0.0223136
0.0260258
0.0300232
0.0342211
0.0385493
0.0429532
6.16873e-05
0.000256744
0.000437396
0.000646486
0.000945883
0.00134703
0.0018466
0.00245671
0.00319152
0.00406322
0.0050894
0.00629134
0.00769393
0.00932588
0.0112203
0.0134151
0.015953
0.0188771
0.0222093
0.0259184
0.0299266
0.0341484
0.0385099
0.0429513
6.29165e-05
0.000257367
0.000438257
0.000646868
0.000943957
0.0013435
0.00184128
0.00244915
0.00318136
0.00404989
0.00507215
0.00626927
0.00766592
0.00929057
0.011176
0.0133599
0.0158847
0.018794
0.0221137
0.0258194
0.0298378
0.0340828
0.0384782
0.042961
6.41389e-05
0.000257981
0.0004391
0.000647281
0.00094221
0.00134027
0.0018364
0.0024422
0.00317203
0.00403766
0.00505635
0.00624907
0.00764031
0.00925833
0.0111357
0.0133096
0.0158225
0.0187184
0.0220263
0.0257287
0.0297569
0.0340254
0.0384565
0.0429871
6.53659e-05
0.00025858
0.000439923
0.000647716
0.000940618
0.0013373
0.00183189
0.0024358
0.00316344
0.0040264
0.00504182
0.00623052
0.00761682
0.0092288
0.0110987
0.0132637
0.0157657
0.0186492
0.0219461
0.0256451
0.0296825
0.0339734
0.038439
0.0430142
6.66112e-05
0.000259162
0.000440739
0.000648173
0.000939174
0.00133457
0.00182775
0.00242988
0.00315548
0.00401598
0.00502838
0.00621339
0.00759516
0.00920161
0.0110648
0.0132215
0.0157137
0.0185858
0.0218725
0.0255682
0.0296141
0.0339265
0.0384244
0.0430412
6.78677e-05
0.000259739
0.000441552
0.000648652
0.00093788
0.00133208
0.00182392
0.0024244
0.00314809
0.0040063
0.00501589
0.00619748
0.00757508
0.00917643
0.0110334
0.0131826
0.0156657
0.0185274
0.0218045
0.025497
0.0295513
0.0338851
0.0384163
0.0430741
6.91196e-05
0.000260309
0.000442353
0.000649142
0.000936727
0.0013298
0.0018204
0.00241933
0.00314123
0.00399727
0.00500422
0.00618259
0.00755629
0.00915292
0.0110042
0.0131464
0.0156211
0.0184732
0.0217412
0.0254303
0.0294923
0.0338466
0.0384108
0.0431144
7.03506e-05
0.000260858
0.000443133
0.00064964
0.000935702
0.00132774
0.00181718
0.00241464
0.00313484
0.00398882
0.00499326
0.00616858
0.00753859
0.00913077
0.0109767
0.0131124
0.0155794
0.0184226
0.021682
0.0253676
0.0294364
0.0338098
0.0384048
0.0431497
7.15756e-05
0.000261393
0.0004439
0.000650146
0.000934801
0.0013259
0.00181426
0.00241034
0.00312894
0.00398094
0.00498296
0.00615534
0.0075218
0.00910972
0.0109505
0.0130802
0.0155399
0.0183748
0.0216263
0.0253086
0.0293836
0.0337747
0.0383978
0.0431806
7.27872e-05
0.000261915
0.000444649
0.00065066
0.000934044
0.00132428
0.00181164
0.00240643
0.00312351
0.00397362
0.00497332
0.00614285
0.00750586
0.00908962
0.0109255
0.0130493
0.015502
0.0183291
0.0215732
0.0252525
0.0293341
0.0337429
0.0383923
0.0432014
7.39733e-05
0.000262428
0.000445384
0.000651199
0.000933431
0.00132287
0.00180932
0.00240294
0.00311858
0.0039669
0.00496436
0.00613113
0.00749076
0.00907043
0.0109014
0.0130194
0.0154653
0.0182846
0.0215213
0.0251977
0.0292862
0.033715
0.0383979
0.0432567
7.51464e-05
0.000262939
0.00044611
0.000651758
0.000932955
0.00132169
0.00180733
0.00239985
0.00311415
0.0039608
0.00495614
0.00612023
0.00747657
0.00905221
0.0108782
0.0129904
0.0154294
0.0182408
0.0214698
0.0251422
0.0292363
0.0336828
0.0383953
0.0432923
7.63345e-05
0.000263446
0.000446849
0.000652342
0.000932608
0.00132072
0.00180564
0.00239716
0.00311025
0.00395537
0.00494869
0.00611024
0.00746342
0.0090351
0.0108563
0.0129626
0.0153945
0.0181978
0.0214184
0.0250856
0.0291836
0.0336469
0.0383887
0.0433261
7.75287e-05
0.000263951
0.00044759
0.000652945
0.00093238
0.00131995
0.00180423
0.0023949
0.00310686
0.00395057
0.00494205
0.00610121
0.00745136
0.00901932
0.0108358
0.0129362
0.0153611
0.0181559
0.0213673
0.0250281
0.0291279
0.0336058
0.0383755
0.0433518
7.86714e-05
0.000264448
0.00044831
0.000653548
0.000932252
0.00131937
0.00180307
0.00239298
0.00310401
0.00394635
0.00493617
0.00609322
0.00744055
0.00900489
0.0108169
0.0129117
0.0153295
0.0181158
0.0213179
0.0249707
0.0290699
0.0335591
0.0383527
0.0433626
7.98105e-05
0.000264919
0.000449001
0.00065417
0.000932268
0.00131899
0.00180224
0.00239144
0.0031016
0.00394283
0.00493107
0.00608609
0.0074309
0.00899193
0.0107998
0.0128893
0.0153005
0.0180787
0.0212712
0.0249155
0.029012
0.0335097
0.0383253
0.0433696
8.09808e-05
0.000265429
0.000449749
0.000654811
0.000932414
0.00131885
0.00180169
0.00239033
0.00309972
0.00393988
0.0049268
0.00608003
0.00742245
0.00898057
0.0107845
0.0128693
0.0152744
0.0180449
0.0212284
0.0248642
0.0289572
0.0334612
0.0382957
0.0433733
8.20297e-05
0.000265898
0.000450413
0.000655473
0.000932705
0.0013189
0.00180143
0.00238954
0.00309827
0.00393751
0.00492319
0.00607481
0.00741517
0.00897051
0.0107711
0.0128514
0.015251
0.0180147
0.0211902
0.0248182
0.0289079
0.0334175
0.0382677
0.0433711
8.31218e-05
0.000266359
0.000451081
0.000656159
0.000933128
0.00131919
0.00180147
0.00238921
0.00309736
0.00393584
0.00492039
0.00607052
0.00740894
0.00896188
0.0107592
0.0128355
0.0152301
0.0179875
0.0211559
0.0247774
0.0288647
0.0333808
0.0382474
0.043372
8.42853e-05
0.000266871
0.000451857
0.00065692
0.000933713
0.00131973
0.00180191
0.00238939
0.00309706
0.00393484
0.00491847
0.00606727
0.0074039
0.00895448
0.0107489
0.0128215
0.0152114
0.0179631
0.021125
0.0247405
0.0288267
0.0333507
0.0382387
0.0434014
8.5385e-05
0.000267349
0.000452557
0.000657682
0.000934489
0.00132056
0.00180273
0.00238997
0.00309729
0.00393452
0.00491727
0.00606488
0.00739995
0.0089484
0.0107402
0.0128093
0.0151948
0.0179412
0.0210968
0.0247064
0.0287907
0.0333219
0.0382286
0.0434221
8.6478e-05
0.000267831
0.000453279
0.000658458
0.000935401
0.00132166
0.00180392
0.00239115
0.00309822
0.00393504
0.00491709
0.00606363
0.00739725
0.00894385
0.010733
0.012799
0.0151804
0.0179217
0.0210712
0.0246751
0.0287568
0.0332933
0.0382156
0.0434353
8.75061e-05
0.000268303
0.000453973
0.000659282
0.000936483
0.00132303
0.00180551
0.00239281
0.00309983
0.00393629
0.00491781
0.00606357
0.00739591
0.0089407
0.0107276
0.0127904
0.015168
0.0179045
0.0210486
0.0246469
0.0287265
0.0332679
0.0382042
0.0434454
8.85723e-05
0.000268763
0.000454664
0.000660141
0.000937766
0.00132467
0.00180748
0.00239503
0.00310211
0.00393849
0.0049196
0.00606464
0.00739595
0.00893916
0.0107239
0.0127839
0.0151579
0.0178899
0.0210286
0.024622
0.0286998
0.0332475
0.0382004
0.0434656
8.96659e-05
0.000269265
0.000455422
0.000661053
0.000939262
0.00132668
0.00180992
0.00239787
0.00310517
0.00394158
0.0049226
0.00606719
0.00739758
0.00893954
0.0107223
0.0127797
0.0151502
0.0178776
0.021011
0.0245994
0.0286756
0.0332301
0.0382033
0.0435078
9.06583e-05
0.000269728
0.000456097
0.000661991
0.000940943
0.00132897
0.00181278
0.00240121
0.00310891
0.00394558
0.00492666
0.00607107
0.00740097
0.00894182
0.010723
0.0127779
0.0151451
0.0178683
0.0209963
0.0245789
0.028652
0.033211
0.0381998
0.0435308
9.17115e-05
0.000270188
0.000456785
0.000662963
0.000942812
0.00133159
0.00181609
0.0024052
0.00311347
0.00395064
0.00493197
0.00607643
0.00740605
0.00894629
0.0107261
0.0127791
0.0151433
0.0178622
0.020985
0.0245618
0.0286304
0.0331911
0.0381923
0.0435469
9.27995e-05
0.000270688
0.000457551
0.000664008
0.000944892
0.00133454
0.00181991
0.00240986
0.00311886
0.00395667
0.00493858
0.00608337
0.00741302
0.00895287
0.0107319
0.0127833
0.015145
0.0178604
0.0209783
0.0245492
0.0286135
0.0331749
0.0381866
0.043565
9.38644e-05
0.000271157
0.000458277
0.000665102
0.000947235
0.00133788
0.00182424
0.00241511
0.00312504
0.0039637
0.00494633
0.00609171
0.00742178
0.00896166
0.0107404
0.0127908
0.0151507
0.0178633
0.0209769
0.0245427
0.0286025
0.0331645
0.0381861
0.043588
9.49623e-05
0.000271658
0.000459069
0.000666238
0.000949796
0.00134162
0.00182909
0.00242113
0.00313217
0.00397186
0.00495545
0.00610166
0.00743241
0.00897279
0.0107515
0.0128015
0.0151603
0.0178708
0.0209811
0.0245428
0.0285987
0.0331603
0.0381887
0.0436079
9.5964e-05
0.000272122
0.000459779
0.000667395
0.000952575
0.00134571
0.00183448
0.00242776
0.00314012
0.00398106
0.00496586
0.00611324
0.00744494
0.00898603
0.0107652
0.0128152
0.0151736
0.017883
0.0209913
0.0245499
0.0286036
0.0331653
0.0381972
0.0436217
9.70112e-05
0.000272576
0.000460495
0.000668623
0.00095567
0.00135021
0.00184042
0.00243522
0.00314906
0.00399149
0.00497769
0.00612643
0.00745936
0.00900148
0.0107815
0.012832
0.0151904
0.0178993
0.0210067
0.0245642
0.0286178
0.0331834
0.0382227
0.0436429
9.80885e-05
0.000273065
0.00046127
0.000669903
0.000959032
0.00135521
0.00184702
0.00244355
0.00315904
0.00400316
0.00499112
0.0061415
0.00747597
0.00901949
0.0108006
0.012852
0.0152108
0.0179196
0.0210266
0.024584
0.0286398
0.0332146
0.0382772
0.0437498
9.90718e-05
0.000273528
0.000461968
0.000671219
0.000962663
0.00136063
0.00185424
0.00245261
0.00317002
0.00401611
0.00500601
0.00615832
0.0074947
0.00903995
0.0108226
0.0128751
0.0152346
0.0179437
0.0210505
0.0246075
0.0286649
0.0332474
0.0383292
0.0438376
0.000100129
0.000273972
0.000462675
0.000672566
0.000966553
0.00136649
0.00186207
0.00246256
0.00318213
0.00403048
0.00502267
0.00617722
0.00751584
0.00906326
0.0108477
0.0129018
0.0152624
0.0179719
0.0210785
0.0246351
0.0286927
0.0332798
0.0383733
0.0438973
0.000101199
0.000274414
0.000463409
0.000673984
0.000970719
0.0013728
0.00187058
0.00247343
0.00319536
0.00404616
0.00504098
0.00619826
0.00753949
0.00908942
0.0108763
0.0129323
0.0152945
0.018005
0.0211117
0.0246679
0.0287262
0.0333182
0.038426
0.0439767
0.000102237
0.00027482
0.000464072
0.000675427
0.000975202
0.00137958
0.00187974
0.0024851
0.00320967
0.00406325
0.005061
0.0062213
0.00756566
0.0091186