/*--------------------------------*- C++ -*----------------------------------*\
| =========                 |                                                 |
| \\      /  F ield         | OpenFOAM: The Open Source CFD Toolbox           |
|  \\    /   O peration     | Version:  2.3.0                                 |
|   \\  /    A nd           | Web:      www.OpenFOAM.org                      |
|    \\/     M anipulation  |                                                 |
\*---------------------------------------------------------------------------*/
FoamFile
{
    version     2.0;
    format      ascii;
    class       volScalarField;
    location    "6000";
    object      p;
}
// * * * * * * * * * * * * * * * * * * * * * * * * * * * * * * * * * * * * * //

dimensions      [0 2 -2 0 0 0 0];

internalField   nonuniform List<scalar> 
14767
(
0.0134401
-0.731541
-1.46548
-2.20855
-2.92366
-3.59413
-4.20017
-4.70539
-5.07424
-5.26827
-5.23222
-4.92718
-4.26041
-3.1554
-1.5339
0.759116
3.8023
7.71203
12.7612
19.5865
28.5013
36.0283
37.4001
47.9142
10.4604
10.8622
11.4775
12.2136
13.1143
14.2153
15.5478
17.174
19.1797
21.6616
24.7343
28.5133
33.1188
38.6733
45.3008
53.1114
62.2156
72.6918
84.6028
98.0291
112.943
129.077
146.282
164.454
19.4347
20.4363
21.7698
23.2828
24.9966
26.9341
29.1088
31.5481
34.2798
37.3341
40.7502
44.5686
48.8337
53.603
58.9212
64.8321
71.3785
78.5859
86.4592
94.9819
104.076
113.646
123.635
133.919
26.6787
28.3839
30.2307
32.2556
34.4853
36.9493
39.6773
42.705
46.063
49.7904
53.9203
58.488
63.5188
69.0397
75.0638
81.5995
88.6369
96.1533
104.104
112.413
120.98
129.67
138.327
146.778
33.116
35.0651
37.1163
39.3422
41.753
44.365
47.1969
50.2667
53.5946
57.2071
61.1252
65.3687
69.9627
74.9239
80.2658
85.9905
92.0915
98.5538
105.34
112.396
119.647
126.998
134.334
141.545
38.5415
40.6088
42.7681
45.08
47.5679
50.2422
53.1241
56.2295
59.5756
63.1828
67.0682
71.2485
75.7377
80.5412
85.6677
91.1075
96.8546
102.885
109.163
115.64
122.247
128.91
135.536
142.032
43.2756
45.2507
47.4166
49.7103
52.1677
54.7957
57.6151
60.6308
63.8547
67.3154
71.0161
74.9835
79.2353
83.7682
88.583
93.6651
99.0088
104.607
110.427
116.411
122.507
128.65
134.767
140.777
47.1839
49.0713
51.2466
53.4867
55.89
58.4485
61.1862
64.1316
67.2657
70.6231
74.1829
77.9581
81.975
86.2682
90.8489
95.6775
100.727
105.998
111.461
117.067
122.801
128.568
134.308
139.953
50.8267
52.4886
54.5277
56.631
58.9641
61.4243
64.0488
66.8581
69.8244
73.0524
76.4771
80.1164
83.9721
88.1076
92.4632
97.0549
101.845
106.909
112.141
117.461
122.902
128.365
133.83
139.225
55.0204
55.8156
57.4159
59.2658
61.487
63.7999
66.2094
68.7066
71.2142
74.0198
77.0406
80.594
85.0831
89.508
93.8214
98.1835
102.587
107.109
112.937
118.154
123.282
128.422
133.733
139.116
107.264
142.939
165.547
182.578
196.115
206.815
215.247
222.022
227.455
231.699
234.884
237.125
238.517
239.144
239.094
238.442
237.273
235.664
233.695
231.437
228.944
226.26
223.517
220.87
181.171
193.914
204.166
212.552
219.341
224.711
228.84
231.88
233.957
235.195
235.727
235.676
235.158
234.277
233.118
231.748
230.216
228.552
226.771
224.882
222.877
220.764
218.576
216.378
144.248
154.365
163.979
172.866
180.918
188.094
194.393
199.844
204.489
208.377
211.565
214.11
216.066
217.485
218.418
218.912
219.01
218.756
218.19
217.351
216.277
215.009
213.545
211.869
154.886
162.618
169.901
176.635
182.753
188.221
193.033
197.204
200.761
203.742
206.192
208.158
209.687
210.823
211.611
212.088
212.288
212.239
211.965
211.485
210.824
210.005
208.938
207.421
148.569
155.393
161.933
168.095
173.808
179.028
183.732
187.918
191.594
194.781
197.508
199.8
201.693
203.217
204.405
205.284
205.883
206.227
206.339
206.24
205.962
205.526
204.758
203.374
148.343
154.446
160.283
165.788
170.906
175.603
179.862
183.676
187.05
190.007
192.565
194.744
196.577
198.09
199.309
200.261
200.97
201.456
201.739
201.837
201.772
201.544
200.994
199.76
146.629
152.289
157.703
162.815
167.579
171.975
175.99
179.599
182.819
185.674
188.17
190.312
192.147
193.687
194.962
195.987
196.793
197.394
197.811
198.064
198.163
198.092
197.996
198.233
145.458
150.784
155.874
160.674
165.143
169.283
173.103
176.527
179.604
182.362
184.791
186.859
188.665
190.18
191.46
192.498
193.351
194.009
194.507
194.854
195.034
194.98
194.978
195.392
144.495
149.597
154.414
158.949
163.207
167.173
170.897
174.167
177.085
179.757
182.127
184.1
185.85
187.27
188.539
189.554
190.441
191.121
191.672
192.069
192.278
192.21
192.482
193.601
144.31
149.258
153.615
157.756
161.721
165.618
169.39
172.114
174.813
177.496
179.805
181.195
183.153
184.494
185.801
186.733
187.654
188.302
188.833
189.2
189.456
189.254
190.293
191.355
-60.422
-60.6724
-60.9237
-61.109
-61.2198
-61.2594
-61.2312
-61.1382
-60.9854
-60.7804
-60.5336
-60.2526
-59.9403
-59.5979
-59.2233
-58.8092
-58.3369
-57.772
-57.0686
-56.186
-55.0858
-53.6778
-51.524
-46.8696
-60.7016
-60.8285
-61.0596
-61.2303
-61.3265
-61.3633
-61.3507
-61.2964
-61.2051
-61.077
-60.9082
-60.6924
-60.418
-60.0666
-59.615
-59.0378
-58.3017
-57.3496
-56.079
-54.3254
-51.8516
-48.3203
-43.44
-37.2731
-60.7851
-61.0325
-61.3886
-61.7018
-61.9475
-62.1307
-62.2527
-62.309
-62.2945
-62.2018
-62.0209
-61.7385
-61.3383
-60.7974
-60.0842
-59.1572
-57.9613
-56.4233
-54.4371
-51.8499
-48.4743
-44.1436
-38.8029
-32.7325
-60.7184
-60.9091
-61.2681
-61.592
-61.8435
-62.0227
-62.1287
-62.1574
-62.1034
-61.955
-61.7002
-61.322
-60.8014
-60.1131
-59.2207
-58.0804
-56.633
-54.8026
-52.4901
-49.5882
-45.9874
-41.6405
-36.6242
-31.1969
-60.4905
-60.5877
-60.9208
-61.2291
-61.4696
-61.6402
-61.7325
-61.7367
-61.6466
-61.4511
-61.1378
-60.6919
-60.0895
-59.2976
-58.2832
-57.0006
-55.3883
-53.3853
-50.9148
-47.8912
-44.2508
-39.9967
-35.2165
-30.1514
-60.1106
-60.0934
-60.393
-60.6729
-60.8907
-61.0422
-61.1143
-61.0948
-60.9729
-60.7397
-60.3858
-59.8915
-59.2384
-58.3926
-57.3119
-55.9531
-54.267
-52.1873
-49.6535
-46.6112
-43.0066
-38.8495
-34.2262
-29.367
-59.7778
-59.4987
-59.7729
-60.0038
-60.1887
-60.3358
-60.3981
-60.3635
-60.2156
-59.9341
-59.5298
-58.9928
-58.3091
-57.4332
-56.3228
-54.9232
-53.1815
-51.0645
-48.5277
-45.5122
-41.9434
-37.8639
-33.3557
-28.6418
-58.7344
-58.831
-59.1181
-59.2603
-59.3831
-59.5537
-59.6321
-59.6026
-59.4519
-59.134
-58.6836
-58.1077
-57.4255
-56.5576
-55.4603
-54.0714
-52.3265
-50.1974
-47.6909
-44.7818
-41.2792
-37.3111
-32.8952
-28.3216
-57.8725
-58.1759
-58.5837
-58.5361
-58.4267
-58.6332
-58.7799
-58.7859
-58.6606
-58.2544
-57.6461
-56.8054
-56.0519
-55.2115
-54.1531
-52.7875
-50.9972
-48.7595
-46.1755
-43.5103
-40.0263
-36.0257
-31.5344
-27.1199
-58.6994
-59.1241
-60.1781
-59.8413
-59.4253
-59.5794
-60.1272
-60.7096
-61.2582
-61.3953
-61.8312
-60.3336
-59.3082
-58.5673
-58.0645
-57.4348
-56.5587
-53.3171
-49.1472
-46.7172
-44.3689
-40.2548
-35.8308
-31.4511
-36.9424
-31.7728
-27.9284
-24.3587
-20.9503
-17.7411
-14.7287
-11.894
-9.20881
-6.64207
-4.15444
-1.7135
0.7038
3.11593
5.53438
7.96687
10.4179
12.89
15.3846
17.9048
20.453
23.0023
25.5707
28.5004
-30.43
-26.7732
-24.5739
-22.3466
-19.9384
-17.4038
-14.7989
-12.1701
-9.5493
-6.95769
-4.40742
-1.9036
0.553841
2.96901
5.34937
7.70395
10.0409
12.3691
14.6967
17.0325
19.3839
21.7332
24.0909
26.6569
-26.7218
-22.1981
-19.8244
-17.933
-15.9914
-13.9595
-11.8549
-9.70167
-7.51793
-5.3187
-3.11475
-0.912924
1.28084
3.4647
5.63825
7.80298
9.96108
12.1155
14.2697
16.4287
18.5973
20.7702
22.9548
25.2038
-25.7983
-21.1203
-18.4448
-16.5343
-14.6221
-12.6637
-10.6666
-8.64683
-6.61462
-4.57574
-2.53613
-0.497398
1.53852
3.57122
5.60121
7.63015
9.65862
11.6888
13.7229
15.7637
17.8126
19.8667
21.9456
24.1133
-25.1336
-20.6484
-17.7909
-15.8628
-13.9559
-12.0179
-10.0481
-8.0643
-6.07683
-4.09157
-2.11378
-0.145373
1.81312
3.76052
5.69799
7.62787
9.55188
11.4721
13.3908
15.3117
17.2346
19.1518
21.0874
23.1155
-24.558
-20.198
-17.154
-15.138
-13.2
-11.2626
-9.31086
-7.35941
-5.41418
-3.48094
-1.56174
0.341851
2.22923
4.10015
5.95447
7.79489
9.62233
11.4397
13.2495
15.0544
16.8527
18.6321
20.4183
22.3167
-23.9924
-19.7504
-16.5927
-14.4749
-12.4928
-10.543
-8.60156
-6.67629
-4.76887
-2.88265
-1.01758
0.82807
2.65341
4.45607
6.23708
7.99868
9.74217
11.4698
13.1851
14.8906
16.5818
18.242
19.9086
21.7149
-23.7255
-19.4737
-16.1694
-13.9167
-11.8825
-9.92243
-7.99364
-6.09106
-4.2131
-2.36588
-0.543762
1.25956
3.04137
4.79021
6.5098
8.20663
9.87963
11.5341
13.1732
14.7989
16.4008
17.9484
19.498
21.2364
-22.7529
-18.7331
-15.4914
-13.2319
-11.2497
-9.33985
-7.4505
-5.57479
-3.71991
-1.90871
-0.123549
1.653
3.40968
5.11034
6.77372
8.41987
10.03
11.6162
13.1869
14.7443
16.2645
17.6907
19.1504
20.7456
-25.3595
-19.4346
-15.2169
-12.6566
-10.6768
-8.82629
-6.98017
-5.11308
-3.25781
-1.51308
0.219226
2.00229
3.78062
5.41386
7.01099
8.63179
10.171
11.7141
13.2683
14.8198
16.3127
17.5985
19.0513
20.4857
-131.677
-127.506
-123.676
-119.984
-114.781
-108.194
-100.88
-93.1499
-85.1822
-77.2377
-69.483
-62.0372
-54.9777
-48.3873
-42.3336
-36.857
-31.9711
-27.6623
-23.8815
-20.5863
-17.7073
-15.1801
-12.9372
-10.9864
-83.5779
-83.6232
-83.205
-82.4447
-81.5111
-80.6352
-79.976
-79.5185
-79.0059
-78.0719
-76.4808
-74.1686
-71.1443
-67.4629
-63.1863
-58.4485
-53.4009
-48.2193
-43.0769
-38.1273
-33.4798
-29.2032
-25.2893
-21.9718
-92.1561
-92.0642
-92.114
-92.1691
-92.1738
-92.0285
-91.5818
-90.7211
-89.456
-87.8751
-86.0641
-83.9899
-81.5284
-78.5755
-75.12
-71.1729
-66.7702
-61.9743
-56.8973
-51.6691
-46.4474
-41.3786
-36.5253
-32.3317
-86.7286
-86.6998
-86.6294
-86.5293
-86.4057
-86.2571
-86.0738
-85.8337
-85.5048
-85.0465
-84.392
-83.4948
-82.3771
-80.9888
-79.1882
-76.8548
-73.9274
-70.3884
-66.2753
-61.6752
-56.7245
-51.6111
-46.4617
-42.0793
-87.1534
-87.1417
-87.1487
-87.1463
-87.1273
-87.0834
-87.0042
-86.8754
-86.6746
-86.3705
-85.9292
-85.3132
-84.4767
-83.3943
-82.0512
-80.3811
-78.2872
-75.6935
-72.5408
-68.8129
-64.5454
-59.8516
-54.8178
-50.5181
-85.9662
-85.9607
-85.949
-85.9263
-85.8926
-85.8458
-85.782
-85.6954
-85.5773
-85.4139
-85.1851
-84.8648
-84.4216
-83.813
-82.9871
-81.9037
-80.4994
-78.6883
-76.387
-73.5272
-70.0761
-66.0115
-61.4735
-54.6666
-85.646
-85.6439
-85.6423
-85.6333
-85.6166
-85.5897
-85.5494
-85.4911
-85.4082
-85.2917
-85.1292
-84.9027
-84.5909
-84.1677
-83.5962
-82.8312
-81.8245
-80.5146
-78.8176
-76.6501
-73.9469
-70.6055
-66.9891
-60.4754
-85.1943
-85.1922
-85.1878
-85.1767
-85.1593
-85.1341
-85.0994
-85.0524
-84.9891
-84.9038
-84.789
-84.6335
-84.4213
-84.133
-83.7427
-83.215
-82.5064
-81.565
-80.3246
-78.6995
-76.6194
-73.9454
-71.0517
-64.8997
-84.9243
-84.9226
-84.9192
-84.9103
-84.896
-84.8752
-84.8464
-84.8075
-84.7557
-84.6867
-84.5949
-84.4731
-84.3107
-84.0928
-83.8015
-83.4117
-82.8893
-82.1921
-81.2669
-80.0437
-78.4472
-76.3352
-74.0119
-68.3945
-84.6925
-84.6907
-84.6866
-84.6776
-84.6638
-84.6443
-84.618
-84.5833
-84.5383
-84.4799
-84.4041
-84.3054
-84.1767
-84.0072
-83.7831
-83.486
-83.0908
-82.5635
-81.8619
-80.9312
-79.7064
-78.0708
-76.266
-71.6047
-84.5322
-84.5307
-84.5267
-84.5182
-84.5053
-84.4873
-84.4631
-84.4316
-84.3911
-84.3394
-84.2734
-84.1888
-84.0805
-83.941
-83.7596
-83.5228
-83.2121
-82.8014
-82.2556
-81.5313
-80.5786
-79.298
-77.8189
-74.0509
-84.4188
-84.4175
-84.4135
-84.4055
-84.3932
-84.3762
-84.3536
-84.3244
-84.2874
-84.2407
-84.1818
-84.1075
-84.0137
-83.895
-83.7436
-83.549
-83.2966
-82.9667
-82.5325
-81.9579
-81.2032
-80.1924
-78.9802
-75.7627
-84.3538
-84.3522
-84.348
-84.3403
-84.3285
-84.3124
-84.2912
-84.2641
-84.2299
-84.1873
-84.1342
-84.0678
-83.9848
-83.8812
-83.7514
-83.587
-83.3773
-83.1072
-82.7552
-82.2929
-81.6897
-80.8937
-79.9472
-77.5061
-84.3241
-84.3227
-84.3186
-84.3114
-84.3004
-84.2854
-84.2659
-84.241
-84.2098
-84.1711
-84.1232
-84.0639
-83.9903
-83.8992
-83.7863
-83.6457
-83.469
-83.2441
-82.9549
-82.5787
-82.0906
-81.4496
-80.6549
-78.8836
-84.326
-84.3247
-84.3209
-84.3144
-84.3044
-84.2907
-84.273
-84.2505
-84.2225
-84.1878
-84.1451
-84.0925
-84.0276
-83.9476
-83.8494
-83.7283
-83.5779
-83.3894
-83.1499
-82.8417
-82.4444
-81.9243
-81.2527
-79.8528
-84.3548
-84.3534
-84.3494
-84.3433
-84.334
-84.3216
-84.3056
-84.2855
-84.2606
-84.2299
-84.1924
-84.1463
-84.0897
-84.0202
-83.9351
-83.8312
-83.7038
-83.5459
-83.3471
-83.0934
-82.7682
-82.3443
-81.7933
-80.6211
-84.3996
-84.3983
-84.3947
-84.3893
-84.3812
-84.3702
-84.3562
-84.3386
-84.3169
-84.2904
-84.2579
-84.2182
-84.1697
-84.1101
-84.0374
-83.949
-83.8414
-83.7092
-83.5446
-83.3362
-83.0709
-82.7259
-82.2653
-81.2871
-84.4575
-84.4563
-84.4528
-84.448
-84.4408
-84.4311
-84.4189
-84.4037
-84.385
-84.3623
-84.3346
-84.301
-84.2599
-84.2094
-84.1478
-84.0731
-83.9825
-83.8722
-83.7356
-83.5636
-83.3449
-83.0597
-82.6713
-81.849
-84.5205
-84.5195
-84.5164
-84.5121
-84.5059
-84.4976
-84.4871
-84.4741
-84.4582
-84.439
-84.4156
-84.3873
-84.3528
-84.3106
-84.2588
-84.1958
-84.1196
-84.0268
-83.9121
-83.7674
-83.582
-83.3356
-82.9892
-82.2657
-84.5849
-84.5842
-84.5815
-84.578
-84.5726
-84.5655
-84.5566
-84.5455
-84.5321
-84.5159
-84.4963
-84.4726
-84.4437
-84.4082
-84.3648
-84.3117
-84.2473
-84.1688
-84.0719
-83.9497
-83.7932
-83.5853
-83.294
-82.6855
-84.6493
-84.6484
-84.6457
-84.6424
-84.6376
-84.6314
-84.6236
-84.614
-84.6025
-84.5887
-84.5721
-84.5521
-84.5278
-84.498
-84.4613
-84.4162
-84.3611
-84.2935
-84.2094
-84.1018
-83.9615
-83.774
-83.5243
-82.9455
-84.7067
-84.706
-84.7037
-84.7009
-84.6968
-84.6913
-84.6845
-84.6763
-84.6664
-84.6546
-84.6405
-84.6235
-84.6029
-84.5776
-84.5464
-84.5079
-84.4605
-84.4022
-84.3294
-84.2363
-84.1155
-83.9538
-83.7328
-83.2812
-84.758
-84.7575
-84.7553
-84.7528
-84.7491
-84.7442
-84.7382
-84.731
-84.7223
-84.712
-84.6997
-84.685
-84.6672
-84.6454
-84.6184
-84.5849
-84.5435
-84.4921
-84.4274
-84.3439
-84.2339
-84.0854
-83.8869
-83.4683
-84.801
-84.8006
-84.7985
-84.7963
-84.793
-84.7886
-84.7832
-84.7767
-84.7689
-84.7597
-84.7488
-84.7357
-84.72
-84.7008
-84.677
-84.6474
-84.6106
-84.5649
-84.5073
-84.4332
-84.3361
-84.2041
-84.0197
-83.6844
-84.8352
-84.8349
-84.8331
-84.8311
-84.828
-84.824
-84.8191
-84.8131
-84.8059
-84.7975
-84.7875
-84.7755
-84.7612
-84.7436
-84.722
-84.6949
-84.6613
-84.6192
-84.5658
-84.4964
-84.4044
-84.2799
-84.1109
-83.72
-84.8617
-84.8614
-84.8597
-84.8578
-84.8549
-84.8511
-84.8464
-84.8407
-84.8339
-84.8258
-84.8163
-84.805
-84.7915
-84.775
-84.7547
-84.7294
-84.6979
-84.6585
-84.6086
-84.5442
-84.4596
-84.3465
-84.1903
-83.865
-84.8802
-84.88
-84.8783
-84.8765
-84.8738
-84.8701
-84.8655
-84.8599
-84.8533
-84.8454
-84.8361
-84.8251
-84.8119
-84.7959
-84.7762
-84.7518
-84.7213
-84.6833
-84.6351
-84.5727
-84.4905
-84.3799
-84.2219
-83.8906
-84.8921
-84.8918
-84.8902
-84.8884
-84.8857
-84.882
-84.8775
-84.8719
-84.8653
-84.8574
-84.8481
-84.837
-84.8239
-84.808
-84.7886
-84.7646
-84.7348
-84.6977
-84.6509
-84.5909
-84.5124
-84.4057
-84.249
-83.9802
-84.8976
-84.8974
-84.8959
-84.8942
-84.8915
-84.8878
-84.8832
-84.8776
-84.8708
-84.8628
-84.8533
-84.8421
-84.8288
-84.8127
-84.7932
-84.7694
-84.7399
-84.7036
-84.6586
-84.6021
-84.5295
-84.4301
-84.2905
-84.222
-84.8987
-84.8985
-84.8969
-84.8952
-84.8925
-84.8887
-84.884
-84.8782
-84.8713
-84.863
-84.8532
-84.8416
-84.8279
-84.8114
-84.7915
-84.7672
-84.7374
-84.701
-84.6561
-84.6002
-84.5285
-84.4313
-84.3026
-84.2805
-84.896
-84.8959
-84.8942
-84.8924
-84.8896
-84.8858
-84.8809
-84.875
-84.8678
-84.8592
-84.8491
-84.837
-84.8227
-84.8055
-84.7849
-84.7598
-84.7292
-84.6917
-84.6456
-84.5877
-84.5138
-84.4226
-84.316
-84.0624
-84.8903
-84.8902
-84.8887
-84.8869
-84.8841
-84.8802
-84.8753
-84.8691
-84.8617
-84.8529
-84.8423
-84.8298
-84.8149
-84.7971
-84.7757
-84.7498
-84.7183
-84.6797
-84.6325
-84.5738
-84.4999
-84.4121
-84.3111
-84.0219
-84.8839
-84.8838
-84.8822
-84.8804
-84.8775
-84.8735
-84.8684
-84.8621
-84.8544
-84.8453
-84.8344
-84.8214
-84.806
-84.7877
-84.7656
-84.739
-84.7066
-84.6672
-84.6191
-84.5599
-84.4861
-84.3936
-84.2754
-84.123
-84.8767
-84.8766
-84.875
-84.8732
-84.8702
-84.8662
-84.861
-84.8546
-84.8468
-84.8374
-84.8263
-84.813
-84.7973
-84.7785
-84.7561
-84.7289
-84.696
-84.656
-84.6073
-84.5474
-84.4722
-84.3752
-84.2452
-84.0806
-84.8699
-84.8698
-84.8681
-84.8663
-84.8633
-84.8592
-84.8539
-84.8474
-84.8396
-84.8301
-84.8188
-84.8055
-84.7896
-84.7707
-84.7481
-84.721
-84.6883
-84.6488
-84.6009
-84.5428
-84.4717
-84.3832
-84.2712
-84.1457
-84.8636
-84.8635
-84.8618
-84.8599
-84.857
-84.8529
-84.8476
-84.8411
-84.8332
-84.8237
-84.8124
-84.7991
-84.7832
-84.7644
-84.742
-84.7152
-84.683
-84.6442
-84.5975
-84.5412
-84.4727
-84.388
-84.2805
-84.1571
-84.8582
-84.8581
-84.8564
-84.8545
-84.8516
-84.8475
-84.8422
-84.8358
-84.8279
-84.8185
-84.8073
-84.794
-84.7783
-84.7598
-84.7378
-84.7116
-84.6802
-84.6426
-84.5977
-84.544
-84.4795
-84.4016
-84.3068
-84.1928
-84.8539
-84.8538
-84.8521
-84.8502
-84.8473
-84.8432
-84.838
-84.8316
-84.8238
-84.8144
-84.8034
-84.7903
-84.7748
-84.7566
-84.735
-84.7094
-84.679
-84.6427
-84.5997
-84.5486
-84.4878
-84.4146
-84.3276
-84.2446
-84.8506
-84.8505
-84.8487
-84.8468
-84.844
-84.8399
-84.8348
-84.8284
-84.8207
-84.8115
-84.8006
-84.7877
-84.7725
-84.7545
-84.7334
-84.7084
-84.6788
-84.6437
-84.6023
-84.5537
-84.4969
-84.4294
-84.3488
-84.3064
-84.8482
-84.8481
-84.8464
-84.8445
-84.8417
-84.8377
-84.8326
-84.8263
-84.8187
-84.8096
-84.7988
-84.7861
-84.7711
-84.7534
-84.7326
-84.708
-84.6788
-84.6441
-84.6031
-84.5546
-84.4972
-84.4281
-84.3371
-84.1974
-84.8471
-84.847
-84.8452
-84.8433
-84.8405
-84.8365
-84.8315
-84.8253
-84.8178
-84.8088
-84.7982
-84.7857
-84.7709
-84.7535
-84.733
-84.7087
-84.68
-84.6459
-84.6055
-84.5576
-84.5004
-84.4308
-84.3446
-84.2422
-84.8468
-84.8466
-84.8449
-84.843
-84.8402
-84.8363
-84.8313
-84.8252
-84.8178
-84.809
-84.7986
-84.7863
-84.7718
-84.7547
-84.7346
-84.7109
-84.6827
-84.6493
-84.6097
-84.563
-84.508
-84.4429
-84.3667
-84.3077
-84.8471
-84.847
-84.8452
-84.8434
-84.8406
-84.8368
-84.8319
-84.8259
-84.8187
-84.8101
-84.7999
-84.7879
-84.7738
-84.7571
-84.7375
-84.7143
-84.6867
-84.654
-84.615
-84.5686
-84.5133
-84.4484
-84.3666
-84.1545
-84.8484
-84.8483
-84.8465
-84.8446
-84.8419
-84.8381
-84.8333
-84.8274
-84.8204
-84.812
-84.802
-84.7904
-84.7767
-84.7605
-84.7415
-84.719
-84.6925
-84.661
-84.6238
-84.5802
-84.5293
-84.4692
-84.398
-84.3855
-84.85
-84.8498
-84.8479
-84.846
-84.8434
-84.8396
-84.8349
-84.8292
-84.8223
-84.8142
-84.8046
-84.7933
-84.7801
-84.7645
-84.7462
-84.7245
-84.6989
-84.6684
-84.6323
-84.5893
-84.5381
-84.4777
-84.4016
-84.225
-84.8507
-84.8506
-84.8488
-84.8471
-84.8445
-84.8409
-84.8364
-84.8309
-84.8243
-84.8165
-84.8073
-84.7965
-84.7838
-84.7689
-84.7513
-84.7307
-84.7063
-84.6776
-84.6437
-84.6041
-84.5583
-84.5048
-84.4457
-84.4382
-84.8516
-84.8515
-84.8498
-84.8481
-84.8456
-84.8422
-84.8378
-84.8325
-84.8261
-84.8186
-84.8097
-84.7994
-84.7872
-84.773
-84.7562
-84.7365
-84.7132
-84.6857
-84.6531
-84.6148
-84.57
-84.5167
-84.4538
-84.3853
-84.8522
-84.852
-84.8503
-84.8486
-84.8462
-84.8428
-84.8386
-84.8335
-84.8273
-84.8201
-84.8116
-84.8017
-84.7901
-84.7765
-84.7606
-84.7418
-84.7197
-84.6935
-84.6625
-84.626
-84.5833
-84.5327
-84.4714
-84.3826
-84.8516
-84.8515
-84.8497
-84.8481
-84.8457
-84.8425
-84.8384
-84.8335
-84.8276
-84.8207
-84.8126
-84.8031
-84.792
-84.7791
-84.764
-84.7462
-84.7252
-84.7003
-84.6708
-84.6362
-84.5956
-84.5474
-84.489
-84.4548
-84.8498
-84.8497
-84.848
-84.8463
-84.844
-84.8409
-84.837
-84.8322
-84.8266
-84.8199
-84.8122
-84.8032
-84.7927
-84.7804
-84.766
-84.7492
-84.7294
-84.7058
-84.6778
-84.6444
-84.6046
-84.558
-84.4989
-84.3471
-84.8464
-84.8463
-84.8446
-84.843
-84.8408
-84.8378
-84.8339
-84.8294
-84.8239
-84.8176
-84.8102
-84.8016
-84.7916
-84.78
-84.7665
-84.7507
-84.7321
-84.7104
-84.6848
-84.6551
-84.6209
-84.5817
-84.5397
-84.5525
-84.8413
-84.8411
-84.8395
-84.8379
-84.8357
-84.8327
-84.829
-84.8245
-84.8193
-84.8131
-84.806
-84.7978
-84.7883
-84.7772
-84.7644
-84.7494
-84.7319
-84.7114
-84.6873
-84.6592
-84.6263
-84.5872
-84.5392
-84.4934
-84.8334
-84.8333
-84.8316
-84.83
-84.828
-84.8251
-84.8215
-84.8173
-84.8122
-84.8063
-84.7995
-84.7916
-84.7825
-84.7719
-84.7596
-84.7453
-84.7287
-84.7093
-84.6867
-84.6606
-84.6308
-84.5975
-84.5622
-84.5259
-84.8228
-84.8229
-84.8214
-84.82
-84.8181
-84.8154
-84.812
-84.8078
-84.803
-84.7973
-84.7906
-84.7829
-84.774
-84.7637
-84.7518
-84.7379
-84.7217
-84.7027
-84.6805
-84.6545
-84.6242
-84.5893
-84.5502
-84.4873
-84.8125
-84.8122
-84.8105
-84.8089
-84.8068
-84.804
-84.8005
-84.7964
-84.7915
-84.7859
-84.7793
-84.7718
-84.763
-84.7529
-84.7412
-84.7275
-84.7115
-84.6929
-84.671
-84.6455
-84.6157
-84.5809
-84.5397
-84.4828
-84.7973
-84.7972
-84.7956
-84.7941
-84.7921
-84.7894
-84.786
-84.782
-84.7773
-84.7718
-84.7654
-84.758
-84.7494
-84.7394
-84.7278
-84.7142
-84.6984
-84.6799
-84.6582
-84.6327
-84.6029
-84.5676
-84.5243
-84.4678
-84.78
-84.7801
-84.7787
-84.7774
-84.7755
-84.7729
-84.7697
-84.7657
-84.7611
-84.7557
-84.7493
-84.742
-84.7334
-84.7235
-84.712
-84.6985
-84.6827
-84.6641
-84.6423
-84.6166
-84.5866
-84.5516
-84.511
-84.4583
-84.7634
-84.763
-84.7612
-84.7597
-84.7577
-84.7549
-84.7516
-84.7476
-84.7429
-84.7374
-84.7311
-84.7238
-84.7153
-84.7055
-84.694
-84.6805
-84.6647
-84.6461
-84.624
-84.5977
-84.5663
-84.5282
-84.4816
-84.412
-84.7419
-84.7417
-84.7401
-84.7386
-84.7366
-84.7339
-84.7306
-84.7267
-84.7222
-84.7168
-84.7106
-84.7034
-84.695
-84.6853
-84.6739
-84.6606
-84.645
-84.6266
-84.6049
-84.5792
-84.5491
-84.5136
-84.4711
-84.4121
-84.7178
-84.7178
-84.7164
-84.7151
-84.7134
-84.7109
-84.7077
-84.704
-84.6995
-84.6943
-84.6882
-84.6811
-84.6729
-84.6632
-84.652
-84.6389
-84.6234
-84.6052
-84.5838
-84.5586
-84.529
-84.4944
-84.4564
-84.4025
-84.6944
-84.6942
-84.6926
-84.691
-84.6891
-84.6865
-84.6833
-84.6795
-84.675
-84.6698
-84.6638
-84.6568
-84.6487
-84.6392
-84.628
-84.615
-84.5999
-84.5821
-84.561
-84.5364
-84.5075
-84.4743
-84.4375
-84.3879
-84.6667
-84.6666
-84.6653
-84.6639
-84.6622
-84.6597
-84.6566
-84.653
-84.6486
-84.6435
-84.6375
-84.6306
-84.6225
-84.6132
-84.6022
-84.5894
-84.5743
-84.5565
-84.5357
-84.5111
-84.4821
-84.4483
-84.4091
-84.354
-84.6401
-84.6397
-84.638
-84.6364
-84.6344
-84.6319
-84.6287
-84.6249
-84.6205
-84.6154
-84.6095
-84.6026
-84.5946
-84.5853
-84.5745
-84.5618
-84.5469
-84.5294
-84.5088
-84.4845
-84.4557
-84.4212
-84.3788
-84.3188
-84.6087
-84.6086
-84.6069
-84.6054
-84.6035
-84.6011
-84.598
-84.5943
-84.5901
-84.5851
-84.5792
-84.5725
-84.5646
-84.5555
-84.5447
-84.5322
-84.5176
-84.5006
-84.4806
-84.4575
-84.4307
-84.3999
-84.364
-84.3295
-84.5753
-84.5753
-84.574
-84.5727
-84.571
-84.5686
-84.5657
-84.5621
-84.5579
-84.553
-84.5473
-84.5406
-84.5328
-84.5237
-84.513
-84.5006
-84.486
-84.469
-84.4493
-84.4262
-84.3993
-84.3688
-84.3367
-84.287
-84.543
-84.5426
-84.5409
-84.5394
-84.5375
-84.5351
-84.532
-84.5284
-84.5242
-84.5192
-84.5135
-84.5069
-84.4991
-84.4899
-84.4793
-84.4668
-84.4523
-84.4354
-84.4156
-84.3925
-84.3658
-84.3349
-84.3008
-84.2641
-84.5065
-84.5065
-84.5049
-84.5035
-84.5016
-84.4992
-84.4962
-84.4927
-84.4885
-84.4836
-84.4779
-84.4712
-84.4635
-84.4544
-84.4437
-84.4313
-84.4166
-84.3995
-84.3795
-84.3561
-84.329
-84.2975
-84.2595
-84.2027
-84.4699
-84.4696
-84.4679
-84.4664
-84.4645
-84.462
-84.4589
-84.4554
-84.4512
-84.4463
-84.4406
-84.434
-84.4262
-84.4171
-84.4064
-84.3939
-84.3791
-84.3618
-84.3416
-84.3182
-84.291
-84.2594
-84.2221
-84.1743
-84.4298
-84.4297
-84.4281
-84.4266
-84.4247
-84.4224
-84.4194
-84.4159
-84.4118
-84.407
-84.4014
-84.3949
-84.3871
-84.3781
-84.3673
-84.3547
-84.34
-84.3226
-84.3023
-84.2785
-84.251
-84.2197
-84.185
-84.1446
-84.3882
-84.3882
-84.3868
-84.3855
-84.3838
-84.3815
-84.3787
-84.3753
-84.3712
-84.3665
-84.3609
-84.3544
-84.3466
-84.3376
-84.3268
-84.3142
-84.2992
-84.2815
-84.2608
-84.2366
-84.2085
-84.1765
-84.142
-84.1051
-84.3481
-84.3476
-84.3459
-84.3443
-84.3423
-84.3399
-84.3369
-84.3334
-84.3293
-84.3245
-84.319
-84.3125
-84.3048
-84.2957
-84.285
-84.2723
-84.2573
-84.2394
-84.2183
-84.1932
-84.1634
-84.1281
-84.0845
-83.9979
-84.3032
-84.3031
-84.3014
-84.2998
-84.298
-84.2956
-84.2928
-84.2894
-84.2854
-84.2808
-84.2753
-84.2689
-84.2613
-84.2524
-84.2418
-84.2292
-84.2143
-84.1967
-84.1759
-84.1514
-84.1227
-84.0894
-84.0535
-84.0425
-84.257
-84.2569
-84.2555
-84.2541
-84.2524
-84.2502
-84.2474
-84.2441
-84.2403
-84.2357
-84.2304
-84.2241
-84.2166
-84.2078
-84.1973
-84.1848
-84.17
-84.1525
-84.1318
-84.1073
-84.0784
-84.0462
-84.0119
-83.9289
-84.2118
-84.2113
-84.2095
-84.2078
-84.2059
-84.2035
-84.2007
-84.1974
-84.1935
-84.1891
-84.1838
-84.1776
-84.1703
-84.1616
-84.1513
-84.139
-84.1245
-84.1073
-84.0869
-84.063
-84.0351
-84.003
-83.9648
-83.9203
-84.1611
-84.1611
-84.1596
-84.1582
-84.1565
-84.1544
-84.1517
-84.1486
-84.1449
-84.1406
-84.1355
-84.1295
-84.1223
-84.1138
-84.1037
-84.0917
-84.0775
-84.0605
-84.0405
-84.017
-83.9896
-83.9572
-83.9157
-83.8567
-84.1125
-84.112
-84.1102
-84.1086
-84.1067
-84.1044
-84.1017
-84.0985
-84.0948
-84.0906
-84.0856
-84.0797
-84.0727
-84.0644
-84.0545
-84.0427
-84.0287
-84.0121
-83.9926
-83.97
-83.9438
-83.914
-83.8848
-83.875
-84.0585
-84.0583
-84.0566
-84.0551
-84.0533
-84.0511
-84.0486
-84.0456
-84.0421
-84.0381
-84.0333
-84.0276
-84.0209
-84.0128
-84.0031
-83.9916
-83.9779
-83.9616
-83.9422
-83.9195
-83.8927
-83.8617
-83.8281
-83.7799
-84.0027
-84.0026
-84.0012
-83.9999
-83.9982
-83.9962
-83.9938
-83.991
-83.9877
-83.9838
-83.9792
-83.9737
-83.9672
-83.9593
-83.9499
-83.9387
-83.9252
-83.909
-83.89
-83.8678
-83.8421
-83.813
-83.7807
-83.7546
-83.9477
-83.9471
-83.9453
-83.9436
-83.9418
-83.9397
-83.9372
-83.9344
-83.9311
-83.9273
-83.9229
-83.9176
-83.9113
-83.9037
-83.8945
-83.8835
-83.8702
-83.8542
-83.835
-83.8119
-83.7843
-83.7518
-83.716
-83.6549
-83.8868
-83.8865
-83.8848
-83.8832
-83.8815
-83.8795
-83.8772
-83.8746
-83.8716
-83.868
-83.8639
-83.8589
-83.8529
-83.8457
-83.837
-83.8264
-83.8136
-83.798
-83.7792
-83.7563
-83.7287
-83.6954
-83.6554
-83.5933
-83.8231
-83.8229
-83.8214
-83.82
-83.8185
-83.8167
-83.8146
-83.8122
-83.8094
-83.8062
-83.8023
-83.7977
-83.7922
-83.7855
-83.7773
-83.7673
-83.7551
-83.7403
-83.7225
-83.7012
-83.676
-83.6457
-83.6074
-83.5702
-83.758
-83.7574
-83.7557
-83.7542
-83.7526
-83.7509
-83.7489
-83.7467
-83.7441
-83.7412
-83.7377
-83.7336
-83.7285
-83.7223
-83.7148
-83.7055
-83.6942
-83.6804
-83.6637
-83.6435
-83.6196
-83.5909
-83.5566
-83.5323
-83.6871
-83.6869
-83.6854
-83.6842
-83.6828
-83.6812
-83.6795
-83.6776
-83.6754
-83.6728
-83.6697
-83.666
-83.6615
-83.656
-83.6492
-83.6408
-83.6305
-83.6177
-83.602
-83.5827
-83.5592
-83.5311
-83.4992
-83.4378
-83.6151
-83.6146
-83.6128
-83.6114
-83.6099
-83.6083
-83.6067
-83.6049
-83.6029
-83.6006
-83.598
-83.5948
-83.591
-83.5862
-83.5802
-83.5728
-83.5635
-83.5521
-83.5381
-83.521
-83.5007
-83.4768
-83.4492
-83.4189
-83.5361
-83.5357
-83.5341
-83.5327
-83.5314
-83.5301
-83.5286
-83.5271
-83.5255
-83.5237
-83.5215
-83.519
-83.5159
-83.5119
-83.507
-83.5007
-83.4927
-83.4827
-83.4703
-83.4549
-83.4361
-83.4129
-83.3827
-83.3494
-83.452
-83.4517
-83.45
-83.4488
-83.4476
-83.4463
-83.4452
-83.444
-83.4428
-83.4415
-83.44
-83.4382
-83.4359
-83.4329
-83.429
-83.424
-83.4175
-83.409
-83.3984
-83.385
-83.3686
-83.3484
-83.323
-83.3012
-83.36
-83.3597
-83.3583
-83.3575
-83.3567
-83.356
-83.3553
-83.3547
-83.3541
-83.3535
-83.3527
-83.3517
-83.3504
-83.3485
-83.3459
-83.3422
-83.3372
-83.3306
-83.3218
-83.3104
-83.2958
-83.2772
-83.255
-83.2221
-83.2637
-83.2635
-83.2621
-83.2612
-83.2605
-83.26
-83.2597
-83.2594
-83.2594
-83.2593
-83.2593
-83.2592
-83.2588
-83.2581
-83.2568
-83.2547
-83.2515
-83.2469
-83.2406
-83.2321
-83.2213
-83.2084
-83.1939
-83.1826
-83.159
-83.159
-83.1579
-83.1575
-83.1572
-83.157
-83.157
-83.1573
-83.1578
-83.1584
-83.1591
-83.1599
-83.1606
-83.1611
-83.1612
-83.1607
-83.1593
-83.1567
-83.1526
-83.1466
-83.1383
-83.1267
-83.1097
-83.0892
-83.05
-83.0497
-83.0482
-83.0475
-83.0471
-83.047
-83.0471
-83.0477
-83.0486
-83.0498
-83.0513
-83.053
-83.0548
-83.0566
-83.0582
-83.0594
-83.0601
-83.0599
-83.0584
-83.0554
-83.0505
-83.0429
-83.0306
-83.0345
-82.9278
-82.9277
-82.9267
-82.9264
-82.9265
-82.9268
-82.9275
-82.9287
-82.9303
-82.9324
-82.9348
-82.9375
-82.9406
-82.9439
-82.9472
-82.9504
-82.9532
-82.9553
-82.9565
-82.9562
-82.9538
-82.9488
-82.9411
-82.9265
-82.7996
-82.7991
-82.7979
-82.7976
-82.7978
-82.7983
-82.7993
-82.8009
-82.803
-82.8058
-82.8091
-82.813
-82.8174
-82.8222
-82.8273
-82.8326
-82.8379
-82.8428
-82.8473
-82.8509
-82.8534
-82.855
-82.856
-82.8601
-82.6594
-82.6591
-82.6581
-82.6578
-82.6581
-82.6589
-82.6603
-82.6624
-82.6652
-82.6687
-82.673
-82.6781
-82.6839
-82.6904
-82.6975
-82.7051
-82.713
-82.7211
-82.7289
-82.7361
-82.7421
-82.7464
-82.7469
-82.7421
-82.5086
-82.508
-82.5066
-82.506
-82.5062
-82.5071
-82.5089
-82.5115
-82.515
-82.5195
-82.525
-82.5315
-82.539
-82.5474
-82.5568
-82.567
-82.5779
-82.5894
-82.6012
-82.6131
-82.6247
-82.6359
-82.6451
-82.6636
-82.3346
-82.3347
-82.3345
-82.3352
-82.3368
-82.3391
-82.3421
-82.3461
-82.351
-82.3569
-82.364
-82.3722
-82.3815
-82.3922
-82.4041
-82.4171
-82.4313
-82.4465
-82.4625
-82.4792
-82.4964
-82.5134
-82.529
-82.5619
-82.1568
-82.1567
-82.1563
-82.1569
-82.1585
-82.161
-82.1645
-82.1691
-82.1749
-82.1819
-82.1902
-82.2
-82.2112
-82.224
-82.2384
-82.2544
-82.272
-82.2912
-82.3117
-82.3335
-82.3563
-82.3797
-82.4031
-82.4552
-81.9612
-81.9613
-81.9612
-81.9623
-81.9644
-81.9675
-81.9717
-81.9772
-81.984
-81.9922
-82.0019
-82.0133
-82.0265
-82.0416
-82.0587
-82.0777
-82.0988
-82.122
-82.1472
-82.1744
-82.2032
-82.2339
-82.2668
-82.3143
-81.7539
-81.7536
-81.7532
-81.7541
-81.7563
-81.7596
-81.7642
-81.7703
-81.7779
-81.7872
-81.7983
-81.8114
-81.8265
-81.8439
-81.8636
-81.8859
-81.9107
-81.9381
-81.9681
-82.0007
-82.0357
-82.0728
-82.1116
-82.1835
-81.5249
-81.5248
-81.525
-81.5264
-81.5292
-81.5332
-81.5387
-81.5457
-81.5544
-81.565
-81.5776
-81.5925
-81.6097
-81.6296
-81.6522
-81.6778
-81.7064
-81.7381
-81.773
-81.8111
-81.8518
-81.8948
-81.9404
-82.0018
-81.2811
-81.2805
-81.2805
-81.2819
-81.285
-81.2894
-81.2955
-81.3033
-81.313
-81.3249