/*--------------------------------*- C++ -*----------------------------------*\
| =========                 |                                                 |
| \\      /  F ield         | OpenFOAM: The Open Source CFD Toolbox           |
|  \\    /   O peration     | Version:  2.3.0                                 |
|   \\  /    A nd           | Web:      www.OpenFOAM.org                      |
|    \\/     M anipulation  |                                                 |
\*---------------------------------------------------------------------------*/
FoamFile
{
    version     2.0;
    format      ascii;
    class       volVectorField;
    location    "6000";
    object      U;
}
// * * * * * * * * * * * * * * * * * * * * * * * * * * * * * * * * * * * * * //

dimensions      [0 1 -1 0 0 0 0];

internalField   nonuniform List<vector> 
14767
(
(21.4548 10.3432 -3.2645e-20)
(21.2611 10.7342 5.11828e-21)
(21.0629 11.1307 -3.89599e-20)
(20.8519 11.5343 1.7983e-20)
(20.6257 11.9442 -8.71288e-20)
(20.381 12.3563 1.08235e-19)
(20.1127 12.7653 -5.9586e-20)
(19.8139 13.1644 1.31129e-20)
(19.4758 13.547 1.37068e-19)
(19.0883 13.9075 -1.65111e-19)
(18.6412 14.2416 1.05601e-19)
(18.1244 14.5476 1.00947e-19)
(17.5287 14.8271 -1.5002e-20)
(16.8457 15.0835 -1.03025e-19)
(16.068 15.3225 2.50759e-20)
(15.1898 15.5518 1.73999e-20)
(14.2061 15.7768 -1.08991e-19)
(13.1143 16.0035 1.12534e-19)
(11.9127 16.231 3.09283e-20)
(10.5976 16.4453 3.19997e-20)
(9.17255 16.6326 -1.606e-20)
(7.68067 16.8383 0)
(6.19959 17.1661 0)
(4.7053 17.3747 0)
(21.1029 10.1938 -1.07592e-19)
(20.899 10.5224 1.16312e-19)
(20.6873 10.8539 3.95022e-20)
(20.4606 11.1868 2.00784e-20)
(20.217 11.5232 0)
(19.9545 11.8634 2.24619e-19)
(19.6713 12.2075 2.25428e-20)
(19.3656 12.5554 -2.16675e-19)
(19.0354 12.9054 -1.48073e-20)
(18.6788 13.2549 5.82739e-20)
(18.2937 13.6001 -4.41464e-19)
(17.8781 13.9359 4.00807e-19)
(17.4301 14.2558 0)
(16.9478 14.5525 0)
(16.43 14.817 -2.35668e-20)
(15.8759 15.0398 -9.40699e-19)
(15.2859 15.2103 1.05248e-18)
(14.6615 15.3173 8.12128e-20)
(14.006 15.3489 -2.68159e-20)
(13.3248 15.2924 -1.89117e-18)
(12.6273 15.1345 1.84241e-18)
(11.9284 14.8663 -6.58715e-20)
(11.2365 14.4837 0)
(10.5413 13.9868 7.98399e-20)
(20.8024 10.0233 1.35165e-19)
(20.5964 10.2988 -9.00159e-20)
(20.3814 10.5748 9.67191e-20)
(20.1532 10.8476 -1.0396e-19)
(19.91 11.118 0)
(19.6503 11.3851 4.20268e-19)
(19.3721 11.6477 -3.56964e-19)
(19.0736 11.9046 -1.17482e-19)
(18.7525 12.1542 0)
(18.4071 12.3948 -6.55787e-19)
(18.0354 12.6241 5.11391e-19)
(17.6362 12.8393 0)
(17.2087 13.0374 0)
(16.7524 13.2145 -8.94686e-19)
(16.2679 13.3664 9.04267e-19)
(15.757 13.4882 0)
(15.2224 13.5749 1.24348e-18)
(14.6683 13.6208 -1.31909e-18)
(14.1008 13.6203 0)
(13.5277 13.5682 5.04429e-20)
(12.9597 13.4604 0)
(12.4093 13.2943 6.34198e-20)
(11.8901 13.0687 1.14162e-18)
(11.4165 12.7831 -2.2993e-18)
(20.5605 9.84968 0)
(20.3572 10.078 9.08259e-20)
(20.1467 10.3057 -2.22788e-19)
(19.9261 10.5306 1.04208e-19)
(19.6938 10.7518 0)
(19.4487 10.9684 0)
(19.1898 11.1795 -6.48808e-20)
(18.916 11.3838 7.02103e-20)
(18.6264 11.5797 0)
(18.3201 11.7657 -3.93236e-19)
(17.9963 11.9394 4.86663e-19)
(17.6543 12.0983 0)
(17.294 12.2396 0)
(16.9153 12.3601 -5.64934e-19)
(16.5188 12.4562 4.94079e-19)
(16.1059 12.5241 -6.82061e-19)
(15.6787 12.56 6.99901e-19)
(15.2402 12.56 0)
(14.7946 12.5205 -1.08169e-19)
(14.3474 12.4386 1.08961e-18)
(13.9051 12.3125 -8.52573e-19)
(13.4753 12.1417 0)
(13.0661 11.928 -6.89899e-20)
(12.6855 11.6749 -1.5165e-19)
(20.3562 9.6641 -2.52057e-19)
(20.1622 9.8613 1.12309e-19)
(19.9609 10.0513 -1.58872e-19)
(19.7511 10.2375 2.85436e-19)
(19.5314 10.4191 3.21655e-19)
(19.3008 10.5954 -3.21797e-19)
(19.0584 10.7656 -4.58674e-19)
(18.8032 10.9286 3.65473e-19)
(18.5345 11.0833 0)
(18.2514 11.2282 1.14075e-19)
(17.9534 11.3615 4.8192e-19)
(17.6403 11.4815 -1.13748e-18)
(17.3119 11.5858 5.25162e-19)
(16.9687 11.6721 -6.08957e-19)
(16.6117 11.7376 6.93576e-19)
(16.2422 11.7794 -8.05403e-19)
(15.8625 11.7947 6.3355e-19)
(15.4755 11.7805 0)
(15.0848 11.7343 1.09337e-19)
(14.695 11.6541 -1.18611e-19)
(14.3113 11.5387 -1.05027e-18)
(13.9397 11.388 1.05848e-18)
(13.5861 11.2036 7.39823e-19)
(13.2564 10.9884 -4.40914e-19)
(20.1855 9.49583 0)
(20.0044 9.66014 3.03471e-19)
(19.8157 9.81905 0)
(19.6191 9.97438 0)
(19.4142 10.1254 9.35564e-20)
(19.2002 10.2713 0)
(18.9763 10.4115 -9.68251e-21)
(18.7419 10.5449 0)
(18.4963 10.6706 0)
(18.239 10.7872 -4.84577e-19)
(17.9693 10.8931 4.97804e-19)
(17.6871 10.9868 1.31984e-19)
(17.3921 11.0663 0)
(17.0847 11.1295 1.623e-19)
(16.7656 11.1744 0)
(16.4362 11.1987 8.99581e-20)
(16.0983 11.2 0)
(15.7544 11.1759 0)
(15.4073 11.1245 9.52707e-19)
(15.0609 11.0443 -9.65177e-19)
(14.7193 10.9344 -1.31326e-19)
(14.3871 10.7951 5.79665e-19)
(14.0692 10.6272 -1.34536e-18)
(13.7699 10.4333 6.16237e-19)
(20.0467 9.33794 -1.65399e-19)
(19.8771 9.47471 1.79274e-19)
(19.7011 9.60892 -1.74593e-19)
(19.5174 9.73964 0)
(19.3265 9.86664 7.7667e-21)
(19.1273 9.98918 5.28501e-19)
(18.9193 10.1066 -2.06492e-19)
(18.7018 10.218 0)
(18.4744 10.3226 0)
(18.2367 10.4191 -1.24437e-19)
(17.9881 10.5062 5.60823e-19)
(17.7285 10.5823 -5.66633e-19)
(17.4576 10.6455 0)
(17.1753 10.6943 -1.6362e-19)
(16.8825 10.7267 0)
(16.5804 10.7409 0)
(16.2708 10.7349 2.0795e-19)
(15.9559 10.7064 0)
(15.6379 10.6538 0)
(15.3202 10.576 7.74204e-19)
(15.0066 10.4722 -8.1009e-19)
(14.7009 10.3424 5.59796e-19)
(14.407 10.1873 -1.51202e-19)
(14.1287 10.0087 -6.50523e-19)
(19.9346 9.19399 -9.24439e-20)
(19.7754 9.30647 1.90311e-19)
(19.6114 9.42068 -1.89908e-19)
(19.4397 9.53169 -1.04096e-19)
(19.2618 9.6398 6.36852e-21)
(19.0762 9.74408 1.18478e-19)
(18.8825 9.84412 -2.19465e-19)
(18.68 9.93881 0)
(18.4678 10.0278 0)
(18.2465 10.1095 -4.14447e-19)
(18.0155 10.1828 1.31279e-19)
(17.775 10.2462 1.42518e-19)
(17.5247 10.2978 1.63887e-19)
(17.2638 10.3361 1.79977e-19)
(16.9924 10.3596 -3.59791e-19)
(16.7116 10.3672 -4.0525e-19)
(16.4238 10.3568 2.02318e-19)
(16.1314 10.3258 0)
(15.836 10.2724 -2.41797e-19)
(15.5396 10.1969 -5.13399e-19)
(15.2466 10.0982 -1.1044e-18)
(14.9601 9.97577 5.65105e-19)
(14.6838 9.83013 1.52621e-19)
(14.4209 9.66271 0)
(19.8407 9.05991 9.33843e-20)
(19.6913 9.15343 -2.04085e-19)
(19.5397 9.25224 3.08146e-19)
(19.3793 9.34771 3.77711e-21)
(19.2129 9.44103 4.90955e-21)
(19.0394 9.53077 9.59242e-21)
(18.858 9.61726 1.49666e-20)
(18.6688 9.69852 -2.47925e-19)
(18.4691 9.77536 1.34266e-19)
(18.2613 9.84637 -1.48803e-19)
(18.0437 9.91012 1.43355e-19)
(17.8174 9.96546 4.75207e-19)
(17.5846 10.009 -4.88756e-19)
(17.341 10.0395 -3.22842e-21)
(17.0871 10.0555 1.89535e-19)
(16.8228 10.0577 4.10823e-19)
(16.5513 10.0456 2.06698e-20)
(16.2756 10.0149 -4.44645e-19)
(15.9989 9.96037 -1.13338e-20)
(15.7176 9.88644 1.01893e-18)
(15.4402 9.792 8.30821e-19)
(15.1683 9.67589 -5.64227e-19)
(14.9059 9.53814 3.03101e-19)
(14.6549 9.37926 0)
(19.748 8.94065 1.10036e-19)
(19.613 9.01834 -1.11875e-19)
(19.4802 9.10427 2.24383e-19)
(19.3317 9.18568 4.41817e-21)
(19.1756 9.26736 2.35138e-19)
(19.0139 9.3446 -3.74717e-19)
(18.8426 9.42133 1.25103e-19)
(18.6698 9.49057 -1.37187e-19)
(18.4839 9.55546 -6.50839e-21)
(18.2915 9.61598 1.51505e-19)
(18.0896 9.67023 1.57083e-19)
(17.8722 9.72166 0)
(17.6465 9.76338 1.69174e-19)
(17.4097 9.79213 3.60927e-19)
(17.1699 9.80163 -7.83194e-19)
(16.9187 9.7969 -1.85162e-20)
(16.6608 9.78124 8.83139e-19)
(16.3997 9.75615 -2.18469e-19)
(16.1343 9.7031 -2.29441e-19)
(15.8587 9.63051 -5.17553e-19)
(15.5942 9.53886 5.53111e-19)
(15.3344 9.42793 -2.94472e-19)
(15.0826 9.2977 -6.1954e-21)
(14.8391 9.14761 3.16229e-19)
(3.17155 16.5693 -1.37432e-18)
(3.19819 15.1333 1.24107e-18)
(3.47793 13.8378 0)
(3.83949 12.7199 9.04085e-20)
(4.23465 11.7345 -9.45646e-19)
(4.64551 10.8506 1.2251e-18)
(5.06376 10.0494 1.47575e-19)
(5.49126 9.32165 1.78192e-19)
(5.92785 8.65979 4.46447e-19)
(6.36889 8.05608 -4.43746e-19)
(6.80883 7.50461 2.96715e-19)
(7.24257 7.00042 -9.12527e-19)
(7.66628 6.53925 0)
(8.07726 6.11723 5.80806e-19)
(8.47406 5.73046 -6.15254e-19)
(8.85639 5.37536 2.82796e-19)
(9.22485 5.04819 -4.18386e-19)
(9.58061 4.74527 1.37019e-19)
(9.92525 4.46307 -7.83298e-19)
(10.2604 4.19826 7.95405e-19)
(10.5875 3.94813 9.8816e-19)
(10.9079 3.71087 -9.54352e-19)
(11.2219 3.48341 -1.81593e-18)
(11.5296 3.25644 1.7083e-18)
(9.85365 13.3925 0)
(9.31431 12.7198 9.30094e-20)
(8.93167 12.0347 0)
(8.67757 11.363 -1.09992e-19)
(8.52533 10.716 -2.35576e-19)
(8.45458 10.0996 -6.52574e-19)
(8.44929 9.51641 3.98598e-19)
(8.49636 8.96754 5.2131e-19)
(8.58563 8.45296 -5.37712e-19)
(8.70923 7.97202 1.41389e-20)
(8.86053 7.52328 -2.5643e-19)
(9.03392 7.10481 1.07986e-21)
(9.22494 6.71409 2.67914e-19)
(9.42981 6.34834 0)
(9.64549 6.00472 -5.32172e-19)
(9.86956 5.68055 -2.59259e-19)
(10.1 5.37332 7.58545e-19)
(10.3352 5.08101 0)
(10.5739 4.80199 1.00962e-18)
(10.8149 4.53498 0)
(11.0576 4.2793 0)
(11.3015 4.03441 0)
(11.5457 3.79964 -3.46618e-18)
(11.7913 3.57157 1.67058e-18)
(10.9993 12.4372 1.15853e-18)
(10.6455 12.0317 0)
(10.3557 11.58 -7.20979e-19)
(10.1296 11.1007 8.32752e-19)
(9.9634 10.608 -6.95436e-19)
(9.85201 10.1129 1.22607e-18)
(9.78974 9.62315 -6.31552e-19)
(9.77079 9.14441 -2.35997e-19)
(9.78951 8.68055 0)
(9.84068 8.23415 2.41505e-19)
(9.91932 7.80663 2.42861e-19)
(10.0208 7.39877 4.57949e-19)
(10.1412 7.01064 2.34571e-19)
(10.2769 6.64191 -6.96008e-19)
(10.425 6.29196 0)
(10.5829 5.95988 4.62841e-19)
(10.7487 5.64467 -4.80828e-19)
(10.921 5.3453 0)
(11.0985 5.0606 0)
(11.2806 4.7895 9.00752e-19)
(11.4665 4.53095 -8.84635e-19)
(11.6559 4.2838 -8.70633e-19)
(11.8479 4.04811 3.39294e-18)
(12.0446 3.8272 -2.36709e-18)
(12.3377 11.386 1.60388e-19)
(12.0236 11.0625 0)
(11.7468 10.7091 0)
(11.5107 10.3343 0)
(11.3161 9.9461 2.097e-19)
(11.1621 9.55127 -1.01811e-18)
(11.0466 9.15558 4.20132e-19)
(10.9667 8.76356 2.08387e-19)
(10.9192 8.37869 1.56868e-19)
(10.9009 8.00354 5.42656e-20)
(10.9082 7.63988 0)
(10.9381 7.2888 -1.26354e-19)
(10.9877 6.95093 3.33076e-19)
(11.0545 6.62634 1.61094e-20)
(11.136 6.31488 2.14901e-19)
(11.2305 6.01614 -5.62544e-19)
(11.336 5.72956 1.66331e-19)
(11.4514 5.45446 -4.90778e-19)
(11.5752 5.19023 4.33207e-19)
(11.7065 4.93618 -1.7407e-18)
(11.8443 4.69154 4.40329e-19)
(11.9877 4.45516 1.25293e-18)
(12.1357 4.2273 0)
(12.2894 4.01491 3.06285e-18)
(12.9529 10.7448 6.57015e-19)
(12.6758 10.4735 -4.9523e-19)
(12.4275 10.177 7.25498e-19)
(12.2109 9.8611 -7.27051e-19)
(12.0271 9.53149 1.96135e-19)
(11.8761 9.19336 2.01439e-19)
(11.7566 8.8514 2.05661e-19)
(11.6667 8.50955 -4.10551e-19)
(11.6043 8.17102 -4.15333e-19)
(11.5667 7.8383 0)
(11.5514 7.51323 -4.66836e-19)
(11.5558 7.19713 -3.77484e-19)
(11.5777 6.8909 0)
(11.6149 6.59501 1.06103e-18)
(11.6657 6.30951 -6.42137e-19)
(11.7282 6.03441 0)
(11.8012 5.76938 5.29593e-20)
(11.8833 5.51409 4.01835e-19)
(11.9736 5.26808 -3.66458e-20)
(12.0713 5.03086 6.36843e-19)
(12.1756 4.80174 2.06851e-19)
(12.2861 4.57961 -8.22388e-19)
(12.4029 4.36538 0)
(12.5282 4.17227 1.46029e-18)
(13.4917 10.2154 5.09901e-19)
(13.2352 9.97453 -1.46772e-19)
(13.0025 9.71297 -7.06722e-19)
(12.7962 9.43499 0)
(12.6174 9.14478 1.89244e-19)
(12.4665 8.84644 0)
(12.3424 8.54368 0)
(12.2438 8.23989 2.03355e-19)
(12.169 7.93795 2.56394e-19)
(12.1159 7.64008 -5.06212e-20)
(12.0826 7.3479 4.14664e-19)
(12.0668 7.06286 -1.03066e-19)
(12.0668 6.78592 2.05208e-19)
(12.0811 6.51747 -5.17768e-19)
(12.1079 6.25773 0)
(12.146 6.00669 4.05038e-19)
(12.1941 5.76421 5.11749e-20)
(12.251 5.52999 -6.36879e-20)
(12.3159 5.30369 -3.9815e-19)
(12.3881 5.0849 0)
(12.4668 4.8731 -4.00582e-19)
(12.5522 4.6677 1.18041e-18)
(12.6458 4.46845 -7.70487e-19)
(12.7474 4.28558 -1.48011e-18)
(13.8684 9.80882 6.5369e-19)
(13.6274 9.5887 -1.72769e-19)
(13.4078 9.35075 0)
(13.2117 9.09851 0)
(13.0404 8.83536 -3.83775e-19)
(12.8941 8.56449 5.74388e-19)
(12.7718 8.28887 0)
(12.6716 8.01194 0)
(12.5925 7.73641 0)
(12.533 7.46399 -1.25948e-20)
(12.4909 7.19615 1.24502e-20)
(12.4641 6.93479 0)
(12.4519 6.68069 0)
(12.4526 6.43415 0)
(12.4649 6.19522 0)
(12.4874 5.96416 -4.02543e-19)
(12.5192 5.74089 -3.93754e-19)
(12.5592 5.52512 0)
(12.6065 5.31659 -3.91434e-19)
(12.6603 5.11492 0)
(12.7198 4.92001 0)
(12.7854 4.7328 -7.79169e-19)
(12.8595 4.5521 7.67112e-19)
(12.9376 4.3692 -2.53311e-21)
(14.1735 9.47549 3.32823e-19)
(13.9433 9.27026 1.74199e-19)
(13.7325 9.04954 0)
(13.5439 8.81642 0)
(13.3788 8.5735 3.73507e-19)
(13.2371 8.32305 -7.64584e-19)
(13.1174 8.06743 3.84318e-19)
(13.0164 7.81078 9.83906e-20)
(12.9348 7.55566 -9.72196e-20)
(12.8716 7.30312 0)
(12.8237 7.05437 -4.4018e-19)
(12.7886 6.81229 -5.09719e-22)
(12.768 6.57722 -4.39144e-19)
(12.7593 6.3489 9.74754e-20)
(12.7615 6.12741 0)
(12.7728 5.91343 4.87374e-20)
(12.793 5.70686 3.42763e-19)
(12.8206 5.50732 1.20992e-20)
(12.855 5.3146 3.7648e-19)
(12.895 5.12807 0)
(12.9397 4.94785 3.7881e-19)
(12.9894 4.77571 3.75461e-19)
(13.0487 4.60792 3.74234e-19)
(13.11 4.4289 -7.30913e-19)
(14.4174 9.20126 -6.63014e-19)
(14.1951 9.00679 3.4273e-19)
(13.9901 8.79858 0)
(13.8071 8.58083 -3.61138e-19)
(13.6474 8.3543 -3.7194e-19)
(13.5109 8.11875 3.77858e-19)
(13.3949 7.8777 -3.8244e-19)
(13.2924 7.6371 -3.32436e-19)
(13.2101 7.39723 -4.77089e-20)
(13.1463 7.16063 0)
(13.0949 6.92688 7.72065e-19)
(13.0519 6.70079 -4.83992e-20)
(13.0279 6.48194 4.35004e-19)
(13.0133 6.26816 0)
(13.0092 6.06077 0)
(13.0119 5.86107 4.76645e-20)
(13.0242 5.66882 -4.72982e-20)
(13.0427 5.48322 -5.9159e-21)
(13.0681 5.30447 5.88103e-21)
(13.0983 5.13137 0)
(13.1323 4.96487 -5.60594e-19)
(13.169 4.8079 -3.73581e-19)
(13.2186 4.65498 1.85231e-19)
(13.2649 4.4945 -3.58521e-19)
(14.6075 8.97709 3.33462e-19)
(14.3917 8.79237 -1.71041e-19)
(14.1931 8.59011 3.60155e-19)
(14.0158 8.38385 -3.58987e-19)
(13.8617 8.17304 7.10969e-19)
(13.7304 7.94908 -6.30902e-19)
(13.6203 7.7192 9.37931e-20)
(13.5171 7.4927 7.37603e-19)
(13.4373 7.26165 -3.3779e-19)
(13.3765 7.03958 -2.86926e-20)
(13.3251 6.81689 -3.38896e-19)
(13.2731 6.6038 -2.34618e-20)
(13.2525 6.40128 3.3676e-19)
(13.2326 6.1957 4.75995e-20)
(13.225 5.99916 3.73454e-19)
(13.2194 5.81092 -4.71672e-20)
(13.2276 5.63097 4.73556e-20)
(13.2388 5.45651 3.7849e-19)
(13.2591 5.29037 0)
(13.2831 5.12833 0)
(13.3103 4.97541 3.71132e-19)
(13.3321 4.83063 1.83352e-19)
(13.3688 4.6822 1.7953e-19)
(13.4071 4.51995 0)
(-4.40676 -2.55969 4.55729e-19)
(-4.067 -2.58425 1.02203e-18)
(-3.70428 -2.60813 -1.09367e-18)
(-3.32529 -2.62946 0)
(-2.93575 -2.64814 -2.96768e-19)
(-2.5402 -2.664 -3.18896e-19)
(-2.14228 -2.67679 -3.33376e-19)
(-1.74492 -2.68624 1.74194e-19)
(-1.35038 -2.69218 -1.73834e-19)
(-0.960352 -2.69443 1.91051e-19)
(-0.576169 -2.69262 0)
(-0.198617 -2.68625 0)
(0.172265 -2.6747 -1.1061e-19)
(0.536978 -2.6571 0)
(0.897096 -2.63218 1.87315e-19)
(1.25594 -2.598 -1.94685e-19)
(1.61984 -2.55186 0)
(2.0008 -2.49023 6.30224e-19)
(2.42235 -2.40936 -7.00667e-19)
(2.9319 -2.30576 7.58327e-19)
(3.62082 -2.18112 -8.50957e-19)
(4.67744 -2.04955 0)
(6.52351 -1.96735 2.10661e-18)
(10.1618 -2.27016 -3.73299e-19)
(-4.33414 -2.55372 -8.99564e-19)
(-4.01244 -2.56394 0)
(-3.67251 -2.57966 5.28387e-19)
(-3.31805 -2.59404 -1.38277e-19)
(-2.95283 -2.60678 -2.16989e-19)
(-2.57967 -2.61764 3.6203e-19)
(-2.20073 -2.6262 6.94019e-21)
(-1.81748 -2.63196 -1.58632e-19)
(-1.43072 -2.63426 -3.29973e-19)
(-1.04049 -2.63227 -8.69902e-20)
(-0.645981 -2.625 -1.76364e-19)
(-0.245895 -2.6111 1.82509e-19)
(0.162158 -2.58888 9.49985e-20)
(0.582575 -2.55633 9.94318e-20)
(1.02222 -2.51115 -1.02909e-19)
(1.49204 -2.45061 0)
(2.00856 -2.37192 1.11214e-19)
(2.59725 -2.27295 -4.70186e-19)
(3.29956 -2.15371 6.12789e-19)
(4.1847 -2.01974 -1.0327e-18)
(5.3644 -1.89062 4.94736e-19)
(7.01768 -1.81773 0)
(9.41694 -1.91316 7.01702e-20)
(12.8975 -2.3897 0)
(-4.2413 -2.50595 2.24606e-19)
(-3.92866 -2.5095 2.42178e-19)
(-3.60044 -2.51729 0)
(-3.2578 -2.52345 0)
(-2.90299 -2.52752 3.38417e-19)
(-2.53774 -2.52896 -7.85698e-20)
(-2.16305 -2.52709 4.38067e-19)
(-1.77929 -2.52112 0)
(-1.38601 -2.51016 1.50626e-19)
(-0.981897 -2.49316 3.89107e-19)
(-0.564753 -2.46887 -1.6036e-19)
(-0.131225 -2.43587 8.2352e-20)
(0.323641 -2.39255 -8.36829e-20)
(0.807012 -2.33718 -8.60568e-20)
(1.32892 -2.26807 4.41478e-20)
(1.90374 -2.18382 -4.61703e-20)
(2.55278 -2.08379 9.47824e-20)
(3.30677 -1.96928 9.55431e-20)
(4.21039 -1.84578 -3.99222e-21)
(5.32892 -1.72694 -4.04116e-19)
(6.7539 -1.64215 5.03265e-19)
(8.60483 -1.64742 -1.06317e-19)
(11.0194 -1.83987 -5.63835e-20)
(14.0704 -2.3578 -4.95696e-20)
(-4.1334 -2.43483 4.36545e-19)
(-3.8309 -2.42686 0)
(-3.51398 -2.42437 0)
(-3.18225 -2.41976 0)
(-2.83669 -2.41254 3.19894e-20)
(-2.4779 -2.40205 -1.62979e-19)
(-2.10605 -2.3876 -2.67021e-19)
(-1.72057 -2.36853 0)
(-1.32001 -2.34409 0)
(-0.901993 -2.31336 -2.14889e-19)
(-0.463063 -2.27529 7.32352e-20)
(0.0015428 -2.22867 1.48337e-19)
(0.498013 -2.1722 0)
(1.03491 -2.1047 -1.45319e-19)
(1.62397 -2.0254 -1.00802e-20)
(2.28128 -1.93428 -8.14386e-20)
(3.02904 -1.8327 0)
(3.89806 -1.72478 8.82708e-20)
(4.93001 -1.6196 -2.65152e-19)
(6.18036 -1.53482 1.89236e-19)
(7.72005 -1.50186 3.57475e-19)
(9.63083 -1.57213 -2.96762e-19)
(11.9893 -1.82184 -8.85218e-20)
(14.8145 -2.34334 6.75521e-19)
(-4.01362 -2.34793 -1.44316e-21)
(-3.72063 -2.33055 0)
(-3.41322 -2.31906 2.2923e-19)
(-3.09012 -2.30509 0)
(-2.7513 -2.28834 8.98609e-20)
(-2.3966 -2.26797 1.54224e-19)
(-2.02562 -2.24321 1.2593e-19)
(-1.63738 -2.21355 0)
(-1.22992 -2.17858 1.30094e-19)
(-0.800018 -2.13776 1.33092e-19)
(-0.343276 -2.09039 1.35687e-19)
(0.145947 -2.03553 -1.74691e-19)
(0.674811 -1.97217 3.57864e-20)
(1.25262 -1.89961 1.4685e-19)
(1.8917 -1.81786 -1.66829e-19)
(2.60848 -1.72792 5.90716e-20)
(3.42507 -1.63272 -3.80473e-20)
(4.37037 -1.53822 0)
(5.48234 -1.4552 2.43123e-19)
(6.80899 -1.40242 -2.58893e-19)
(8.40705 -1.41041 8.45248e-20)
(10.3378 -1.52493 4.01286e-19)
(12.6518 -1.80787 3.76075e-20)
(15.3519 -2.32756 -2.61109e-19)
(-3.88695 -2.25694 4.09208e-19)
(-3.60334 -2.23032 -2.14573e-19)
(-3.30481 -2.21116 -2.10093e-21)
(-2.98995 -2.18943 0)
(-2.65753 -2.16525 -1.15185e-19)
(-2.30653 -2.13746 0)
(-1.93654 -2.105 -1.33208e-19)
(-1.54632 -2.06742 1.51843e-20)
(-1.13378 -2.02461 -9.3791e-20)
(-0.695417 -1.9766 -1.59621e-19)
(-0.225913 -1.92325 -1.304e-19)
(0.281418 -1.86392 3.29167e-20)
(0.834445 -1.79782 -5.08739e-20)
(1.44294 -1.72435 2.17851e-20)
(2.11924 -1.64397 1.39192e-19)
(2.87939 -1.55856 1.4493e-19)
(3.74466 -1.47205 7.58479e-20)
(4.7429 -1.3914 0)
(5.90874 -1.32822 -7.97045e-20)
(7.28427 -1.30098 8.13318e-20)
(8.91741 -1.33833 -1.61212e-19)
(10.8577 -1.48182 2.16966e-19)
(13.142 -1.78451 -4.21977e-20)
(15.763 -2.30168 -3.87403e-19)
(-3.76104 -2.16205 2.97708e-19)
(-3.48337 -2.13085 -1.03474e-19)
(-3.19281 -2.10617 -2.12162e-19)
(-2.88638 -2.07847 -5.39015e-20)
(-2.5608 -2.04909 1.63542e-19)
(-2.2135 -2.01644 0)
(-1.84448 -1.97871 1.00211e-19)
(-1.45285 -1.93549 -1.44777e-20)
(-1.03665 -1.88671 2.97284e-20)
(-0.592527 -1.8331 0)
(-0.114556 -1.77559 1.5407e-19)
(0.405146 -1.71413 -3.28475e-22)
(0.976025 -1.64778 9.62467e-20)
(1.6076 -1.57565 0)
(2.31216 -1.49828 -8.44213e-21)
(3.10498 -1.41806 -9.82283e-20)
(4.00621 -1.34005 1.06164e-19)
(5.04232 -1.27219 -7.18228e-20)
(6.24696 -1.22605 1.50007e-19)
(7.65859 -1.21867 7.25815e-20)
(9.31719 -1.27702 7.71621e-20)
(11.2654 -1.44046 0)
(13.5304 -1.75637 7.11891e-20)
(16.0985 -2.27218 0)
(-3.6328 -2.06937 -9.68828e-20)
(-3.36323 -2.03857 -1.99382e-19)
(-3.08024 -2.00779 2.4212e-22)
(-2.78324 -1.97501 -1.02729e-19)
(-2.46568 -1.94181 -2.10025e-19)
(-2.12261 -1.90637 1.06253e-19)
(-1.75481 -1.86547 6.82821e-21)
(-1.36202 -1.81869 -6.97913e-21)
(-0.943 -1.76559 0)
(-0.495629 -1.70704 -1.16096e-19)
(-0.0133395 -1.6454 -1.202e-19)
(0.512486 -1.58265 1.35786e-19)
(1.09523 -1.51753 -2.49763e-19)
(1.74413 -1.44803 -1.61689e-20)
(2.47044 -1.37431 0)
(3.28795 -1.29872 -3.32632e-20)
(4.21503 -1.2273 -7.04742e-20)
(5.2778 -1.17005 -3.6134e-20)
(6.51032 -1.13893 0)
(7.95119 -1.14835 -1.47262e-19)
(9.62886 -1.22113 0)
(11.5815 -1.39743 -1.3369e-19)
(13.8298 -1.72093 7.6989e-20)
(16.3585 -2.23332 1.26866e-19)
(-3.49795 -1.98275 0)
(-3.24003 -1.95241 0)
(-2.96438 -1.9175 4.96871e-20)
(-2.67808 -1.88207 1.50153e-19)
(-2.36876 -1.84542 1.01701e-19)
(-2.03005 -1.80853 -1.0366e-19)
(-1.66322 -1.76594 6.56945e-21)
(-1.26802 -1.71802 6.7028e-21)
(-0.84341 -1.66313 -1.26417e-19)
(-0.390581 -1.60109 1.13327e-19)
(0.0987759 -1.53449 0)
(0.62708 -1.47215 2.51227e-21)
(1.21809 -1.40998 1.28059e-19)
(1.88147 -1.34454 -7.70636e-21)
(2.62905 -1.27559 -1.30338e-19)
(3.47158 -1.20404 -1.58233e-20)
(4.42469 -1.1382 1.67264e-20)
(5.50547 -1.09111 0)
(6.75634 -1.07432 -6.58298e-20)
(8.22654 -1.0993 7.07845e-20)
(9.93111 -1.18089 0)
(11.8962 -1.36699 1.40352e-19)
(14.1389 -1.69852 1.35016e-19)
(16.6467 -2.21755 -1.21959e-19)
(-3.39238 -1.89587 -9.39944e-20)
(-3.14661 -1.86309 9.59033e-20)
(-2.88594 -1.82145 4.60051e-20)
(-2.61599 -1.79195 4.97001e-20)
(-2.313 -1.74748 7.95719e-20)
(-1.97512 -1.70915 1.10176e-19)
(-1.61653 -1.6644 6.69174e-21)
(-1.2311 -1.61486 -2.08746e-20)
(-0.811826 -1.55905 1.27451e-19)
(-0.372324 -1.49719 1.07399e-19)
(0.105433 -1.40926 -1.09918e-19)
(0.626516 -1.34638 -8.11501e-21)
(1.2287 -1.28657 0)
(1.89637 -1.22516 0)
(2.64736 -1.15987 1.29024e-19)
(3.49202 -1.08845 1.71228e-20)
(4.43552 -1.00737 7.11476e-20)
(5.53193 -0.969877 -5.00031e-20)
(6.80688 -0.962436 8.25171e-20)
(8.33021 -1.02684 0)
(10.004 -1.09608 0)
(11.9584 -1.28253 -1.42841e-20)
(14.1564 -1.59789 -1.31296e-19)
(16.6278 -2.08777 -1.02447e-19)
(17.2152 -4.10591 -5.98047e-18)
(20.6985 -5.46896 3.66248e-18)
(21.9273 -5.91324 2.41772e-18)
(22.5607 -6.10049 -1.99662e-18)
(22.977 -6.20239 -1.34026e-18)
(23.2556 -6.25548 1.15256e-18)
(23.4379 -6.27311 2.47131e-20)
(23.548 -6.26427 5.17226e-19)
(23.6023 -6.23496 -4.48219e-19)
(23.6144 -6.18994 2.16048e-19)
(23.5956 -6.13339 -2.05836e-19)
(23.5545 -6.0681 -1.76044e-20)
(23.4972 -5.99647 1.8602e-20)
(23.428 -5.91992 0)
(23.3498 -5.83946 0)
(23.265 -5.75579 3.59881e-20)
(23.1749 -5.66938 4.95971e-20)
(23.0807 -5.58044 -9.73547e-20)
(22.983 -5.48916 -4.26823e-19)
(22.8824 -5.39565 6.42084e-19)
(22.7792 -5.3001 5.22859e-19)
(22.6743 -5.20165 -5.07132e-19)
(22.5679 -5.10007 0)
(22.4547 -5.01313 0)
(17.2339 -3.55493 -9.9802e-19)
(20.9873 -4.96606 1.22644e-18)
(22.5399 -5.56599 9.34544e-19)
(23.1134 -5.74435 -2.33559e-18)
(23.449 -5.83921 1.37468e-18)
(23.6531 -5.89268 0)
(23.7666 -5.91559 -2.38586e-20)
(23.8153 -5.91534 0)
(23.8181 -5.89737 -3.8925e-19)
(23.7892 -5.86605 3.53289e-19)
(23.7389 -5.82457 0)
(23.674 -5.77537 -3.10239e-21)
(23.5991 -5.72016 -5.8236e-20)
(23.5174 -5.66007 4.23534e-20)
(23.4308 -5.59598 -1.98974e-19)
(23.3407 -5.52848 1.62224e-19)
(23.248 -5.45799 3.52143e-19)
(23.1531 -5.38474 -2.21578e-19)
(23.0564 -5.30894 0)
(22.958 -5.23076 -1.12229e-19)
(22.8581 -5.15036 0)
(22.757 -5.06714 0)
(22.6555 -4.98161 2.79127e-19)
(22.5526 -4.90246 2.90717e-19)
(17.6001 -3.32498 0)
(21.0389 -4.58312 -5.16058e-20)
(22.8515 -5.31213 -8.53972e-20)
(23.4109 -5.50364 0)
(23.6804 -5.58199 0)
(23.8303 -5.62406 0)
(23.9004 -5.64108 3.55384e-20)
(23.9161 -5.63989 0)
(23.8954 -5.62515 2.79626e-19)
(23.8507 -5.60023 -2.76575e-19)
(23.7902 -5.56753 0)
(23.719 -5.52862 6.23907e-21)
(23.6406 -5.48468 -6.03037e-21)
(23.5575 -5.43647 1.31109e-20)
(23.471 -5.38461 -2.08111e-19)
(23.3822 -5.32952 2.2909e-19)
(23.2917 -5.27153 -3.53873e-20)
(23.1998 -5.21085 2.82583e-19)
(23.1067 -5.14766 -3.64301e-20)
(23.0126 -5.08212 -2.99267e-19)
(22.9175 -5.01436 2.5413e-19)
(22.8218 -4.94416 -2.48427e-19)
(22.7261 -4.87204 -2.90368e-19)
(22.6307 -4.80046 -3.11441e-19)
(18.0039 -3.20696 -8.10199e-19)
(21.1347 -4.32426 5.12644e-19)
(23.063 -5.11071 -5.70877e-19)
(23.6396 -5.32876 -6.48167e-20)
(23.8507 -5.39178 3.49624e-19)
(23.9528 -5.4226 -3.68721e-19)
(23.9872 -5.43279 -3.50146e-20)
(23.9779 -5.4286 -1.76984e-19)
(23.9406 -5.41397 4.39388e-20)
(23.8856 -5.39152 1.13743e-19)
(23.8191 -5.36305 1.10616e-20)
(23.745 -5.32965 -3.14906e-21)
(23.6659 -5.2922 5.69507e-20)
(23.5835 -5.25123 -4.16869e-20)
(23.4988 -5.2072 2.23348e-20)
(23.4125 -5.16041 0)
(23.325 -5.1111 -1.20839e-19)
(23.2367 -5.05946 3.33926e-19)
(23.1475 -5.00561 -2.84564e-19)
(23.0577 -4.94969 -1.37396e-19)
(22.9674 -4.89175 1.06834e-19)
(22.877 -4.83158 1.45658e-19)
(22.7868 -4.76935 -2.67981e-19)
(22.6956 -4.70727 -4.66266e-19)
(18.3426 -3.13098 7.51579e-20)
(21.2576 -4.14935 -4.55164e-19)
(23.2028 -4.94216 5.89611e-19)
(23.8077 -5.18575 6.23522e-20)
(23.9733 -5.2363 4.25137e-19)
(24.0375 -5.25765 -3.06638e-19)
(24.0449 -5.26199 2.23693e-19)
(24.0171 -5.25498 -2.08739e-19)
(23.9679 -5.2398 1.10016e-19)
(23.9054 -5.21853 -1.22788e-19)
(23.8345 -5.19246 -1.11323e-20)
(23.7584 -5.1625 0)
(23.6789 -5.12922 1.51943e-21)
(23.5973 -5.09314 0)
(23.5145 -5.05453 -4.61445e-20)
(23.4308 -5.01366 2.99416e-20)
(23.3465 -4.97074 0)
(23.2618 -4.92586 0)
(23.1768 -4.8792 -4.76054e-20)
(23.0916 -4.83086 2.27563e-19)
(23.0064 -4.78092 -3.5288e-19)
(22.9217 -4.72915 3.77439e-19)
(22.8371 -4.67598 -1.37966e-19)
(22.7499 -4.62563 1.53347e-19)
(18.6216 -3.0668 6.77571e-20)
(21.3845 -4.01632 -6.42057e-20)
(23.298 -4.79383 0)
(23.9241 -5.0578 0)
(24.0544 -5.10057 4.52066e-20)
(24.0894 -5.11509 -2.41602e-21)
(24.077 -5.11543 0)
(24.0363 -5.10662 0)
(23.979 -5.09119 1.23662e-19)
(23.9117 -5.07083 -8.7897e-20)
(23.8384 -5.04656 0)
(23.7614 -5.01906 0)
(23.6822 -4.98888 -8.9602e-21)
(23.602 -4.95637 1.81643e-20)
(23.5211 -4.92183 2.38229e-20)
(23.44 -4.88545 -1.67935e-19)
(23.3589 -4.8474 1.33515e-19)
(23.2779 -4.80781 -1.41695e-19)
(23.197 -4.76681 2.22996e-20)
(23.1164 -4.72461 4.32263e-19)
(23.0362 -4.68131 -2.25431e-19)
(22.9567 -4.63665 -7.5322e-21)
(22.8771 -4.59099 4.15808e-19)
(22.7946 -4.54893 0)
(18.8633 -3.01141 -1.28536e-19)
(21.511 -3.91085 2.83826e-19)
(23.3728 -4.66522 -2.52942e-19)
(24.0063 -4.94192 -2.98228e-19)
(24.109 -4.98053 1.42264e-19)
(24.1212 -4.99063 -3.5248e-20)
(24.0941 -4.98863 0)
(24.0443 -4.9789 1.01944e-19)
(23.9815 -4.96358 -8.93298e-20)
(23.9112 -4.94406 1.62326e-20)
(23.8365 -4.92114 3.75465e-21)
(23.7593 -4.89546 -4.90614e-21)
(23.6808 -4.86755 6.33264e-20)
(23.6019 -4.83778 -1.71055e-19)
(23.5231 -4.80632 2.32979e-19)
(23.4445 -4.77336 -1.14354e-19)
(23.3664 -4.73905 -3.84071e-20)
(23.2887 -4.70353 -4.37754e-20)
(23.2115 -4.66699 -4.93599e-20)
(23.1349 -4.62971 -5.46588e-20)
(23.0591 -4.59184 -1.26383e-19)
(22.9842 -4.55298 -7.37886e-21)
(22.9093 -4.51337 -2.13352e-19)
(22.8312 -4.47864 -1.52373e-19)
(19.057 -2.95129 -4.13822e-20)
(21.619 -3.81318 2.53732e-19)
(23.4296 -4.54632 0)
(24.0629 -4.8337 -8.21168e-20)
(24.1455 -4.87315 1.75539e-19)
(24.1407 -4.88156 1.14702e-19)
(24.103 -4.8786 -1.54546e-19)
(24.0466 -4.86854 -3.13019e-21)
(23.9799 -4.85347 0)
(23.9076 -4.83459 1.0929e-20)
(23.8321 -4.81254 -3.77605e-21)
(23.755 -4.78809 4.94562e-21)
(23.6771 -4.76192 0)
(23.5995 -4.73432 -2.75207e-20)
(23.5225 -4.70522 -1.32432e-20)
(23.4462 -4.67483 -1.3761e-20)
(23.3708 -4.64339 1.50665e-19)
(23.2962 -4.61101 0)
(23.2223 -4.578 1.0079e-19)
(23.1492 -4.54477 1.11553e-19)
(23.0772 -4.51157 0)
(23.0067 -4.4776 -1.38143e-19)
(22.936 -4.44262 2.09367e-19)
(22.8631 -4.41371 1.56868e-19)
(19.2761 -2.92038 -1.31024e-19)
(21.7418 -3.74781 -1.28313e-19)
(23.4835 -4.45281 -2.42293e-20)
(24.1024 -4.74108 -1.09057e-19)
(24.168 -4.78054 1.37808e-19)
(24.1512 -4.78722 -2.40234e-20)
(24.1064 -4.78325 -1.32232e-19)
(24.0453 -4.77261 4.08559e-20)
(23.9758 -4.75763 1.87532e-20)
(23.9028 -4.73937 -1.0937e-20)
(23.8272 -4.71781 0)
(23.7496 -4.69395 0)
(23.6717 -4.66914 -1.63754e-20)
(23.5955 -4.64353 -2.1767e-20)
(23.5206 -4.61627 -5.76359e-20)
(23.4461 -4.58782 -7.63417e-20)
(23.3732 -4.55872 1.21717e-19)
(23.3009 -4.52868 -3.94849e-20)
(23.2292 -4.49824 -5.13417e-20)
(23.1583 -4.46825 -5.68057e-20)
(23.0891 -4.4391 0)
(23.023 -4.40907 0)
(22.9562 -4.37782 -7.52128e-20)
(22.8902 -4.35285 1.48763e-19)
(19.2866 -2.76293 1.07171e-19)
(21.7651 -3.59909 3.22038e-19)
(23.498 -4.32694 7.56384e-20)
(24.1159 -4.64377 -1.82148e-19)
(24.1786 -4.69671 -6.43457e-20)
(24.1567 -4.70544 1.15189e-19)
(24.1071 -4.70015 0)
(24.0426 -4.68863 0)
(23.9709 -4.6744 -1.87171e-20)
(23.8973 -4.65672 0)
(23.8212 -4.63401 -1.82765e-21)
(23.7429 -4.60989 0)
(23.665 -4.58719 -1.7604e-21)
(23.5911 -4.56407 0)
(23.5179 -4.53765 -8.71686e-22)
(23.4446 -4.51042 0)
(23.3739 -4.48304 0)
(23.3041 -4.45439 -4.77444e-20)
(23.2353 -4.42606 -1.13259e-19)
(23.1675 -4.39892 -1.20518e-20)
(23.1023 -4.37388 1.20085e-19)
(23.045 -4.34904 -6.62587e-20)
(22.9786 -4.32055 -7.28125e-20)
(22.9264 -4.30875 -9.2073e-22)
(-0.107343 1.55262 0)
(0.590834 1.80523 0)
(1.78358 2.45145 0)
(3.08819 3.25388 5.64261e-20)
(4.4484 4.07331 -9.11411e-20)
(5.89788 4.93727 2.56658e-18)
(7.41142 5.86164 -2.20997e-18)
(8.94512 6.82668 -9.99099e-20)
(10.484 7.79354 -8.94227e-20)
(12.004 8.72847 0)
(13.4747 9.60165 6.39704e-20)
(14.8624 10.3841 -1.09504e-19)
(16.1366 11.0523 0)
(17.273 11.588 0)
(18.2559 11.9783 0)
(19.0796 12.2183 -5.47167e-20)
(19.7496 12.3116 2.11317e-19)
(20.2807 12.2699 0)
(20.6948 12.1128 0)
(21.017 11.864 0)
(21.272 11.5491 0)
(21.4811 11.1913 1.79057e-19)
(21.6602 10.81 9.38793e-20)
(21.8276 10.4081 1.18052e-19)
(-8.51227 2.34344 0)
(-8.21949 2.26959 0)
(-7.49548 2.19098 0)
(-6.56299 2.24534 -2.03419e-19)
(-5.42967 2.40629 0)
(-4.07401 2.66314 -2.30879e-19)
(-2.4441 3.00385 0)
(-0.544922 3.43499 1.62127e-19)
(1.55644 3.97618 0)
(3.80841 4.63277 0)
(6.14407 5.39832 -2.03654e-19)
(8.4872 6.25347 -2.43382e-20)
(10.7675 7.16247 -3.0262e-19)
(12.9192 8.07706 0)
(14.8851 8.94525 0)
(16.6182 9.71643 1.94489e-19)
(18.0871 10.3478 -2.37763e-19)
(19.28 10.8101 0)
(20.2064 11.0909 0)
(20.8948 11.1954 0)
(21.3872 11.1443 0)
(21.7312 10.9677 1.09324e-19)
(21.9726 10.7025 -1.51113e-19)
(22.154 10.3589 -3.23876e-19)
(-3.70531 1.28385 0)
(-4.61517 1.41353 0)
(-4.83893 1.46273 0)
(-4.77893 1.43096 -6.59182e-21)
(-4.52121 1.38784 7.11951e-18)
(-4.09167 1.36742 -4.87232e-18)
(-3.49033 1.39814 0)
(-2.69718 1.5068 -2.21836e-19)
(-1.67924 1.71943 3.83655e-19)
(-0.405503 2.0578 3.35616e-19)
(1.16376 2.53518 2.78681e-19)
(3.04343 3.15699 2.39915e-19)