/*--------------------------------*- C++ -*----------------------------------*\
| =========                 |                                                 |
| \\      /  F ield         | OpenFOAM: The Open Source CFD Toolbox           |
|  \\    /   O peration     | Version:  2.3.0                                 |
|   \\  /    A nd           | Web:      www.OpenFOAM.org                      |
|    \\/     M anipulation  |                                                 |
\*---------------------------------------------------------------------------*/
FoamFile
{
    version     2.0;
    format      ascii;
    class       volVectorField;
    location    "4000";
    object      U;
}
// * * * * * * * * * * * * * * * * * * * * * * * * * * * * * * * * * * * * * //

dimensions      [0 1 -1 0 0 0 0];

internalField   nonuniform List<vector> 
39608
(
(21.6681 9.30229 0)
(21.5955 9.47656 -8.50615e-21)
(21.5199 9.65401 -2.14029e-21)
(21.4412 9.83375 9.55715e-21)
(21.3592 10.0159 1.76997e-21)
(21.2738 10.2004 0)
(21.1844 10.3876 2.25845e-20)
(21.0911 10.5774 -5.08397e-21)
(20.9935 10.7701 -3.63541e-20)
(20.8914 10.9659 -2.45236e-20)
(20.7846 11.1648 5.35829e-20)
(20.6727 11.3671 1.07165e-20)
(20.5556 11.5729 -1.16553e-20)
(20.4327 11.7822 0)
(20.3038 11.9952 -1.37485e-20)
(20.1683 12.212 0)
(20.0256 12.4324 8.53967e-20)
(19.8751 12.6563 -1.7877e-19)
(19.716 12.8834 9.36388e-20)
(19.5473 13.1132 -1.06817e-19)
(19.3677 13.345 1.08703e-19)
(19.1761 13.5778 1.25772e-20)
(18.9704 13.8105 7.0494e-22)
(18.7484 14.0417 7.59055e-21)
(18.5075 14.2699 -4.38056e-22)
(18.2445 14.4936 0)
(17.9554 14.7106 -1.02772e-20)
(17.6357 14.9199 0)
(17.28 15.1195 1.27118e-20)
(16.8816 15.3089 0)
(16.4333 15.4885 0)
(15.9259 15.6588 -1.01059e-19)
(15.3493 15.8218 9.69655e-20)
(14.6912 15.981 0)
(13.9372 16.1397 0)
(13.0718 16.3044 3.94659e-20)
(12.0784 16.4814 -4.98887e-20)
(10.9384 16.6734 0)
(9.62621 16.8662 1.433e-19)
(8.12235 17.0444 -1.00596e-19)
(6.45922 17.2767 0)
(4.7244 17.7236 -1.5457e-19)
(2.8786 18.0166 1.8608e-19)
(21.5023 9.25122 -1.10718e-20)
(21.4294 9.40728 1.64068e-20)
(21.3543 9.56566 0)
(21.2766 9.7258 -1.25234e-20)
(21.196 9.88787 -1.47408e-20)
(21.1123 10.0519 4.26529e-20)
(21.0251 10.2178 -2.24925e-20)
(20.9342 10.3859 -2.15853e-20)
(20.8392 10.5562 3.44764e-20)
(20.7399 10.729 -2.18135e-20)
(20.636 10.9042 2.35156e-22)
(20.5273 11.0822 -9.63908e-21)
(20.4133 11.263 -9.99467e-21)
(20.2937 11.4468 0)
(20.1681 11.6337 0)
(20.0358 11.8241 0)
(19.8962 12.018 0)
(19.7488 12.2157 0)
(19.5927 12.4175 0)
(19.427 12.6238 -3.68751e-20)
(19.2506 12.8347 4.5432e-20)
(19.0626 13.0508 8.60841e-21)
(18.8615 13.2723 -6.87213e-22)
(18.646 13.4995 0)
(18.4144 13.7326 6.05753e-20)
(18.1649 13.9717 -1.17487e-19)
(17.8958 14.2166 6.3243e-20)
(17.6049 14.4667 -7.99726e-21)
(17.2896 14.7208 0)
(16.9476 14.9776 1.28962e-19)
(16.576 15.2345 2.18033e-20)
(16.1718 15.4882 -1.60447e-19)
(15.7317 15.7336 0)
(15.2524 15.9645 -2.99579e-19)
(14.7308 16.1724 2.90109e-19)
(14.1638 16.3463 0)
(13.5489 16.4725 5.25291e-19)
(12.8849 16.5347 -4.96286e-19)
(12.1716 16.5109 -8.29553e-19)
(11.4143 16.3743 7.91035e-19)
(10.6287 16.1 6.10133e-20)
(9.82033 15.6684 -6.63369e-19)
(8.96365 15.0601 1.36858e-18)
(21.3541 9.19504 2.13037e-20)
(21.28 9.33452 -2.14494e-20)
(21.2038 9.47628 2.20287e-20)
(21.1249 9.6195 -2.73182e-20)
(21.0434 9.76435 3.68294e-20)
(20.9588 9.91072 1.51702e-20)
(20.8709 10.0587 -6.02312e-20)
(20.7793 10.2083 0)
(20.6836 10.3597 -6.31284e-21)
(20.5836 10.5129 0)
(20.4789 10.6682 -5.13645e-20)
(20.3693 10.8257 6.08755e-20)
(20.2547 10.9854 9.92462e-21)
(20.1347 11.1476 5.73239e-20)
(20.0088 11.3121 -6.6903e-20)
(19.8766 11.4792 -9.84654e-21)
(19.7374 11.6489 -1.03779e-20)
(19.5909 11.8213 -7.08602e-20)
(19.4363 11.9965 7.16761e-20)
(19.2729 12.1744 0)
(19.0997 12.355 -7.81304e-21)
(18.9157 12.5382 8.63997e-20)
(18.7198 12.7239 -8.11118e-20)
(18.5103 12.9117 0)
(18.2858 13.1014 0)
(18.0443 13.2923 1.04434e-19)
(17.784 13.484 -1.33812e-19)
(17.5025 13.6753 7.78522e-21)
(17.1975 13.8649 1.37858e-20)
(16.8665 14.0511 0)
(16.507 14.2319 1.72556e-20)
(16.1163 14.4043 0)
(15.6917 14.5648 0)
(15.2312 14.7088 1.83187e-20)
(14.7332 14.8312 0)
(14.1969 14.9254 0)
(13.6234 14.9831 0)
(13.0158 14.996 -3.52159e-20)
(12.38 14.9535 4.14479e-20)
(11.7269 14.8453 4.00863e-19)
(11.0728 14.6617 -9.0716e-21)
(10.4382 14.3926 -1.20464e-20)
(9.84875 14.0281 -1.11016e-18)
(21.2241 9.13708 1.55725e-20)
(21.1508 9.26177 -3.08602e-20)
(21.0756 9.38877 0)
(20.998 9.51695 1.38061e-20)
(20.918 9.64651 0)
(20.8354 9.77736 -1.42763e-20)
(20.7497 9.90958 1.45441e-20)
(20.6607 10.0431 -7.15542e-20)
(20.568 10.178 1.59835e-19)
(20.4711 10.3143 -9.43222e-20)
(20.3697 10.4522 0)
(20.2633 10.5918 0)
(20.1521 10.7333 -9.5683e-20)
(20.0356 10.8767 8.40777e-20)
(19.9136 11.022 -9.49273e-20)
(19.7853 11.1691 1.01854e-19)
(19.6504 11.3182 1.03396e-20)
(19.5083 11.4693 -1.07222e-19)
(19.3582 11.6225 2.06685e-19)
(19.1997 11.7776 -2.3687e-19)
(19.0321 11.9347 1.23297e-19)
(18.8546 12.0937 0)
(18.6664 12.2541 4.90153e-21)
(18.4664 12.4157 0)
(18.2534 12.5779 -2.3855e-20)
(18.0262 12.7401 2.01272e-20)
(17.7832 12.9015 0)
(17.523 13.0609 -2.06563e-19)
(17.2441 13.2168 2.30623e-19)
(16.9449 13.3676 -2.55457e-19)
(16.624 13.5107 2.8485e-19)
(16.2798 13.6434 3.43659e-19)
(15.9109 13.762 -3.77838e-19)
(15.5164 13.8625 0)
(15.0958 13.9398 0)
(14.6496 13.9883 0)
(14.1791 14.0015 3.30764e-19)
(13.6876 13.9725 -3.38554e-19)
(13.1803 13.8945 4.14577e-19)
(12.6648 13.761 -4.21754e-19)
(12.1515 13.5672 0)
(11.6533 13.311 6.26478e-20)
(11.1854 12.994 2.96625e-19)
(21.1093 9.07935 2.12339e-20)
(21.0375 9.19061 -4.01836e-20)
(20.9641 9.3048 6.24037e-20)
(20.8883 9.41977 2.27354e-20)
(20.8102 9.53605 -2.31678e-20)
(20.7296 9.65346 0)
(20.6462 9.77212 2.41022e-20)
(20.5597 9.89203 -2.09477e-20)
(20.47 10.0132 9.20325e-20)
(20.3765 10.1354 -2.52561e-20)
(20.2785 10.2587 -6.28036e-20)
(20.1755 10.3835 -1.76127e-21)
(20.0674 10.5099 -4.31872e-20)
(19.9542 10.6382 1.06185e-19)
(19.836 10.7679 -8.69382e-20)
(19.7119 10.8991 -4.79243e-21)
(19.5816 11.0317 1.21233e-19)
(19.4443 11.1657 0)
(19.2993 11.3011 -3.01204e-21)
(19.146 11.4379 1.69612e-19)
(18.9837 11.5759 -1.52103e-19)
(18.8121 11.7151 -2.23944e-20)
(18.6303 11.855 -2.04076e-20)
(18.4376 11.9952 0)
(18.2327 12.1352 2.38609e-20)
(18.0146 12.2742 1.45852e-19)
(17.782 12.4114 -8.616e-20)
(17.5336 12.5456 -6.64883e-20)
(17.2683 12.6756 1.12411e-19)
(16.9847 12.7996 -1.93007e-19)
(16.6817 12.9156 0)
(16.3586 13.021 2.31603e-20)
(16.0143 13.1127 -5.64841e-20)
(15.6489 13.1871 2.48818e-19)
(15.2626 13.2402 -1.86796e-19)
(14.8564 13.2673 -3.06607e-19)
(14.4325 13.2632 3.14256e-19)
(13.9942 13.2229 3.76178e-19)
(13.5464 13.1411 -3.83776e-19)
(13.0961 13.0135 0)
(12.6517 12.8375 0)
(12.2233 12.6126 0)
(11.822 12.3407 7.04944e-20)
(21.008 9.02379 -2.15572e-20)
(20.9383 9.12256 -2.55022e-20)
(20.8676 9.22567 -2.2406e-20)
(20.7943 9.32911 2.70951e-20)
(20.7188 9.43382 -2.63653e-20)
(20.641 9.5395 -1.37072e-20)
(20.5602 9.64641 -3.81174e-20)
(20.4767 9.75455 -2.46953e-20)
(20.39 9.86417 4.07902e-20)
(20.3006 9.97482 -7.00367e-20)
(20.2072 10.086 1.33447e-20)
(20.1085 10.1981 0)
(20.0041 10.3119 0)
(19.8947 10.4276 0)
(19.7806 10.5446 -1.54071e-20)
(19.6611 10.6629 7.04486e-20)
(19.5358 10.7824 -7.09732e-20)
(19.4039 10.9028 0)
(19.2647 11.0242 -2.45083e-21)
(19.1177 11.1466 6.6883e-20)
(18.9618 11.2696 -6.43037e-20)
(18.7965 11.3934 2.2498e-20)
(18.6216 11.5178 0)
(18.4369 11.6419 2.87717e-20)
(18.2411 11.7651 0)
(18.0334 11.8869 -6.33637e-20)
(17.8126 12.0063 -3.2642e-20)
(17.5777 12.1222 2.28793e-19)
(17.3276 12.2334 -2.879e-19)
(17.0614 12.3382 2.1883e-19)
(16.778 12.4346 0)
(16.4771 12.5204 5.49788e-20)
(16.158 12.593 -1.86632e-19)
(15.821 12.6491 -8.37284e-20)
(15.4667 12.6854 2.05825e-19)
(15.0963 12.6977 -4.03085e-19)
(14.7121 12.6823 2.44438e-19)
(14.3173 12.6346 9.50515e-20)
(13.9159 12.5507 0)
(13.5135 12.4273 2.31407e-19)
(13.1167 12.2629 -2.3447e-19)
(12.7334 12.0577 3.98295e-19)
(12.3717 11.8139 -4.0831e-19)
(20.9178 8.97008 1.2369e-20)
(20.8513 9.05904 5.30907e-20)
(20.7838 9.15243 -4.07741e-20)
(20.7135 9.24557 -6.35775e-22)
(20.6407 9.34022 2.82864e-20)
(20.5661 9.43566 2.91071e-20)
(20.4881 9.53235 1.39942e-20)
(20.4076 9.63016 -1.59445e-20)
(20.3232 9.72999 -3.18421e-20)
(20.237 9.83149 7.73678e-20)
(20.1484 9.93301 0)
(20.0551 10.0344 0)
(19.955 10.1371 0)
(19.8488 10.2424 0)
(19.7383 10.3494 0)
(19.6227 10.4573 7.89996e-20)
(19.5017 10.5662 -7.9559e-20)
(19.3748 10.6758 -8.66658e-20)
(19.241 10.7863 8.56688e-20)
(19.1 10.8973 0)
(18.9507 11.0083 5.2237e-20)
(18.7914 11.1196 -1.03707e-19)
(18.6222 11.2317 0)
(18.4441 11.3435 -2.88915e-20)
(18.2553 11.4541 0)
(18.0555 11.5627 1.75729e-19)
(17.8438 11.6686 -1.84179e-19)
(17.6192 11.7709 -2.04952e-19)
(17.3809 11.8684 -9.76838e-21)
(17.1278 11.9593 1.38588e-19)
(16.8589 12.0422 5.28814e-20)
(16.5743 12.1146 -5.48526e-20)
(16.2734 12.1741 -2.53712e-19)
(15.9565 12.218 3.261e-19)
(15.6245 12.2435 2.28607e-19)
(15.279 12.2469 -4.78311e-19)
(14.9218 12.2253 2.55632e-19)
(14.557 12.1749 -9.42169e-20)
(14.1882 12.092 -1.03949e-19)
(13.8197 11.9739 -1.12187e-19)
(13.4563 11.8195 0)
(13.1044 11.629 2.64312e-19)
(12.7702 11.4049 -4.09201e-19)
(20.8391 8.92851 4.2588e-20)
(20.7768 9.00258 -3.00155e-20)
(20.712 9.08566 -1.46679e-20)
(20.6449 9.16923 0)
(20.5739 9.25502 0)
(20.5034 9.3418 -1.53909e-20)
(20.4274 9.42979 0)
(20.3515 9.51824 1.59742e-20)
(20.2685 9.60875 -1.62709e-20)
(20.1838 9.70287 1.7949e-20)
(20.0989 9.79755 -9.0749e-20)
(20.0118 9.89062 9.12918e-20)
(19.9176 9.98311 1.97153e-20)
(19.8141 10.0793 -5.93446e-20)
(19.7071 10.178 7.98949e-20)
(19.5951 10.2774 0)
(19.4777 10.3779 -2.24288e-20)
(19.3548 10.4788 -2.34197e-20)
(19.2256 10.5804 4.78808e-20)
(19.0894 10.6831 -2.57566e-20)
(18.9466 10.7851 2.6023e-20)
(18.7948 10.886 -1.16497e-19)
(18.6302 10.9879 1.18566e-19)
(18.4583 11.0899 0)
(18.2756 11.1906 1.40809e-19)
(18.0828 11.2894 -2.5769e-19)
(17.8788 11.3849 3.55071e-19)
(17.6624 11.4767 8.75984e-21)
(17.4336 11.5639 -3.67828e-19)
(17.1923 11.644 1.433e-19)
(16.9355 11.7167 -5.26169e-20)
(16.6653 11.7794 0)
(16.3795 11.8295 1.94168e-19)
(16.0789 11.8649 -1.33615e-19)
(15.7643 11.883 -8.04328e-20)
(15.4387 11.8793 1.56046e-19)
(15.1012 11.8533 -8.85617e-20)
(14.7588 11.8022 -9.5822e-20)
(14.4141 11.7214 2.05838e-19)
(14.0717 11.6078 1.10294e-19)
(13.7339 11.4611 0)
(13.4057 11.2812 -3.85478e-19)
(13.0917 11.0713 2.60634e-19)
(20.7671 8.87849 -6.7176e-22)
(20.709 8.94815 -3.55806e-22)
(20.6472 9.02425 0)
(20.5876 9.09985 0)
(20.517 9.17742 -1.75683e-20)
(20.4527 9.25719 3.49616e-20)
(20.3755 9.33806 -1.6657e-20)
(20.3053 9.41992 -1.64548e-20)
(20.2231 9.50055 0)
(20.1414 9.58631 4.77475e-23)
(20.0607 9.67526 -5.82463e-20)
(19.9783 9.76406 1.89134e-20)
(19.8918 9.8481 -1.92244e-20)
(19.7901 9.93543 -6.2879e-20)
(19.6876 10.0271 8.78005e-20)
(19.582 10.1186 1.10711e-21)
(19.471 10.211 -2.31435e-20)
(19.3537 10.3046 -2.53894e-20)
(19.2302 10.3978 7.6597e-20)
(19.0986 10.4927 5.68679e-20)
(18.9604 10.5887 -2.54723e-20)
(18.8168 10.6839 0)
(18.6537 10.777 6.39567e-20)
(18.4901 10.8697 -3.08621e-20)
(18.3153 10.9611 7.29222e-20)
(18.1305 11.0518 -1.12e-19)
(17.934 11.1389 4.22573e-20)
(17.7237 11.2216 -4.52282e-20)
(17.4975 11.3035 -9.70144e-20)
(17.2665 11.3752 1.50497e-19)
(17.0166 11.4403 0)
(16.758 11.4965 0)
(16.4849 11.5388 1.57129e-21)
(16.1979 11.5675 -1.43527e-19)
(15.8908 11.5843 2.98718e-19)
(15.5796 11.5769 -7.70152e-20)
(15.255 11.5457 8.74094e-20)
(14.926 11.4951 9.43428e-20)
(14.5913 11.4207 1.08037e-19)
(14.2617 11.3139 -2.1247e-19)
(13.9382 11.1766 0)
(13.6272 11.0044 1.26968e-19)
(13.3266 10.8079 6.12852e-21)
(0.987169 16.8755 0)
(1.39374 15.103 6.28438e-20)
(1.90734 13.6381 6.64603e-20)
(2.44006 12.4719 8.92487e-20)
(2.95796 11.5142 2.6712e-19)
(3.4498 10.7066 -1.22169e-19)
(3.91398 10.0145 -2.70535e-19)
(4.35118 9.41251 -1.25411e-19)
(4.76778 8.88747 1.18914e-19)
(5.16522 8.42485 0)
(5.54366 8.01362 4.94131e-20)
(5.90334 7.64518 0)
(6.24482 7.31278 -1.13031e-19)
(6.5691 7.01088 0)
(6.87711 6.73483 1.02569e-19)
(7.17013 6.48115 0)
(7.44922 6.24663 9.40526e-20)
(7.71552 6.02843 0)
(7.97023 5.82471 0)
(8.2143 5.63336 0)
(8.44872 5.45291 -1.5561e-19)
(8.67448 5.28212 -1.51683e-19)
(8.89235 5.11983 -1.04147e-18)
(9.10301 4.9649 1.31626e-18)
(9.30723 4.81669 -9.95976e-19)
(9.50544 4.67432 9.86295e-19)
(9.6982 4.53721 1.10972e-18)
(9.88595 4.40488 -1.23904e-18)
(10.069 4.2768 1.08491e-18)
(10.2478 4.15265 -8.13759e-19)
(10.4224 4.03208 -2.73148e-19)
(10.5932 3.91479 2.70963e-19)
(10.7605 3.8007 5.33362e-19)
(10.9245 3.68955 -5.27586e-19)
(11.0854 3.58116 0)
(11.2433 3.47539 2.63081e-19)
(11.3987 3.37212 -2.60647e-19)
(11.5515 3.27115 2.53587e-19)
(11.7019 3.17238 0)
(11.8499 3.07571 9.91861e-19)
(11.9955 2.98129 4.88342e-19)
(12.139 2.8893 4.70099e-19)
(12.278 2.79072 0)
(8.09422 14.2973 -1.58035e-18)
(7.48668 13.4506 8.06972e-19)
(7.1237 12.6432 -5.38448e-20)
(6.93176 11.8955 1.09473e-19)
(6.85852 11.2121 -1.11321e-19)
(6.86774 10.591 0)
(6.9348 10.0278 -4.88412e-20)
(7.0423 9.51684 -1.20527e-19)
(7.17767 9.05277 2.33268e-19)
(7.33262 8.63041 -7.60523e-19)
(7.50054 8.24504 3.17426e-19)
(7.67672 7.89242 -4.07978e-19)
(7.85777 7.56863 -2.98909e-19)
(8.04124 7.27025 7.57579e-19)
(8.22529 6.99417 6.41467e-19)
(8.40847 6.73768 -7.05682e-19)
(8.58997 6.49841 -6.79841e-19)
(8.76913 6.27438 8.2025e-19)
(8.94555 6.0638 -1.55306e-19)
(9.11893 5.86515 0)
(9.28923 5.67717 1.5193e-19)
(9.45649 5.49879 -1.02976e-18)
(9.62062 5.32888 -1.39222e-19)
(9.78167 5.1667 -2.75024e-19)
(9.93986 5.01152 2.08874e-18)
(10.0952 4.86264 -1.0985e-18)
(10.2477 4.71951 5.38922e-19)
(10.3975 4.5816 -4.01573e-19)
(10.5446 4.44856 -5.27731e-19)
(10.6891 4.32004 1.33153e-19)
(10.8312 4.19566 5.20276e-19)
(10.9709 4.07524 -5.20698e-19)
(11.1085 3.95851 5.15429e-19)
(11.244 3.8453 5.1323e-19)
(11.3776 3.73531 -2.6057e-19)
(11.5095 3.62836 -5.07487e-19)
(11.6399 3.52423 1.28189e-19)
(11.7686 3.4227 -1.26922e-19)
(11.8959 3.32362 0)
(12.0217 3.22681 -2.50338e-19)
(12.146 3.1324 -2.40671e-19)
(12.2687 3.04049 -4.6405e-21)
(12.3882 2.94302 0)
(9.33953 13.5664 5.25406e-19)
(8.94132 13.0285 0)
(8.64697 12.4542 -3.5737e-19)
(8.4445 11.8737 4.39647e-19)
(8.31922 11.3064 2.04959e-19)
(8.25687 10.7632 -9.22196e-20)
(8.24491 10.2504 1.06752e-19)
(8.27265 9.77011 -2.95972e-21)
(8.33128 9.3228 1.01061e-19)
(8.41385 8.90732 -8.91639e-20)
(8.51442 8.5219 9.13023e-20)
(8.62842 8.16449 0)
(8.75215 7.83272 -9.11896e-20)
(8.88277 7.5244 0)
(9.01792 7.23721 8.58471e-20)
(9.15581 6.96918 8.03518e-19)
(9.2952 6.71843 -4.71143e-19)
(9.43505 6.48329 -1.5721e-19)
(9.57452 6.26218 7.48438e-19)
(9.71322 6.05381 -4.37917e-19)
(9.85086 5.85699 -5.68261e-19)
(9.9872 5.67061 5.5759e-19)
(10.1221 5.49361 0)
(10.2554 5.32517 -2.66916e-19)
(10.3872 5.16448 6.64863e-19)
(10.5173 5.01081 -1.29262e-19)
(10.6457 4.86353 1.27844e-19)
(10.7722 4.72211 0)
(10.897 4.58612 3.80984e-19)
(11.02 4.45512 -2.5292e-19)
(11.1412 4.32882 0)
(11.2608 4.20691 -2.4801e-19)
(11.3789 4.08912 -7.49958e-19)
(11.4956 3.97519 2.52177e-19)
(11.6111 3.86479 -4.97241e-19)
(11.7254 3.75767 4.97202e-19)
(11.8387 3.65359 -3.70999e-19)
(11.9509 3.55232 1.84615e-19)
(12.0621 3.45367 -3.07649e-20)
(12.1722 3.35742 -3.31089e-20)
(12.281 3.26365 1.90606e-21)
(12.3887 3.17253 -2.34702e-19)
(12.4935 3.07642 -1.41238e-21)
(10.7635 12.6221 -2.23557e-19)
(10.3993 12.2058 8.07074e-20)
(10.0983 11.7609 0)
(9.86059 11.3033 8.75055e-20)
(9.68177 10.8457 9.46409e-20)
(9.55561 10.3971 -3.6962e-19)
(9.47496 9.9637 9.18841e-20)
(9.43293 9.54932 0)
(9.42312 9.15601 -8.98049e-20)
(9.4397 8.78461 1.8185e-19)
(9.47768 8.43501 2.69623e-19)
(9.53271 8.10659 -3.45358e-19)
(9.60122 7.7983 1.66247e-19)
(9.68033 7.50893 1.68752e-19)
(9.76749 7.23716 -6.43277e-19)
(9.86064 6.98171 1.54507e-19)
(9.95834 6.74133 6.06903e-19)
(10.0593 6.51481 -5.94998e-19)
(10.1625 6.30102 -5.80821e-19)
(10.2673 6.09895 4.24102e-19)
(10.3733 5.90759 0)
(10.4801 5.72602 0)
(10.5874 5.55331 6.64717e-19)
(10.6947 5.38866 -6.57482e-19)
(10.8019 5.23137 0)
(10.9086 5.08079 1.28663e-19)
(11.0147 4.93641 -2.4864e-21)
(11.1199 4.79775 0)
(11.2242 4.66439 -4.91934e-19)
(11.3274 4.53598 3.6879e-19)
(11.4294 4.4123 -1.21322e-19)
(11.5306 4.29307 1.24928e-19)
(11.6309 4.17799 0)
(11.7305 4.06671 4.85753e-19)
(11.8294 3.95892 2.4308e-19)
(11.9277 3.85443 1.21905e-19)
(12.0254 3.75296 -1.19019e-19)
(12.1225 3.6543 -2.39391e-19)
(12.219 3.55823 -1.49407e-20)
(12.3148 3.46449 -2.2404e-19)
(12.4096 3.37324 0)
(12.5035 3.28464 4.63238e-19)
(12.5946 3.19125 -4.49035e-19)
(11.4568 12.0271 -3.80262e-19)
(11.134 11.6783 2.24747e-19)
(10.8579 11.3035 1.67138e-19)
(10.6301 10.9137 -2.5188e-19)
(10.4491 10.5185 -2.20459e-21)
(10.3116 10.1255 8.62998e-20)
(10.2133 9.74049 2.78598e-21)
(10.1494 9.36776 -2.71802e-21)
(10.1149 9.00981 8.91595e-20)
(10.1055 8.66818 0)
(10.117 8.34361 0)
(10.1456 8.03609 -1.64632e-19)
(10.1881 7.74532 1.61349e-19)
(10.2418 7.47062 2.06311e-21)
(10.3042 7.21115 -1.53959e-19)
(10.3734 6.96618 0)
(10.448 6.73479 -1.50542e-19)
(10.5267 6.51608 -1.43344e-19)
(10.6085 6.30925 1.40075e-19)
(10.693 6.1134 0)
(10.7796 5.92771 1.34168e-19)
(10.868 5.75124 0)
(10.9577 5.58313 -2.61204e-19)
(11.0481 5.42268 -3.85753e-19)
(11.1389 5.26928 7.96691e-22)
(11.2297 5.1224 4.99371e-19)
(11.3202 4.98158 -2.21719e-21)
(11.4103 4.84637 0)
(11.4996 4.71637 -2.41553e-19)
(11.588 4.59135 4.82186e-19)
(11.6756 4.47114 1.20756e-19)
(11.7627 4.35546 2.38805e-19)
(11.8495 4.2439 2.37839e-19)
(11.9359 4.136 -7.15344e-19)
(12.0218 4.03158 2.36063e-19)
(12.1074 3.93045 -4.73807e-19)
(12.1925 3.83235 1.20191e-19)
(12.2774 3.73704 3.56456e-19)
(12.3618 3.64423 0)
(12.4456 3.55374 0)
(12.5286 3.46569 0)
(12.6106 3.38028 2.27836e-19)
(12.6898 3.28996 -2.22999e-19)
(12.0387 11.5356 0)
(11.7391 11.2282 0)
(11.477 10.8982 1.63473e-19)
(11.2544 10.5537 -4.93303e-19)
(11.0712 10.2022 8.05835e-20)
(10.9256 9.84987 0)
(10.8147 9.50193 1.69481e-19)
(10.735 9.16228 0)
(10.6828 8.83369 0)
(10.6544 8.51776 -1.66184e-19)
(10.6461 8.21562 -3.3017e-19)
(10.6549 7.92769 3.26085e-19)
(10.6776 7.65397 -1.57757e-19)
(10.7118 7.39401 -3.23146e-21)
(10.7548 7.14749 4.60003e-19)
(10.8051 6.91406 -5.96205e-19)
(10.8613 6.69287 -9.81908e-22)
(10.922 6.48341 7.13157e-19)
(10.9867 6.28495 -5.56606e-19)
(11.0547 6.09677 0)
(11.1259 5.91815 -1.34668e-19)
(11.1998 5.74797 0)
(11.2755 5.58553 5.13799e-19)
(11.3525 5.43031 -3.8022e-19)
(11.4299 5.28184 0)
(11.5076 5.13971 0)
(11.5854 5.00345 1.20198e-19)
(11.6629 4.87262 -4.80682e-19)
(11.7399 4.74684 -2.37899e-19)
(11.816 4.62605 3.54647e-19)
(11.8915 4.51021 2.35247e-19)
(11.9672 4.39889 -3.53066e-19)
(12.0429 4.29145 0)
(12.1185 4.18747 0)
(12.1936 4.08692 -2.32664e-19)
(12.2684 3.98968 3.51542e-19)
(12.3431 3.89546 5.82025e-20)
(12.4177 3.80395 -5.82967e-20)
(12.4921 3.71481 0)
(12.5658 3.62788 0)
(12.6386 3.54332 0)
(12.7107 3.46118 -1.81193e-21)
(12.7804 3.37479 2.23893e-19)
(12.4599 11.1508 2.80834e-19)
(12.1779 10.8714 1.49798e-19)
(11.9283 10.5717 3.13906e-19)
(11.7126 10.2583 4.27575e-21)
(11.5315 9.9372 1.62145e-19)
(11.3841 9.61368 0)
(11.2676 9.29264 -1.66407e-19)
(11.18 8.97757 -4.31513e-20)
(11.1182 8.67123 -1.22729e-19)
(11.0789 8.37505 8.27576e-20)
(11.0584 8.09086 8.29587e-20)
(11.055 7.81892 -3.1666e-19)
(11.0648 7.55944 3.12131e-19)
(11.0866 7.31182 -1.54062e-19)
(11.1158 7.07665 -2.99694e-19)
(11.1532 6.85365 2.91755e-19)
(11.1964 6.64183 -2.86645e-19)
(11.2442 6.44086 1.38145e-19)
(11.2967 6.25016 4.11729e-19)
(11.3532 6.06918 0)
(11.4136 5.89734 -1.30412e-19)
(11.4778 5.73268 -3.8587e-19)
(11.5427 5.57521 1.25624e-19)
(11.6093 5.42497 2.49127e-19)
(11.6763 5.28141 -1.61612e-22)
(11.744 5.14412 -2.42309e-19)
(11.8121 5.01237 0)
(11.8798 4.88595 0)
(11.9471 4.76443 1.18219e-19)
(12.013 4.64803 -1.17379e-19)
(12.0789 4.53682 0)
(12.1456 4.42989 0)
(12.2127 4.32645 -1.14614e-19)
(12.2796 4.22626 0)
(12.3457 4.12969 1.16019e-19)
(12.4118 4.03651 -1.15061e-19)
(12.478 3.94626 0)
(12.5443 3.8586 0)
(12.6104 3.7732 1.42938e-20)
(12.6757 3.69004 -1.27893e-19)
(12.7399 3.60955 1.13187e-19)
(12.8036 3.53177 -3.37793e-19)
(12.8652 3.4524 2.21242e-19)
(12.7973 10.834 0)
(12.5275 10.5752 -1.46884e-19)
(12.2874 10.2984 -9.3715e-22)
(12.0776 10.0079 0)
(11.8987 9.70956 -1.59065e-19)
(11.7512 9.40775 0)
(11.631 9.10697 -1.59772e-19)
(11.5381 8.81109 -1.59611e-19)
(11.4697 8.52207 3.6027e-19)
(11.4225 8.24146 -3.9327e-20)
(11.3921 7.97205 3.13184e-19)
(11.3804 7.71414 1.57722e-19)
(11.3795 7.46642 -1.51116e-19)
(11.3938 7.22973 -1.47796e-19)
(11.4106 7.00468 -2.91366e-19)
(11.4399 6.79186 1.42928e-19)
(11.4737 6.58853 0)
(11.5114 6.39518 -1.38385e-19)
(11.5556 6.21156 2.69411e-19)
(11.6036 6.03712 -2.63549e-19)
(11.6561 5.87119 1.30189e-19)
(11.713 5.70991 -4.28748e-22)
(11.767 5.55683 -1.29423e-22)
(11.8266 5.41223 3.07548e-23)
(11.8856 5.27363 3.61977e-19)
(11.946 5.14102 -1.18292e-19)
(12.0066 5.0133 0)
(12.0662 4.89121 1.17754e-19)
(12.126 4.77396 -2.31842e-19)
(12.1829 4.66189 0)
(12.2415 4.55522 1.13382e-19)
(12.3016 4.45216 0)
(12.3623 4.3522 1.14105e-19)
(12.4222 4.25565 1.13208e-19)
(12.4807 4.16329 4.13052e-22)
(12.5401 4.07413 5.65221e-20)
(12.5994 3.98753 -1.33595e-22)
(12.659 3.90343 -5.66353e-20)
(12.7181 3.82155 -7.0565e-21)
(12.7759 3.74211 1.20237e-19)
(12.8322 3.66582 1.67928e-19)
(12.8883 3.59248 5.55741e-20)
(12.9418 3.51777 -1.10198e-19)
(13.0455 10.58 5.81976e-21)
(12.7868 10.3363 5.57084e-21)
(12.559 10.0777 -2.99757e-19)
(12.358 9.8051 -7.78933e-20)
(12.1844 9.52239 7.70829e-20)
(12.0418 9.23724 -1.56985e-19)
(11.9219 8.95026 3.17314e-19)
(11.829 8.66785 1.40941e-19)
(11.7591 8.39102 -3.32993e-19)
(11.7092 8.12144 2.69036e-19)
(11.6722 7.8629 -2.32041e-19)
(11.6613 7.61854 1.51317e-19)
(11.6525 7.37723 -2.92398e-19)
(11.6673 7.15324 4.35883e-19)
(11.6694 6.9349 1.44864e-19)
(11.6992 6.73453 -2.83747e-19)
(11.7251 6.53685 2.67185e-19)
(11.7548 6.34931 0)
(11.7944 6.17278 -1.31459e-19)
(11.8326 6.00221 -1.29535e-19)
(11.8796 5.83897 2.52662e-23)
(11.9319 5.67663 -1.22211e-19)
(11.9752 5.5301 -1.21063e-19)
(12.0351 5.39535 1.20242e-19)
(12.0836 5.25981 -1.23016e-21)
(12.1389 5.13103 -1.15887e-19)
(12.1913 5.00601 1.16811e-19)
(12.2438 4.88961 4.66441e-19)
(12.2985 4.7775 -2.30232e-19)
(12.3445 4.66823 0)
(12.3978 4.56567 -7.67555e-22)
(12.4528 4.46561 0)
(12.5074 4.36912 0)
(12.5599 4.27695 -1.10954e-19)
(12.6093 4.18965 0)
(12.6616 4.10435 -1.1247e-19)
(12.7123 4.0209 0)
(12.7638 3.94009 1.27956e-19)
(12.8148 3.86156 9.89305e-20)
(12.8646 3.78585 -1.11932e-19)
(12.9125 3.71367 -1.12755e-19)
(12.9618 3.64409 -1.14306e-19)
(13.0092 3.56866 -1.10965e-19)
(-4.624 -2.55101 0)
(-4.52267 -2.5581 1.09962e-19)
(-4.40882 -2.56447 0)
(-4.28368 -2.57044 -7.30754e-21)
(-4.14826 -2.57598 6.6694e-20)
(-4.00357 -2.58107 -6.07899e-20)
(-3.85045 -2.58567 1.23204e-19)
(-3.68976 -2.58973 -1.26359e-19)
(-3.5223 -2.59319 -3.7999e-22)
(-3.34884 -2.59599 1.27971e-19)
(-3.17 -2.59807 -6.70847e-20)
(-2.98644 -2.59938 -6.36917e-20)
(-2.79877 -2.59984 1.3348e-19)
(-2.60753 -2.5994 2.715e-19)
(-2.41321 -2.59799 -2.76404e-19)
(-2.21627 -2.59559 3.4669e-20)
(-2.01697 -2.59214 3.42912e-20)
(-1.81576 -2.58761 0)
(-1.613 -2.58193 -3.60098e-20)
(-1.40882 -2.57513 3.70967e-20)
(-1.20344 -2.56716 -2.86051e-19)
(-0.997093 -2.558 3.38101e-19)
(-0.789959 -2.54766 0)
(-0.582109 -2.53613 -3.66667e-19)
(-0.373856 -2.52335 2.4599e-20)
(-0.165176 -2.50929 5.83291e-19)
(0.0437832 -2.49391 -2.14759e-19)
(0.253226 -2.4772 0)
(0.463139 -2.45912 2.42014e-19)
(0.673556 -2.43958 -2.28652e-19)
(0.884818 -2.41846 0)
(1.09717 -2.39558 -1.88368e-19)
(1.31098 -2.37047 1.67379e-19)
(1.527 -2.34258 4.6155e-20)
(1.74641 -2.31082 0)
(1.97132 -2.27351 0)
(2.20637 -2.22775 -3.24164e-20)
(2.46159 -2.16913 0)
(2.75993 -2.09169 0)
(3.15918 -1.9859 -3.97408e-19)
(3.80607 -1.84034 1.34818e-18)
(5.10805 -1.67199 -1.22107e-18)
(8.39214 -1.75003 7.52902e-20)
(-4.60861 -2.55628 1.06524e-19)
(-4.5131 -2.56127 -1.10211e-19)
(-4.4074 -2.56609 2.83291e-20)
(-4.29227 -2.57061 -2.88008e-20)
(-4.1684 -2.5748 -1.17462e-19)
(-4.03645 -2.57869 -5.9379e-20)
(-3.89705 -2.58228 0)
(-3.75073 -2.58558 0)
(-3.59804 -2.58856 6.10438e-20)
(-3.43947 -2.59121 0)
(-3.27547 -2.5935 0)
(-3.10648 -2.59538 0)
(-2.93287 -2.59684 0)
(-2.75499 -2.59784 3.21739e-20)
(-2.57319 -2.59835 0)
(-2.38769 -2.59831 -6.66307e-20)
(-2.19875 -2.59767 0)
(-2.0066 -2.59639 -2.73967e-19)
(-1.81135 -2.59441 3.82099e-22)
(-1.61316 -2.59164 2.53303e-19)
(-1.41208 -2.58798 0)
(-1.20819 -2.58333 1.55453e-19)
(-1.00148 -2.57758 -2.03477e-19)
(-0.791855 -2.57057 -4.31865e-20)
(-0.579227 -2.56214 -4.52405e-20)
(-0.363573 -2.55209 -2.4069e-20)
(-0.14468 -2.5402 -2.50865e-20)
(0.0776911 -2.52616 2.65789e-20)
(0.303987 -2.50961 0)
(0.53477 -2.49007 -2.9671e-20)
(0.771069 -2.46692 -1.27123e-19)
(1.01436 -2.43925 1.37411e-19)
(1.26677 -2.40585 -1.10463e-19)
(1.53196 -2.36493 1.21419e-19)
(1.81575 -2.31409 0)
(2.12766 -2.25016 4.96889e-20)
(2.48444 -2.16881 2.45471e-20)
(2.91535 -2.06478 0)
(3.47215 -1.9338 0)
(4.25506 -1.77688 1.02006e-19)
(5.4618 -1.61679 -3.39338e-20)
(7.48073 -1.54809 7.79827e-20)
(11.0668 -1.82913 -8.28614e-20)
(-4.58893 -2.55324 1.06247e-19)
(-4.49727 -2.55697 0)
(-4.39658 -2.56089 2.79519e-20)
(-4.28745 -2.56461 -2.83349e-20)
(-4.1704 -2.56815 5.75111e-20)
(-4.04594 -2.5715 2.89449e-20)
(-3.91454 -2.57469 8.8175e-20)
(-3.77659 -2.5777 -5.91482e-20)
(-3.63244 -2.5805 -1.19169e-19)
(-3.48243 -2.58306 1.80545e-19)
(-3.3269 -2.58533 -1.81958e-19)
(-3.16616 -2.58724 6.13216e-20)
(-3.00047 -2.58876 0)
(-2.83009 -2.58981 -6.25418e-20)
(-2.65521 -2.59033 -3.19476e-20)
(-2.47599 -2.59028 -1.30522e-19)
(-2.29262 -2.58958 1.32718e-19)
(-2.10516 -2.58815 0)
(-1.9136 -2.58592 0)
(-1.71799 -2.58276 -7.23499e-20)
(-1.51821 -2.57855 -3.71332e-20)
(-1.31413 -2.57309 1.15395e-19)
(-1.1056 -2.56618 -7.86526e-22)
(-0.892399 -2.55756 -8.40392e-22)
(-0.674198 -2.54696 -8.77915e-20)
(-0.450651 -2.53403 2.28137e-19)
(-0.221128 -2.51835 -2.46203e-20)
(0.0151751 -2.49939 -7.57905e-20)
(0.259267 -2.47646 -2.13922e-19)
(0.512628 -2.44872 3.41043e-19)
(0.777328 -2.41509 -6.30055e-22)
(1.05629 -2.37419 -2.57265e-19)
(1.35403 -2.32431 1.72253e-19)
(1.67716 -2.26326 -7.25366e-22)
(2.03538 -2.18838 -3.98505e-20)
(2.44348 -2.09678 -8.35436e-20)
(2.92489 -1.98552 -4.40577e-20)
(3.51724 -1.85273 4.6773e-20)
(4.28346 -1.70022 -9.85482e-20)
(5.32705 -1.54124 3.00193e-21)
(6.81895 -1.41707 5.95043e-20)
(9.02243 -1.42994 -1.16684e-19)
(12.2669 -1.79643 -2.30238e-20)
(-4.56714 -2.54257 0)
(-4.47964 -2.5447 5.37512e-20)
(-4.38419 -2.54711 0)
(-4.28124 -2.54928 3.49458e-21)
(-4.17116 -2.55123 -1.76675e-20)
(-4.05435 -2.55296 -1.43322e-20)
(-3.93111 -2.55452 2.86876e-20)
(-3.80168 -2.55592 -5.79826e-20)
(-3.66626 -2.55715 -1.7107e-22)
(-3.52504 -2.55815 5.86291e-20)
(-3.37817 -2.55886 5.91961e-20)
(-3.22588 -2.55921 -1.79379e-19)
(-3.06832 -2.55918 1.20737e-19)
(-2.90557 -2.55867 3.06059e-20)
(-2.73768 -2.55761 -9.33928e-20)
(-2.56479 -2.55589 1.58121e-19)
(-2.38692 -2.55346 0)
(-2.20405 -2.55023 0)
(-2.01608 -2.54607 1.69694e-19)
(-1.82288 -2.54086 -2.09466e-19)
(-1.6242 -2.53447 -1.44348e-19)
(-1.41967 -2.52667 3.72677e-20)
(-1.20892 -2.51718 1.93752e-19)
(-0.991473 -2.50564 -1.21178e-19)
(-0.766761 -2.49163 8.44812e-20)
(-0.534098 -2.47464 0)
(-0.292517 -2.45415 4.60703e-20)
(-0.0407028 -2.42941 -4.85332e-20)
(0.222929 -2.39955 1.53572e-19)
(0.500649 -2.36354 0)
(0.79548 -2.32011 1.13297e-19)
(1.11144 -2.26775 -1.20533e-19)
(1.45445 -2.20483 0)
(1.8328 -2.12941 0)
(2.25843 -2.03959 0)
(2.74905 -1.93363 1.15023e-21)
(3.33154 -1.8105 3.81088e-20)
(4.04667 -1.67171 -1.65131e-19)
(4.9562 -1.52493 8.93324e-20)
(6.15367 -1.39094 9.16532e-20)
(7.77277 -1.31703 0)
(9.99395 -1.39594 -1.20728e-19)
(12.9835 -1.78986 2.75595e-19)
(-4.54344 -2.52668 -5.26741e-20)
(-4.45973 -2.52718 -1.61112e-22)
(-4.36896 -2.52806 0)
(-4.27145 -2.5286 0)
(-4.16738 -2.52891 0)
(-4.05701 -2.52896 2.80191e-20)
(-3.9406 -2.52879 -2.81095e-20)
(-3.81828 -2.52847 0)
(-3.69007 -2.52797 0)
(-3.55601 -2.52725 0)
(-3.4162 -2.52621 0)
(-3.27065 -2.52478 0)
(-3.11952 -2.52289 0)
(-2.96276 -2.52051 2.99851e-20)
(-2.80033 -2.51751 1.52483e-19)
(-2.63226 -2.51374 -9.29696e-20)
(-2.45848 -2.50911 -3.16557e-20)
(-2.27887 -2.5035 -3.24034e-20)
(-2.09332 -2.49677 -3.31694e-20)
(-1.90157 -2.4888 -9.30423e-23)
(-1.70328 -2.47949 1.76364e-19)
(-1.49785 -2.46862 -1.46029e-19)
(-1.28474 -2.45585 0)
(-1.06316 -2.44081 3.93893e-20)
(-0.832289 -2.423 4.09484e-20)
(-0.591142 -2.4018 4.28916e-20)
(-0.338427 -2.37658 0)
(-0.0725831 -2.34664 0)
(0.208722 -2.31106 8.24075e-23)
(0.508286 -2.26874 -1.02579e-19)
(0.829686 -2.21831 -5.30684e-20)
(1.17779 -2.15835 1.13901e-19)
(1.55947 -2.08735 0)
(1.98376 -2.00392 0)
(2.46419 -1.90675 1.61929e-20)
(3.02019 -1.79527 -8.51097e-20)
(3.67923 -1.67047 1.07073e-19)
(4.48169 -1.53651 0)
(5.48598 -1.40448 0)
(6.77318 -1.29879 -1.46073e-21)
(8.45213 -1.26638 0)
(10.6536 -1.38919 3.85387e-20)
(13.4825 -1.79179 -1.32586e-19)
(-4.51831 -2.50725 2.53903e-22)
(-4.43821 -2.50609 -1.04756e-19)
(-4.35175 -2.50545 0)
(-4.2592 -2.50439 0)
(-4.16047 -2.5031 6.81848e-21)
(-4.05583 -2.50144 -2.05802e-20)
(-3.94548 -2.49948 1.3776e-20)
(-3.82948 -2.49733 0)
(-3.70768 -2.49504 0)
(-3.57994 -2.4925 5.64161e-20)
(-3.44632 -2.48961 -5.66802e-20)
(-3.3067 -2.48629 0)
(-3.16124 -2.48242 2.91296e-20)
(-3.00978 -2.47801 -8.81354e-20)
(-2.8521 -2.47298 -2.98707e-20)
(-2.6881 -2.4671 -9.12975e-20)
(-2.51775 -2.46023 1.24041e-19)
(-2.34079 -2.45226 -3.1789e-20)
(-2.15697 -2.44296 1.30243e-19)
(-1.96617 -2.43207 6.87323e-23)
(-1.76803 -2.41965 -6.89837e-20)
(-1.56171 -2.40562 0)
(-1.34644 -2.38958 -3.69443e-20)
(-1.1212 -2.3712 3.8391e-20)
(-0.884782 -2.34999 -3.98878e-20)
(-0.636032 -2.32516 -1.66339e-19)
(-0.373409 -2.29597 1.30108e-19)
(-0.0952602 -2.26184 -9.06259e-20)
(0.201129 -2.22211 -4.72498e-20)
(0.519348 -2.17564 -4.92739e-20)
(0.863657 -2.12107 5.16808e-20)
(1.2393 -2.05695 5.36465e-20)
(1.65371 -1.98188 -5.71594e-20)
(2.11658 -1.89461 -6.86882e-22)
(2.64146 -1.79476 0)
(3.24862 -1.68281 6.4799e-20)