/*--------------------------------*- C++ -*----------------------------------*\
| =========                 |                                                 |
| \\      /  F ield         | OpenFOAM: The Open Source CFD Toolbox           |
|  \\    /   O peration     | Version:  2.3.0                                 |
|   \\  /    A nd           | Web:      www.OpenFOAM.org                      |
|    \\/     M anipulation  |                                                 |
\*---------------------------------------------------------------------------*/
FoamFile
{
    version     2.0;
    format      ascii;
    class       volScalarField;
    location    "1000";
    object      nut;
}
// * * * * * * * * * * * * * * * * * * * * * * * * * * * * * * * * * * * * * //

dimensions      [0 2 -1 0 0 0 0];

internalField   nonuniform List<scalar> 
39608
(
0.0550451
0.0535025
0.0519787
0.0504717
0.04898
0.0475016
0.046036
0.0445826
0.0431416
0.0417126
0.0402961
0.0388922
0.0375014
0.0361245
0.0347609
0.0334123
0.0320783
0.0307607
0.0294593
0.0281761
0.0269114
0.0256673
0.0244448
0.0232474
0.0220771
0.0209397
0.0198372
0.0187733
0.0177511
0.0167782
0.0158656
0.0150187
0.0142211
0.0134403
0.0126588
0.0118725
0.0110804
0.010279
0.00945957
0.00860531
0.00768553
0.0066842
0.00579175
0.0566729
0.0553092
0.0539637
0.0526336
0.051317
0.0500119
0.0487185
0.0474356
0.0461624
0.0448994
0.043646
0.0424028
0.0411696
0.0399464
0.038734
0.0375317
0.036341
0.0351618
0.0339947
0.0328402
0.0316995
0.0305729
0.0294615
0.0283671
0.0272907
0.0262336
0.0251984
0.0241865
0.0232014
0.0222446
0.0213213
0.0204363
0.0195931
0.0187963
0.0180517
0.0173678
0.0167548
0.016226
0.015796
0.0154784
0.0152898
0.0152441
0.0153539
0.0581647
0.056955
0.0557614
0.0545807
0.0534112
0.0522522
0.0511022
0.0499604
0.0488268
0.0477007
0.0465822
0.0454712
0.0443674
0.0432708
0.0421824
0.0411011
0.0400283
0.0389639
0.0379089
0.0368629
0.0358277
0.034804
0.0337923
0.0327947
0.0318118
0.0308468
0.0299008
0.0289767
0.0280775
0.0272072
0.0263687
0.0255674
0.0248093
0.0241009
0.023449
0.0228615
0.0223497
0.0219224
0.0215911
0.0213669
0.0212583
0.021272
0.0214104
0.0595317
0.0584545
0.0573907
0.0563377
0.0552942
0.0542583
0.0532293
0.0522065
0.0511894
0.0501778
0.049171
0.0481696
0.0471733
0.0461823
0.0451959
0.0442149
0.0432394
0.0422696
0.0413063
0.0403508
0.0394029
0.0384637
0.0375347
0.0366171
0.0357127
0.0348229
0.0339509
0.0330991
0.0322713
0.0314702
0.030701
0.0299682
0.0292779
0.0286365
0.0280514
0.0275303
0.0270818
0.0267145
0.0264371
0.0262579
0.0261843
0.0262206
0.0263684
0.0607824
0.0598191
0.0588672
0.0579244
0.0569879
0.0560571
0.0551306
0.0542081
0.0532895
0.0523735
0.0514606
0.0505499
0.0496428
0.0487389
0.0478378
0.0469395
0.0460446
0.0451534
0.0442664
0.0433839
0.0425072
0.0416379
0.0407767
0.0399248
0.039084
0.0382563
0.037444
0.0366503
0.0358782
0.0351321
0.0344162
0.0337355
0.033096
0.032504
0.0319664
0.0314908
0.031085
0.0307569
0.0305143
0.0303641
0.0303119
0.0303612
0.0305148
0.0619233
0.0610595
0.0602049
0.0593563
0.0585121
0.0576709
0.056832
0.0559947
0.0551589
0.0543242
0.0534895
0.0526551
0.0518214
0.0509895
0.0501592
0.0493302
0.048502
0.0476756
0.0468517
0.0460294
0.0452112
0.0443986
0.0435929
0.0427954
0.0420072
0.0412303
0.0404669
0.0397201
0.0389932
0.0382905
0.0376163
0.0369761
0.036375
0.0358199
0.0353168
0.0348743
0.0344988
0.034198
0.0339795
0.0338492
0.0338116
0.0338702
0.0340274
0.0629654
0.0621868
0.0614163
0.0606493
0.0598845
0.0591206
0.0583566
0.0575909
0.0568251
0.0560598
0.0552927
0.0545213
0.0537481
0.0529759
0.0522041
0.0514322
0.0506603
0.0498881
0.0491164
0.0483452
0.0475747
0.0468076
0.0460472
0.0452943
0.0445499
0.0438153
0.0430929
0.0423846
0.0416944
0.0410271
0.0403868
0.0397783
0.0392072
0.03868
0.0382033
0.0377844
0.0374312
0.0371509
0.0369503
0.0368343
0.0368076
0.0368737
0.0370337
0.0639071
0.0632095
0.0625146
0.0618168
0.0611212
0.0604226
0.0597254
0.0590195
0.0583117
0.0576044
0.0568976
0.0561825
0.0554576
0.0547329
0.0540093
0.0532857
0.0525606
0.0518337
0.0511053
0.0503787
0.0496502
0.048918
0.0481931
0.0474758
0.0467679
0.0460695
0.0453814
0.0447066
0.0440472
0.0434072
0.0427959
0.0422128
0.0416668
0.0411615
0.0407058
0.0403032
0.0399663
0.0397015
0.0395148
0.0394101
0.0393935
0.0394645
0.0396276
0.0647686
0.0641422
0.0635159
0.0628684
0.0622356
0.0615865
0.0609563
0.0603017
0.0596423
0.058975
0.0583187
0.0576635
0.0569786
0.0562913
0.0556048
0.054917
0.0542303
0.0535413
0.0528465
0.0521549
0.0514731
0.050769
0.0500728
0.0493808
0.0487008
0.0480325
0.0473737
0.046729
0.0461029
0.0454784
0.0448975
0.0443322
0.0438105
0.0433198
0.0428883
0.0424948
0.0421692
0.0419167
0.0417424
0.0416445
0.0416413
0.0417105
0.0418817
0.00651156
0.00826704
0.00937123
0.0104487
0.0115923
0.012807
0.0140799
0.0153964
0.0167464
0.0181227
0.0195199
0.020934
0.0223622
0.0238033
0.0252557
0.0267191
0.0281924
0.0296754
0.031168
0.0326697
0.0341804
0.0357005
0.0372295
0.0387674
0.0403145
0.0418702
0.0434347
0.0450078
0.0465894
0.0481791
0.0497764
0.0513809
0.0529925
0.0546107
0.0562345
0.0578636
0.0594975
0.0611353
0.0627763
0.0644194
0.0660634
0.0677067
0.0693504
0.0156274
0.0160665
0.0166626
0.0174025
0.0182697
0.0192428
0.0203028
0.0214331
0.0226185
0.0238484
0.0251129
0.0264045
0.0277178
0.0290488
0.0303942
0.0317508
0.0331172
0.0344917
0.0358735
0.0372615
0.0386554
0.0400553
0.0414601
0.0428698
0.044285
0.045705
0.0471295
0.0485585
0.0499919
0.0514297
0.0528714
0.0543168
0.0557658
0.0572184
0.0586742
0.0601328
0.0615942
0.0630578
0.0645234
0.0659903
0.0674574
0.0689242
0.0703922
0.021674
0.022065
0.0225856
0.0232282
0.0239821
0.024834
0.0257702
0.0267775
0.0278433
0.0289574
0.03011
0.0312936
0.0325019
0.0337302
0.0349738
0.0362293
0.0374947
0.0387678
0.0400463
0.0413296
0.0426172
0.0439082
0.045202
0.0464981
0.0477968
0.0490974
0.0503995
0.051703
0.053008
0.0543141
0.0556211
0.0569292
0.0582379
0.0595479
0.0608588
0.0621705
0.063483
0.0647963
0.0661104
0.0674246
0.0687386
0.0700516
0.0713657
0.0266267
0.0269976
0.0274823
0.028075
0.028767
0.0295488
0.0304088
0.0313366
0.0323216
0.0333537
0.0344246
0.0355264
0.0366528
0.0377991
0.0389604
0.0401327
0.0413141
0.0425016
0.0436934
0.0448885
0.0460859
0.0472849
0.0484849
0.0496848
0.0508847
0.052084
0.0532822
0.0544792
0.0556746
0.0568685
0.0580608
0.0592514
0.0604405
0.0616281
0.0628147
0.0640004
0.0651851
0.0663691
0.0675524
0.0687346
0.069915
0.0710938
0.0722728
0.0307713
0.0311311
0.031595
0.0321575
0.0328112
0.0335479
0.034358
0.0352314
0.036159
0.0371317
0.0381415
0.039181
0.0402438
0.0413248
0.0424195
0.0435243
0.0446362
0.0457527
0.0468724
0.047994
0.0491165
0.0502386
0.05136
0.0524798
0.053597
0.0547111
0.0558218
0.0569287
0.0580314
0.05913
0.0602246
0.0613153
0.0624021
0.0634855
0.0645657
0.0656433
0.0667184
0.067791
0.0688616
0.0699293
0.0709936
0.0720546
0.0731149
0.0342831
0.034636
0.0350864
0.035629
0.0362572
0.0369627
0.0377374
0.038572
0.0394573
0.0403856
0.041349
0.04234
0.0433525
0.0443811
0.045422
0.0464714
0.0475258
0.0485834
0.0496433
0.0507037
0.0517638
0.0528226
0.0538795
0.0549328
0.0559808
0.0570233
0.0580601
0.0590908
0.0601154
0.061133
0.062144
0.0631494
0.0641492
0.0651437
0.0661331
0.0671179
0.0680989
0.0690761
0.0700494
0.0710179
0.0719812
0.0729389
0.0738928
0.0372877
0.037636
0.0380776
0.0386067
0.0392165
0.0398999
0.0406477
0.041453
0.0423069
0.0432014
0.0441284
0.0450806
0.0460525
0.0470389
0.0480354
0.0490384
0.0500441
0.0510525
0.0520628
0.0530723
0.0540809
0.0550883
0.056093
0.0570908
0.0580798
0.059061
0.0600353
0.0610022
0.0619602
0.0629084
0.0638478
0.0647806
0.0657064
0.0666248
0.0675361
0.0684412
0.0693416
0.0702371
0.0711269
0.0720098
0.0728852
0.0737524
0.0746129
0.0398783
0.0402229
0.0406593
0.0411796
0.0417749
0.0424409
0.0431678
0.0439502
0.0447802
0.045649
0.0465474
0.0474674
0.0484061
0.0493568
0.0503169
0.0512809
0.0522428
0.0532106
0.0541799
0.0551463
0.0561133
0.0570802
0.0580439
0.0589934
0.0599296
0.0608588
0.0617814
0.0626953
0.0635958
0.0644822
0.0653608
0.066233
0.067096
0.0679484
0.0687915
0.0696285
0.0704602
0.0712861
0.0721044
0.0729134
0.0737128
0.0745003
0.075278
0.0421221
0.0424617
0.0428949
0.0434107
0.0439906
0.0446421
0.0453504
0.0461144
0.0469253
0.0477743
0.048648
0.0495375
0.0504494
0.0513634
0.0522986
0.0532275
0.054145
0.0550863
0.0560196
0.05695
0.0578888
0.0588261
0.0597579
0.0606552
0.0615449
0.0624334
0.0633155
0.064186
0.0650326
0.0658631
0.0666952
0.0675186
0.0683279
0.0691219
0.069905
0.070687
0.071464
0.0722336
0.0729927
0.0737384
0.0744738
0.0751921
0.0758961
0.0867162
0.0834903
0.0803123
0.0771757
0.0740789
0.0710226
0.068008
0.0650371
0.062112
0.0592362
0.0564114
0.0536405
0.0509258
0.0482698
0.0456744
0.043142
0.0406727
0.0382692
0.0359332
0.0336644
0.0314643
0.0293329
0.0272718
0.025279
0.0233561
0.0215021
0.0197188
0.0180042
0.0163592
0.0147842
0.013279
0.0118446
0.0104804
0.00918934
0.00797121
0.00682965
0.00576765
0.00478865
0.00389836
0.00311205
0.00249607
0.00188715
0.0011824
0.0883093
0.0854283
0.0825741
0.0797433
0.0769345
0.0741488
0.0713869
0.0686509
0.0659431
0.0632649
0.0606186
0.0580074
0.0554331
0.0528973
0.0504033
0.0479514
0.0455451
0.043186
0.0408739
0.0386107
0.0363987
0.0342385
0.0321313
0.0300782
0.0280792
0.0261376
0.0242527
0.0224261
0.02066
0.0189548
0.0173128
0.0157364
0.0142285
0.0127914
0.0114306
0.0101515
0.0089597
0.0078754
0.00693155
0.00599243
0.00500852
0.00393322
0.00268435
0.0898885
0.0873157
0.0847533
0.0821991
0.0796527
0.0771144
0.0745862
0.0720696
0.0695661
0.0670767
0.0646042
0.062151
0.0597181
0.0573091
0.0549242
0.0525659
0.0502372
0.0479393
0.0456737
0.0434429
0.0412475
0.0390903
0.0369718
0.0348944
0.0328598
0.0308696
0.0289262
0.0270311
0.0251872
0.0233983
0.0216663
0.0199975
0.0183957
0.0168669
0.015422
0.0140775
0.0128385
0.0116225
0.0103823
0.0090788
0.00767581
0.00612684
0.00437253
0.0914307
0.0891324
0.0868311
0.0845254
0.082216
0.0799036
0.0775887
0.0752736
0.0729593
0.070647
0.0683388
0.0660369
0.0637426
0.0614574
0.0591836
0.0569232
0.0546783
0.0524504
0.0502421
0.0480557
0.045893
0.0437553
0.0416451
0.0395647
0.0375162
0.0355035
0.033527
0.0315915
0.0297012
0.0278594
0.0260717
0.0243465
0.0226892
0.0211164
0.0196264
0.0181783
0.0167306
0.0152483
0.0136977
0.0120487
0.0102645
0.00830554
0.00612421
0.0929144
0.0908597
0.0887912
0.0867087
0.0846124
0.0825027
0.0803813
0.0782498
0.0761095
0.0739606
0.0718059
0.069646
0.067483
0.065318
0.0631531
0.0609901
0.0588304
0.0566765
0.0545313
0.0523961
0.050274
0.0481667
0.0460777
0.0440089
0.041963
0.039944
0.0379546
0.0359992
0.0340831
0.0322118
0.030394
0.0286368
0.0269409
0.0252904
0.0236611
0.0220233
0.0203471
0.0186065
0.0167735
0.0148164
0.0127015
0.0103903
0.00784305
0.0943217
0.0924823
0.0906211
0.0887369
0.0868304
0.084903
0.0829564
0.0809919
0.0790091
0.0770104
0.0749966
0.0729693
0.0709296
0.0688789
0.0668186
0.0647499
0.0626746
0.0605951
0.0585138
0.0564346
0.0543582
0.0522885
0.0502288
0.0481814
0.0461498
0.0441371
0.0421485
0.0401871
0.03826
0.0363731
0.034527
0.0327162
0.0309299
0.0291517
0.0273603
0.0255327
0.0236451
0.0216734
0.0195892
0.0173615
0.0149576
0.0123396
0.00947205
0.0956373
0.0939877
0.0923102
0.0906025
0.0888656
0.0871005
0.0853104
0.083496
0.0816573
0.0797949
0.0779098
0.0760048
0.07408
0.0721364
0.0701748
0.0681971
0.0662049
0.0641978
0.0621811
0.0601582
0.0581307
0.0561025
0.0540768
0.0520566
0.0500459
0.0480482
0.0460665
0.0441033
0.0421614
0.0402413
0.0383404
0.0364492
0.034557
0.0326475
0.0307034
0.0287036
0.0266284
0.0244525
0.0221474
0.0196827
0.0170251
0.0141383
0.0109878
0.0968507
0.0953662
0.0938527
0.0923026
0.0907151
0.0890932
0.0874429
0.0857646
0.0840568
0.0823178
0.0805479
0.0787544
0.0769373
0.0750938
0.0732231
0.0713329
0.0694214
0.0674858
0.06553
0.0635622
0.0615841
0.0595978
0.0576066
0.0556138
0.0536246
0.0516391
0.0496618
0.0476888
0.0457178
0.0437492
0.0417815
0.0398071
0.0378135
0.0357853
0.0337053
0.0315547
0.0293143
0.0269594
0.0244619
0.0217903
0.0189109
0.015787
0.0123851
0.0979589
0.0966079
0.0952452
0.0938374
0.0923837
0.0908831
0.0893559
0.0878018
0.0862106
0.0845884
0.0829167
0.0812218
0.0795034
0.0777575
0.0759656
0.0741545
0.0723244
0.0704623
0.068557
0.0666401
0.0647092
0.0627644
0.0608061
0.058834
0.0568661
0.0548794
0.0528988
0.0509159
0.0489186
0.0468906
0.0448558
0.0428015
0.0407167
0.0385872
0.0363923
0.0341093
0.0317255
0.029214
0.0265535
0.0236972
0.0206219
0.0172983
0.013673
0.000547221
0.000543433
0.000763514
0.000971368
0.001169
0.00136022
0.00154911
0.00174138
0.00194455
0.0021687
0.00242683
0.00272985
0.00307532
0.00345896
0.00387659
0.0043268
0.00480874
0.00532203
0.00586738
0.00644506
0.00705557
0.0076995
0.0083777
0.00909056
0.00983906
0.0106235
0.0114447
0.0123029
0.0131984
0.0141315
0.0151024
0.0161109
0.0171561
0.0182378
0.0193545
0.020505
0.0216873
0.0228987
0.0241363
0.0253971
0.0266772
0.0279743
0.0292886
0.00131393
0.000784051
0.000941424
0.0011568
0.00136702
0.00157524
0.00178886
0.00201695
0.00226924
0.00255481
0.00288184
0.00325556
0.00366621
0.00410864
0.00458083
0.00508176
0.00561096
0.00616835
0.00675385
0.00736778
0.00801077
0.00868248
0.00938389
0.0101151
0.0108763
0.0116681
0.0124904
0.0133434
0.0142271
0.0151416
0.0160864
0.0170615
0.0180662
0.0190995
0.0201603
0.0212472
0.0223588
0.0234928
0.024647
0.0258196
0.0270083
0.0282119
0.0294292
0.00243747
0.00116916
0.00111306
0.00133
0.00155808
0.00179273
0.00204351
0.00232036
0.00263111
0.00298043
0.0033717
0.00380695
0.0042741
0.00476927
0.00529089
0.00583822
0.00641094
0.00700863
0.00763105
0.00827829
0.00895074
0.00964788
0.01037
0.0111171
0.011889
0.0126861
0.0135079
0.0143545
0.0152256
0.0161209
0.01704
0.0179823
0.0189473
0.0199337
0.0209409
0.0219673
0.0230116
0.0240725
0.0251482
0.0262377
0.0273401
0.0284551
0.0295853
0.00372714
0.00173969
0.00129202
0.00149018
0.00174132
0.00201029
0.00230618
0.00263668
0.00300556
0.00341356
0.00386227
0.00435064
0.00486721
0.00540902
0.00597477
0.00656369
0.0071751
0.0078087
0.00846399
0.00914061
0.00983863
0.0105574
0.011297
0.0120574
0.0128376
0.0136378
0.014458
0.0152973
0.0161554
0.0170319
0.0179263
0.0188378
0.0197656
0.0207087
0.0216665
0.0226379
0.0236215
0.0246164
0.0256217
0.0266367
0.027661
0.0286944
0.0297385
0.00505026
0.00246183
0.00149977
0.00164159
0.00191926
0.0022277
0.00257154
0.0029547
0.00337695
0.00383708
0.00433741
0.00487241
0.00543311
0.00601663
0.00662187
0.00724804
0.00789402
0.00855947
0.00924377
0.00994612
0.0106665
0.0114042
0.0121586
0.0129296
0.0137164
0.0145188
0.015336
0.0161678
0.0170134
0.0178721
0.0187433
0.0196262
0.0205201
0.0214242
0.0223375
0.0232594
0.0241889
0.025125
0.0260674
0.0270154
0.0279679
0.0289227
0.0298722
0.00633642
0.00326692
0.00175099
0.00178777
0.00209279
0.00244266
0.0028338
0.00326603
0.00373633
0.00424298
0.00478968
0.00536641
0.00596656
0.00658775
0.00722869
0.00788804
0.00856518
0.00925911
0.00996908
0.0106945
0.0114344
0.0121884
0.0129558
0.0137358
0.0145276
0.0153311
0.0161454
0.0169696
0.0178032
0.0186454
0.0194954
0.0203524
0.0212158
0.0220846
0.0229583
0.023836
0.0247171
0.0256011
0.0264871
0.0273745
0.0282621
0.0291482
0.0300317
0.00755368
0.00409341
0.00204545
0.0019324
0.00226322
0.00265384
0.00308909
0.00356559
0.00407898
0.00462797
0.00521559
0.00582986
0.00646578
0.00712094
0.00779412
0.00848383
0.00918893
0.00990869
0.010642
0.0113879
0.0121456
0.0129139
0.0136923
0.01448
0.015276
0.0160799
0.0168914
0.0177089
0.0185315
0.0193584
0.0201891
0.0210227
0.0218584
0.0226956
0.0235332
0.0243713
0.0252094
0.0260466
0.0268821
0.0277149
0.0285442
0.0293681
0.0301834
0.00868491
0.00490024
0.00238055
0.00207373
0.00241921
0.00284963
0.00332834
0.00384667
0.00439869
0.0049866
0.00561221
0.0062621
0.00693141
0.007619
0.00832266
0.00904085
0.0097724
0.0105163
0.0112713
0.0120355
0.0128081
0.0135893
0.0143771
0.0151701
0.0159688
0.0167731
0.0175835
0.0183951
0.0192064
0.0200191
0.0208319
0.0216437
0.0224535
0.0232608
0.0240655
0.0248677
0.0256676
0.0264627
0.0272519
0.0280352
0.0288122
0.0295807
0.0303373
0.00972883
0.00564378
0.00266943
0.00221206
0.00262203
0.00310003
0.00360789
0.00414376
0.00472966
0.00537243
0.00604003
0.00671815
0.00742043
0.00813798
0.00886721
0.00960935
0.0103621
0.0111246
0.0118969
0.0126708
0.0134483
0.0142406
0.0150303
0.0158199
0.016618
0.0174249
0.0182436
0.0190442
0.0198382
0.0206387
0.0214333
0.0222222
0.0230052
0.0237813
0.0245538
0.0253227
0.0260917
0.0268475
0.0275921
0.028329
0.0290595
0.0297806
0.0304868
0.000302821
0.0011332
0.00237348
0.00361271
0.00479373
0.00591471
0.00698125
0.00799939
0.00897511
0.00991506
0.0108272
0.0117243
0.012623
0.0135384
0.0144769
0.0154346
0.0164006
0.0173749
0.0184221
0.0195608
0.020769
0.022029
0.0233278
0.0246596
0.0260201
0.0274058
0.0288138
0.030242
0.0316887
0.0331522
0.0346319
0.0361261
0.0376351
0.0391576
0.0406933
0.0422416
0.0438023
0.0453754
0.0469614
0.0485608
0.0501752
0.0518067
0.0534581
0.000225346
0.000786657
0.00178901
0.00281771
0.00377167
0.00468621
0.005583
0.00647114
0.00735199
0.00822633
0.00909568
0.00996313
0.0108336
0.0117132
0.0126073
0.0135188
0.0144488
0.0154034
0.016402
0.0174563
0.0185598
0.0196954
0.0208741
0.022148
0.0234957
0.0248952
0.0263346
0.0278066
0.0293053
0.0308269
0.0323677
0.0339256
0.035499
0.0370866
0.0386872
0.0403001
0.0419246
0.0435609
0.0452091
0.0468693
0.0485434
0.0502333
0.0519421
0.000110885
0.000508911
0.00119229
0.0020812
0.00314777
0.0041577
0.00509186
0.00596767
0.00680282
0.00761075
0.00840178
0.00918486
0.00996778
0.0107578
0.0115617
0.0123859
0.0132365
0.0141199
0.0150436
0.0160139
0.0170331
0.0180992
0.0192158
0.0203918
0.0216164
0.0228856
0.0242519
0.0256949
0.027192
0.0287305
0.0303009
0.0318968
0.0335136
0.0351484
0.0367982
0.0384615
0.0401374
0.0418253
0.0435244
0.0452354
0.0469595
0.0486982
0.0504546
0.00012764
0.000434628
0.00101287
0.00176205
0.00268688
0.00370682
0.00469473
0.00562916
0.00651293
0.00735112
0.0081499
0.00891661
0.00965998
0.0103898
0.0111166
0.011851
0.0126036
0.0133846
0.0142032
0.0150675
0.0159838
0.0169562
0.0179873
0.0190772
0.0202234
0.0214245
0.0226874
0.0240019
0.0253915
0.0268747
0.0284239
0.0300213
0.0316549
0.0333161
0.0349994
0.0367009
0.0384178
0.040148
0.0418907
0.0436461
0.0454143
0.0471967
0.0489963
0.000114036
0.000392513
0.000911235
0.00158049
0.00240225
0.00336765
0.00437323
0.00534824
0.00627753
0.00716133
0.00800228
0.00880289
0.0095664
0.0102979
0.0110047
0.0116965
0.0123846
0.0130818
0.0138012
0.0145554
0.0153561
0.0162126
0.0171318
0.0181169
0.019169
0.0202872
0.021469
0.0227105
0.0240141
0.0253779
0.0268128
0.0283469
0.0299522
0.0316086
0.0333025
0.0350248
0.0367694
0.038532
0.0403103
0.0421029
0.0439093
0.045731
0.0475696
0.000117489
0.000370871
0.000857464
0.00148075
0.00224223
0.00314231
0.00413202
0.00512639
0.00608911
0.00701118
0.00789216
0.00873282
0.00953392
0.0102967
0.0110238
0.0117199
0.0123926
0.0130518
0.0137101
0.0143818
0.0150821
0.0158254
0.0166247
0.0174895
0.0184264
0.0194382
0.0205244
0.0216824
0.0229088
0.0241991
0.0255526
0.0269704
0.0284694
0.0300666
0.0317335
0.0334504
0.035204
0.0369851
0.0387882
0.0406095
0.0424477
0.0443032
0.0461776
0.00011727
0.000354902
0.000818752
0.00141038
0.00213017
0.0029795
0.00394095
0.00494281
0.0059319
0.00688785
0.00780515
0.00868321
0.00952206
0.0103217
0.0110825
0.0118059
0.0124948
0.013155
0.0137947
0.0144254
0.0150614
0.0157187
0.016414
0.0171627
0.017978
0.0188691
0.0198411
0.0208953
0.0220294
0.0232393
0.02452
0.0258667
0.0272794
0.0287596
0.0303387
0.0320078
0.0337408
0.0355199
0.037333
0.0391722
0.0410338
0.0429156
0.0448189
0.000118967
0.000343649
0.000791581
0.00136028
0.00204963
0.00286102
0.00378941
0.00478658
0.00579297
0.00677738
0.00772777
0.00864088
0.00951589
0.0103521
0.0111492
0.0119068
0.0126254
0.0133075
0.0139572
0.0145816
0.0151911
0.0157994
0.0164226
0.0170787
0.0177851
0.0185576
0.0194082
0.0203444
0.021369
0.022481
0.023676
0.0249483
0.0262919
0.0277024
0.0291842
0.0307449
0.0324117
0.0341569
0.0359578
0.0377996
0.0396729
0.0415727
0.0434965
0.000119524
0.000334079
0.000768986
0.00131929
0.00198429
0.00276528
0.00366172
0.00464572
0.0056614
0.00666896
0.00764932
0.00859532
0.00950472
0.0103764
0.0112092
0.0120026
0.0127556
0.0134685
0.014143
0.0147825
0.0153933
0.0159849
0.0165705
0.0171661
0.0177904
0.0184622
0.0191993
0.0200159
0.0209218
0.0219216
0.0230149
0.024198
0.0254645
0.0268074
0.0282218
0.0297055
0.0312649
0.032928
0.0346832
0.0365047
0.0383743
0.0402826
0.0422299
0.00011958
0.000325724
0.000749651
0.00128435
0.00192898
0.00268444
0.00355187
0.00451669
0.00553326
0.0065573
0.00756324
0.00853928
0.00948092
0.0103863
0.0112539
0.0120826
0.0128712
0.0136184
0.0143243
0.0149902
0.0156191
0.0162167
0.0167922
0.0173582
0.0179309
0.0185291
0.019173
0.0198818
0.0206716
0.0215537
0.0225343
0.023614
0.0247891
0.0260533
0.0273989
0.0288193
0.0303105
0.0318786
0.0335416
0.035308
0.0371502
0.0390491
0.0409928
0.000118858
0.000317986
0.000732015
0.00125284
0.00187943
0.00261243
0.00345343
0.00439583
0.00540609
0.00643989
0.00746637
0.00846897
0.0094403
0.0103773
0.011278
0.0121409
0.0129645
0.0137469
0.014487
0.0151846
0.0158407
0.0164582
0.0170426
0.0176027
0.0181513
0.0187043
0.0192814
0.0199033
0.0205904
0.0213601
0.0222254
0.0231932
0.0242649
0.0254371
0.0267031
0.0280547
0.0294845
0.0309883
0.0325686
0.0342391
0.03602
0.0378861
0.0398159
0.000117595
0.000310804
0.000715741
0.00122372
0.00183382
0.00254638
0.00336326
0.00428195
0.00527983
0.0063168
0.00735829
0.00838338
0.0093814
0.0103475
0.0112792
0.0121746
0.0130317
0.0138487
0.0146236
0.0153553
0.0160432
0.0166883
0.0172935
0.0178643
0.0184095
0.018942
0.0194782
0.0200381
0.0206432
0.0213147
0.0220712
0.0229265
0.0238881
0.0249579
0.0261325
0.0274046
0.0287661
0.0302095
0.0317289
0.0333249
0.0350112
0.0368111
0.0387041
0.00011572
0.000303923
0.000700164
0.00119609
0.00179076
0.00248451
0.00327897
0.00417391
0.00515508
0.00618892
0.00723991
0.00828307
0.00930434
0.0102968
0.011257
0.0121827
0.0130717
0.0139218
0.0147309
0.015497
0.0162186
0.0168954
0.0175282
0.0181201
0.0186768
0.0192074
0.019725
0.0202467
0.020793
0.0213861
0.022048
0.0227978
0.0236498
0.0246119
0.025686
0.0268683
0.0281518
0.0295277
0.0309876
0.0325256
0.0341415
0.0358489
0.0376744
0.000113165
0.000297336
0.000685192
0.0011697
0.00174974
0.00242575
0.00319927
0.00407094
0.00503256
0.00605785
0.00711275
0.00816945
0.0092105
0.0102265
0.0112126
0.0121662
0.0130849
0.0139663
0.0148082
0.0156079
0.0163635
0.0170736
0.0177378
0.018357
0.0189346
0.0194766
0.0199927
0.0204966
0.0210061
0.0215423
0.0221281
0.022786
0.0235355
0.0243909
0.02536
0.0264445
0.0276403
0.0289396
0.0303338
0.0318142
0.0333743
0.0350156
0.0367558
0.000109958
0.00029084
0.000670641
0.00114419
0.0017104
0.00236953
0.00312312
0.00397251
0.00491307
0.00592544
0.00697896
0.0080445
0.00910158
0.0101381
0.0111477
0.0121268
0.0130729
0.0139836
0.0148563
0.0156883
0.0164771
0.0172207
0.0179177
0.0185676
0.019172
0.0197343
0.0202613
0.0207632
0.0212547
0.0217543
0.0222838
0.022867
0.0235265
0.0242819
0.0251471
0.0261298
0.0272307
0.0284452
0.0297655
0.0311824
0.0326875
0.0342774
0.0359609
0.000106355
0.000284514
0.000656647
0.00111973
0.00167274
0.00231582
0.00305036
0.00387827
0.00479728
0.00579365
0.00684106
0.00791081
0.00898007
0.0100341
0.0110646
0.0120669
0.0130382
0.0139759
0.0148774
0.0157398
0.0165605
0.0173367
0.0180666
0.0187487
0.019383
0.0199712
0.0205175
0.0210291
0.0215174
0.0219979
0.0224901
0.0230169
0.0236021
0.0242689
0.0250363
0.0259179
0.0269201
0.0280431
0.0292818
0.0306278
0.0320729
0.0336111
0.0352439
0.000102452
0.000278492
0.000643324
0.00109634
0.00163673
0.00226445
0.00298095
0.00378825
0.00468566
0.00566387
0.00670139
0.007771
0.00884863
0.00991703
0.0109659
0.0119892
0.0129834
0.013946
0.0148741
0.015765
0.0166157
0.0174233
0.0181852
0.0188997
0.0195653
0.0201826
0.0207534
0.0212829
0.0217792
0.0222547
0.022726
0.0232137
0.0237416
0.0243339
0.0250137
0.0257993
0.0267033
0.0277312
0.028882
0.0301502
0.0315285
0.0330103
0.0345961
9.82554e-05
0.000272619
0.000630449
0.0010739
0.00160213
0.00221534
0.0029147
0.00370232
0.00457853
0.00553731
0.00656192
0.0076276
0.00870977
0.00978942
0.010854
0.0118962
0.0129114
0.0138967
0.0148494
0.0157668
0.0166456
0.0174828
0.0182756
0.0190215
0.0197188
0.0203664
0.020965
0.0215176
0.0220298
0.0225111
0.0229749
0.0234392
0.0239259
0.0244592
0.0250639
0.0257624
0.0265724
0.0275049
0.0285642
0.0297489
0.0310535
0.0324725
0.0340044
9.3681e-05
0.000266995
0.000618079
0.00105235
0.00156907
0.00216844
0.0028516
0.00362039
0.00447606
0.00541497
0.00642442
0.00748283
0.00856615
0.00965394
0.0107318
0.0117906
0.0128249
0.0138311
0.0148066
0.0157483
0.0166532
0.0175182
0.0183403
0.0191165
0.0198446
0.0205228
0.0211508
0.0217296
0.0222631
0.0227579
0.0232248
0.0236786
0.0241387
0.0246281
0.0251717
0.0257943
0.0265175
0.0273578
0.0283248
0.0294222
0.0306478
0.0319979
0.0334709
8.87084e-05
0.000261459
0.000606203
0.00103174
0.00153754
0.00212366
0.00279132
0.00354241
0.00437832
0.00529724
0.00628996
0.00733838
0.00841977
0.00951295
0.0106016
0.0116751
0.0127267
0.0137522
0.0147485
0.0157128
0.016642
0.0175329
0.0183824
0.0191874
0.0199452
0.0206535
0.0213111
0.0219178
0.0224758
0.0229896
0.0234673
0.0239209
0.0243669
0.0248262
0.0253226
0.0258818
0.026528
0.0272822
0.0281592
0.0291676
0.0303101
0.031586
0.0329956
8.35502e-05
0.000256142
0.0005949
0.00101217
0.00150757
0.00208115
0.00273402
0.00346821
0.00428533
0.00518467
0.00615971
0.00719595
0.00827265
0.00936848
0.0104657
0.011552
0.0126193
0.0136626
0.0146782
0.0156634
0.0166152
0.0175303
0.0184054
0.0192374
0.0200234
0.0207608
0.0214475
0.0220827
0.022667
0.0232032
0.0236972
0.0241584
0.0246005
0.0250415
0.0255038
0.0260123
0.0265927
0.0272689
0.0280605
0.0289811
0.0300385
0.0312361
0.0325763
7.82737e-05
0.000251131
0.000584266
0.00099362
0.00147913
0.00204078
0.00267969
0.00339777
0.00419688
0.00507724
0.00603442
0.00705689
0.00812655
0.00922256
0.0103263
0.0114236
0.012505
0.0135646
0.0145984
0.0156031
0.0165758
0.0175135
0.0184125
0.0192699
0.0200826
0.0208476
0.0215626
0.0222259
0.0228371
0.0233978
0.0239117
0.0243862
0.0248321
0.0252649
0.0257046
0.0261745
0.0267006
0.0273085
0.0280215
0.0288578
0.0298303
0.0309469
0.0322139
7.29111e-05
0.000246318
0.000574119
0.000976016
0.00145206
0.00200248
0.00262821
0.00333102
0.00411298
0.00497497
0.00591428
0.00692207
0.00798273
0.0090767
0.0101848
0.0112915
0.0123858
0.0134606
0.0145113
0.0155344
0.0165269
0.0174855
0.0184071
0.0192882
0.0201259
0.0209171
0.021659
0.0223497
0.0229878
0.0235738
0.02411
0.0246015
0.0250571
0.0254896
0.0259164
0.0263588
0.0268419
0.0273918
0.0280343
0.0287917
0.0296814
0.0307165
0.0319075
6.7431e-05
0.000241751
0.000564439
0.000959245
0.00142642
0.00196622
0.0025795
0.00326789
0.00403356
0.00487785
0.00579949
0.00679198
0.00784225
0.00893225
0.0100428
0.0111573
0.0122633
0.0133524
0.0144192
0.0154596
0.0164707
0.0174492
0.0183919
0.0192955
0.0201567
0.0209725
0.0217401
0.0224569
0.0231213
0.0237326
0.0242921
0.0248033
0.0252728
0.0257111
0.0261328
0.0265573
0.0270078
0.0275102
0.0280913
0.0287765
0.0295876
0.0305424
0.0316564
6.18621e-05
0.000237303
0.000555221
0.0009433
0.0014021
0.00193178
0.00253318
0.00320797
0.00395828
0.00478566
0.00568994
0.00666674
0.00770549
0.00878998
0.0099013
0.0110222
0.0121388
0.0132414
0.0143235
0.0153807
0.0164095
0.0174069
0.0183697
0.0192943
0.0201778
0.0210169
0.0218088
0.0225505
0.0232402
0.0238765
0.0244597
0.0249919
0.0254781
0.0259266
0.0263496
0.0267641
0.0271912
0.0276558
0.0281849
0.0288057
0.0295435
0.0304203
0.0314554
5.64366e-05
0.000233052
0.000546485
0.00092821
0.00137907
0.00189919
0.0024893
0.00315114
0.00388679
0.00469813
0.0055856
0.00654658
0.00757286
0.0086503
0.00976097
0.0108869
0.0120132
0.0131286
0.0142255
0.015299
0.016345
0.0173605
0.0183425
0.0192874
0.020192
0.0210532
0.021868
0.0226335
0.0233473
0.0240078
0.0246145
0.0251684
0.025673
0.0261348
0.0265638
0.0269748
0.0273864
0.0278222
0.0283083
0.0288728
0.0295435
0.0303462
0.0313047
5.12643e-05
0.000229074
0.00053831
0.000913947
0.00135726
0.00186825
0.00244771
0.00309727
0.003819
0.00461502
0.00548632
0.00643147
0.00744462
0.00851376
0.00962227
0.0107521
0.011887
0.0130145
0.014126
0.0152154
0.0162784
0.0173117
0.0183121
0.0192765
0.0202014
0.0210837
0.0219204
0.0227085
0.0234455
0.0241293
0.0247589
0.0253345
0.0258584
0.0263356
0.0267742
0.0271866
0.0275894
0.0280039
0.0284555
0.0289719
0.0295823
0.0303143
0.0311914
4.63798e-05
0.000225258
0.000530484
0.000900371
0.00133644
0.00183884
0.00240821
0.00304606
0.00375453
0.00453585
0.00539153
0.00632114
0.00732065
0.00838037
0.00948528
0.0106176
0.0117602
0.0128994
0.0140251
0.0151303
0.0162102
0.0172611
0.0182799
0.0192632
0.0202078
0.0211104
0.0219682
0.022778
0.0235372
0.0242434
0.0248952
0.0254922
0.0260359
0.0265296
0.0269802
0.0273979
0.0277971
0.0281971
0.0286216
0.0290977
0.0296548
0.0303227
0.0311302
4.17727e-05
0.000221596
0.00052295
0.000887344
0.00131655
0.00181077
0.00237057
0.00299732
0.0036931
0.00446029
0.00530082
0.00621516
0.00720076
0.00825006
0.00934996
0.0104834
0.0116328
0.0127831
0.0139229
0.0150439
0.0161407
0.0172092
0.0182462
0.0192483
0.0202123
0.0211348
0.022013
0.0228438
0.0236243
0.0243522
0.0250256
0.0256437
0.026207
0.0267182
0.0271823
0.027608
0.0280079
0.0283989
0.0288029
0.0292458
0.0297567
0.0303661
0.0311026
3.74481e-05
0.000217989
0.000515709
0.000874838
0.00129751
0.00178384
0.00233442
0.0029506
0.00363434
0.00438798
0.00521375
0.00611296
0.00708439
0.00812252
0.00921619
0.0103493
0.0115044
0.0126653
0.0138187
0.0149557
0.0160697
0.017156
0.0182113
0.0192322
0.0202154
0.0211578
0.0220561
0.0229074
0.0237088
0.0244577
0.0251521
0.0257908
0.0263737
0.0269026
0.0273814
0.0278172
0.0282208
0.0286073
0.0289963
0.0294125
0.0298841
0.030442
0.0311181
3.35358e-05
0.000214484
0.000508761
0.00086286
0.00127925
0.00175802
0.00229969
0.00290566
0.00357779
0.00431847
0.00513
0.00601428
0.00697126
0.00799729
0.00908338
0.010215
0.0113744
0.0125449
0.0137119
0.0148648
0.0159962
0.0171008
0.0181748
0.0192148
0.0202174
0.0211795
0.0220979
0.0229696
0.0237915
0.0245612
0.0252762
0.0259352