/*--------------------------------*- C++ -*----------------------------------*\
| =========                 |                                                 |
| \\      /  F ield         | OpenFOAM: The Open Source CFD Toolbox           |
|  \\    /   O peration     | Version:  2.3.0                                 |
|   \\  /    A nd           | Web:      www.OpenFOAM.org                      |
|    \\/     M anipulation  |                                                 |
\*---------------------------------------------------------------------------*/
FoamFile
{
    version     2.0;
    format      ascii;
    class       volScalarField;
    location    "3000";
    object      nut;
}
// * * * * * * * * * * * * * * * * * * * * * * * * * * * * * * * * * * * * * //

dimensions      [0 2 -1 0 0 0 0];

internalField   nonuniform List<scalar> 
14767
(
0.0490834
0.0460081
0.0430553
0.0402622
0.0376549
0.0352677
0.033123
0.0311363
0.029201
0.0273492
0.0255998
0.0239542
0.0224061
0.0209445
0.0195587
0.0182397
0.0169789
0.0157715
0.0146154
0.0135092
0.0124534
0.0114499
0.010524
0.00988868
0.0531556
0.0505799
0.0480997
0.0457249
0.0434615
0.0413116
0.0392795
0.0373617
0.0355548
0.0338612
0.0322847
0.03083
0.0295016
0.0283021
0.0272374
0.0263105
0.0255275
0.0248931
0.0244121
0.024089
0.0239263
0.0239248
0.0240855
0.0244035
0.0568175
0.0546674
0.0526027
0.050628
0.0487453
0.0469567
0.0452644
0.0436686
0.0421719
0.0407763
0.0394838
0.0382984
0.0372236
0.0362634
0.0354211
0.0347018
0.0341083
0.0336451
0.0333154
0.0331198
0.0330591
0.0331306
0.0333284
0.033646
0.0600791
0.0582791
0.0565535
0.0549034
0.05333
0.0518349
0.0504189
0.0490836
0.0478309
0.046662
0.0455801
0.0445888
0.0436902
0.0428886
0.0421884
0.0415932
0.041106
0.040731
0.0404706
0.0403262
0.0402986
0.0403858
0.0405845
0.0408896
0.0629736
0.0614559
0.0600031
0.0586119
0.057283
0.0560172
0.054816
0.0536807
0.0526125
0.0516134
0.0506866
0.049834
0.0490606
0.0483689
0.0477648
0.0472507
0.0468318
0.0465112
0.0462922
0.0461769
0.046166
0.0462598
0.0464559
0.0467506
0.0655223
0.0642424
0.0630108
0.0618266
0.0606909
0.0596046
0.05857
0.057589
0.0566624
0.0557926
0.0549824
0.0542339
0.0535514
0.0529399
0.0524028
0.0519456
0.0515725
0.0512874
0.0510946
0.0509967
0.0509955
0.051091
0.0512832
0.0515686
0.0677756
0.0666877
0.0656345
0.0646164
0.0636343
0.0626899
0.0617853
0.0609238
0.0601077
0.0593385
0.0586185
0.0579503
0.0573377
0.0567851
0.056298
0.0558814
0.0555405
0.0552803
0.0551046
0.0550175
0.0550213
0.0551172
0.0553051
0.0555833
0.0697676
0.068835
0.0679256
0.0670424
0.0661846
0.0653533
0.0645511
0.0637829
0.0630526
0.0623629
0.0617153
0.0611111
0.0605538
0.0600475
0.0595983
0.0592126
0.0588958
0.0586524
0.0584874
0.0584069
0.0584133
0.0585083
0.0586924
0.0589643
0.0715262
0.0707248
0.0699291
0.069156
0.0684014
0.067662
0.0669435
0.0662454
0.0655817
0.0649543
0.0643654
0.0638154
0.063304
0.0628383
0.0624159
0.0620543
0.0617569
0.0615282
0.0613671
0.0612894
0.0612962
0.0613897
0.0615707
0.0618377
0.0730855
0.0724029
0.0716827
0.0709991
0.0703348
0.0696679
0.0690265
0.0683757
0.0677609
0.0671798
0.0666337
0.0661358
0.0656625
0.0652471
0.0648383
0.0644956
0.0642107
0.064002
0.0638376
0.063761
0.063765
0.0638551
0.0640331
0.0642972
0.0109577
0.0131284
0.0146233
0.0161071
0.0177229
0.0195
0.0214322
0.0235077
0.0257159
0.0280467
0.0304908
0.03304
0.0356881
0.0384287
0.0412562
0.0441654
0.0471502
0.0502045
0.0533217
0.0564946
0.0597153
0.0629753
0.0662657
0.0695802
0.024863
0.0254783
0.026273
0.0272496
0.0284048
0.029732
0.0312221
0.0328634
0.0346429
0.0365492
0.0385706
0.0406961
0.0429167
0.045224
0.0476104
0.0500698
0.0525962
0.055184
0.0578279
0.0605226
0.0632631
0.0660443
0.0688605
0.0717085
0.0340723
0.0346202
0.0353096
0.0361421
0.0371169
0.0382295
0.0394745
0.0408443
0.0423302
0.043924
0.0456171
0.0474006
0.0492676
0.0512109
0.0532241
0.0553017
0.0574389
0.0596309
0.0618736
0.0641628
0.066495
0.0688674
0.071277
0.0737235
0.0412949
0.0418079
0.0424408
0.0431933
0.0440642
0.0450499
0.0461448
0.0473428
0.0486372
0.0500207
0.0514861
0.0530266
0.0546355
0.0563077
0.0580373
0.0598197
0.0616511
0.0635279
0.0654469
0.0674053
0.0694004
0.0714303
0.0734926
0.0755786
0.0471403
0.0476291
0.048224
0.0489234
0.0497251
0.0506251
0.0516176
0.0526968
0.0538561
0.0550888
0.0563886
0.0577494
0.0591655
0.0606318
0.062144
0.0636977
0.0652899
0.0669172
0.0685773
0.0702683
0.0719882
0.0737364
0.0755106
0.0772951
0.051945
0.0524151
0.0529817
0.0536425
0.0543943
0.0552321
0.05615
0.057142
0.0582014
0.0593217
0.0604972
0.0617224
0.0629916
0.0643005
0.0656447
0.0670205
0.0684248
0.0698547
0.071308
0.0727833
0.0742796
0.075797
0.0773361
0.0788807
0.0559488
0.0564035
0.0569482
0.0575797
0.0582937
0.0590846
0.0599461
0.060871
0.0618528
0.0628859
0.0639648
0.0650843
0.0662392
0.0674249
0.0686376
0.0698732
0.0711286
0.072401
0.0736879
0.0749883
0.0763017
0.0776281
0.078969
0.0803377
0.0593214
0.0597633
0.0602898
0.0608983
0.0615839
0.0623389
0.0631561
0.0640279
0.0649475
0.0659104
0.0669118
0.0679471
0.0690111
0.0700987
0.0712067
0.0723307
0.0734669
0.0746124
0.0757643
0.0769217
0.0780842
0.0792536
0.08043
0.0816252
0.0621871
0.0626188
0.0631289
0.0637187
0.0643839
0.0651126
0.0658946
0.066722
0.0675891
0.0684944
0.0694301
0.0703986
0.0713892
0.0723972
0.0734219
0.0744554
0.0754952
0.0765377
0.0775793
0.0786175
0.0796541
0.0806944
0.0817341
0.0827664
0.0646367
0.0650607
0.0655528
0.0661279
0.0667804
0.0674853
0.0682364
0.0690253
0.0698452
0.0707006
0.0715704
0.0724918
0.0734212
0.0743668
0.0753279
0.0762856
0.0772491
0.0782076
0.0791588
0.0800949
0.0810197
0.0819583
0.0829188
0.0838338
0.0795156
0.0737409
0.0682
0.062865
0.0577351
0.0528157
0.0481145
0.04364
0.0393988
0.0353966
0.031637
0.0281215
0.0248473
0.0218135
0.0190187
0.0164611
0.014135
0.0120315
0.0101523
0.00853629
0.00728959
0.00608597
0.00479901
0.00331521
0.0830958
0.0780524
0.073191
0.0684743
0.0638981
0.0594665
0.0551874
0.05107
0.0471242
0.0433584
0.0397783
0.0363892
0.0331947
0.030198
0.0274092
0.0248642
0.0226056
0.020555
0.0185606
0.0165438
0.0144697
0.0122915
0.00994479
0.00734461
0.086858
0.082549
0.0783529
0.0742481
0.0702331
0.0663125
0.0624941
0.0587888
0.0552081
0.0517655
0.048477
0.0453576
0.0424126
0.0396229
0.0369508
0.0343544
0.0317979
0.0292459
0.0266543
0.0239762
0.0211633
0.0181702
0.0149488
0.0114472
0.0908138
0.0871586
0.0835751
0.0800428
0.0765605
0.0731319
0.0697641
0.0664645
0.0632408
0.0600972
0.0570327
0.0540414
0.0511143
0.0482346
0.0453789
0.0425171
0.0396198
0.0366537
0.033585
0.0303734
0.0269773
0.0233531
0.0194545
0.0152432
0.0948237
0.0917172
0.0886388
0.0855688
0.0825054
0.0794509
0.0764092
0.0733836
0.0703771
0.0673906
0.0644186
0.0614524
0.058483
0.055495
0.0524677
0.0493806
0.0462058
0.0429132
0.0394699
0.0358387
0.0319785
0.0278474
0.0234023
0.0186033
0.0986464
0.0959483
0.0932407
0.0905075
0.0877478
0.0849616
0.0821493
0.079313
0.0764529
0.0735677
0.0706505
0.0676929
0.0646835
0.061608
0.0584494
0.0551862
0.0517935
0.0482421
0.0444988
0.0405265
0.036286
0.0317347
0.0268294
0.0215295
0.102109
0.0997123
0.0972809
0.0948001
0.0922693
0.0896849
0.0870458
0.0843516
0.0816025
0.0787957
0.075923
0.072974
0.0699364
0.0667966
0.0635374
0.060138
0.0565733
0.0528137
0.0488252
0.0445704
0.0400104
0.0351015
0.0298002
0.0240655
0.105139
0.102996
0.100783
0.0985021
0.0961516
0.0937265
0.0912238
0.0886427
0.0859825
0.0832419
0.0804127
0.0774771
0.0744217
0.0712336
0.0678965
0.0643904
0.0606895
0.0567609
0.0525689
0.0480764
0.043244
0.0380275
0.0323829
0.0262673
0.107808
0.105847
0.103812
0.101694
0.0994909
0.0971944
0.0948011
0.092312
0.0897246
0.0870407
0.0842585
0.0813463
0.0782797
0.0750515
0.0716502
0.0680594
0.0642535
0.0601912
0.0558282
0.0511299
0.0460636
0.0405836
0.0346424
0.0281943
0.110102
0.108304
0.106424
0.104453
0.102371
0.10018
0.0978721
0.0954597
0.0929318
0.0902881
0.0875649
0.0847001
0.0816241
0.0783538
0.0748929
0.0712284
0.06735
0.0631947
0.0586809
0.0537943
0.0485276
0.042826
0.0366344
0.0299184
0.00163391
0.000878717
0.00112358
0.00141582
0.00169927
0.00199035
0.00231139
0.00269422
0.00318001
0.00379528
0.00451449
0.00533423
0.00625694
0.00728851
0.00843651
0.00970829
0.0111114
0.0126546
0.0143467
0.016198
0.0182187
0.0204202
0.0228132
0.0253996
0.00441753
0.00196789
0.00145108
0.00172047
0.00203887
0.00239225
0.00280603
0.00330367
0.00390217
0.00461136
0.00540701
0.00628915
0.00726105
0.00832767
0.00949464
0.0107674
0.0121519
0.0136556
0.0152861
0.017052
0.0189623
0.0210259
0.0232508
0.0256454
0.00760129
0.00377498
0.00194112
0.00203049
0.00240747
0.00284946
0.00336878
0.00397367
0.00466884
0.00545751
0.00631968
0.00725665
0.00827109
0.00936665
0.010547
0.0118162
0.0131791
0.0146417
0.0162105
0.0178923
0.0196941
0.021623
0.0236859
0.0258901
0.010648
0.00584564
0.00266923
0.00235709
0.00279735
0.0033347
0.00395226
0.0046482
0.005429
0.00628546
0.00720535
0.00818965
0.00924011
0.0103587
0.0115476
0.0128104
0.014151
0.0155735
0.0170831
0.0186852
0.0203851
0.0221881
0.0240984
0.0261157
0.0133826
0.0078463
0.0035712
0.00271188
0.00319851
0.00382634
0.00453063
0.00530641
0.006161
0.00707645
0.00804678
0.00907194
0.0101528
0.0112897
0.0124844
0.0137393
0.0150573
0.0164416
0.0178959
0.019424
0.0210297
0.0227171
0.0244913
0.0263635
0.0157739
0.00964457
0.00453179
0.00309551
0.00360017
0.00430947
0.00509021
0.00593773
0.00685473
0.00782233
0.00883692
0.00989784
0.0110041
0.012156
0.0133543
0.0146008
0.015897
0.0172453
0.018648
0.0201079
0.0216279
0.0232115
0.024864
0.026594
0.0178431
0.0112138
0.00546131
0.00349766
0.00399328
0.00477361
0.00562065
0.00653445
0.00750565
0.00851977
0.00957354
0.0106651
0.0117933
0.0129575
0.0141582
0.0153958
0.0166714
0.0179861
0.0193416
0.0207394
0.0221817
0.0236717
0.0252144
0.0268176
0.0196327
0.0125722
0.00631747
0.00390413
0.00437198
0.00521412
0.00612131
0.0070935
0.00811253
0.00916785
0.0102561
0.0113746
0.0125216
0.0136961
0.0148981
0.0161271
0.0173832
0.0186671
0.0199791
0.0213204
0.0226927
0.024098
0.0255389
0.027017
0.0211962
0.0137531
0.00708298
0.00429992
0.00473223
0.00562794
0.00659086
0.00761389
0.0086752
0.00976682
0.0108859
0.0120285
0.013192
0.0143752
0.0155779
0.0167988
0.0180369
0.0192918
0.020563
0.0218519
0.0231605
0.0244889
0.0258376
0.0272084
0.0226165
0.0148367
0.00781217
0.00468828
0.00506925
0.00602274
0.00703425
0.00809427
0.00918991
0.0103243
0.0114797
0.0126394
0.0138117
0.0150027
0.0162085
0.0174205
0.0186398
0.0198612
0.0210845
0.0223211
0.023576
0.0248381
0.026106
0.0273986
0.000341224
0.00117415
0.00249512
0.00407891
0.00568744
0.00728833
0.00889521
0.0105244
0.0121756
0.0138492
0.015548
0.0172776
0.0190472
0.0208694
0.0227579
0.0247248
0.0267732
0.0288991
0.0311392
0.0335468
0.0361165
0.0388388
0.0418911
0.0451755
0.000251015
0.000665905
0.00154698
0.00276233
0.00424457
0.00573278
0.00722538
0.0087142
0.0102126
0.0117372
0.0133026
0.0149137
0.016576
0.0182974
0.0200882
0.0219609
0.0239275
0.0259987
0.0281925
0.0305383
0.0330551
0.0357551
0.0387072
0.0418047
6.62575e-05
0.000398903
0.000955145
0.00174738
0.00280345
0.00414201
0.00579491
0.00755997
0.00928088
0.0109539
0.0125864
0.0141932
0.0157901
0.0173924
0.0190193
0.0206931
0.0224397
0.0242871
0.0262642
0.0284037
0.0307384
0.033296
0.0361074
0.0391368
9.23178e-05
0.000333087
0.000785329
0.00141636
0.00225741
0.00333402
0.00467973
0.00633208
0.00817661
0.0100334
0.0118657
0.0136646
0.0154207
0.0171285
0.0187893
0.0204149
0.0220296
0.0236702
0.0253839
0.0272257
0.0292541
0.0315243
0.0340803
0.0369337
5.21261e-05
0.000291139
0.000679206
0.00121959
0.00194231
0.00286576
0.00401695
0.00542852
0.00713715
0.00908604
0.0110664
0.0130271
0.0149562
0.016842
0.01867
0.0204264
0.022106
0.0237202
0.0253029
0.0269121
0.0286265
0.0305363
0.0327278
0.0352592
5.10782e-05
0.000275061
0.000615529
0.00109862
0.00174168
0.00256534
0.00359199
0.00485168
0.0063795
0.00821265
0.0102491
0.012324
0.0143901
0.0164309
0.0184298
0.0203662
0.0222161
0.0239606
0.0255971
0.0271504
0.0286817
0.0302898
0.0320993
0.0342427
4.42012e-05
0.000269765
0.000567132
0.00100858
0.00159416
0.00234679
0.00328408
0.00443288
0.0058249
0.00749682
0.00947576
0.0116132
0.0137831
0.0159471
0.0180873
0.0201835
0.0222104
0.0241372
0.0259353
0.02759
0.0291178
0.030583
0.0321036
0.0338261
4.19327e-05
0.000264474
0.000532046
0.000942196
0.00148446
0.00218268
0.00305218
0.00411719
0.00540734
0.00695699
0.00880449
0.01093
0.0131647
0.0154245
0.0176795
0.0199097
0.022091
0.0241925
0.0261772
0.0280081
0.0296626
0.0311531
0.0325489
0.0339744
3.94743e-05
0.000260578
0.000504688
0.000890633
0.00139982
0.00205415
0.00287023
0.00386942
0.00507899
0.0065313
0.0082632
0.0103065
0.0125611
0.0148901
0.0172375
0.0195783
0.0218899
0.0241435
0.0263022
0.0283224
0.0301602
0.0317876
0.0332153
0.0345087
3.82804e-05
0.000257208
0.000483773
0.000850207
0.00133298
0.00195226
0.00272556
0.00367179
0.00481647
0.00618993
0.00782743
0.00976759
0.011995
0.0143638
0.0167832
0.0192151
0.021636
0.0240193
0.0263308
0.0285267
0.0305563
0.0323692
0.0339329
0.0352557
3.78269e-05
0.000255029
0.000468516
0.000818265
0.00127983
0.00187087
0.00260971
0.003513
0.00460479
0.00591382
0.00747354
0.00932229
0.011485
0.013863
0.0163346
0.0188412
0.0213537
0.0238472
0.02629
0.0286413
0.0308498
0.0328567
0.034605
0.0360579
3.82483e-05
0.000254178
0.000458702
0.000793232
0.00123754
0.00180588
0.0025168
0.00338527
0.00443384
0.00568989
0.0071855
0.00895761
0.0110428
0.0134024
0.0159061
0.0184728
0.0210629
0.0236501
0.0262057
0.028692
0.0310603
0.0332502
0.0351945
0.0368297
3.91903e-05
0.000254153
0.000453076
0.000773649
0.00120392
0.00175388
0.00244224
0.00328238
0.00429576
0.00550834
0.00695092
0.00865908
0.0106718
0.012992
0.0155094
0.0181228
0.0207787
0.023447
0.0261001
0.0287036
0.0312123
0.0335683
0.0357024
0.0375433
4.06306e-05
0.000254555
0.000449974
0.000758264
0.00117721
0.00171238
0.00238238
0.0031996
0.0041843
0.00536144
0.00676046
0.00841573
0.0103661
0.0126362
0.0151519
0.0178001
0.0205127
0.0232524
0.0259914
0.0286979
0.0313301
0.0338347
0.0361442
0.0381825
4.24414e-05
0.000255163
0.000448293
0.000746116
0.0011559
0.00167935
0.00233407
0.0031326
0.00409391
0.00524205
0.00660542
0.00821706
0.010115
0.0123337
0.014836
0.0175093
0.0202713
0.0230755
0.0258921
0.0286909
0.0314338
0.0340706
0.0365378
0.0387569
4.44386e-05
0.000255732
0.000447203
0.000736184
0.00113849
0.00165231
0.00229442
0.00307751
0.00401969
0.00514406
0.00647798
0.00805355
0.00990793
0.0120791
0.0145601
0.0172503
0.0200555
0.0229197
0.0258085
0.0286923
0.0315358
0.0342928
0.0369039
0.0392953
4.65871e-05
0.000256228
0.000446465
0.000727886
0.00112388
0.00162968
0.00226121
0.00303156
0.00395777
0.00506236
0.0063718
0.00791726
0.00973504
0.0118646
0.014319
0.0170192
0.0198627
0.0227832
0.0257405
0.0287045
0.0316416
0.0345095
0.0372522
0.0397992
4.87924e-05
0.000256639
0.000445919
0.000720858
0.00111135
0.00161025
0.00223274
0.00299217
0.00390488
0.00499254
0.0062812
0.00780124
0.00958788
0.0116809
0.0141064
0.01681
0.0196871
0.0226606
0.0256839
0.0287243
0.0317501
0.0347211
0.0375848
0.0402735
5.10631e-05
0.000256953
0.000445478
0.000714674
0.00110036
0.00159316
0.00220771
0.00295753
0.00385837
0.00493136
0.00620186
0.00769971
0.0094593
0.01152
0.0139158
0.0166168
0.019522
0.0225452
0.0256316
0.0287456
0.0318555
0.0349231
0.0378989
0.040718
5.3327e-05
0.000257233
0.000445144
0.000709099
0.00109041
0.00157774
0.0021851
0.00292633
0.0038165
0.00487629
0.00613064
0.00760866
0.0093441
0.0113758
0.0137418
0.0164341
0.0193616
0.02243
0.0255766
0.0287611
0.031951
0.0351094
0.0381884
0.0411239
5.54205e-05
0.000257401
0.000444731
0.000703964
0.00108122
0.00156343
0.00216416
0.00289739
0.00377779
0.00482548
0.00606498
0.00752487
0.00923825
0.0112434
0.0135804
0.0162582
0.0192013
0.0223102
0.0255134
0.0287653
0.0320316
0.0352762
0.0384536
0.0415047
5.74392e-05
0.000257503
0.000444271
0.000699066
0.00107251
0.00154994
0.00214442
0.00287019
0.0037414
0.00477783
0.00600343
0.00744641
0.00913923
0.0111196
0.0134284
0.016087
0.0190388
0.0221823
0.025438
0.0287538
0.0320926
0.0354182
0.0386852
0.0418309
5.93939e-05
0.000257599
0.000443866
0.000694409
0.00106416
0.00153698
0.00212555
0.00284424
0.00370667
0.00473236
0.00594489
0.00737183
0.00904525
0.0110021
0.0132836
0.0159196
0.018873
0.0220451
0.0253487
0.028725
0.0321332
0.0355367
0.0388915
0.0421402
6.11984e-05
0.000257646
0.000443399
0.000689903
0.00105608
0.00152445
0.00210729
0.00281911
0.00367314
0.00468856
0.00588853
0.0073002
0.0089551
0.0108896
0.0131447
0.0157558
0.0187042
0.0218982
0.0252448
0.0286778
0.0321524
0.0356304
0.0390687
0.0424091
6.28928e-05
0.000257687
0.000442939
0.000685545
0.00104823
0.00151226
0.00208953
0.00279472
0.00364062
0.00464608
0.00583393
0.0072309
0.00886803
0.0107811
0.0130108
0.0155957
0.0185332
0.0217426
0.0251266
0.0286124
0.0321502
0.0357003
0.0392207
0.0426585
6.44642e-05
0.000257721
0.000442455
0.000681325
0.00104057
0.00150038
0.00207224
0.00277096
0.00360896
0.00460475
0.00578085
0.00716361
0.00878358
0.010676
0.0128811
0.0154395
0.0183612
0.0215794
0.0249952
0.0285294
0.0321268
0.0357454
0.0393428
0.0428655
6.59039e-05
0.00025775
0.000441955
0.000677265
0.00103312
0.00148879
0.00205539
0.00274782
0.00357813
0.00456452
0.00572921
0.0070982
0.00870156
0.010574
0.0127553
0.0152872
0.0181894
0.0214103
0.0248522
0.0284302
0.0320837
0.0357681
0.0394405
0.043049
6.7231e-05
0.000257793
0.000441461
0.000673404
0.0010259
0.00147756
0.00203904
0.00272539
0.00354824
0.00452551
0.00567914
0.00703474
0.00862199
0.0104751
0.0126334
0.0151391
0.0180192
0.021237
0.0246993
0.0283164
0.0320225
0.0357698
0.0395151
0.0432065
6.84778e-05
0.00025785
0.000440991
0.000669774
0.00101896
0.00146673
0.00202326
0.00270372
0.00351935
0.00448781
0.00563073
0.00697337
0.00854502
0.0103795
0.0125155
0.0149954
0.0178516
0.0210614
0.0245383
0.0281896
0.0319444
0.035752
0.0395691
0.0433482
6.96791e-05
0.000257949
0.000440592
0.000666437
0.00101234
0.00145634
0.00200811
0.00268291
0.00349162
0.00445161
0.00558421
0.00691435
0.00847097
0.0102874
0.0124019
0.0148567
0.017688
0.0208855
0.0243714
0.0280516
0.0318505
0.0357139
0.0395984
0.0434615
7.0833e-05
0.000258081
0.000440263
0.000663402
0.00100605
0.00144643
0.00199365
0.00266302
0.00346509
0.00441698
0.00553971
0.0068579
0.00840011
0.0101992
0.012293
0.0147236
0.0175296
0.0207113
0.0242012
0.0279048
0.0317426
0.035656
0.0395988
0.043524
7.196e-05
0.000258264
0.00044004
0.000660728
0.00100016
0.00143706
0.00197993
0.00264413
0.00343989
0.00438408
0.00549741
0.00680421
0.00833269
0.0101153
0.0121893
0.0145967
0.0173776
0.0205413
0.0240305
0.0277529
0.031625
0.0355844
0.0395827
0.0435736
7.30575e-05
0.000258491
0.000439926
0.000658415
0.000994673
0.00142827
0.00196701
0.00262631
0.00341607
0.00435293
0.00545735
0.00675337
0.00826886
0.0100359
0.0120912
0.0144765
0.017233
0.0203772
0.0238625
0.0275994
0.0315018
0.0355036
0.0395538
0.0436062
7.41231e-05
0.000258746
0.000439888
0.000656446
0.000989605
0.00142009
0.00195498
0.00260957
0.00339366
0.00432359
0.00541958
0.00670541
0.00820864
0.00996092
0.0119987
0.0143631
0.0170964
0.0202207
0.0236995
0.0274476
0.0313772
0.0354179
0.0395161
0.0436235
7.51853e-05
0.000259036
0.000439945
0.000654795
0.000984937
0.00141253
0.00194386
0.00259393
0.00337266
0.00429605
0.00538409
0.00666034
0.00815199
0.0098904
0.0119116
0.0142564
0.0169677
0.0200722
0.023543
0.0273002
0.0312547
0.0353331
0.0394791
0.0436443
7.62358e-05
0.000259355
0.000440078
0.000653431
0.000980655
0.00140552
0.00193351
0.00257936
0.00335308
0.00427035
0.00535093
0.00661813
0.00809885
0.00982415
0.0118297
0.0141561
0.0168465
0.0199314
0.0233933
0.0271578
0.0311357
0.0352508
0.0394441
0.0436672
7.72814e-05
0.000259697
0.000440283
0.000652315
0.00097672
0.00139903
0.00192393
0.00256586
0.00333491
0.00424646
0.00532006
0.00657875
0.00804918
0.00976211
0.0117529
0.0140618
0.0167322
0.0197978
0.0232495
0.0270196
0.0310193
0.0351698
0.0394096
0.0436884
7.83254e-05
0.000260058
0.000440546
0.000651418
0.000973116
0.00139305
0.00191509
0.00255339
0.00331809
0.00422434
0.00529144
0.00654217
0.00800294
0.00970422
0.011681
0.0139732
0.0166244
0.0196709
0.0231109
0.0268844
0.0309038
0.0350884
0.0393741
0.0437091
7.93655e-05
0.000260431
0.000440853
0.000650695
0.0009698
0.00138753
0.00190691
0.00254186
0.00330255
0.0042039
0.00526498
0.00650832
0.0079601
0.00965046
0.011614
0.0138905
0.0165232
0.0195506
0.0229777
0.0267518
0.0307878
0.0350035
0.039333
0.0437258
8.03968e-05
0.000260814
0.000441196
0.000650122
0.000966757
0.00138243
0.00189936
0.00253121
0.00328822
0.00418505
0.00524057
0.0064771
0.00792054
0.00960075
0.011552
0.0138137
0.016429
0.0194379
0.022851
0.0266233
0.0306725
0.0349146
0.0392809
0.0437177
8.14226e-05
0.000261198
0.000441557
0.000649662
0.000963947
0.0013777
0.00189236
0.00252135
0.00327496
0.00416763
0.00521803
0.00644828
0.00788405
0.00955492
0.0114949
0.0137428
0.0163419
0.0193331
0.0227323
0.0265014
0.0305614
0.0348273
0.0392268
0.0437011
8.24406e-05
0.000261581
0.000441927
0.000649289
0.000961347
0.00137331
0.00188588
0.00251221
0.00326268
0.00415151
0.00519719
0.00642168
0.0078504
0.00951265
0.0114422
0.0136775
0.0162616
0.0192364
0.022622
0.0263875
0.0304574
0.0347464
0.0391795
0.0436948
8.34394e-05
0.00026196
0.000442294
0.00064899
0.000958939
0.00136923
0.00187983
0.0025037
0.00325127
0.00413655
0.00517788
0.00639703
0.00781925
0.00947359
0.0113935
0.0136172
0.0161875
0.0191472
0.02252
0.0262816
0.030361
0.0346731
0.0391414
0.043704
8.44299e-05
0.000262332
0.000442661
0.000648756
0.000956706
0.00136543
0.00187419
0.00249578
0.00324064
0.00412262
0.00515992
0.00637415
0.00779035
0.0094374
0.0113484
0.0135614
0.016119
0.0190645
0.0224252
0.0261828
0.0302708
0.0346047
0.0391068
0.0437139
8.543e-05
0.000262693
0.000443038
0.000648578
0.00095464
0.00136189
0.00186894
0.00248836
0.00323069
0.00410959
0.00514313
0.00635278
0.00776342
0.0094037
0.0113066
0.0135097
0.0160555
0.0189879
0.022337
0.0260905
0.0301864
0.0345409
0.0390745
0.0437222
8.64327e-05
0.000263054
0.000443428
0.000648454
0.000952742
0.0013586
0.00186403
0.00248142
0.00322135
0.00409735
0.00512737
0.00633273
0.00773818
0.00937218
0.0112674
0.0134614
0.0159963
0.0189165
0.0222545
0.0260039
0.0301073
0.0344823
0.0390481
0.0437359
8.74223e-05
0.000263411
0.000443818
0.000648369
0.000950999
0.00135555
0.00185944
0.00247491
0.00321257
0.00408582
0.00511249
0.00631381
0.00771436
0.00934247
0.0112306
0.0134161
0.0159409
0.0188495
0.022177
0.0259219
0.030032
0.0344263
0.0390238
0.0437559
8.83823e-05
0.000263754
0.000444202
0.000648323
0.000949408
0.00135273
0.00185519
0.00246882
0.00320431
0.00407493
0.0050984
0.00629584
0.00769174
0.00931426
0.0111957
0.0133731
0.0158885
0.0187864
0.0221037
0.025844
0.0299597
0.0343719
0.0389986
0.0437702
8.93315e-05
0.000264086
0.000444588
0.00064831
0.000947962
0.00135016
0.00185126
0.00246316
0.00319658
0.00406465
0.00508503
0.00627873
0.00767014
0.00928729
0.0111624
0.0133322
0.0158385
0.0187264
0.0220342
0.0257699
0.0298907
0.0343191
0.0389722
0.0437797
9.02624e-05
0.00026441
0.000444967
0.000648328
0.000946681
0.00134784
0.00184766
0.00245792
0.00318937
0.00405501
0.00507239
0.00626246
0.00764949
0.0092614
0.0111302
0.0132927
0.0157905
0.0186687
0.0219675
0.0256991
0.0298252
0.0342697
0.0389474
0.0437795
9.11635e-05
0.000264729
0.000445342
0.000648395
0.000945567
0.00134575
0.00184441
0.00245315
0.00318272
0.00404602
0.00506052
0.00624705
0.00762979
0.00923653
0.0110992
0.0132544
0.0157437
0.0186124
0.0219023
0.0256297
0.0297616
0.0342245
0.0389338
0.0438141
9.20462e-05
0.000265053
0.000445723
0.000648505
0.000944617
0.00134394
0.00184152
0.00244883
0.00317663
0.00403774
0.00504948
0.00623258
0.00761111
0.00921277
0.0110693
0.0132172
0.0156979
0.018557
0.0218376
0.0255597
0.0296961
0.0341752
0.0389121
0.0438281
9.29411e-05
0.000265374
0.000446129
0.000648663
0.000943821
0.00134236
0.00183898
0.00244496
0.00317114
0.0040302
0.00503931
0.00621911
0.00759361
0.00919024
0.0110407
0.0131813
0.0156533
0.0185025
0.0217729
0.0254887
0.0296277
0.0341222
0.0388863
0.0438397
9.38404e-05
0.000265698
0.000446549
0.00064886
0.00094317
0.00134102
0.00183677
0.00244159
0.00316623
0.00402339
0.00503005
0.00620674
0.00757733
0.00916922
0.0110137
0.0131471
0.0156103
0.0184492
0.0217088
0.0254168
0.0295564
0.034064
0.0388537
0.0438431
9.46847e-05
0.000266018
0.000446957
0.000649073
0.000942639
0.00133989
0.00183485
0.00243861
0.00316194
0.00401726
0.00502168
0.00619555
0.00756247
0.00914972
0.0109886
0.0131148
0.0155695
0.0183981
0.0216465
0.0253449
0.0294828
0.0340001
0.0388118
0.0438321
9.55223e-05
0.000266317
0.000447345
0.000649325
0.000942278
0.00133901
0.00183331
0.00243608
0.00315818
0.00401193
0.00501422
0.00618538
0.00754895
0.00913191
0.0109654
0.013085
0.0155314
0.01835
0.0215871
0.0252755
0.0294094
0.0339339
0.0387656
0.0438178
9.63906e-05
0.000266655
0.0004478
0.000649607
0.000942064
0.0013384
0.00183208
0.00243404
0.00315503
0.00400729
0.00500773
0.00617645
0.00753685
0.00911592
0.0109444
0.0130578
0.0154965
0.0183056
0.0215318
0.0252101
0.0293391
0.0338686
0.0387176
0.0438007
9.71372e-05
0.000266957
0.000448176
0.000649923
0.000942012
0.00133799
0.00183118
0.00243236
0.00315238
0.00400333
0.00500203
0.00616854
0.00752613
0.00910151
0.0109254
0.0130331
0.0154646
0.0182651
0.0214813
0.02515
0.0292743
0.033808
0.0386711
0.0437779
9.79252e-05
0.000267255
0.000448561
0.000650273
0.000942097
0.00133783
0.0018306
0.00243118
0.00315034
0.00400016
0.00499728
0.00616174
0.00751668
0.00908879
0.0109084
0.0130108
0.0154357
0.0182281
0.0214352
0.0250955
0.0292157
0.0337541
0.038632
0.0437579
9.87807e-05
0.000267603
0.000449063
0.000650704
0.000942354
0.00133794
0.00183045
0.00243055
0.00314895
0.00399775
0.00499353
0.00615614
0.00750865
0.00907759
0.0108934
0.0129908
0.0154095
0.0181944
0.021393
0.0250454
0.0291625
0.033707
0.0386041
0.0437657
9.95743e-05
0.000267919
0.00044949
0.000651141
0.000942809
0.00133833
0.00183068
0.00243033
0.00314815
0.00399609
0.00499061
0.00615155
0.0075019
0.00906798
0.0108802
0.012973
0.015386
0.0181639
0.0213543
0.0249988
0.0291121
0.0336617
0.0385753
0.043766
0.000100361
0.00026824
0.000449943
0.000651596
0.000943403
0.00133902
0.00183128
0.00243071
0.00314806
0.0039953
0.00498877
0.0061482
0.00749657
0.00906013
0.0108689
0.0129575
0.0153651
0.0181364
0.0213191
0.0249561
0.0290649
0.0336178
0.0385451
0.0437603
0.000101083
0.000268552
0.000450365
0.000652099
0.000944169
0.00133996
0.00183229
0.00243158
0.00314867
0.00399528
0.0049879
0.00614614
0.00749273
0.00905388
0.0108596
0.0129442
0.0153468
0.018112
0.0212876
0.0249175
0.0290226
0.0335785
0.0385178
0.043753
0.000101841
0.000268854
0.00045079
0.000652643
0.00094514
0.00134118
0.00183368
0.00243301
0.00314995
0.00399622
0.00498811
0.00614526
0.00749036
0.00904937
0.0108523
0.0129332
0.0153312
0.0180906
0.0212594
0.024883
0.0289849
0.0335453
0.0384989
0.0437557
0.000102628
0.000269195
0.000451283
0.000653239
0.000946326
0.00134278
0.00183554
0.00243507
0.003152
0.00399805
0.00498953
0.00614587
0.00748962
0.00904686
0.0108472
0.0129247
0.0153182
0.018072
0.0212343
0.0248515
0.0289505
0.0335159
0.0384872
0.04378
0.000103316
0.000269501
0.000451694
0.000653867
0.000947703
0.00134464
0.00183781
0.00243761
0.00315472
0.00400075
0.00499199
0.0061478
0.00749064
0.00904629
0.0108444
0.0129188
0.0153082
0.0180566
0.0212124
0.0248227
0.0289174
0.0334856
0.0384699
0.0437859
0.000104065
0.000269805
0.00045212
0.000654534
0.000949267
0.00134684
0.00184053
0.00244079
0.00315823
0.00400449
0.00499567
0.00615116
0.00749331
0.00904787
0.0108441
0.0129159
0.0153015
0.0180448
0.0211943
0.0247978
0.0288871
0.0334556
0.0384499
0.0437866
0.000104847
0.000270148
0.000452631
0.000655278
0.000951048
0.00134938
0.00184376
0.00244465
0.00316255
0.00400916
0.0050006
0.00615604
0.0074978
0.00905148
0.0108464
0.0129159
0.0152984
0.0180373
0.021181
0.0247778
0.0288619
0.03343
0.0384326
0.0437895
0.000105608
0.000270461
0.000453103
0.00065608
0.000953103
0.0013523
0.0018475
0.00244909
0.00316764
0.0040148
0.00500661
0.00616226
0.00750399
0.00905718
0.0108511
0.012919
0.0152989
0.0180342
0.021173
0.0247639
0.0288429
0.0334104
0.0384207
0.0437974
0.000106404
0.000270805
0.000453646
0.000656933
0.000955382
0.00135563
0.00185177
0.0024543
0.00317368
0.00402155
0.00501396
0.00617002
0.00751194
0.0090651
0.0108584
0.0129252
0.0153033
0.0180356
0.0211702
0.0247563
0.0288309
0.0333973
0.038412
0.043802
0.000107106
0.000271116
0.000454112
0.000657818
0.000957885
0.00135932
0.00185657
0.00246012
0.00318053
0.00402932
0.00502257
0.00617937
0.00752173
0.00907501
0.0108682
0.0129342
0.015311
0.0180413
0.021173
0.0247554
0.0288273
0.0333932
0.0384097
0.0438016
0.000107855
0.000271421
0.000454591
0.000658795
0.000960721
0.00136344
0.00186194
0.00246677
0.00318838
0.00403835
0.00503261
0.00619031
0.00753337
0.00908705
0.0108803
0.012946
0.0153219
0.0180507
0.0211804
0.0247609
0.0288323
0.0334016
0.0384239
0.0438076
0.000108638
0.000271761
0.000455142
0.000659847
0.000963839
0.00136806
0.00186798
0.0024743
0.0031973
0.00404863
0.00504427
0.00620315
0.00754719
0.0091016
0.0108952
0.0129609
0.0153361
0.0180638
0.0211918
0.024771
0.028844
0.033422
0.0384661
0.0438973
0.000109331
0.000272083
0.000455627
0.00066097
0.000967248
0.00137311
0.00187466
0.00248258
0.00320724
0.00406024
0.00505744
0.00621777
0.00756317
0.00911863
0.010913
0.0129788
0.0153536
0.0180803
0.0212067
0.0247841
0.0288577
0.0334426
0.0385045
0.0439688
0.000110103
0.000272393
0.00045614
0.000662165
0.000970934
0.00137863
0.00188196
0.00249177
0.00321834
0.00407331
0.00507243
0.00623456
0.00758163
0.00913858
0.0109339
0.0130003
0.0153751
0.0181007
0.0212254
0.024801
0.0288735
0.0334621
0.0385349
0.0440141
0.000110893
0.000272708
0.000456708
0.000663487
0.00097492
0.00138461
0.00188997
0.00250192
0.0032306
0.00408773
0.00508914
0.00625357
0.00760272
0.00916153
0.0109584
0.0130258
0.0154009
0.018126
0.0212493
0.0248226
0.0288944
0.0334869
0.038573
0.0440777
0.00011166
0.000273
0.000457236
0.000664906
0.000979254
0.00139108
0.00189865
0.00251288
0.00324398
0.00410362
0.00510763
0.00627467
0.00762645
0.00918764
0.0109867