/*--------------------------------*- C++ -*----------------------------------*\
| =========                 |                                                 |
| \\      /  F ield         | OpenFOAM: The Open Source CFD Toolbox           |
|  \\    /   O peration     | Version:  2.3.0                                 |
|   \\  /    A nd           | Web:      www.OpenFOAM.org                      |
|    \\/     M anipulation  |                                                 |
\*---------------------------------------------------------------------------*/
FoamFile
{
    version     2.0;
    format      ascii;
    class       volScalarField;
    location    "3000";
    object      nuTilda;
}
// * * * * * * * * * * * * * * * * * * * * * * * * * * * * * * * * * * * * * //

dimensions      [0 2 -1 0 0 0 0];

internalField   nonuniform List<scalar> 
14767
(
0.0490834
0.0460081
0.0430553
0.0402622
0.0376549
0.0352677
0.033123
0.0311363
0.029201
0.0273492
0.0255998
0.0239542
0.0224061
0.0209445
0.0195587
0.0182397
0.0169789
0.0157715
0.0146154
0.0135092
0.0124534
0.0114499
0.0105241
0.00988869
0.0531556
0.0505799
0.0480997
0.0457249
0.0434615
0.0413116
0.0392795
0.0373617
0.0355548
0.0338612
0.0322847
0.03083
0.0295016
0.0283021
0.0272374
0.0263105
0.0255276
0.0248931
0.0244121
0.024089
0.0239263
0.0239248
0.0240855
0.0244035
0.0568175
0.0546674
0.0526027
0.050628
0.0487453
0.0469567
0.0452644
0.0436686
0.0421719
0.0407764
0.0394838
0.0382984
0.0372236
0.0362634
0.0354211
0.0347018
0.0341083
0.0336451
0.0333154
0.0331198
0.0330591
0.0331306
0.0333284
0.033646
0.0600791
0.0582791
0.0565535
0.0549034
0.05333
0.0518349
0.0504189
0.0490836
0.0478309
0.046662
0.0455801
0.0445888
0.0436902
0.0428886
0.0421884
0.0415932
0.041106
0.040731
0.0404706
0.0403262
0.0402986
0.0403858
0.0405845
0.0408896
0.0629736
0.0614559
0.0600031
0.0586119
0.057283
0.0560172
0.054816
0.0536807
0.0526125
0.0516134
0.0506866
0.049834
0.0490606
0.0483689
0.0477648
0.0472507
0.0468318
0.0465112
0.0462922
0.0461769
0.046166
0.0462598
0.0464559
0.0467506
0.0655223
0.0642424
0.0630108
0.0618266
0.0606909
0.0596046
0.05857
0.057589
0.0566624
0.0557926
0.0549824
0.0542339
0.0535514
0.0529399
0.0524028
0.0519456
0.0515725
0.0512874
0.0510946
0.0509967
0.0509955
0.051091
0.0512832
0.0515686
0.0677756
0.0666877
0.0656345
0.0646164
0.0636343
0.0626899
0.0617853
0.0609238
0.0601077
0.0593385
0.0586185
0.0579503
0.0573377
0.0567851
0.056298
0.0558814
0.0555405
0.0552803
0.0551046
0.0550175
0.0550213
0.0551172
0.0553051
0.0555833
0.0697676
0.068835
0.0679256
0.0670424
0.0661846
0.0653533
0.0645511
0.0637829
0.0630526
0.0623629
0.0617153
0.0611111
0.0605538
0.0600475
0.0595983
0.0592126
0.0588958
0.0586524
0.0584874
0.0584069
0.0584133
0.0585083
0.0586924
0.0589643
0.0715262
0.0707248
0.0699291
0.069156
0.0684014
0.067662
0.0669435
0.0662454
0.0655817
0.0649543
0.0643654
0.0638154
0.063304
0.0628383
0.0624159
0.0620543
0.0617569
0.0615282
0.0613671
0.0612894
0.0612962
0.0613897
0.0615707
0.0618377
0.0730855
0.0724029
0.0716827
0.0709991
0.0703348
0.0696679
0.0690265
0.0683757
0.0677609
0.0671798
0.0666337
0.0661358
0.0656625
0.0652471
0.0648383
0.0644956
0.0642107
0.064002
0.0638376
0.063761
0.063765
0.0638551
0.0640331
0.0642972
0.0109577
0.0131284
0.0146233
0.0161071
0.0177229
0.0195
0.0214322
0.0235077
0.0257159
0.0280467
0.0304908
0.0330401
0.0356881
0.0384287
0.0412562
0.0441654
0.0471502
0.0502045
0.0533217
0.0564946
0.0597153
0.0629753
0.0662657
0.0695802
0.024863
0.0254783
0.026273
0.0272496
0.0284048
0.029732
0.0312221
0.0328634
0.0346429
0.0365492
0.0385706
0.0406961
0.0429167
0.045224
0.0476104
0.0500698
0.0525962
0.055184
0.0578279
0.0605226
0.0632631
0.0660443
0.0688605
0.0717085
0.0340723
0.0346202
0.0353096
0.0361421
0.0371169
0.0382295
0.0394745
0.0408443
0.0423302
0.043924
0.0456171
0.0474006
0.0492676
0.0512109
0.0532241
0.0553017
0.0574389
0.0596309
0.0618736
0.0641628
0.066495
0.0688674
0.071277
0.0737235
0.0412949
0.0418079
0.0424408
0.0431933
0.0440642
0.0450499
0.0461448
0.0473428
0.0486372
0.0500207
0.0514861
0.0530266
0.0546355
0.0563077
0.0580373
0.0598197
0.0616511
0.0635279
0.0654469
0.0674053
0.0694004
0.0714303
0.0734926
0.0755786
0.0471403
0.0476291
0.048224
0.0489234
0.0497251
0.0506251
0.0516176
0.0526968
0.0538561
0.0550888
0.0563886
0.0577494
0.0591655
0.0606318
0.062144
0.0636977
0.0652899
0.0669172
0.0685773
0.0702683
0.0719882
0.0737364
0.0755106
0.0772951
0.051945
0.0524151
0.0529817
0.0536425
0.0543943
0.0552321
0.05615
0.057142
0.0582014
0.0593217
0.0604972
0.0617224
0.0629916
0.0643005
0.0656447
0.0670205
0.0684248
0.0698547
0.071308
0.0727833
0.0742796
0.075797
0.0773361
0.0788807
0.0559488
0.0564035
0.0569482
0.0575797
0.0582937
0.0590846
0.0599461
0.060871
0.0618528
0.0628859
0.0639648
0.0650843
0.0662392
0.0674249
0.0686376
0.0698732
0.0711286
0.072401
0.0736879
0.0749883
0.0763017
0.0776281
0.078969
0.0803377
0.0593214
0.0597633
0.0602898
0.0608983
0.0615839
0.0623389
0.0631561
0.0640279
0.0649475
0.0659104
0.0669118
0.0679471
0.0690111
0.0700987
0.0712067
0.0723307
0.0734669
0.0746124
0.0757643
0.0769217
0.0780842
0.0792536
0.08043
0.0816252
0.0621871
0.0626188
0.0631289
0.0637187
0.0643839
0.0651126
0.0658946
0.066722
0.0675891
0.0684944
0.0694301
0.0703986
0.0713892
0.0723972
0.0734219
0.0744554
0.0754952
0.0765377
0.0775793
0.0786175
0.0796541
0.0806944
0.0817341
0.0827664
0.0646367
0.0650607
0.0655528
0.0661279
0.0667804
0.0674853
0.0682364
0.0690253
0.0698452
0.0707006
0.0715704
0.0724918
0.0734212
0.0743668
0.0753279
0.0762856
0.0772491
0.0782076
0.0791588
0.0800949
0.0810197
0.0819583
0.0829188
0.0838338
0.0795156
0.0737409
0.0682
0.062865
0.0577351
0.0528157
0.0481145
0.04364
0.0393988
0.0353966
0.031637
0.0281215
0.0248473
0.0218135
0.0190187
0.0164611
0.0141351
0.0120315
0.0101523
0.0085363
0.00728962
0.00608601
0.00479907
0.00331534
0.0830958
0.0780524
0.073191
0.0684743
0.0638981
0.0594665
0.0551874
0.05107
0.0471242
0.0433584
0.0397783
0.0363892
0.0331947
0.030198
0.0274092
0.0248642
0.0226056
0.020555
0.0185606
0.0165438
0.0144697
0.0122915
0.0099448
0.00734463
0.086858
0.082549
0.0783529
0.0742481
0.0702331
0.0663125
0.0624941
0.0587888
0.0552081
0.0517655
0.048477
0.0453576
0.0424126
0.0396229
0.0369508
0.0343544
0.0317979
0.0292459
0.0266543
0.0239762
0.0211633
0.0181702
0.0149488
0.0114472
0.0908138
0.0871586
0.0835751
0.0800428
0.0765605
0.0731319
0.0697642
0.0664645
0.0632408
0.0600972
0.0570327
0.0540414
0.0511143
0.0482346
0.0453789
0.0425171
0.0396198
0.0366537
0.033585
0.0303734
0.0269773
0.0233531
0.0194545
0.0152432
0.0948237
0.0917172
0.0886388
0.0855688
0.0825054
0.0794509
0.0764092
0.0733836
0.0703771
0.0673906
0.0644186
0.0614524
0.058483
0.055495
0.0524677
0.0493806
0.0462058
0.0429132
0.0394699
0.0358387
0.0319785
0.0278474
0.0234023
0.0186033
0.0986464
0.0959483
0.0932407
0.0905075
0.0877478
0.0849616
0.0821493
0.079313
0.0764529
0.0735677
0.0706505
0.0676929
0.0646835
0.061608
0.0584494
0.0551862
0.0517935
0.0482421
0.0444988
0.0405265
0.036286
0.0317347
0.0268294
0.0215295
0.102109
0.0997123
0.0972809
0.0948001
0.0922693
0.0896849
0.0870458
0.0843516
0.0816025
0.0787957
0.075923
0.072974
0.0699364
0.0667966
0.0635374
0.060138
0.0565733
0.0528137
0.0488252
0.0445704
0.0400104
0.0351015
0.0298002
0.0240655
0.105139
0.102996
0.100783
0.0985021
0.0961516
0.0937265
0.0912238
0.0886427
0.0859825
0.0832419
0.0804127
0.0774771
0.0744217
0.0712336
0.0678965
0.0643904
0.0606895
0.0567609
0.0525689
0.0480764
0.043244
0.0380275
0.0323829
0.0262673
0.107808
0.105847
0.103812
0.101694
0.0994909
0.0971944
0.0948011
0.092312
0.0897246
0.0870407
0.0842585
0.0813463
0.0782797
0.0750515
0.0716502
0.0680594
0.0642535
0.0601912
0.0558282
0.0511299
0.0460636
0.0405836
0.0346424
0.0281943
0.110102
0.108304
0.106424
0.104453
0.102371
0.10018
0.0978721
0.0954597
0.0929318
0.0902881
0.0875649
0.0847001
0.0816241
0.0783538
0.0748929
0.0712284
0.06735
0.0631947
0.0586809
0.0537943
0.0485276
0.042826
0.0366344
0.0299184
0.00163442
0.000880493
0.00112467
0.00141651
0.00169975
0.0019907
0.00231165
0.00269441
0.00318014
0.00379538
0.00451456
0.00533428
0.00625698
0.00728853
0.00843653
0.0097083
0.0111115
0.0126546
0.0143468
0.016198
0.0182187
0.0204202
0.0228132
0.0253996
0.0044176
0.00196825
0.00145174
0.00172094
0.0020392
0.00239249
0.00280621
0.00330379
0.00390226
0.00461142
0.00540705
0.00628918
0.00726107
0.00832769
0.00949466
0.0107674
0.012152
0.0136556
0.0152861
0.017052
0.0189623
0.0210259
0.0232508
0.0256454
0.00760131
0.00377507
0.00194148
0.00203082
0.00240771
0.00284963
0.0033689
0.00397376
0.0046689
0.00545755
0.00631971
0.00725668
0.00827111
0.00936666
0.010547
0.0118162
0.0131791
0.0146417
0.0162105
0.0178923
0.0196941
0.021623
0.0236859
0.0258901
0.010648
0.00584568
0.00266942
0.00235734
0.00279753
0.00333483
0.00395235
0.00464827
0.00542904
0.0062855
0.00720537
0.00818967
0.00924012
0.0103587
0.0115477
0.0128104
0.014151
0.0155735
0.0170831
0.0186852
0.0203851
0.0221881
0.0240984
0.0261157
0.0133826
0.00784632
0.00357131
0.00271207
0.00319864
0.00382643
0.0045307
0.00530646
0.00616104
0.00707648
0.0080468
0.00907196
0.0101528
0.0112897
0.0124844
0.0137393
0.0150573
0.0164416
0.0178959
0.019424
0.0210297
0.0227171
0.0244913
0.0263635
0.0157739
0.00964458
0.00453185
0.00309566
0.00360027
0.00430955
0.00509026
0.00593777
0.00685476
0.00782235
0.00883694
0.00989786
0.0110041
0.012156
0.0133543
0.0146008
0.015897
0.0172453
0.018648
0.0201079
0.0216279
0.0232115
0.024864
0.026594
0.0178431
0.0112138
0.00546136
0.00349778
0.00399336
0.00477367
0.0056207
0.00653448
0.00750568
0.00851979
0.00957355
0.0106651
0.0117933
0.0129575
0.0141582
0.0153958
0.0166714
0.0179861
0.0193416
0.0207394
0.0221817
0.0236717
0.0252144
0.0268176
0.0196327
0.0125722
0.00631751
0.00390422
0.00437206
0.00521417
0.00612135
0.00709353
0.00811255
0.00916786
0.0102561
0.0113746
0.0125216
0.0136961
0.0148981
0.0161271
0.0173832
0.0186671
0.0199791
0.0213204
0.0226927
0.024098
0.0255389
0.027017
0.0211962
0.0137531
0.00708301
0.0043
0.0047323
0.00562799
0.00659089
0.00761391
0.00867522
0.00976683
0.0108859
0.0120285
0.013192
0.0143752
0.0155779
0.0167988
0.0180369
0.0192918
0.020563
0.0218519
0.0231605
0.0244889
0.0258376
0.0272084
0.0226165
0.0148367
0.0078122
0.00468834
0.0050693
0.00602278
0.00703427
0.00809429
0.00918992
0.0103243
0.0114797
0.0126394
0.0138117
0.0150028
0.0162085
0.0174205
0.0186398
0.0198612
0.0210845
0.0223211
0.023576
0.0248381
0.026106
0.0273986
0.000351976
0.00117514
0.00249534
0.00407899
0.00568749
0.00728836
0.00889523
0.0105244
0.0121756
0.0138492
0.015548
0.0172776
0.0190472
0.0208694
0.0227579
0.0247248
0.0267732
0.0288991
0.0311392
0.0335468
0.0361165
0.0388388
0.0418911
0.0451755
0.00026881
0.000668969
0.00154756
0.00276251
0.00424465
0.00573282
0.00722541
0.00871422
0.0102126
0.0117372
0.0133026
0.0149137
0.016576
0.0182974
0.0200882
0.0219609
0.0239275
0.0259987
0.0281925
0.0305383
0.0330551
0.0357551
0.0387072
0.0418047
0.000119528
0.00040705
0.000956648
0.00174783
0.00280362
0.00414209
0.00579495
0.00755999
0.0092809
0.0109539
0.0125864
0.0141933
0.0157901
0.0173925
0.0190193
0.0206931
0.0224397
0.0242871
0.0262642
0.0284037
0.0307384
0.033296
0.0361074
0.0391368
0.000139283
0.000344326
0.000787543
0.00141704
0.00225768
0.00333415
0.00467979
0.00633212
0.00817663
0.0100334
0.0118657
0.0136646
0.0154207
0.0171285
0.0187893
0.0204149
0.0220296
0.0236702
0.0253839
0.0272257
0.0292541
0.0315243
0.0340803
0.0369337
0.000108355
0.000305245
0.000682152
0.00122051
0.00194267
0.00286593
0.00401703
0.00542857
0.00713718
0.00908606
0.0110664
0.0130272
0.0149562
0.0168421
0.01867
0.0204264
0.022106
0.0237202
0.0253029
0.0269121
0.0286265
0.0305363
0.0327278
0.0352592
0.000107505
0.000290524
0.0006191
0.00109976
0.00174213
0.00256555
0.00359209
0.00485174
0.00637954
0.00821267
0.0102491
0.012324
0.0143902
0.0164309
0.0184298
0.0203662
0.0222161
0.0239606
0.0255971
0.0271504
0.0286817
0.0302898
0.0320993
0.0342427
0.000101757
0.000285712
0.000571318
0.00100993
0.0015947
0.00234704
0.00328421
0.00443295
0.00582494
0.00749684
0.00947577
0.0116132
0.0137831
0.0159471
0.0180873
0.0201835
0.0222104
0.0241372
0.0259353
0.02759
0.0291178
0.030583
0.0321036
0.0338261
9.97985e-05
0.000280922
0.000536781
0.000943739
0.00148508
0.00218297
0.00305233
0.00411727
0.00540739
0.00695702
0.00880451
0.01093
0.0131648
0.0154245
0.0176795
0.0199097
0.022091
0.0241925
0.0261772
0.0280081
0.0296626
0.0311531
0.0325489
0.0339744
9.76372e-05
0.000277408
0.000509927
0.000892357
0.00140052
0.00205447
0.0028704
0.00386951
0.00507905
0.00653134
0.00826322
0.0103065
0.0125611
0.0148901
0.0172375
0.0195783
0.0218899
0.0241435
0.0263022
0.0283224
0.0301602
0.0317876
0.0332153
0.0345087
9.65737e-05
0.000274378
0.000489453
0.000852098
0.00133376
0.00195262
0.00272574
0.00367189
0.00481653
0.00618997
0.00782745
0.0097676
0.011995
0.0143638
0.0167832
0.0192151
0.021636
0.0240193
0.0263308
0.0285267
0.0305563
0.0323692
0.0339329
0.0352557
9.61721e-05
0.000272426
0.000474554
0.000820306
0.00128066
0.00187127
0.00260991
0.00351312
0.00460485
0.00591386
0.00747357
0.0093223
0.011485
0.013863
0.0163346
0.0188412
0.0213537
0.0238472
0.02629
0.0286413
0.0308498
0.0328567
0.034605
0.0360579
9.65605e-05
0.000271669
0.000464991
0.000795402
0.00123844
0.0018063
0.00251701
0.00338539
0.00443391
0.00568993
0.00718553
0.00895762
0.0110428
0.0134024
0.0159061
0.0184728
0.0210629
0.0236501
0.0262057
0.028692
0.0310603
0.0332502
0.0351945
0.0368297
9.74112e-05
0.000271651
0.000459517
0.000775929
0.00120487
0.00175433
0.00244248
0.00328251
0.00429583
0.00550839
0.00695095
0.0086591
0.0106718
0.012992
0.0155094
0.0181228
0.0207787
0.023447
0.0261001
0.0287036
0.0312123
0.0335683
0.0357024
0.0375433
9.86923e-05
0.000272014
0.000456501
0.000760637
0.0011782
0.00171285
0.00238263
0.00319974
0.00418438
0.00536149
0.00676049
0.00841575
0.0103661
0.0126362
0.0151519
0.0178001
0.0205127
0.0232524
0.0259914
0.0286979
0.0313301
0.0338347
0.0361442
0.0381825
0.000100278
0.000272562
0.000454868
0.000748566
0.00115693
0.00167984
0.00233432
0.00313274
0.00409399
0.0052421
0.00660545
0.00821709
0.0101151
0.0123337
0.014836
0.0175093
0.0202713
0.0230755
0.0258921
0.0286909
0.0314338
0.0340706
0.0365378
0.0387569
0.000102
0.000273073
0.000453809
0.000738701
0.00113955
0.00165282
0.00229468
0.00307766
0.00401977
0.00514411
0.00647801
0.00805357
0.00990794
0.0120792
0.0145601
0.0172503
0.0200555
0.0229197
0.0258085
0.0286923
0.0315358
0.0342928
0.0369039
0.0392953
0.000103824
0.000273519
0.000453092
0.00073046
0.00112497
0.0016302
0.00226148
0.00303171
0.00395786
0.00506241
0.00637183
0.00791728
0.00973506
0.0118646
0.014319
0.0170192
0.0198628
0.0227832
0.0257405
0.0287045
0.0316416
0.0345095
0.0372522
0.0397992
0.00010567
0.000273889
0.000452562
0.000723481
0.00111246
0.00161078
0.00223301
0.00299232
0.00390497
0.00499259
0.00628123
0.00780126
0.00958789
0.0116809
0.0141064
0.01681
0.0196871
0.0226607
0.0256839
0.0287243
0.0317501
0.0347211
0.0375848
0.0402735
0.000107546
0.000274172
0.000452134
0.000717342
0.0011015
0.0015937
0.002208
0.00295769
0.00385846
0.00493142
0.0062019
0.00769973
0.00945932
0.01152
0.0139158
0.0166168
0.019522
0.0225452
0.0256316
0.0287456
0.0318555
0.0349231
0.0378989
0.040718
0.000109393
0.000274424
0.000451809
0.000711809
0.00109157
0.00157829
0.00218538
0.00292649
0.00381659
0.00487635
0.00613068
0.00760869
0.00934411
0.0113758
0.0137418
0.0164341
0.0193616
0.02243
0.0255766
0.0287611
0.031951
0.0351094
0.0381884
0.0411239
0.000111084
0.000274575
0.000451408
0.000706714
0.0010824
0.00156399
0.00216446
0.00289756
0.00377789
0.00482554
0.00606502
0.00752489
0.00923826
0.0112434
0.0135804
0.0162582
0.0192013
0.0223102
0.0255134
0.0287653
0.0320316
0.0352762
0.0384536
0.0415047
0.0001127
0.000274668
0.000450962
0.000701854
0.00107371
0.00155051
0.00214472
0.00287036
0.0037415
0.00477789
0.00600347
0.00744643
0.00913925
0.0111196
0.0134284
0.016087
0.0190388
0.0221823
0.025438
0.0287539
0.0320926
0.0354182
0.0386852
0.0418309
0.000114253
0.000274755
0.000450569
0.000697234
0.00106537
0.00153756
0.00212585
0.00284441
0.00370677
0.00473242
0.00594493
0.00737186
0.00904527
0.0110021
0.0132836
0.0159196
0.018873
0.0220451
0.0253487
0.028725
0.0321332
0.0355367
0.0388915
0.0421402
0.000115677
0.000274798
0.000450115
0.000692764
0.00105731
0.00152504
0.0021076
0.00281928
0.00367324
0.00468862
0.00588856
0.00730022
0.00895512
0.0108896
0.0131447
0.0157558
0.0187042
0.0218982
0.0252448
0.0286778
0.0321524
0.0356304
0.0390687
0.0424091
0.000117007
0.000274835
0.000449668
0.000688443
0.00104948
0.00151286
0.00208985
0.00279489
0.00364073
0.00464615
0.00583397
0.00723092
0.00886805
0.0107811
0.0130108
0.0155958
0.0185332
0.0217426
0.0251266
0.0286124
0.0321502
0.0357003
0.0392207
0.0426585
0.000118235
0.000274867
0.000449199
0.000684259
0.00104184
0.00150099
0.00207256
0.00277114
0.00360906
0.00460482
0.00578089
0.00716364
0.0087836
0.010676
0.0128811
0.0154395
0.0183612
0.0215794
0.0249952
0.0285294
0.0321268
0.0357454
0.0393428
0.0428655
0.000119355
0.000274893
0.000448714
0.000680234
0.00103441
0.00148941
0.00205571
0.00274801
0.00357824
0.00456458
0.00572925
0.00709823
0.00870158
0.010574
0.0127554
0.0152872
0.0181894
0.0214103
0.0248522
0.0284302
0.0320837
0.0357681
0.0394405
0.043049
0.000120385
0.000274933
0.000448234
0.000676407
0.00102721
0.00147819
0.00203938
0.00272557
0.00354835
0.00452558
0.00567918
0.00703476
0.008622
0.0104751
0.0126334
0.0151391
0.0180192
0.021237
0.0246993
0.0283164
0.0320225
0.0357698
0.0395151
0.0432065
0.00012135
0.000274985
0.000447778
0.000672809
0.00102028
0.00146737
0.00202359
0.00270391
0.00351946
0.00448788
0.00563077
0.00697339
0.00854504
0.0103795
0.0125155
0.0149954
0.0178516
0.0210614
0.0245383
0.0281896
0.0319444
0.035752
0.0395691
0.0433482
0.000122278
0.000275075
0.000447391
0.000669502
0.00101368
0.00145699
0.00200846
0.0026831
0.00349173
0.00445168
0.00558425
0.00691438
0.00847098
0.0102874
0.0124019
0.0148568
0.017688
0.0208855
0.0243714
0.0280516
0.0318505
0.0357139
0.0395984
0.0434615
0.000123167
0.000275195
0.000447073
0.000666496
0.00100741
0.00144709
0.001994
0.00266322
0.00346521
0.00441705
0.00553975
0.00685793
0.00840012
0.0101992
0.012293
0.0147236
0.0175296
0.0207113
0.0242012
0.0279048
0.0317426
0.035656
0.0395988
0.043524
0.000124033
0.00027536
0.000446857
0.000663846
0.00100153
0.00143773
0.00198028
0.00264433
0.00344001
0.00438415
0.00549745
0.00680424
0.00833271
0.0101153
0.0121894
0.0145967
0.0173776
0.0205413
0.0240305
0.0277529
0.031625
0.0355844
0.0395827
0.0435736
0.000124875
0.000275565
0.000446747
0.000661556
0.000996061
0.00142894
0.00196737
0.00262651
0.00341619
0.004353
0.0054574
0.0067534
0.00826888
0.0100359
0.0120912
0.0144765
0.017233
0.0203772
0.0238625
0.0275994
0.0315018
0.0355036
0.0395538
0.0436062
0.000125692
0.000275796
0.00044671
0.000659606
0.000991008
0.00142078
0.00195534
0.00260977
0.00339378
0.00432366
0.00541963
0.00670544
0.00820866
0.00996093
0.0119987
0.0143631
0.0170964
0.0202207
0.0236995
0.0274476
0.0313772
0.0354179
0.0395161
0.0436235
0.000126504
0.000276058
0.000446766
0.00065797
0.000986354
0.00141322
0.00194423
0.00259413
0.00337278
0.00429612
0.00538414
0.00666037
0.00815202
0.00989041
0.0119116
0.0142564
0.0169677
0.0200722
0.023543
0.0273002
0.0312547
0.0353331
0.0394791
0.0436443
0.000127305
0.000276345
0.000446896
0.00065662
0.000982084
0.00140622
0.00193388
0.00257957
0.0033532
0.00427042
0.00535098
0.00661816
0.00809887
0.00982416
0.0118297
0.0141561
0.0168465
0.0199314
0.0233933
0.0271578
0.0311357
0.0352508
0.0394441
0.0436672
0.000128102
0.000276654
0.000447096
0.000655516
0.00097816
0.00139974
0.0019243
0.00256607
0.00333503
0.00424654
0.00532011
0.00657878
0.0080492
0.00976212
0.0117529
0.0140618
0.0167322
0.0197978
0.0232495
0.0270196
0.0310193
0.0351698
0.0394096
0.0436884
0.000128896
0.000276979
0.000447352
0.000654627
0.000974568
0.00139377
0.00191546
0.0025536
0.00331822
0.00422442
0.00529149
0.00654221
0.00800296
0.00970423
0.011681
0.0139732
0.0166244
0.0196709
0.0231109
0.0268844
0.0309038
0.0350884
0.0393741
0.0437091
0.000129686
0.000277315
0.00044765
0.000653911
0.000971262
0.00138824
0.00190729
0.00254207
0.00330267
0.00420398
0.00526503
0.00650835
0.00796012
0.00965047
0.0116141
0.0138905
0.0165232
0.0195506
0.0229777
0.0267518
0.0307878
0.0350035
0.039333
0.0437258
0.000130469
0.000277661
0.000447983
0.000653345
0.000968228
0.00138315
0.00189974
0.00253143
0.00328835
0.00418513
0.00524062
0.00647713
0.00792056
0.00960076
0.0115521
0.0138137
0.016429
0.0194379
0.022851
0.0266233
0.0306725
0.0349146
0.0392809
0.0437177
0.000131246
0.000278007
0.000448334
0.000652889
0.000965427
0.00137843
0.00189275
0.00252157
0.00327509
0.00416771
0.00521808
0.00644832
0.00788408
0.00955493
0.0114949
0.0137428
0.0163419
0.0193331
0.0227323
0.0265014
0.0305614
0.0348273
0.0392268
0.0437011
0.000132016
0.000278352
0.000448694
0.00065252
0.000962834
0.00137404
0.00188626
0.00251243
0.00326281
0.00415159
0.00519725
0.00642171
0.00785042
0.00951266
0.0114422
0.0136775
0.0162616
0.0192364
0.0226221
0.0263875
0.0304574
0.0347464
0.0391795
0.0436948
0.000132771
0.000278695
0.000449051
0.000652224
0.000960434
0.00136997
0.00188022
0.00250392
0.0032514
0.00413663
0.00517793
0.00639707
0.00781927
0.00947361
0.0113935
0.0136172
0.0161875
0.0191472
0.02252
0.0262816
0.030361
0.0346731
0.0391414
0.043704
0.00013352
0.000279031
0.000449407
0.000651992
0.000958208
0.00136617
0.00187459
0.002496
0.00324077
0.00412271
0.00515998
0.00637418
0.00779037
0.00943742
0.0113484
0.0135614
0.016119
0.0190645
0.0224252
0.0261828
0.0302708
0.0346047
0.0391068
0.0437139
0.000134274
0.000279356
0.000449774
0.000651816
0.000956148
0.00136263
0.00186933
0.00248859
0.00323082
0.00410967
0.00514319
0.00635281
0.00776344
0.00940372
0.0113066
0.0135097
0.0160555
0.0189879
0.022337
0.0260905
0.0301864
0.0345409
0.0390745
0.0437222
0.000135031
0.000279682
0.000450152
0.000651693
0.000954256
0.00135934
0.00186443
0.00248164
0.00322148
0.00409743
0.00512742
0.00633277
0.0077382
0.00937219
0.0112674
0.0134614
0.0159963
0.0189165
0.0222545
0.0260039
0.0301073
0.0344823
0.0390481
0.0437359
0.000135776
0.000280004
0.000450532
0.00065161
0.000952519
0.0013563
0.00185984
0.00247514
0.0032127
0.0040859
0.00511254
0.00631384
0.00771438
0.00934248
0.0112306
0.0134161
0.0159409
0.0188495
0.022177
0.0259219
0.030032
0.0344263
0.0390238
0.0437559
0.0001365
0.000280314
0.000450905
0.000651564
0.000950933
0.00135349
0.00185559
0.00246905
0.00320445
0.00407501
0.00509845
0.00629587
0.00769176
0.00931428
0.0111957
0.0133732
0.0158885
0.0187864
0.0221038
0.025844
0.0299597
0.0343719
0.0389986
0.0437702
0.000137214
0.000280614
0.00045128
0.000651551
0.000949491
0.00135091
0.00185167
0.00246339
0.00319671
0.00406474
0.00508508
0.00627877
0.00767016
0.00928731
0.0111624
0.0133322
0.0158386
0.0187264
0.0220342
0.0257699
0.0298907
0.0343191
0.0389722
0.0437797
0.000137915
0.000280907
0.000451648
0.000651569
0.000948215
0.0013486
0.00184807
0.00245815
0.00318951
0.00405509
0.00507245
0.0062625
0.00764951
0.00926141
0.0111303
0.0132927
0.0157905
0.0186687
0.0219675
0.0256991
0.0298252
0.0342697
0.0389474
0.0437795
0.000138593
0.000281195
0.000452013
0.000651635
0.000947104
0.00134651
0.00184482
0.00245338
0.00318285
0.0040461
0.00506058
0.00624709
0.00762981
0.00923655
0.0110992
0.0132544
0.0157437
0.0186124
0.0219023
0.0256297
0.0297616
0.0342245
0.0389338
0.0438141
0.000139257
0.000281487
0.000452383
0.000651745
0.000946157
0.0013447
0.00184193
0.00244906
0.00317677
0.00403782
0.00504954
0.00623261
0.00761113
0.00921278
0.0110693
0.0132172
0.0156979
0.018557
0.0218376
0.0255597
0.0296961
0.0341752
0.0389121
0.0438281
0.00013993
0.000281778
0.000452778
0.000651901
0.000945364
0.00134313
0.00183939
0.00244519
0.00317127
0.00403029
0.00503936
0.00621915
0.00759363
0.00919026
0.0110407
0.0131813
0.0156533
0.0185025
0.0217729
0.0254887
0.0296277
0.0341222
0.0388863
0.0438397
0.000140606
0.000282071
0.000453186
0.000652095
0.000944716
0.00134179
0.00183718
0.00244182
0.00316637
0.00402348
0.00503011
0.00620677
0.00757736
0.00916923
0.0110137
0.0131471
0.0156103
0.0184492
0.0217088
0.0254168
0.0295564
0.034064
0.0388537
0.0438431
0.000141241
0.00028236
0.000453583
0.000652307
0.000944186
0.00134066
0.00183526
0.00243884
0.00316208
0.00401734
0.00502173
0.00619559
0.00756249
0.00914974
0.0109886
0.0131148
0.0155695
0.0183981
0.0216465
0.0253449
0.0294828
0.0340001
0.0388118
0.0438321
0.00014187
0.000282631
0.000453959
0.000652556
0.000943826
0.00133978
0.00183372
0.00243631
0.00315832
0.00401202
0.00501428
0.00618542
0.00754898
0.00913193
0.0109655
0.013085
0.0155314
0.01835
0.0215871
0.0252755
0.0294094
0.0339339
0.0387656
0.0438178
0.000142523
0.000282936
0.000454402
0.000652835
0.000943613
0.00133917
0.00183249
0.00243427
0.00315517
0.00400738
0.00500778
0.00617649
0.00753687
0.00911594
0.0109444
0.0130578
0.0154965
0.0183056
0.0215318
0.0252101
0.0293391
0.0338686
0.0387176
0.0438007
0.000143084
0.000283209
0.000454767
0.000653149
0.000943561
0.00133876
0.00183159
0.00243259
0.00315252
0.00400341
0.00500209
0.00616858
0.00752615
0.00910152
0.0109255
0.0130331
0.0154646
0.0182651
0.0214813
0.02515
0.0292743
0.033808
0.0386711
0.0437779
0.000143676
0.000283479
0.000455142
0.000653495
0.000943646
0.0013386
0.00183101
0.00243141
0.00315048
0.00400025
0.00499734
0.00616178
0.00751671
0.0090888
0.0109084
0.0130108
0.0154357
0.0182281
0.0214352
0.0250955
0.0292157
0.0337541
0.038632
0.0437579
0.000144319
0.000283794
0.00045563
0.000653921
0.000943902
0.00133871
0.00183086
0.00243078
0.00314909
0.00399784
0.00499359
0.00615618
0.00750867
0.00907761
0.0108934
0.0129908
0.0154095
0.0181944
0.021393
0.0250454
0.0291625
0.033707
0.0386041
0.0437657
0.000144916
0.00028408
0.000456045
0.000654354
0.000944355
0.0013391
0.00183109
0.00243056
0.00314829
0.00399617
0.00499067
0.00615158
0.00750193
0.00906799
0.0108802
0.012973
0.015386
0.0181639
0.0213543
0.0249988
0.0291121
0.0336617
0.0385753
0.043766
0.000145507
0.000284371
0.000456485
0.000654805
0.000944948
0.00133979
0.00183169
0.00243095
0.0031482
0.00399539
0.00498883
0.00614824
0.0074966
0.00906015
0.0108689
0.0129575
0.0153651
0.0181364
0.0213191
0.0249561
0.0290649
0.0336178
0.0385451
0.0437603
0.00014605
0.000284654
0.000456896
0.000655304
0.000945711
0.00134073
0.0018327
0.00243182
0.00314881
0.00399537
0.00498795
0.00614618
0.00749275
0.0090539
0.0108596
0.0129442
0.0153469
0.018112
0.0212876
0.0249175
0.0290226
0.0335785
0.0385178
0.043753
0.00014662
0.000284927
0.000457309
0.000655842
0.000946679
0.00134195
0.00183409
0.00243325
0.00315009
0.00399631
0.00498816
0.0061453
0.00749038
0.00904938
0.0108523
0.0129332
0.0153312
0.0180906
0.0212595
0.024883
0.0289849
0.0335453
0.0384989
0.0437557
0.000147212
0.000285236
0.000457789
0.000656432
0.000947861
0.00134354
0.00183594
0.0024353
0.00315214
0.00399813
0.00498959
0.00614591
0.00748965
0.00904688
0.0108472
0.0129247
0.0153183
0.018072
0.0212343
0.0248515
0.0289505
0.0335159
0.0384872
0.04378
0.000147729
0.000285513
0.000458188
0.000657054
0.000949233
0.0013454
0.00183822
0.00243785
0.00315486
0.00400084
0.00499205
0.00614784
0.00749067
0.0090463
0.0108444
0.0129188
0.0153082
0.0180566
0.0212124
0.0248227
0.0289174
0.0334856
0.0384699
0.0437859
0.000148293
0.000285788
0.000458603
0.000657714
0.000950793
0.0013476
0.00184094
0.00244103
0.00315837
0.00400457
0.00499572
0.00615119
0.00749334
0.00904789
0.0108441
0.0129159
0.0153015
0.0180448
0.0211943
0.0247978
0.0288871
0.0334556
0.0384499
0.0437866
0.000148881
0.0002861
0.0004591
0.000658452
0.000952569
0.00135013
0.00184417
0.00244488
0.00316268
0.00400925
0.00500065
0.00615608
0.00749783
0.00905149
0.0108464
0.0129159
0.0152984
0.0180373
0.021181
0.0247778
0.0288619
0.03343
0.0384326
0.0437895
0.000149454
0.000286383
0.000459559
0.000659245
0.000954616
0.00135305
0.0018479
0.00244932
0.00316778
0.00401489
0.00500666
0.00616229
0.00750401
0.0090572
0.0108511
0.012919
0.015299
0.0180343
0.021173
0.0247639
0.0288429
0.0334104
0.0384207
0.0437974
0.000150053
0.000286695
0.000460088
0.00066009
0.000956888
0.00135638
0.00185217
0.00245453
0.00317381
0.00402164
0.00501401
0.00617005
0.00751197
0.00906512
0.0108584
0.0129252
0.0153033
0.0180356
0.0211702
0.0247563
0.0288309
0.0333973
0.038412
0.043802
0.000150582
0.000286978
0.000460541
0.000660967
0.000959383
0.00136007
0.00185698
0.00246035
0.00318066
0.00402941
0.00502262
0.00617941
0.00752175
0.00907502
0.0108682
0.0129342
0.015311
0.0180413
0.021173
0.0247554
0.0288273
0.0333932
0.0384097
0.0438016
0.000151146
0.000287255
0.000461007
0.000661934
0.000962211
0.00136418
0.00186234
0.00246699
0.00318852
0.00403844
0.00503267
0.00619035
0.00753339
0.00908706
0.0108804
0.0129461
0.0153219
0.0180507
0.0211804
0.0247609
0.0288323
0.0334016
0.0384239
0.0438076
0.000151736
0.000287563
0.000461543
0.000662977
0.000965319
0.00136879
0.00186838
0.00247453
0.00319743
0.00404872
0.00504433
0.00620318
0.00754721
0.00910162
0.0108952
0.0129609
0.0153362
0.0180638
0.0211918
0.024771
0.028844
0.033422
0.0384661
0.0438973
0.000152259
0.000287855
0.000462015
0.000664089
0.000968718
0.00137384
0.00187505
0.00248281
0.00320737
0.00406032
0.00505749
0.00621781
0.00756319
0.00911865
0.010913
0.0129788
0.0153536
0.0180803
0.0212067
0.0247841
0.0288577
0.0334426
0.0385045
0.0439688
0.000152841
0.000288137
0.000462515
0.000665273
0.000972392
0.00137935
0.00188235
0.002492
0.00321847
0.00407339
0.00507248
0.0062346
0.00758165
0.0091386
0.0109339
0.0130003
0.0153751
0.0181007
0.0212254
0.024801
0.0288735
0.0334621
0.0385349
0.0440141
0.000153437
0.000288422
0.000463067
0.000666583
0.000976367
0.00138533
0.00189036
0.00250214
0.00323074
0.00408781
0.00508919
0.00625361
0.00760275
0.00916154
0.0109584
0.0130258
0.0154009
0.018126
0.0212493
0.0248226
0.0288944
0.0334869
0.038573
0.0440777
0.000154016
0.000288687
0.000463581
0.000667989
0.000980688
0.00139179
0.00189903
0.0025131
0.00324411
0.0041037
0.00510768
0.00627471
0.00762647
0.00918766
0.0109867
0.0130558