/*--------------------------------*- C++ -*----------------------------------*\
| =========                 |                                                 |
| \\      /  F ield         | OpenFOAM: The Open Source CFD Toolbox           |
|  \\    /   O peration     | Version:  2.3.0                                 |
|   \\  /    A nd           | Web:      www.OpenFOAM.org                      |
|    \\/     M anipulation  |                                                 |
\*---------------------------------------------------------------------------*/
FoamFile
{
    version     2.0;
    format      ascii;
    class       volScalarField;
    location    "3000";
    object      p;
}
// * * * * * * * * * * * * * * * * * * * * * * * * * * * * * * * * * * * * * //

dimensions      [0 2 -2 0 0 0 0];

internalField   nonuniform List<scalar> 
14767
(
0.184703
-0.448195
-1.16592
-1.91157
-2.63753
-3.32463
-3.95134
-4.48006
-4.87656
-5.10186
-5.09852
-4.82545
-4.18676
-3.10451
-1.50114
0.781134
3.8243
7.75591
12.8504
19.7203
28.6872
36.146
37.1963
47.6803
11.1254
11.5743
12.233
13.0151
13.966
15.1221
16.5161
18.2158
20.3118
22.9029
26.1061
30.0394
34.8259
40.5896
47.4566
55.5375
64.9436
75.7526
88.026
101.84
117.16
133.701
151.3
169.865
20.4287
21.4824
22.8732
24.4481
26.2273
28.2333
30.4796
32.9945
35.8067
38.9469
42.4555
46.3739
50.7484
55.6382
61.0902
67.1496
73.8615
81.2526
89.3287
98.0732
107.407
117.234
127.498
138.077
27.9218
29.7015
31.623
33.7274
36.0421
38.5973
41.4239
44.5587
48.0335
51.8878
56.1558
60.8728
66.0649
71.7587
77.9679
84.7002
91.9457
99.6805
107.858
116.403
125.21
134.143
143.043
151.735
34.5738
36.6009
38.7323
41.0416
43.5395
46.2429
49.1711
52.3426
55.7785
59.506
63.5467
67.9208
72.6542
77.7639
83.2643
89.1574
95.437
102.088
109.071
116.333
123.796
131.364
138.92
146.352
40.1735
42.3202
44.5622
46.9598
49.5372
52.3053
55.2861
58.4962
61.9535
65.6791
69.6904
74.0045
78.6352
83.588
88.8721
94.4777
100.399
106.611
113.077
119.748
126.555
133.421
140.25
146.95
45.0445
47.0982
49.3456
51.7231
54.2677
56.9865
59.9013
63.0173
66.3474
69.9214
73.7427
77.8385
82.2261
86.9021
91.8674
97.1074
102.617
108.389
114.389
120.557
126.842
133.178
139.489
145.693
49.0477
51.0162
53.2731
55.5952
58.0832
60.7295
63.5595
66.6023
69.8395
73.3072
76.9848
80.8852
85.0335
89.4648
94.1917
99.1738
104.384
109.823
115.46
121.244
127.16
133.112
139.039
144.871
52.7624
54.505
56.6222
58.8026
61.218
63.7617
66.4736
69.3743
72.4373
75.7713
79.3114
83.0769
87.0629
91.3326
95.8289
100.569
105.516
110.748
116.153
121.644
127.261
132.904
138.551
144.129
57.0375
57.8916
59.5538
61.4711
63.7739
66.1616
68.6512
71.2241
73.8099
76.7031
79.8251
83.516
88.1646
92.7408
97.1925
101.695
106.242
110.931
116.96
122.349
127.644
132.957
138.45
144.021
108.56
145.524
169.143
187.002
201.234
212.525
221.402
228.497
234.214
238.708
242.116
244.55
246.11
246.881
246.952
246.402
245.316
243.775
241.86
239.643
237.181
234.518
231.792
229.16
186.941
199.954
210.451
219.055
226.035
231.571
235.842
239.015
241.218
242.573
243.212
243.258
242.828
242.026
240.938
239.631
238.157
236.543
234.807
232.955
230.983
228.895
226.728
224.549
148.714
159.147
169.075
178.268
186.609
194.058
200.608
206.29
211.147
215.227
218.589
221.291
223.387
224.932
225.975
226.565
226.747
226.565
226.061
225.275
224.244
223.012
221.575
219.92
160.079
168.043
175.55
182.499
188.822
194.482
199.474
203.812
207.525
210.649
213.232
215.319
216.958
218.196
219.075
219.636
219.91
219.928
219.713
219.285
218.67
217.89
216.852
215.353
153.597
160.641
167.399
173.773
179.689
185.102
189.99
194.349
198.186
201.523
204.388
206.809
208.819
210.449
211.734
212.701
213.379
213.793
213.967
213.923
213.693
213.301
212.561
211.186
153.464
159.767
165.802
171.498
176.801
181.675
186.101
190.073
193.595
196.69
199.377
201.675
203.618
205.231
206.543
207.578
208.363
208.918
209.262
209.414
209.398
209.213
208.691
207.462
151.738
157.589
163.19
168.484
173.425
177.991
182.167
185.927
189.291
192.279
194.901
197.157
199.099
200.738
202.103
203.21
204.09
204.758
205.237
205.544
205.692
205.663
205.607
205.897
150.561
156.07
161.339
166.313
170.951
175.254
179.229
182.799
186.013
188.901
191.45
193.63
195.539
197.149
198.517
199.635
200.56
201.284
201.842
202.243
202.471
202.457
202.498
202.968
149.579
154.859
159.847
164.551
168.973
173.098
176.974
180.386
183.439
186.238
188.728
190.807
192.656
194.168
195.522
196.613
197.571
198.315
198.926
199.377
199.634
199.604
199.919
201.104
149.395
154.517
159.031
163.329
167.459
171.519
175.451
178.307
181.136
183.952
186.383
187.856
189.912
191.336
192.728
193.728
194.717
195.426
196.015
196.435
196.741
196.569
197.651
198.771
-51.3811
-51.6699
-51.9557
-52.1751
-52.319
-52.391
-52.3953
-52.3349
-52.2149
-52.0424
-51.8273
-51.5769
-51.2944
-50.9803
-50.6323
-50.2418
-49.7897
-49.2405
-48.5483
-47.6722
-46.5737
-45.1613
-42.9968
-38.3079
-51.5357
-51.7065
-51.9718
-52.1751
-52.3018
-52.3673
-52.3823
-52.3549
-52.2903
-52.189
-52.0474
-51.8589
-51.6116
-51.2868
-50.8613
-50.3088
-49.5954
-48.6614
-47.4019
-45.6502
-43.168
-39.6168
-34.7092
-28.5163
-51.4935
-51.7759
-52.1602
-52.4985
-52.7667
-52.9706
-53.1123
-53.1882
-53.1939
-53.1223
-52.9638
-52.7047
-52.3286
-51.8121
-51.1231
-50.2191
-49.0441
-47.5232
-45.5486
-42.9651
-39.585
-35.2427
-29.8855
-23.7997
-51.3022
-51.5254
-51.909
-52.2537
-52.5227
-52.7172
-52.8374
-52.8799
-52.8397
-52.706
-52.4668
-52.1054
-51.6027
-50.933
-50.0594
-48.9372
-47.5061
-45.6888
-43.3847
-40.4853
-36.8811
-32.5252
-27.4962
-22.0566
-50.956
-51.0805
-51.4341
-51.759
-52.0126
-52.1938
-52.2955
-52.3087
-52.2276
-52.0416
-51.7387
-51.3039
-50.7137
-49.9346
-48.9334
-47.6634
-46.0624
-44.0681
-41.6024
-38.5784
-34.9329
-30.6687
-25.8754
-20.7984
-50.458
-50.4633
-50.7792
-51.0725
-51.3
-51.4588
-51.5371
-51.5233
-51.4073
-51.1803
-50.833
-50.346
-49.7007
-48.8634
-47.7915
-46.4411
-44.7622
-42.6874
-40.1553
-37.1104
-33.499
-29.3309
-24.6944
-19.8244
-49.9952
-49.7419
-50.0296
-50.2726
-50.4656
-50.6174
-50.6839
-50.6536
-50.5104
-50.2345
-49.8358
-49.3044
-48.6265
-47.7568
-46.6528
-45.2594
-43.5226
-41.4084
-38.8712
-35.8519
-32.2757
-28.1851
-23.6646
-18.9419
-48.8228
-48.9404
-49.2411
-49.3972
-49.5282
-49.7011
-49.7824
-49.7568
-49.6115
-49.3007
-48.8573
-48.2874
-47.6105
-46.7484
-45.6576
-44.2749
-42.5352
-40.4091
-37.9021
-34.99
-31.4814
-27.5042
-23.0784
-18.4986
-47.8092
-48.1419
-48.5626
-48.5367
-48.4426
-48.6484
-48.7954
-48.8056
-48.6884
-48.2953
-47.7009
-46.8723
-46.1259
-45.2919
-44.2416
-42.8846
-41.1027
-38.8706
-36.2857
-33.6172
-30.1282
-26.1208
-21.6221
-17.2042
-48.4512
-48.8975
-49.944
-49.6397
-49.2555
-49.4082
-49.9471
-50.5244
-51.0764
-51.2279
-51.6748
-50.2095
-49.2049
-48.4794
-47.9928
-47.3819
-46.5239
-43.31
-39.1527
-36.7352
-34.3923
-30.2805
-25.8538
-21.4705
-28.2752
-23.0419
-19.1431
-15.5184
-12.0559
-8.79384
-5.73019
-2.84574
-0.112933
2.49962
5.03091
7.51381
9.97125
12.422
14.8774
17.3453
19.8302
22.3346
24.8598
27.409
29.9844
32.5596
35.1519
38.102
-21.6529
-17.9698
-15.7244
-13.4433
-10.9814
-8.39337
-5.73649
-3.05695
-0.387477
2.25111
4.846
7.39237
9.8898
12.3427
14.7583
17.1459
19.5134
21.8702
24.2242
26.5844
28.9583
31.3283
33.7047
36.2843
-17.7819
-13.2454
-10.8324
-8.88887
-6.89621
-4.81515
-2.66404
-0.466479
1.75902
3.99792
6.23908
8.47609
10.7027
12.9175
15.1199
17.3116
19.4946
21.6722
23.8478
26.0264
28.213
30.4021
32.6015
34.8625
-16.6529
-11.9775
-9.28596
-7.33618
-5.38319
-3.38535
-1.3512
0.70357
2.76851
4.83834
6.90689
8.97299
11.0345
13.0914
15.1441
17.1943
19.2427
21.2916
23.3429
25.3998
27.4636
29.5314
31.6229
33.8025
-15.7767
-11.3035
-8.45487
-6.50707
-4.57472
-2.61089
-0.616361
1.39144
3.40181
5.40919
7.40809
9.39683
11.3747
13.3407
15.2958
17.2424
19.1823
21.1174
23.0501
24.9841
26.9191
28.8477
30.7932
32.8287
-15.0136
-10.671
-7.6547
-5.63878
-3.69084
-1.74096
0.22379
2.18899
4.14827
6.09592
8.02954
9.94762
11.8492
13.7342
15.6021
17.4557
19.2957
21.1249
22.9461
24.7615
26.5697
28.3585
30.1533
32.0582
-14.2938
-10.0735
-6.95621
-4.85612
-2.87751
-0.926791
1.01791
2.94865
4.86314
6.75781
8.6322
10.4879
12.3235
14.1368
15.9284
17.7004
19.4539
21.1912
22.9157
24.6298
26.3292
27.9975
29.6717
31.4825
-13.9067
-9.67967
-6.42382
-4.20314
-2.18334
-0.231453
1.69321
3.59511
5.47506
7.32656
9.15445
10.9646
12.754
14.5111
16.2391
17.9444
19.6256
21.2881
22.9348
24.5678
26.1767
27.7315
29.288
31.0297
-12.8444
-8.85209
-5.66373
-3.44678
-1.48622
0.408945
2.28915
4.15991
6.01356
7.82653
9.6152
11.3963
13.1587
14.8662
16.5367
18.1897
19.8067
21.3995
22.9764
24.5399
26.0661
27.4989
28.9658
30.563
-15.3814
-9.48552
-5.32641
-2.8193
-0.865672
0.966808
2.80056
4.66011
6.51193
8.25775
9.99248
11.7785
13.5608
15.2009
16.8042
18.4303
19.9758
21.5249
23.0853
24.6434
26.1423
27.4357
28.8957
30.3327
-131.327
-127.501
-124.071
-120.667
-115.685
-109.273
-102.074
-94.4222
-86.4725
-78.4942
-70.6827
-63.1628
-56.0116
-49.3148
-43.1453
-37.5492
-32.5469
-28.132
-24.2563
-20.8774
-17.9264
-15.3373
-13.035
-11.0467
-83.9488
-83.9875
-83.5738
-82.8289
-81.9083
-81.0365
-80.3748
-79.9364
-79.5023
-78.7009
-77.2522
-75.0663
-72.1435
-68.535
-64.2981
-59.5652
-54.4882
-49.2478
-44.0244
-38.9794
-34.2298
-29.8498
-25.8286
-22.4271
-92.7936
-92.7011
-92.7444
-92.7929
-92.7976
-92.6695
-92.2646
-91.4561
-90.2395
-88.6973
-86.9229
-84.911
-82.5384
-79.672
-76.293
-72.4073
-68.0434
-63.2579
-58.1611
-52.8837
-47.5885
-42.4284
-37.4684
-33.1866
-87.5308
-87.5025
-87.4283
-87.3233
-87.1943
-87.0416
-86.8574
-86.6231
-86.3081
-85.8751
-85.2616
-84.4047
-83.3241
-81.9989
-80.2841
-78.0437
-75.2042
-71.7383
-67.6741
-63.0917
-58.1251
-52.965
-47.7404
-43.3047
-88.1179
-88.1067
-88.1101
-88.1027
-88.0783
-88.0295
-87.9465
-87.8164
-87.6186
-87.3246
-86.9024
-86.3164
-85.5214
-84.4869
-83.1996
-81.6013
-79.5889
-77.0794
-74.005
-70.3392
-66.1079
-61.4188
-56.3523
-52.0463
-87.0814
-87.0759
-87.0616
-87.035
-86.9965
-86.9444
-86.8755
-86.7851
-86.6649
-86.5032
-86.2815
-85.9761
-85.557
-84.9839
-84.2027
-83.1741
-81.8393
-80.1087
-77.8928
-75.1158
-71.734
-67.7129
-63.1824
-56.2562
-86.9114
-86.9086
-86.9043
-86.8917
-86.8706
-86.8389
-86.7936
-86.7307
-86.6441
-86.5262
-86.3653
-86.1459
-85.8478
-85.4473
-84.9087
-84.187
-83.2349
-81.9937
-80.3763
-78.2948
-75.6761
-72.4058
-68.8438
-62.2631
-86.6049
-86.6019
-86.595
-86.5807
-86.5594
-86.5298
-86.4903
-86.4387
-86.3712
-86.2831
-86.1672
-86.0141
-85.8091
-85.535
-85.1671
-84.6722
-84.007
-83.1212
-81.9504
-80.4065
-78.4145
-75.8265
-73.0134
-66.8325
-86.4764
-86.4739
-86.4683
-86.4566
-86.4388
-86.4141
-86.381
-86.3378
-86.2818
-86.2096
-86.1156
-85.9938
-85.8349
-85.6258
-85.3499
-84.9842
-84.4958
-83.8438
-82.9763
-81.8251
-80.3125
-78.2907
-76.0589
-70.4534
-86.3829
-86.3806
-86.3744
-86.363
-86.3461
-86.3231
-86.293
-86.2545
-86.2056
-86.1439
-86.0655
-85.9659
-85.8384
-85.6743
-85.461
-85.1819
-84.813
-84.3226
-83.6693
-82.7999
-81.6513
-80.1036
-78.3934
-73.7833
-86.3576
-86.3555
-86.3496
-86.3391
-86.3234
-86.3023
-86.2749
-86.24
-86.1962
-86.1416
-86.0732
-85.9873
-85.8794
-85.7433
-85.5698
-85.3467
-85.057
-84.6764
-84.1715
-83.5002
-82.6144
-81.4149
-80.0261
-76.3364
-86.376
-86.374
-86.3683
-86.3585
-86.3438
-86.3241
-86.2987
-86.2667
-86.2269
-86.1778
-86.117
-86.0416
-85.948
-85.8318
-85.6865
-85.503
-85.268
-84.9635
-84.5643
-84.0355
-83.3393
-82.4023
-81.2753
-78.1488
-86.4376
-86.4355
-86.4297
-86.4204
-86.4066
-86.3884
-86.3649
-86.3356
-86.2994
-86.2551
-86.2007
-86.1338
-86.0513
-85.9502
-85.8256
-85.6708
-85.4763
-85.2282
-84.9067
-84.4851
-83.9342
-83.2043
-82.3359
-79.9867
-86.5303
-86.5286
-86.523
-86.5145
-86.5018
-86.4851
-86.4637
-86.4372
-86.4047
-86.365
-86.3166
-86.2575
-86.1851
-86.0967
-85.9891
-85.8575
-85.6945
-85.4897
-85.2281
-84.8888
-84.4479
-83.866
-83.142
-81.4578
-86.6484
-86.647
-86.6418
-86.6342
-86.6229
-86.608
-86.589
-86.5656
-86.5369
-86.5021
-86.4597
-86.4082
-86.3453
-86.2688
-86.1762
-86.064
-85.927
-85.7572
-85.5434
-85.2693
-84.9157
-84.45
-83.8439
-82.5261
-86.7883
-86.7867
-86.7816
-86.7745
-86.7642
-86.7509
-86.7341
-86.7136
-86.6886
-86.6584
-86.622
-86.5779
-86.5242
-86.459
-86.3802
-86.2855
-86.1713
-86.0317
-85.8574
-85.6358
-85.3516
-84.9782
-84.4875
-83.3893
-86.936
-86.9348
-86.9301
-86.9241
-86.9152
-86.9037
-86.8894
-86.872
-86.8509
-86.8256
-86.7951
-86.7583
-86.7136
-86.6592
-86.5935
-86.515
-86.4208
-86.3067
-86.1659
-85.9881
-85.7615
-85.464
-85.0594
-84.1464
-87.0908
-87.0895
-87.0852
-87.0798
-87.0721
-87.0622
-87.05
-87.0353
-87.0177
-86.9967
-86.9717
-86.9416
-86.9051
-86.8606
-86.8069
-86.7426
-86.6658
-86.5736
-86.4603
-86.3178
-86.1359
-85.8953
-85.5591
-84.7941
-87.2411
-87.2402
-87.2362
-87.2316
-87.2251
-87.2168
-87.2068
-87.1947
-87.1804
-87.1636
-87.1435
-87.1194
-87.0902
-87.0548
-87.0116
-86.9596
-86.8976
-86.8231
-86.7313
-86.6151
-86.4646
-86.26
-85.9621
-85.2888
-87.3848
-87.3842
-87.3808
-87.3771
-87.3717
-87.3648
-87.3565
-87.3467
-87.3352
-87.3217
-87.3058
-87.2868
-87.2639
-87.2359
-87.2016
-87.1602
-87.1103
-87.05
-86.9758
-86.8813
-86.7585
-86.5903
-86.345
-85.7823
-87.5184
-87.5176
-87.5144
-87.511
-87.5063
-87.5005
-87.4936
-87.4857
-87.4764
-87.4658
-87.4534
-87.4386
-87.4208
-87.3989
-87.3719
-87.3388
-87.2985
-87.2493
-87.1874
-87.1067
-86.9985
-86.848
-86.6404
-86.0984
-87.6368
-87.6363
-87.6335
-87.6307
-87.6268
-87.6218
-87.6161
-87.6096
-87.6022
-87.5937
-87.5839
-87.5724
-87.5586
-87.5417
-87.5205
-87.4943
-87.4619
-87.4218
-87.371
-87.3041
-87.2142
-87.0879
-86.9066
-86.4898
-87.7386
-87.7382
-87.7356
-87.7332
-87.7298
-87.7256
-87.7209
-87.7155
-87.7095
-87.7027
-87.6951
-87.6861
-87.6754
-87.6622
-87.6456
-87.6246
-87.5982
-87.5648
-87.5217
-87.4636
-87.383
-87.2679
-87.1059
-86.7167
-87.8235
-87.8231
-87.8209
-87.8187
-87.8157
-87.812
-87.8079
-87.8033
-87.7983
-87.7927
-87.7865
-87.7793
-87.7708
-87.7603
-87.747
-87.7299
-87.7081
-87.6803
-87.6438
-87.5943
-87.5256
-87.4255
-87.2759
-86.9705
-87.889
-87.8887
-87.8868
-87.8849
-87.8824
-87.8792
-87.8757
-87.8718
-87.8675
-87.8629
-87.8577
-87.8518
-87.8447
-87.836
-87.8248
-87.8103
-87.7915
-87.7669
-87.7341
-87.6884
-87.6234
-87.5291
-87.3925
-87.0254
-87.9396
-87.9393
-87.9375
-87.9358
-87.9333
-87.9304
-87.927
-87.9234
-87.9194
-87.9151
-87.9103
-87.9049
-87.8986
-87.8909
-87.881
-87.8681
-87.8512
-87.829
-87.7991
-87.7576
-87.6991
-87.6149
-87.4903
-87.19
-87.9723
-87.972
-87.9703
-87.9688
-87.9665
-87.9637
-87.9605
-87.9571
-87.9533
-87.9492
-87.9447
-87.9396
-87.9336
-87.9262
-87.9169
-87.9047
-87.8886
-87.8673
-87.8385
-87.7983
-87.7412
-87.6583
-87.5297
-87.2228
-87.9912
-87.9909
-87.9893
-87.9877
-87.9854
-87.9826
-87.9795
-87.9759
-87.9721
-87.9679
-87.9632
-87.958
-87.9519
-87.9445
-87.9352
-87.9232
-87.9075
-87.8867
-87.8588
-87.8204
-87.766
-87.6857
-87.5569
-87.3144
-87.9946
-87.9944
-87.9928
-87.9914
-87.9892
-87.9865
-87.9834
-87.9799
-87.976
-87.9717
-87.9669
-87.9614
-87.9551
-87.9474
-87.9378
-87.9257
-87.91
-87.8897
-87.863
-87.8274
-87.7781
-87.7041
-87.5909
-87.5564
-87.988
-87.9879
-87.9863
-87.9848
-87.9826
-87.9797
-87.9764
-87.9726
-87.9683
-87.9636
-87.9583
-87.9522
-87.9452
-87.9369
-87.9267
-87.9138
-87.8974
-87.8765
-87.8494
-87.8137
-87.7646
-87.6919
-87.5887
-87.6032
-87.9696
-87.9694
-87.9678
-87.9662
-87.964
-87.961
-87.9576
-87.9536
-87.9491
-87.9441
-87.9384
-87.9318
-87.9241
-87.9149
-87.9037
-87.8897
-87.8721
-87.8497
-87.8209
-87.7825
-87.7302
-87.6626
-87.582
-87.3493
-87.9425
-87.9424
-87.941
-87.9394
-87.9371
-87.9341
-87.9305
-87.9263
-87.9215
-87.916
-87.9098
-87.9025
-87.8941
-87.884
-87.8718
-87.8567
-87.8378
-87.8139
-87.7835
-87.7437
-87.6908
-87.626
-87.55
-87.2787
-87.9075
-87.9074
-87.9059
-87.9043
-87.902
-87.899
-87.8953
-87.891
-87.886
-87.8803
-87.8737
-87.8659
-87.8569
-87.8461
-87.833
-87.8169
-87.7968
-87.7717
-87.74
-87.6993
-87.6459
-87.5755
-87.4806
-87.3522
-87.8679
-87.8677
-87.8662
-87.8646
-87.8622
-87.859
-87.8552
-87.8506
-87.8454
-87.8392
-87.8322
-87.824
-87.8144
-87.803
-87.7893
-87.7724
-87.7516
-87.7256
-87.6928
-87.651
-87.5958
-87.5205
-87.4128
-87.2722
-87.8219
-87.8217
-87.8202
-87.8186
-87.8162
-87.813
-87.8091
-87.8045
-87.7991
-87.7929
-87.7857
-87.7773
-87.7675
-87.7559
-87.7419
-87.7249
-87.704
-87.6782
-87.6461
-87.6059
-87.5547
-87.488
-87.3993
-87.3002
-87.7723
-87.7722
-87.7706
-87.769
-87.7666
-87.7633
-87.7594
-87.7547
-87.7492
-87.7429
-87.7355
-87.727
-87.7171
-87.7053
-87.6913
-87.6744
-87.6538
-87.6285
-87.5974
-87.5588
-87.51
-87.4471
-87.363
-87.2662
-87.7175
-87.7173
-87.7159
-87.7143
-87.712
-87.7088
-87.705
-87.7004
-87.695
-87.6888
-87.6815
-87.6731
-87.6632
-87.6516
-87.6378
-87.6213
-87.6013
-87.5771
-87.5475
-87.5113
-87.4663
-87.4101
-87.3387
-87.2501
-87.6611
-87.661
-87.6595
-87.6579
-87.6555
-87.6523
-87.6484
-87.6437
-87.6383
-87.6319
-87.6246
-87.6162
-87.6064
-87.5949
-87.5814
-87.5653
-87.5459
-87.5227
-87.4947
-87.4609
-87.4193
-87.3676
-87.3035
-87.2467
-87.5999
-87.5998
-87.5983
-87.5967
-87.5944
-87.5912
-87.5874
-87.5829
-87.5775
-87.5714
-87.5642
-87.5559
-87.5462
-87.5349
-87.5216
-87.5059
-87.4871
-87.4647
-87.4381
-87.4064
-87.3685
-87.3221
-87.2643
-87.2491
-87.5366
-87.5365
-87.535
-87.5335
-87.5312
-87.528
-87.5242
-87.5197
-87.5144
-87.5081
-87.501
-87.4927
-87.4831
-87.4718
-87.4586
-87.443
-87.4244
-87.4021
-87.3754
-87.3433
-87.3042
-87.2553
-87.1858
-87.0666
-87.4693
-87.4692
-87.4677
-87.4662
-87.464
-87.4609
-87.4573
-87.4528
-87.4477
-87.4417
-87.4347
-87.4265
-87.4171
-87.406
-87.3929
-87.3775
-87.359
-87.337
-87.3104
-87.2785
-87.2391
-87.1892
-87.1244
-87.0455
-87.4008
-87.4007
-87.3992
-87.3977
-87.3954
-87.3924
-87.3887
-87.3842
-87.3791
-87.373
-87.3661
-87.358
-87.3487
-87.3377
-87.3249
-87.3096
-87.2915
-87.2698
-87.2438
-87.2127
-87.1752
-87.1294
-87.0744
-87.0405
-87.3281
-87.3279
-87.3265
-87.325
-87.3229
-87.3199
-87.3163
-87.3121
-87.3071
-87.3013
-87.2946
-87.2867
-87.2776
-87.267
-87.2544
-87.2396
-87.2219
-87.2006
-87.1749
-87.1436
-87.1054
-87.0596
-86.9986
-86.8034
-87.2539
-87.2537
-87.2523
-87.2508
-87.2486
-87.2457
-87.2421
-87.2379
-87.233
-87.2273
-87.2207
-87.2131
-87.2043
-87.194
-87.1819
-87.1677
-87.1507
-87.1304
-87.1062
-87.0775
-87.0435
-87.002
-86.9512
-86.965
-87.1754
-87.1752
-87.1737
-87.1722
-87.1702
-87.1674
-87.164
-87.16
-87.1553
-87.15
-87.1438
-87.1365
-87.1281
-87.1183
-87.1068
-87.0932
-87.0769
-87.0575
-87.034
-87.0057
-86.971
-86.9291
-86.8731
-86.7143
-87.0946
-87.0945
-87.0931
-87.0917
-87.0897
-87.087
-87.0837
-87.0798
-87.0754
-87.0701
-87.0641
-87.0573
-87.0493
-87.04
-87.0292
-87.0164
-87.0012
-86.9832
-86.9618
-86.9367
-86.9073
-86.8722
-86.8338
-86.8521
-87.0097
-87.0096
-87.0082
-87.0069
-87.005
-87.0025
-86.9994
-86.9957
-86.9915
-86.9866
-86.981
-86.9745
-86.9671
-86.9584
-86.9482
-86.9361
-86.9219
-86.9049
-86.8846
-86.8605
-86.8318
-86.7966
-86.7541
-86.7092
-86.9224
-86.9223
-86.9209
-86.9196
-86.9178
-86.9153
-86.9123
-86.9088
-86.9047
-86.9
-86.8947
-86.8885
-86.8815
-86.8733
-86.8638
-86.8526
-86.8393
-86.8234
-86.8044
-86.7818
-86.7549
-86.7221
-86.681
-86.6143
-86.8301
-86.83
-86.8286
-86.8274
-86.8257
-86.8234
-86.8206
-86.8173
-86.8136
-86.8092
-86.8043
-86.7986
-86.7921
-86.7845
-86.7756
-86.7652
-86.7529
-86.7381
-86.7204
-86.6993
-86.6741
-86.6429
-86.6033
-86.591
-86.7354
-86.7353
-86.734
-86.7327
-86.731
-86.7288
-86.726
-86.7228
-86.7192
-86.715
-86.7103
-86.7049
-86.6988
-86.6917
-86.6836
-86.674
-86.6626
-86.6489
-86.6324
-86.6122
-86.5874
-86.5575
-86.5162
-86.3796
-86.6354
-86.6352
-86.634
-86.6328
-86.6312
-86.629
-86.6265
-86.6235
-86.62
-86.6162
-86.6118
-86.6068
-86.6012
-86.5947
-86.5872
-86.5786
-86.5684
-86.5563
-86.5421
-86.5254
-86.5062
-86.4838
-86.4603
-86.4953
-86.532
-86.5318
-86.5305
-86.5293
-86.5277
-86.5256
-86.5231
-86.5202
-86.5169
-86.5131
-86.5089
-86.5042
-86.499
-86.4929
-86.486
-86.478
-86.4687
-86.4577
-86.4448
-86.4296
-86.4115
-86.389
-86.3598
-86.3358
-86.4223
-86.4222
-86.4209
-86.4198
-86.4184
-86.4164
-86.4141
-86.4114
-86.4084
-86.4049
-86.4011
-86.3967
-86.3917
-86.3861
-86.3796
-86.3721
-86.3636
-86.3536
-86.3419
-86.3285
-86.3132
-86.2965
-86.2802
-86.2664
-86.3089
-86.309
-86.3081
-86.3071
-86.3058
-86.3039
-86.3017
-86.2991
-86.2961
-86.2927
-86.2889
-86.2845
-86.2797
-86.2742
-86.2679
-86.2607
-86.2524
-86.2425
-86.231
-86.2174
-86.2013
-86.1824
-86.1617
-86.1198
-86.1931
-86.1928
-86.1914
-86.1903
-86.1888
-86.1868
-86.1845
-86.1819
-86.1789
-86.1756
-86.1719
-86.1676
-86.1629
-86.1574
-86.1512
-86.1441
-86.1357
-86.126
-86.1146
-86.1011
-86.0851
-86.0659
-86.0424
-86.0064
-86.0705
-86.0705
-86.0693
-86.0682
-86.0668
-86.065
-86.0628
-86.0602
-86.0573
-86.054
-86.0503
-86.0461
-86.0414
-86.0359
-86.0297
-86.0224
-86.014
-86.0042
-85.9925
-85.9788
-85.9623
-85.9422
-85.9161
-85.8805
-85.9433
-85.9433
-85.9424
-85.9416
-85.9404
-85.9386
-85.9366
-85.9342
-85.9314
-85.9282
-85.9245
-85.9203
-85.9156
-85.9101
-85.9037
-85.8964
-85.8877
-85.8775
-85.8654
-85.8511
-85.834
-85.8135
-85.7895
-85.7573
-85.8163
-85.8159
-85.8146
-85.8134
-85.812
-85.81
-85.8078
-85.8051
-85.8022
-85.7988
-85.7951
-85.7908
-85.7859
-85.7802
-85.7738
-85.7661
-85.7572
-85.7466
-85.7339
-85.7185
-85.6996
-85.6755
-85.645
-85.5959
-85.6816
-85.6814
-85.6802
-85.6791
-85.6777
-85.6759
-85.6737
-85.6712
-85.6683
-85.6651
-85.6614
-85.6571
-85.6522
-85.6466
-85.64
-85.6323
-85.6233
-85.6126
-85.5999
-85.5846
-85.5664
-85.5444
-85.5177
-85.4793
-85.5434
-85.5434
-85.5425
-85.5416
-85.5404
-85.5387
-85.5366
-85.5342
-85.5314
-85.5281
-85.5244
-85.5201
-85.5152
-85.5095
-85.5028
-85.495
-85.4858
-85.4749
-85.462
-85.4467
-85.4284
-85.4066
-85.3831
-85.348
-85.4038
-85.4036
-85.4024
-85.4013
-85.4
-85.3982
-85.3961
-85.3936
-85.3908
-85.3876
-85.3839
-85.3796
-85.3746
-85.3689
-85.3621
-85.3542
-85.345
-85.3341
-85.3211
-85.3058
-85.2876
-85.2663
-85.2429
-85.2094
-85.2595
-85.2595
-85.2586
-85.2577
-85.2565
-85.2548
-85.2527
-85.2503
-85.2475
-85.2442
-85.2404
-85.236
-85.231
-85.2251
-85.2183
-85.2103
-85.2009
-85.1898
-85.1765
-85.1608
-85.1419
-85.1194
-85.0927
-85.0527
-85.1146
-85.1142
-85.1129
-85.1117
-85.1103
-85.1085
-85.1063
-85.1037
-85.1008
-85.0976
-85.0938
-85.0894
-85.0843
-85.0784
-85.0716
-85.0635
-85.054
-85.0428
-85.0295
-85.0137
-84.9946
-84.9709
-84.9407
-84.8965
-84.964
-84.9639
-84.9627
-84.9616
-84.9602
-84.9585
-84.9563
-84.9539
-84.951
-84.9477
-84.944
-84.9396
-84.9346
-84.9287
-84.9218
-84.9137
-84.9043
-84.8932
-84.8803
-84.8653
-84.8479
-84.8276
-84.804
-84.7867
-84.8097
-84.8098
-84.8089
-84.808
-84.8069
-84.8052
-84.8033
-84.8009
-84.7982
-84.795
-84.7913
-84.787
-84.7819
-84.7759
-84.769
-84.7609
-84.7513
-84.74
-84.727
-84.7117
-84.6938
-84.6734
-84.6532
-84.6192
-84.6567
-84.6563
-84.655
-84.6539
-84.6525
-84.6507
-84.6486
-84.6461
-84.6432
-84.6399
-84.6361
-84.6317
-84.6265
-84.6204
-84.6133
-84.605
-84.5953
-84.5839
-84.5706
-84.5551
-84.5369
-84.5159
-84.4932
-84.4714
-84.4975
-84.4975
-84.4964
-84.4954
-84.494
-84.4923
-84.4903
-84.4878
-84.485
-84.4817
-84.478
-84.4735
-84.4683
-84.4622
-84.455
-84.4465
-84.4366
-84.4248
-84.4111
-84.3951
-84.3764
-84.3545
-84.3278
-84.2865
-84.338
-84.3377
-84.3365
-84.3353
-84.3339
-84.3321
-84.33
-84.3275
-84.3246
-84.3213
-84.3174
-84.3129
-84.3076
-84.3014
-84.2941
-84.2854
-84.2751
-84.2631
-84.2491
-84.2327
-84.2138
-84.1918
-84.166
-84.1346
-84.1735
-84.1734
-84.1722
-84.1711
-84.1698
-84.1682
-84.1661
-84.1638
-84.161
-84.1578
-84.154
-84.1496
-84.1443
-84.138
-84.1306
-84.1217
-84.1114
-84.0991
-84.0847
-84.0679
-84.0485
-84.0264
-84.0028
-83.9786
-84.0074
-84.0075
-84.0066
-84.0057
-84.0044
-84.0028
-84.0009
-83.9985
-83.9958
-83.9925
-83.9887
-83.9841
-83.9788
-83.9724
-83.9648
-83.9558
-83.9451
-83.9324
-83.9175
-83.8999
-83.8795
-83.8565
-83.8327
-83.8108
-83.8419
-83.8414
-83.8401
-83.8389
-83.8374
-83.8356
-83.8335
-83.8311
-83.8282
-83.8249
-83.8211
-83.8165
-83.8111
-83.8047
-83.797
-83.7879
-83.7769
-83.7639
-83.7484
-83.7298
-83.7076
-83.681
-83.6479
-83.5765
-83.6709
-83.6708
-83.6696
-83.6684
-83.6671
-83.6654
-83.6634
-83.661
-83.6582
-83.655
-83.6511
-83.6466
-83.6412
-83.6347
-83.627
-83.6178
-83.6069
-83.594
-83.5786
-83.5606
-83.5393
-83.5148
-83.4901
-83.4996
-83.4977
-83.4977
-83.4967
-83.4958
-83.4946
-83.493
-83.4911
-83.4889
-83.4862
-83.483
-83.4792
-83.4747
-83.4693
-83.4628
-83.4551
-83.4459
-83.4348
-83.4217
-83.4061
-83.3876
-83.3658
-83.3418
-83.3173
-83.2474
-83.3259
-83.3254
-83.324
-83.3227
-83.3212
-83.3195
-83.3175
-83.3151
-83.3123
-83.3091
-83.3053
-83.3007
-83.2953
-83.2888
-83.2811
-83.2718
-83.2607
-83.2476
-83.2321
-83.2138
-83.1924
-83.1678
-83.1378
-83.1029
-83.1473
-83.1474
-83.1463
-83.1454
-83.1442
-83.1426
-83.1408
-83.1385
-83.1359
-83.1328
-83.1291
-83.1246
-83.1192
-83.1128
-83.105
-83.0957
-83.0847
-83.0715
-83.0559
-83.0376
-83.0161
-82.9908
-82.9575
-82.9093
-82.9712
-82.9708
-82.9694
-82.9681
-82.9667
-82.965
-82.963
-82.9606
-82.9579
-82.9548
-82.951
-82.9465
-82.9411
-82.9347
-82.9269
-82.9176
-82.9064
-82.8932
-82.8777
-82.8596
-82.8389
-82.8154
-82.7941
-82.7979
-82.789
-82.7888
-82.7875
-82.7864
-82.7851
-82.7835
-82.7817
-82.7795
-82.777
-82.7739
-82.7703
-82.7659
-82.7606
-82.7542
-82.7464
-82.7371
-82.7259
-82.7125
-82.6966
-82.6778
-82.6557
-82.63
-82.603
-82.5667
-82.6052
-82.6052
-82.6042
-82.6033
-82.6021
-82.6007
-82.5989
-82.5969
-82.5944
-82.5914
-82.5878
-82.5835
-82.5782
-82.5718
-82.5641
-82.5547
-82.5433
-82.5296
-82.5136
-82.4947
-82.4729
-82.4482
-82.4213
-82.4054
-82.4223
-82.4217
-82.4203
-82.419
-82.4176
-82.416
-82.4142
-82.412
-82.4095
-82.4066
-82.4031
-82.3988
-82.3936
-82.3873
-82.3795
-82.37
-82.3585
-82.3446
-82.3277
-82.3074
-82.2829
-82.2538
-82.2221
-82.1684
-82.2334
-82.2332
-82.2319
-82.2307
-82.2294
-82.228
-82.2263
-82.2243
-82.222
-82.2192
-82.2159
-82.2118
-82.2068
-82.2007
-82.1931
-82.1838
-82.1724
-82.1585
-82.1415
-82.1209
-82.0957
-82.0649
-82.0278
-81.9704
-82.0418
-82.0418
-82.0406
-82.0397
-82.0386
-82.0373
-82.0358
-82.034
-82.032
-82.0294
-82.0263
-82.0225
-82.0179
-82.012
-82.0048
-81.9959
-81.9848
-81.9714
-81.955
-81.9354
-81.9121
-81.8839
-81.8478
-81.8146
-81.8495
-81.8491
-81.8477
-81.8467
-81.8455
-81.8443
-81.8428
-81.8412
-81.8392
-81.8369
-81.8341
-81.8306
-81.8263
-81.8208
-81.8141
-81.8056
-81.7952
-81.7824
-81.7668
-81.748
-81.7254
-81.6984
-81.6659
-81.6447
-81.6514
-81.6514
-81.6503
-81.6495
-81.6486
-81.6476
-81.6464
-81.6449
-81.6433
-81.6413
-81.6388
-81.6357
-81.6319
-81.627
-81.6208
-81.613
-81.6033
-81.5912
-81.5763
-81.5579
-81.5354
-81.5085
-81.4779
-81.4177
-81.4531
-81.4526
-81.4513
-81.4503
-81.4493
-81.4482
-81.447
-81.4457
-81.4442
-81.4425
-81.4404
-81.4377
-81.4343
-81.43
-81.4245
-81.4176
-81.4087
-81.3977
-81.3842
-81.3677
-81.3479
-81.3248
-81.2978
-81.2673
-81.2478
-81.2477
-81.2464
-81.2455
-81.2447
-81.2438
-81.2428
-81.2418
-81.2406
-81.2393
-81.2376
-81.2355
-81.2328
-81.2292
-81.2245
-81.2185
-81.2108
-81.201
-81.1887
-81.1734
-81.1549
-81.132
-81.102
-81.0682
-81.0384
-81.0382
-81.037
-81.0361
-81.0354
-81.0346
-81.0339
-81.0332
-81.0324
-81.0315
-81.0304
-81.0289
-81.027
-81.0242
-81.0205
-81.0156
-81.009
-81.0005
-80.9896
-80.976
-80.9592
-80.9387
-80.9123
-80.8868
-80.8214
-80.8213
-80.8204
-80.8199
-80.8196
-80.8193
-80.8191
-80.8189
-80.8187
-80.8184
-80.818
-80.8173
-80.8162
-80.8144
-80.8118
-80.808
-80.8028
-80.7958
-80.7865
-80.7744
-80.759
-80.7393
-80.7153
-80.6763
-80.601
-80.6009
-80.5999
-80.5994
-80.5992
-80.5991
-80.5992
-80.5993
-80.5996
-80.5999
-80.6002
-80.6003
-80.6
-80.5993
-80.5979
-80.5955
-80.5919
-80.5867
-80.5795
-80.57
-80.5579
-80.5434
-80.5264
-80.5087
-80.3729
-80.373
-80.3723
-80.3722
-80.3724
-80.3726
-80.373
-80.3736
-80.3745
-80.3754
-80.3763
-80.3772
-80.378
-80.3784
-80.3782
-80.3773
-80.3752
-80.3718
-80.3665
-80.3591
-80.3491
-80.3356
-80.316
-80.2895
-80.1414
-80.1411
-80.14
-80.1396
-80.1395
-80.1398
-80.1403
-80.1412
-80.1424
-80.1439
-80.1455
-80.1473
-80.1491
-80.1506
-80.1519
-80.1525
-80.1524
-80.151
-80.1481
-80.1433
-80.1363
-80.1261
-80.1102
-80.1058
-79.8971
-79.8971
-79.8965
-79.8965
-79.8969
-79.8976
-79.8987
-79.9002
-79.9021
-79.9043
-79.9068
-79.9096
-79.9125
-79.9155
-79.9183
-79.9207
-79.9226
-79.9234
-79.9229
-79.9205
-79.9156
-79.9075
-79.8957
-79.8717
-79.6479
-79.6474
-79.6465
-79.6465
-79.647
-79.6478
-79.6492
-79.6511
-79.6534
-79.6564
-79.6598
-79.6636
-79.6678
-79.6722
-79.6767
-79.6811
-79.6852
-79.6886
-79.6912
-79.6924
-79.6921
-79.6903
-79.6869
-79.6817
-79.3874
-79.3872
-79.3864
-79.3864
-79.387
-79.3881
-79.3898
-79.3921
-79.3951
-79.3987
-79.403
-79.4079
-79.4135
-79.4195
-79.4259
-79.4325
-79.4391
-79.4455
-79.4511
-79.4558
-79.4588
-79.4595
-79.4557
-79.4425
-79.117
-79.1164
-79.1152
-79.115
-79.1154
-79.1166
-79.1186
-79.1215
-79.1252
-79.1297
-79.1351
-79.1414
-79.1485
-79.1564
-79.165
-79.1741
-79.1835
-79.1931
-79.2026
-79.2117
-79.22
-79.2274
-79.2318
-79.241
-78.824
-78.8242
-78.8242
-78.8253
-78.8272
-78.8297
-78.8331
-78.8372
-78.8422
-78.8482
-78.8551
-78.863
-78.872
-78.8819
-78.8928
-78.9046
-78.9171
-78.9303
-78.9438
-78.9575
-78.971
-78.984
-78.9944
-79.0169
-78.5283
-78.5283
-78.5282
-78.5291
-78.531
-78.5338
-78.5375
-78.5423
-78.5481
-78.5551
-78.5633
-78.5726
-78.5833
-78.5953
-78.6086
-78.6232
-78.6389
-78.6558
-78.6735
-78.6919
-78.7109
-78.7297
-78.7474
-78.7881
-78.216
-78.2161
-78.2163
-78.2177
-78.2201
-78.2234
-78.2279
-78.2334
-78.2402
-78.2483
-78.2578
-78.2687
-78.2812
-78.2953
-78.3111
-78.3286
-78.3476
-78.3682
-78.3902
-78.4136
-78.4381
-78.4638
-78.4902
-78.5247
-77.8929
-77.8925
-77.8924
-77.8935
-77.8959
-77.8995
-77.9043
-77.9105
-77.9181
-77.9272
-77.938
-77.9505
-77.9648
-77.981
-77.9992
-78.0196
-78.042
-78.0666
-78.0931
-78.1215
-78.1516
-78.183
-78.2145
-78.2723
-77.549
-77.549
-77.5494
-77.5511
-77.5541
-77.5584
-77.564
-77.5709
-77.5796
-77.5899
-77.6021
-77.6162
-77.6325
-77.651
-77.6719
-77.6953
-77.7212
-77.7497
-77.7806
-77.8139
-77.8491
-77.8858
-77.9236
-77.9705
-77.1915
-77.1909
-77.1911
-77.1928
-77.1961
-77.2007
-77.2069
-77.2147
-77.2243
-77.2358
-77.2494
-77.2653