/*--------------------------------*- C++ -*----------------------------------*\
| =========                 |                                                 |
| \\      /  F ield         | OpenFOAM: The Open Source CFD Toolbox           |
|  \\    /   O peration     | Version:  2.3.0                                 |
|   \\  /    A nd           | Web:      www.OpenFOAM.org                      |
|    \\/     M anipulation  |                                                 |
\*---------------------------------------------------------------------------*/
FoamFile
{
    version     2.0;
    format      ascii;
    class       volVectorField;
    location    "3000";
    object      U;
}
// * * * * * * * * * * * * * * * * * * * * * * * * * * * * * * * * * * * * * //

dimensions      [0 1 -1 0 0 0 0];

internalField   nonuniform List<vector> 
14767
(
(21.6434 10.5949 -3.84406e-20)
(21.4407 10.9979 4.07917e-21)
(21.2325 11.4035 -4.25826e-20)
(21.011 11.8161 1.15592e-20)
(20.7736 12.2343 -7.81442e-20)
(20.5165 12.6535 9.94935e-20)
(20.2344 13.068 -5.52816e-20)
(19.9199 13.4706 1.42891e-20)
(19.5639 13.8548 1.3537e-19)
(19.1563 14.2147 -1.59163e-19)
(18.6867 14.5463 1.04376e-19)
(18.1451 14.8485 1.00942e-19)
(17.5225 15.1234 -1.4543e-20)
(16.8109 15.3752 -1.02421e-19)
(16.0032 15.6104 2.62991e-20)
(15.0942 15.8373 1.66952e-20)
(14.0793 16.0618 -1.09641e-19)
(12.9564 16.2899 1.13259e-19)
(11.7247 16.5206 3.20843e-20)
(10.3816 16.7397 3.22961e-20)
(8.93184 16.9337 -1.61626e-20)
(7.42079 17.1496 0)
(5.92838 17.4931 0)
(4.42885 17.7126 0)
(21.2864 10.4457 -1.13365e-19)
(21.0729 10.7841 1.24192e-19)
(20.8517 11.1245 4.31943e-20)
(20.6154 11.4662 2.20307e-20)
(20.3618 11.8114 0)
(20.0889 12.1604 2.37382e-19)
(19.7948 12.5134 2.34394e-20)
(19.4777 12.8699 -2.29705e-19)
(19.1355 13.2283 -1.60554e-20)
(18.7665 13.5856 6.07817e-20)
(18.3685 13.938 -4.63779e-19)
(17.9396 14.2799 4.20462e-19)
(17.4778 14.6048 0)
(16.9814 14.905 0)
(16.4492 15.1715 -2.46504e-20)
(15.8806 15.3946 -9.79276e-19)
(15.2759 15.5635 1.09545e-18)
(14.6369 15.6668 8.40126e-20)
(13.967 15.693 -2.77053e-20)
(13.2717 15.6291 -1.95735e-18)
(12.5608 15.4623 1.90721e-18)
(11.8491 15.1838 -6.79139e-20)
(11.145 14.7904 0)
(10.4373 14.2826 8.21782e-20)
(20.9799 10.2759 1.41292e-19)
(20.7652 10.5594 -9.3792e-20)
(20.5412 10.8429 1.00748e-19)
(20.3037 11.1232 -1.08255e-19)
(20.0509 11.401 0)
(19.7811 11.6752 4.37897e-19)
(19.4924 11.9446 -3.72165e-19)
(19.1827 12.2082 -1.22376e-19)
(18.8499 12.4642 0)
(18.4921 12.7106 -6.80817e-19)
(18.1075 12.9454 5.30848e-19)
(17.6948 13.1655 0)
(17.2533 13.3679 0)
(16.7827 13.5486 -9.24519e-19)
(16.2837 13.7033 9.34552e-19)
(15.7581 13.8271 0)
(15.2089 13.9149 1.28151e-18)
(14.6405 13.9608 -1.35995e-18)
(14.0591 13.9593 0)
(13.473 13.9054 5.20663e-20)
(12.8929 13.7945 0)
(12.3316 13.6245 6.53395e-20)
(11.8028 13.3942 1.17323e-18)
(11.3208 13.103 -2.36251e-18)
(20.734 10.1031 0)
(20.5224 10.338 9.46671e-20)
(20.3035 10.5724 -2.31734e-19)
(20.0743 10.8039 1.08545e-19)
(19.8332 11.0316 0)
(19.5791 11.2546 0)
(19.3109 11.4718 -6.74753e-20)
(19.0275 11.6821 7.297e-20)
(18.728 11.8837 0)
(18.4114 12.0749 -4.07802e-19)
(18.077 12.2534 5.04753e-19)
(17.7242 12.4165 0)
(17.3527 12.5615 0)
(16.9626 12.685 -5.84633e-19)
(16.5546 12.7833 5.11442e-19)
(16.1301 12.8527 -7.05056e-19)
(15.6912 12.8892 7.23589e-19)
(15.2413 12.889 0)
(14.7844 12.8483 -1.1163e-19)
(14.3262 12.7644 1.12394e-18)
(13.8735 12.6353 -8.79501e-19)
(13.4339 12.461 0)
(13.0154 12.243 -7.09973e-20)
(12.6265 11.9852 -1.56221e-19)
(20.5264 9.91794 -2.61693e-19)
(20.3246 10.1211 1.16755e-19)
(20.1154 10.3171 -1.64727e-19)
(19.8974 10.5092 2.96269e-19)
(19.6694 10.6966 3.33644e-19)
(19.4303 10.8786 -3.33836e-19)
(19.1792 11.0543 -4.75412e-19)
(18.915 11.2226 3.78888e-19)
(18.637 11.3823 0)
(18.3443 11.5319 1.18097e-19)
(18.0363 11.6696 4.98737e-19)
(17.713 11.7935 -1.17695e-18)
(17.3742 11.9013 5.43315e-19)
(17.0204 11.9905 -6.29389e-19)
(16.6526 12.0583 7.16939e-19)
(16.2723 12.1018 -8.31753e-19)
(15.8819 12.118 6.54275e-19)
(15.4843 12.104 0)
(15.0831 12.0572 1.12837e-19)
(14.6832 11.9757 -1.22353e-19)
(14.2899 11.8583 -1.08264e-18)
(13.9092 11.705 1.09113e-18)
(13.5471 11.5173 7.62345e-19)
(13.2095 11.2983 -4.54316e-19)
(20.353 9.75046 0)
(20.1646 9.92013 3.14647e-19)
(19.9685 10.0844 0)
(19.7643 10.2451 0)
(19.5516 10.4014 9.69058e-20)
(19.3297 10.5527 0)
(19.0978 10.6979 -9.92617e-21)
(18.8552 10.8363 0)
(18.6012 10.9666 0)
(18.3352 11.0875 -5.0159e-19)
(18.0566 11.1975 5.15248e-19)
(17.7651 11.2948 1.36564e-19)
(17.4607 11.3774 0)
(17.1437 11.4434 1.67763e-19)
(16.8148 11.4905 0)
(16.4756 11.5163 9.29378e-20)
(16.1279 11.5186 0)
(15.7741 11.4948 0)
(15.4175 11.443 9.83247e-19)
(15.0615 11.3618 -9.96146e-19)
(14.7108 11.2503 -1.35449e-19)
(14.37 11.1087 5.97816e-19)
(14.0439 10.938 -1.38731e-18)
(13.737 10.7409 6.35416e-19)
(20.2119 9.59359 -1.71342e-19)
(20.0356 9.73528 1.85609e-19)
(19.8526 9.87446 -1.80862e-19)
(19.6618 10.0101 0)
(19.4635 10.1421 7.93929e-21)
(19.2569 10.2695 5.47105e-19)
(19.0413 10.3917 -2.13835e-19)
(18.8162 10.5077 0)
(18.5809 10.6167 0)
(18.3352 10.7174 -1.28786e-19)
(18.0783 10.8082 5.80001e-19)
(17.8101 10.8877 -5.86061e-19)
(17.5304 10.954 0)
(17.2391 11.0053 -1.69156e-19)
(16.9371 11.0399 0)
(16.6258 11.0557 0)
(16.307 11.0507 2.14771e-19)
(15.9829 11.0226 0)
(15.6558 10.9699 0)
(15.3291 10.8913 7.99064e-19)
(15.0068 10.7861 -8.35983e-19)
(14.6926 10.6543 5.77652e-19)
(14.3908 10.4966 -1.56004e-19)
(14.105 10.3151 -6.71015e-19)
(20.0979 9.45097 -9.56029e-20)
(19.9325 9.56799 1.96979e-19)
(19.762 9.68677 -1.96572e-19)
(19.5836 9.80241 -1.07679e-19)
(19.3987 9.91515 6.48464e-21)
(19.2061 10.024 1.22525e-19)
(19.0053 10.1286 -2.27198e-19)
(18.7955 10.2277 0)
(18.576 10.3208 0)
(18.3472 10.4065 -4.28502e-19)
(18.1085 10.4834 1.3575e-19)
(17.86 10.55 1.47421e-19)
(17.6015 10.6044 1.69364e-19)
(17.332 10.6452 1.86002e-19)
(17.0519 10.6708 -3.71823e-19)
(16.7625 10.6799 -4.18626e-19)
(16.466 10.6706 2.09018e-19)
(16.1649 10.64 0)
(15.8607 10.5864 -2.49671e-19)
(15.5556 10.5103 -5.30047e-19)
(15.2542 10.4103 -1.14003e-18)
(14.9596 10.2861 5.83336e-19)
(14.6755 10.1381 1.57505e-19)
(14.4051 9.96791 0)
(20.0023 9.31823 9.66081e-20)
(19.8471 9.41604 -2.11067e-19)
(19.6896 9.51914 3.18763e-19)
(19.5227 9.61896 3.88393e-21)
(19.3499 9.71664 5.06995e-21)
(19.1697 9.81074 9.87731e-21)
(18.9814 9.90152 1.53103e-20)
(18.7853 9.98697 -2.56352e-19)
(18.5787 10.0678 1.38728e-19)
(18.3638 10.1426 -1.53733e-19)
(18.139 10.2098 1.48137e-19)
(17.9054 10.2681 4.91147e-19)
(17.6648 10.3142 -5.05159e-19)
(17.413 10.3471 -3.25348e-21)
(17.1508 10.365 1.95776e-19)
(16.8781 10.3689 4.24364e-19)
(16.5983 10.3578 2.12869e-20)
(16.3144 10.3276 -4.59281e-19)
(16.0292 10.2728 -1.16717e-20)
(15.7395 10.1983 1.05223e-18)
(15.4538 10.1027 8.57831e-19)
(15.174 9.98493 -5.82576e-19)
(14.904 9.84495 3.12925e-19)
(14.6457 9.68336 0)
(19.9075 9.20038 1.13588e-19)
(19.7674 9.28213 -1.15536e-19)
(19.6293 9.37213 2.31851e-19)
(19.4749 9.45763 4.44016e-21)
(19.3127 9.54341 2.43006e-19)
(19.1446 9.6248 -3.8713e-19)
(18.9669 9.70561 1.29228e-19)
(18.7876 9.77876 -1.41753e-19)
(18.5951 9.84742 -6.71385e-21)
(18.3961 9.91146 1.5643e-19)
(18.1875 9.96896 1.62173e-19)
(17.9632 10.0233 0)
(17.7299 10.0676 1.74704e-19)
(17.485 10.0986 3.72868e-19)
(17.237 10.1099 -8.08956e-19)
(16.9778 10.1066 -1.90605e-20)
(16.7119 10.092 9.1208e-19)
(16.4429 10.0674 -2.25668e-19)
(16.1693 10.0142 -2.36979e-19)
(15.8852 9.94104 -5.34567e-19)
(15.6126 9.84832 5.71204e-19)
(15.3452 9.73578 -3.04101e-19)
(15.0858 9.60344 -6.39264e-21)
(14.835 9.45072 3.26574e-19)
(2.89533 16.8916 -1.38945e-18)
(2.94934 15.4369 1.25347e-18)
(3.24714 14.1223 0)
(3.62364 12.9891 9.19141e-20)
(4.03168 11.991 -9.65535e-19)
(4.45388 11.0968 1.25103e-18)
(4.8822 10.2881 1.51234e-19)
(5.31569 9.55237 1.81967e-19)
(5.75712 8.88398 4.57697e-19)
(6.20262 8.27452 -4.55054e-19)
(6.64691 7.71789 3.04433e-19)
(7.08492 7.209 -9.36139e-19)
(7.5128 6.74355 0)
(7.92781 6.3176 5.97032e-19)
(8.32846 5.92723 -6.3185e-19)
(8.71443 5.56881 2.91117e-19)
(9.08629 5.23859 -4.3089e-19)
(9.44524 4.93283 1.41207e-19)
(9.79284 4.64799 -8.08365e-19)
(10.1307 4.3807 8.21112e-19)
(10.4604 4.12818 1.02168e-18)
(10.7833 3.88861 -9.87209e-19)
(11.0996 3.65879 -1.88056e-18)
(11.4097 3.42928 1.77095e-18)
(9.73711 13.6778 0)
(9.18841 12.9952 9.51172e-20)
(8.79917 12.3014 0)
(8.54055 11.6221 -1.13009e-19)
(8.38548 10.9684 -2.41704e-19)
(8.31331 10.3459 -6.69811e-19)
(8.30783 9.75742 4.09283e-19)
(8.35557 9.20377 5.35382e-19)
(8.44592 8.68474 -5.51893e-19)
(8.57089 8.19956 1.41911e-20)
(8.72372 7.74676 -2.63637e-19)
(8.89876 7.32438 9.41599e-22)
(9.09148 6.9299 2.75444e-19)
(9.2981 6.56054 0)
(9.51554 6.21345 -5.47699e-19)
(9.74137 5.88592 -2.67136e-19)
(9.97357 5.57543 7.82101e-19)
(10.2105 5.27995 0)
(10.4508 4.99783 1.04208e-18)
(10.6935 4.72779 0)
(10.9378 4.46914 0)
(11.1833 4.22131 0)
(11.4292 3.98363 -3.59136e-18)
(11.6764 3.75258 1.73177e-18)
(10.8966 12.7508 1.19016e-18)
(10.537 12.3382 0)
(10.2426 11.8789 -7.40629e-19)
(10.0129 11.3918 8.55342e-19)
(9.84429 10.8912 -7.14626e-19)
(9.73131 10.3883 1.25981e-18)
(9.66816 9.89118 -6.49188e-19)
(9.64882 9.40537 -2.4243e-19)
(9.66753 8.93483 0)
(9.71896 8.48213 2.48239e-19)
(9.79808 8.04868 2.4973e-19)
(9.9002 7.63524 4.7162e-19)
(10.0213 7.24186 2.41612e-19)
(10.1579 6.86819 -7.17232e-19)
(10.3068 6.51357 0)
(10.4656 6.17708 4.77494e-19)
(10.6324 5.8577 -4.95974e-19)
(10.8056 5.55435 0)
(10.984 5.26586 0)
(11.1669 4.9911 9.3145e-19)
(11.3538 4.72903 -9.1541e-19)
(11.5442 4.47843 -9.01581e-19)
(11.7372 4.23942 3.51538e-18)
(11.9349 4.0153 -2.45466e-18)
(12.271 11.6911 1.65186e-19)
(11.95 11.3621 0)
(11.6671 11.0027 0)
(11.4256 10.6219 0)
(11.2265 10.2275 2.15789e-19)
(11.0688 9.82647 -1.04803e-18)
(10.9503 9.42474 4.32246e-19)
(10.8679 9.02687 2.14616e-19)
(10.8184 8.63634 1.61602e-19)
(10.7985 8.25574 5.58859e-20)
(10.8046 7.88684 0)
(10.8336 7.53076 -1.29896e-19)
(10.8825 7.18807 3.43395e-19)
(10.9487 6.85887 1.63824e-20)
(11.03 6.54299 2.2189e-19)
(11.1242 6.23999 -5.80548e-19)
(11.2297 5.94931 1.71762e-19)
(11.3451 5.67024 -5.07185e-19)
(11.4691 5.40214 4.47943e-19)
(11.6005 5.14433 -1.80056e-18)
(11.7387 4.89599 4.55529e-19)
(11.8824 4.65595 1.29771e-18)
(12.0308 4.42452 0)
(12.185 4.20873 3.17668e-18)
(12.8989 11.0505 6.76852e-19)
(12.6152 10.7745 -5.10057e-19)
(12.3611 10.4729 7.47249e-19)
(12.1392 10.1517 -7.48838e-19)
(11.951 9.81651 2.01964e-19)
(11.7961 9.47276 2.07442e-19)
(11.6733 9.12518 2.11816e-19)
(11.5807 8.77778 -4.23041e-19)
(11.5159 8.43381 -4.28056e-19)
(11.4763 8.0958 0)
(11.4593 7.76559 -4.8152e-19)
(11.4623 7.44454 -3.89241e-19)
(11.4829 7.13353 0)
(11.5192 6.83303 1.0952e-18)
(11.5691 6.5431 -6.62912e-19)
(11.6309 6.26372 0)
(11.7033 5.99455 5.47368e-20)
(11.785 5.73525 4.15369e-19)
(11.875 5.48533 -3.77478e-20)
(11.9724 5.24428 6.58884e-19)
(12.0766 5.01139 2.14151e-19)
(12.187 4.7855 -8.51895e-19)
(12.3038 4.5676 0)
(12.4293 4.37115 1.51479e-18)
(13.4516 10.5193 5.25704e-19)
(13.1885 10.2743 -1.51275e-19)
(12.9499 10.0082 -7.28521e-19)
(12.7382 9.72543 0)
(12.5547 9.43023 1.95131e-19)
(12.3995 9.12679 0)
(12.2718 8.81887 0)
(12.1699 8.50994 2.09662e-19)
(12.0922 8.20294 2.6442e-19)
(12.0366 7.90009 -5.22234e-20)
(12.001 7.60307 4.27827e-19)
(11.9833 7.31331 -1.06405e-19)
(11.9816 7.03182 2.11897e-19)
(11.9943 6.75896 -5.3471e-19)
(12.0199 6.49495 0)
(12.0568 6.23978 4.18727e-19)
(12.1038 5.99327 5.29224e-20)
(12.16 5.75514 -6.58758e-20)
(12.2242 5.52501 -4.11967e-19)
(12.2957 5.30245 0)
(12.374 5.08691 -4.14965e-19)
(12.459 4.87778 1.22326e-18)
(12.5524 4.67485 -7.98898e-19)
(12.654 4.48858 -1.53539e-18)
(13.8377 10.1118 6.74284e-19)
(13.5902 9.88793 -1.78223e-19)
(13.3647 9.64585 0)
(13.1633 9.38919 0)
(12.9872 9.1214 -3.95857e-19)
(12.8366 8.84573 5.92625e-19)
(12.7104 8.56524 0)
(12.6068 8.28343 0)
(12.5246 8.00308 0)
(12.4623 7.7259 -1.30043e-20)
(12.4177 7.45341 1.28558e-20)
(12.3887 7.18752 0)
(12.3744 6.92903 0)
(12.3733 6.67824 0)
(12.384 6.43518 0)
(12.4051 6.20012 -4.16241e-19)
(12.4356 5.97294 -4.07391e-19)
(12.4745 5.75336 0)
(12.5209 5.54111 -4.05275e-19)
(12.5738 5.33575 0)
(12.6327 5.13721 0)
(12.6976 4.94645 -8.07555e-19)
(12.7713 4.76224 7.95412e-19)
(12.8491 4.57567 -2.68904e-21)
(14.1507 9.77751 3.43481e-19)
(13.914 9.56874 1.79744e-19)
(13.6974 9.34418 0)
(13.5035 9.10693 0)
(13.3336 8.85962 3.85535e-19)
(13.1877 8.6046 -7.89217e-19)
(13.064 8.34431 3.968e-19)
(12.9593 8.083 1.01603e-19)
(12.8745 7.82325 -1.00397e-19)
(12.8083 7.56615 0)
(12.7577 7.31291 -4.54848e-19)
(12.72 7.06647 -5.36501e-22)
(12.6971 6.8272 -4.54015e-19)
(12.6864 6.59478 1.00782e-19)
(12.6868 6.36931 0)
(12.6964 6.15144 5.04302e-20)
(12.7152 5.9411 3.54706e-19)
(12.7415 5.73787 1.25272e-20)
(12.7748 5.54153 3.89854e-19)
(12.8139 5.35142 0)
(12.8577 5.16766 3.92594e-19)
(12.9066 4.99207 3.89268e-19)
(12.9653 4.82082 3.88163e-19)
(13.0259 4.63799 -7.58218e-19)
(14.4011 9.50228 -6.84467e-19)
(14.1723 9.30444 3.53838e-19)
(13.9614 9.0926 0)
(13.7731 8.87098 -3.72881e-19)
(13.6088 8.64025 -3.8403e-19)
(13.4681 8.40027 3.90187e-19)
(13.3481 8.15469 -3.94975e-19)
(13.2418 7.90959 -3.4347e-19)
(13.156 7.66526 -4.9291e-20)
(13.0891 7.42426 0)
(13.0349 7.18614 7.98113e-19)
(12.989 6.95586 -5.00466e-20)
(12.9626 6.73297 4.49838e-19)
(12.9458 6.51524 0)
(12.9398 6.30397 0)
(12.9407 6.1005 4.93385e-20)
(12.9514 5.9046 -4.89633e-20)
(12.9685 5.71542 -6.1271e-21)
(12.9927 5.53316 6.09158e-21)
(13.0219 5.35658 0)
(13.0549 5.18662 -5.81085e-19)
(13.0907 5.02633 -3.87314e-19)
(13.1396 4.87012 1.92166e-19)
(13.185 4.70611 -3.71954e-19)
(14.5962 9.2772 3.44357e-19)
(14.3738 9.08921 -1.76625e-19)
(14.1692 8.8834 3.71955e-19)
(13.9868 8.67348 -3.70798e-19)
(13.8282 8.45869 7.34473e-19)
(13.6926 8.23043 -6.51843e-19)
(13.5784 7.99614 9.69142e-20)
(13.4711 7.76527 7.6233e-19)
(13.3879 7.52985 -3.49184e-19)
(13.324 7.30357 -2.96688e-20)
(13.2696 7.07658 -3.50473e-19)
(13.2146 6.85944 -2.42699e-20)
(13.1917 6.65308 3.48389e-19)
(13.1695 6.44356 4.92581e-20)
(13.16 6.2432 3.86558e-19)
(13.1525 6.05125 -4.88432e-20)
(13.1591 5.86775 4.90412e-20)
(13.1689 5.6898 3.92062e-19)
(13.1879 5.52025 0)
(13.2109 5.35482 0)
(13.237 5.19855 3.84777e-19)
(13.2577 5.05051 1.90121e-19)
(13.2937 4.8987 1.8623e-19)
(13.3313 4.73284 0)
(-4.34821 -2.5581 3.92371e-19)
(-4.02179 -2.58155 8.80835e-19)
(-3.67201 -2.60407 -9.42389e-19)
(-3.30539 -2.6239 0)
(-2.92759 -2.64104 -2.55612e-19)
(-2.54312 -2.65545 -2.75059e-19)
(-2.15559 -2.66697 -2.87554e-19)
(-1.76787 -2.67541 1.50232e-19)
(-1.38217 -2.68062 -1.4947e-19)
(-1.00016 -2.68243 1.64831e-19)
(-0.623092 -2.6805 0)
(-0.251745 -2.67427 0)
(0.113866 -2.6631 -9.52406e-20)
(0.474276 -2.64605 0)
(0.831111 -2.62175 1.60928e-19)
(1.18779 -2.5882 -1.66319e-19)
(1.55076 -2.54259 0)
(1.93232 -2.48134 5.38317e-19)
(2.35643 -2.40062 -5.97841e-19)
(2.87124 -2.29692 6.42726e-19)
(3.56906 -2.17207 -7.20234e-19)
(4.63949 -2.04041 0)
(6.50609 -1.95839 1.73469e-18)
(10.1734 -2.26266 -3.75134e-19)
(-4.27806 -2.55029 -7.7226e-19)
(-3.96794 -2.55949 0)
(-3.63928 -2.57373 4.55337e-19)
(-3.29571 -2.58636 -1.19176e-19)
(-2.94103 -2.59718 -1.86907e-19)
(-2.57803 -2.60606 3.12277e-19)
(-2.20882 -2.61268 6.362e-21)
(-1.83483 -2.61661 -1.36853e-19)
(-1.4568 -2.61724 -2.84408e-19)
(-1.07471 -2.61379 -7.48795e-20)
(-0.687689 -2.60525 -1.51959e-19)
(-0.294263 -2.59031 1.57156e-19)
(0.108069 -2.56725 8.17395e-20)
(0.523848 -2.53402 8.53697e-20)
(0.960123 -2.48832 -8.8393e-20)
(1.42807 -2.42735 0)
(1.94443 -2.34831 9.49796e-20)
(2.53507 -2.24906 -4.00014e-19)
(3.242 -2.12964 5.18944e-19)
(4.13506 -1.99573 -8.68879e-19)
(5.32668 -1.8672 4.15298e-19)
(6.99655 -1.79594 0)
(9.41762 -1.89463 5.50508e-20)
(12.923 -2.37604 0)
(-4.18741 -2.50115 1.92972e-19)
(-3.88478 -2.50347 2.07825e-19)
(-3.56644 -2.50965 0)
(-3.23349 -2.51389 0)
(-2.88817 -2.51582 2.91506e-19)
(-2.53217 -2.51499 -6.76452e-20)
(-2.16646 -2.51078 3.77246e-19)
(-1.79136 -2.50246 0)
(-1.40633 -2.4892 1.29767e-19)
(-1.01002 -2.46996 3.34771e-19)
(-0.600106 -2.44351 -1.38073e-19)
(-0.173133 -2.40848 7.08609e-20)
(0.275998 -2.36325 -7.19506e-20)
(0.754631 -2.30612 -7.38909e-20)
(1.27303 -2.23543 3.77473e-20)
(1.84584 -2.1498 -3.94565e-20)
(2.49471 -2.04861 8.08174e-20)
(3.25083 -1.93324 8.07378e-20)
(4.15937 -1.80933 -4.00647e-21)
(5.28617 -1.69072 -3.33866e-19)
(6.72328 -1.60715 4.15838e-19)
(8.59057 -1.61502 -8.42055e-20)
(11.0256 -1.81199 -4.43336e-20)
(14.0989 -2.33627 -3.55855e-20)
(-4.08111 -2.42865 3.72759e-19)
(-3.7872 -2.41952 0)
(-3.47892 -2.41549 0)
(-3.15579 -2.40902 0)
(-2.81874 -2.39968 2.74718e-20)
(-2.46833 -2.38689 -1.39711e-19)
(-2.10469 -2.37001 -2.29234e-19)
(-1.72721 -2.34842 0)
(-1.33438 -2.32138 0)
(-0.923738 -2.28802 -1.84507e-19)
(-0.491757 -2.2473 6.27969e-20)
(-0.0335563 -2.19806 1.26669e-19)
(0.457201 -2.13903 0)
(0.989265 -2.06906 -1.23551e-19)
(1.57462 -1.98743 -8.58506e-21)
(2.22964 -1.8942 -6.87617e-20)
(2.97692 -1.79079 0)
(3.84765 -1.68146 7.43672e-20)
(4.88403 -1.57547 -2.1991e-19)
(6.14202 -1.49075 1.5628e-19)
(7.69302 -1.45905 2.84264e-19)
(9.61912 -1.5322 -2.359e-19)
(11.9965 -1.78677 -6.59218e-20)
(14.8426 -2.31508 4.61665e-19)
(-3.96254 -2.34034 -1.3272e-21)
(-3.67701 -2.32199 0)
(-3.37723 -2.30919 1.95381e-19)
(-3.06181 -2.29358 0)
(-2.73068 -2.27492 7.65975e-20)
(-2.38362 -2.25244 1.32077e-19)
(-2.02019 -2.2254 1.07888e-19)
(-1.63935 -2.19331 0)
(-1.23909 -2.15578 1.10857e-19)
(-0.816136 -2.11227 1.13297e-19)
(-0.366006 -2.06212 1.15402e-19)
(0.117039 -2.00441 -1.49026e-19)
(0.640296 -1.93816 3.04361e-20)
(1.21325 -1.86272 1.24844e-19)
(1.84847 -1.77817 -1.4047e-19)
(2.56268 -1.68559 5.00513e-20)
(3.37836 -1.58802 -3.14573e-20)
(4.3248 -1.49159 0)
(5.44046 -1.4073 1.98476e-19)
(6.77383 -1.3542 -2.10329e-19)
(8.38208 -1.36317 6.65708e-20)
(10.3268 -1.4804 3.03391e-19)
(12.6582 -1.76811 1.61153e-20)
(15.3777 -2.29465 -1.89434e-19)
(-3.83701 -2.24797 3.48236e-19)
(-3.55993 -2.22067 -1.8235e-19)
(-3.26818 -2.20051 -2.5981e-21)
(-2.96023 -2.17745 0)
(-2.6348 -2.15167 -9.82472e-20)
(-2.29083 -2.12207 0)
(-1.92784 -2.08763 -1.13103e-19)
(-1.54452 -2.04789 1.2915e-20)
(-1.13871 -2.00274 -7.99661e-20)
(-0.706887 -1.95221 -1.3578e-19)
(-0.243654 -1.89617 -1.10859e-19)
(0.25775 -1.834 2.78354e-20)
(0.805321 -1.76494 -4.29721e-20)
(1.409 -1.68844 1.83561e-20)
(2.08137 -1.60503 1.17149e-19)
(2.83872 -1.51668 1.20527e-19)
(3.70269 -1.42742 6.31576e-20)
(4.70152 -1.34443 0)
(5.8703 -1.27954 -6.51281e-20)
(7.25158 -1.25154 6.54741e-20)
(8.89374 -1.28946 -1.26167e-19)
(10.8465 -1.43528 1.59198e-19)
(13.1467 -1.74242 -4.24501e-20)
(15.7854 -2.26622 -2.70811e-19)
(-3.71228 -2.15194 2.51613e-19)
(-3.44037 -2.1203 -8.7569e-20)
(-3.15587 -2.09493 -1.79997e-19)
(-2.85568 -2.06623 -4.56645e-20)
(-2.53652 -2.03559 1.38244e-19)
(-2.19577 -2.00145 0)
(-1.83331 -1.96209 8.50729e-20)
(-1.44817 -1.91708 -1.22456e-20)
(-1.03833 -1.86631 2.51364e-20)
(-0.600364 -1.81048 0)
(-0.128338 -1.75052 1.29569e-19)
(0.385691 -1.68639 -3.27593e-22)
(0.951284 -1.61719 8.04074e-20)
(1.57813 -1.54207 0)
(2.27873 -1.46163 -7.01378e-21)
(3.06861 -1.37835 -8.18658e-20)
(3.96825 -1.29739 8.68176e-20)
(5.00447 -1.22691 -5.81839e-20)
(6.21137 -1.1787 1.20672e-19)
(7.62788 -1.17016 5.63753e-20)
(9.2944 -1.22865 5.99328e-20)
(11.2537 -1.39396 0)
(13.533 -1.71388 5.03886e-20)
(16.1172 -2.23595 0)
(-3.5852 -2.05811 -8.20008e-20)
(-3.32082 -2.02722 -1.67886e-19)
(-3.04333 -1.99608 3.65775e-22)
(-2.75199 -1.96265 -8.63118e-20)
(-2.44034 -1.92849 -1.76892e-19)
(-2.10343 -1.8919 8.9243e-20)
(-1.74188 -1.84972 5.75089e-21)
(-1.35527 -1.80153 -5.87459e-21)
(-0.942276 -1.74683 0)
(-0.500733 -1.68644 -9.72149e-20)
(-0.0240654 -1.62267 -1.01026e-19)
(0.49635 -1.55752 1.13179e-19)
(1.07398 -1.48976 -2.08256e-19)
(1.71823 -1.41745 -1.34607e-20)
(2.4406 -1.34079 0)
(3.25511 -1.26219 -2.72763e-20)
(4.18039 -1.18778 -5.79629e-20)
(5.24292 -1.12775 -2.93697e-20)
(6.47712 -1.09433 0)
(7.92208 -1.10225 -1.15974e-19)
(9.60665 -1.17476 0)
(11.5692 -1.35246 -9.66246e-20)
(13.8302 -1.67946 5.66859e-20)
(16.3734 -2.19761 8.19381e-20)
(-3.45172 -1.97042 0)
(-3.19847 -1.94032 0)
(-2.92787 -1.90536 4.18431e-20)
(-2.64672 -1.8696 1.26055e-19)
(-2.34287 -1.83231 8.54216e-20)
(-2.01002 -1.79453 -8.70719e-20)
(-1.6492 -1.75099 5.50269e-21)
(-1.25999 -1.70199 5.61019e-21)
(-0.841194 -1.64588 -1.05976e-19)
(-0.393928 -1.5824 9.48976e-20)
(0.0900742 -1.51404 0)
(0.613226 -1.44957 2.21099e-21)
(1.19928 -1.385 1.06362e-19)
(1.8581 -1.317 -6.36701e-21)
(2.60177 -1.24536 -1.07714e-19)
(3.44129 -1.17098 -1.28675e-20)
(4.39251 -1.10226 1.35982e-20)
(5.47285 -1.05238 0)
(6.72498 -1.03316 -5.15287e-20)
(8.19873 -1.05646 5.53742e-20)
(9.90943 -1.13745 0)
(11.8834 -1.32453 1.04171e-19)
(14.1376 -1.65908 9.55497e-20)
(16.6583 -2.18339 -7.87585e-20)
(-3.34732 -1.88249 -7.86673e-20)
(-3.10559 -1.85027 8.02123e-20)
(-2.84947 -1.80901 3.77974e-20)
(-2.58412 -1.77941 4.16907e-20)
(-2.28623 -1.73476 6.57425e-20)
(-1.95403 -1.69579 9.14928e-20)
(-1.60116 -1.65035 5.61494e-21)
(-1.22143 -1.60003 -1.75272e-20)
(-0.807725 -1.54331 1.06905e-19)
(-0.373428 -1.48035 8.86529e-20)
(0.0993592 -1.39118 -9.07425e-20)
(0.615514 -1.32648 -8.30002e-21)
(1.21271 -1.26449 0)
(1.87575 -1.20075 0)
(2.62276 -1.13301 1.06629e-19)
(3.4643 -1.05901 1.41739e-20)
(4.40573 -0.975258 5.56477e-20)
(5.50137 -0.935095 -3.72557e-20)
(6.77695 -0.925166 6.14583e-20)
(8.3032 -0.987793 0)
(9.98215 -1.05606 0)
(11.9444 -1.24299 -1.45429e-20)
(14.1524 -1.56062 -9.29037e-20)
(16.6354 -2.05491 -6.02458e-20)
(17.2492 -4.1024 -4.5526e-18)
(20.7375 -5.46666 2.72669e-18)
(21.9648 -5.91069 1.596e-18)
(22.5962 -6.09707 -1.32552e-18)
(23.011 -6.1984 -7.23237e-19)
(23.2887 -6.25117 6.21235e-19)
(23.4703 -6.26866 9.57516e-21)
(23.5798 -6.25981 7.45413e-20)
(23.6335 -6.23056 -6.76823e-20)
(23.6449 -6.18564 -1.38409e-19)
(23.625 -6.12921 1.23176e-19)
(23.5826 -6.06404 3.33898e-19)
(23.5237 -5.99254 -2.92497e-19)
(23.4526 -5.91612 0)
(23.3724 -5.83579 0)
(23.2852 -5.75224 6.97897e-20)
(23.1925 -5.66594 8.19827e-20)
(23.0954 -5.57709 -1.60129e-19)
(22.9946 -5.48585 -6.70401e-19)
(22.8904 -5.39232 9.95989e-19)
(22.7832 -5.29667 7.52671e-19)
(22.6738 -5.19801 -7.30117e-19)
(22.5623 -5.0961 0)
(22.4434 -5.00853 0)
(17.2763 -3.54558 -6.88543e-19)
(21.0317 -4.9566 8.4407e-19)
(22.5787 -5.55419 5.79426e-19)
(23.1492 -5.73193 -1.38273e-18)
(23.4831 -5.82701 7.92074e-19)
(23.6861 -5.88095 0)
(23.7985 -5.90448 -9.24392e-21)
(23.8463 -5.90492 0)
(23.848 -5.88765 3.8338e-20)
(23.8178 -5.85701 -4.42995e-20)
(23.766 -5.81618 0)
(23.6994 -5.76759 1.77747e-20)
(23.6226 -5.71295 -3.74249e-19)
(23.5389 -5.6534 3.04825e-19)
(23.4501 -5.58981 -4.87612e-19)
(23.3576 -5.52276 4.0417e-19)
(23.2622 -5.45267 6.53521e-19)
(23.1645 -5.37975 -4.15478e-19)
(23.0647 -5.30421 0)
(22.963 -5.2262 -1.73441e-19)
(22.8592 -5.14588 0)
(22.754 -5.06264 0)
(22.6478 -4.97695 3.93487e-19)
(22.5397 -4.89745 3.98975e-19)
(17.6468 -3.30962 0)
(21.0887 -4.56848 -3.28298e-20)
(22.8895 -5.29291 -4.47329e-20)
(23.4436 -5.48355 0)
(23.7113 -5.56297 0)
(23.8598 -5.60635 0)
(23.9289 -5.62473 6.26247e-21)
(23.9435 -5.62487 0)
(23.9215 -5.6114 -1.23547e-19)
(23.8754 -5.58767 1.23374e-19)
(23.8133 -5.55607 0)
(23.7404 -5.51819 -5.70137e-20)
(23.6602 -5.47519 -4.62861e-20)
(23.5751 -5.42784 5.12969e-20)
(23.4865 -5.37675 -5.03075e-19)
(23.3954 -5.32236 5.48108e-19)
(23.3023 -5.26497 -6.98513e-20)
(23.2078 -5.2048 4.83291e-19)
(23.1118 -5.14203 -1.01082e-19)
(23.0145 -5.0768 -4.89358e-19)
(22.9159 -5.00923 3.78463e-19)
(22.8162 -4.93912 -3.70006e-19)
(22.7162 -4.86697 -4.09359e-19)
(22.616 -4.7952 -4.27444e-19)
(18.0503 -3.18598 -5.48045e-19)
(21.1861 -4.30582 2.74532e-19)
(23.0994 -5.08704 -3.07719e-19)
(23.6674 -5.30332 -2.7593e-20)
(23.8767 -5.36811 1.10997e-19)
(23.9777 -5.40093 -1.18517e-19)
(24.0111 -5.41309 -6.17168e-21)
(24.0007 -5.41074 3.96877e-20)
(23.9623 -5.39781 4.45641e-20)
(23.9059 -5.37692 -7.6566e-20)
(23.8379 -5.34988 -3.41979e-20)
(23.7622 -5.31778 3.94752e-20)
(23.6814 -5.2815 3.02216e-19)
(23.5971 -5.24159 -1.98057e-19)
(23.5105 -5.1985 6.01152e-20)
(23.422 -5.15254 0)
(23.3323 -5.10395 -2.26897e-19)
(23.2414 -5.05291 6.08539e-19)
(23.1495 -4.99955 -4.85735e-19)
(23.0567 -4.944 -2.03065e-19)
(22.9631 -4.88631 1.70963e-19)
(22.8691 -4.82628 2.08827e-19)
(22.7749 -4.76407 -3.92087e-19)
(22.6794 -4.70183 -6.5006e-19)
(18.3858 -3.10585 4.79889e-20)
(21.3065 -4.12832 -2.31627e-19)
(23.2365 -4.91652 3.03368e-19)
(23.8299 -5.15739 2.65639e-20)
(23.9937 -5.2101 1.21242e-19)
(24.0572 -5.23394 -8.83913e-20)
(24.0639 -5.24065 -9.22747e-21)
(24.0353 -5.2358 8.61247e-21)
(23.985 -5.22258 -9.46415e-20)
(23.9213 -5.2031 1.18418e-19)
(23.8492 -5.17864 3.44234e-20)
(23.7716 -5.15012 0)
(23.6906 -5.11814 1.78773e-21)
(23.6073 -5.08321 0)
(23.5226 -5.04561 -1.23202e-19)
(23.4369 -5.00562 6.73128e-20)
(23.3504 -4.96346 0)
(23.2634 -4.91922 0)
(23.1758 -4.87306 -8.21809e-20)
(23.0878 -4.82511 3.63004e-19)
(22.9996 -4.77545 -5.52606e-19)
(22.9115 -4.72385 5.73852e-19)
(22.8233 -4.67073 -2.02648e-19)
(22.7322 -4.6203 2.16438e-19)
(18.66 -3.03921 4.10321e-20)
(21.4286 -3.99385 -3.34287e-20)
(23.328 -4.7679 0)
(23.9406 -5.0285 0)
(24.0694 -5.07355 1.1496e-20)
(24.1041 -5.09085 -2.75358e-21)
(24.0912 -5.09375 0)
(24.05 -5.08726 0)
(23.9919 -5.07392 -1.34647e-19)
(23.9236 -5.05543 1.0768e-19)
(23.8492 -5.03284 0)
(23.7709 -5.00683 0)
(23.6904 -4.97798 -5.12569e-20)
(23.6085 -4.94665 5.90648e-20)
(23.526 -4.91313 6.31061e-20)
(23.443 -4.87764 -3.58726e-19)
(23.3599 -4.84035 2.81888e-19)
(23.2766 -4.80138 -2.50395e-19)
(23.1933 -4.76088 5.75702e-20)
(23.1101 -4.71906 7.11227e-19)
(23.027 -4.67603 -3.62785e-19)
(22.9445 -4.63153 -7.45417e-21)
(22.8616 -4.58594 6.16903e-19)
(22.7754 -4.54378 0)
(18.8965 -2.98288 -7.7047e-20)
(21.5495 -3.88797 1.36628e-19)
(23.3985 -4.64004 -1.18838e-19)
(24.0178 -4.9131 -8.88051e-20)
(24.119 -4.95392 4.2222e-20)
(24.1313 -4.96688 -4.2619e-21)
(24.1041 -4.96751 0)
(24.054 -4.96013 -6.33181e-20)
(23.9906 -4.94691 6.6498e-20)
(23.9194 -4.92926 -3.29715e-20)
(23.8438 -4.90801 -4.33857e-20)
(23.7654 -4.88382 -4.99788e-20)
(23.6857 -4.85723 2.36042e-19)
(23.6054 -4.82861 -5.45087e-19)
(23.5249 -4.79816 5.94745e-19)
(23.4446 -4.76606 -2.70297e-19)
(23.3645 -4.73248 -7.64699e-20)
(23.2847 -4.69757 -8.08487e-20)
(23.2053 -4.6615 -8.5859e-20)
(23.1262 -4.62457 -9.05793e-20)
(23.0478 -4.58694 -1.97219e-19)
(22.97 -4.54822 -7.31045e-21)
(22.892 -4.50867 -3.17514e-19)
(22.8105 -4.47382 -2.21856e-19)
(19.0849 -2.92292 -1.64655e-20)
(21.6517 -3.79065 1.39112e-19)
(23.4508 -4.52252 0)
(24.07 -4.80629 -1.32633e-20)
(24.1512 -4.84772 4.34537e-20)
(24.1469 -4.85898 -9.29661e-21)
(24.1093 -4.85858 2.08299e-20)
(24.0528 -4.85081 -3.43942e-21)
(23.9857 -4.83779 0)
(23.9127 -4.82074 -3.89637e-20)
(23.8364 -4.80032 4.36409e-20)
(23.7582 -4.77732 5.03895e-20)
(23.6791 -4.75242 0)
(23.6002 -4.72595 -6.97343e-20)
(23.5217 -4.69782 -1.31624e-20)
(23.4437 -4.66826 -1.3828e-20)
(23.3664 -4.63751 3.05819e-19)
(23.2898 -4.6057 0)
(23.2138 -4.57313 1.75448e-19)
(23.1384 -4.54022 1.85168e-19)
(23.0639 -4.50722 0)
(22.9907 -4.47335 -2.10418e-19)
(22.9172 -4.43841 3.17012e-19)
(22.8411 -4.40934 2.28418e-19)
(19.2992 -2.89314 -8.24596e-20)
(21.7689 -3.72636 -7.23943e-20)
(23.5003 -4.43073 -2.36429e-20)
(24.1058 -4.71555 -4.14118e-20)
(24.1702 -4.75674 7.22857e-21)
(24.1541 -4.76614 -2.3859e-20)
(24.1096 -4.76462 4.26425e-20)
(24.0485 -4.75618 -1.44767e-20)
(23.9787 -4.74316 -3.3809e-20)
(23.9051 -4.72665 3.89991e-20)
(23.8288 -4.70666 0)
(23.7502 -4.68421 0)
(23.6712 -4.66062 -6.07454e-20)
(23.5937 -4.63608 -6.45251e-20)
(23.5173 -4.60977 -1.40717e-19)
(23.4412 -4.58212 -1.57265e-19)
(23.3665 -4.55367 2.40316e-19)
(23.2923 -4.52417 -7.81553e-20)
(23.2186 -4.49413 -8.94375e-20)
(23.1455 -4.46441 -9.44487e-20)
(23.074 -4.43542 0)
(23.0054 -4.40544 0)
(22.9358 -4.3742 -1.12269e-19)
(22.867 -4.34906 2.2092e-19)
(19.3049 -2.73653 6.00876e-20)
(21.7873 -3.57877 1.59526e-19)
(23.5109 -4.30693 1.36717e-20)
(24.1164 -4.6205 -4.88089e-20)
(24.1779 -4.67474 3.30087e-22)
(24.1569 -4.68605 -7.85315e-21)
(24.1077 -4.68307 0)
(24.0433 -4.67361 0)
(23.9713 -4.66121 3.37498e-20)
(23.8973 -4.64521 0)
(23.8203 -4.62405 -5.01804e-20)
(23.7412 -4.6013 0)
(23.6622 -4.57974 -1.8911e-21)
(23.587 -4.55764 0)
(23.5124 -4.53214 -9.97471e-22)
(23.4375 -4.50568 0)
(23.3651 -4.47892 0)
(23.2936 -4.45076 -8.78585e-20)
(23.2229 -4.42278 -1.92516e-19)
(23.1531 -4.39588 -1.21054e-20)
(23.0857 -4.37098 1.95964e-19)
(23.0261 -4.34625 -1.04151e-19)
(22.9569 -4.3177 -1.10667e-19)
(22.902 -4.30597 -8.62544e-22)
(-0.132109 1.51144 0)
(0.526641 1.77581 0)
(1.66885 2.42961 0)
(2.92038 3.23099 5.75702e-20)
(4.23391 4.05042 -9.3095e-20)
(5.64926 4.91701 2.62483e-18)
(7.1516 5.84488 -2.26264e-18)
(8.68491 6.82112 -1.02005e-19)
(10.2334 7.80519 -9.1599e-20)
(11.7733 8.76259 0)
(13.2735 9.66285 6.53282e-20)
(14.6983 10.4755 -1.11506e-19)
(16.015 11.1755 0)
(17.1969 11.7431 0)
(18.2255 12.1637 0)
(19.0929 12.4309 -5.51914e-20)
(19.8024 12.5468 2.14439e-19)
(20.3678 12.5222 0)
(20.8106 12.3762 0)
(21.156 12.1328 0)
(21.4294 11.8183 0)
(21.6532 11.4568 1.80989e-19)
(21.8441 11.0691 9.63423e-20)
(22.0208 10.6572 1.19076e-19)
(-8.45007 2.32033 0)
(-8.2178 2.25581 0)
(-7.5487 2.18417 0)
(-6.66453 2.24165 -2.07556e-19)
(-5.57846 2.40279 0)
(-4.27522 2.6587 -2.34984e-19)
(-2.70889 3.00222 0)
(-0.856845 3.43055 1.65635e-19)
(1.21231 3.96813 0)
(3.44564 4.62285 0)
(5.78276 5.38965 -2.08078e-19)
(8.14567 6.25186 -2.43467e-20)
(10.4619 7.17552 -3.0897e-19)
(12.6627 8.11263 0)
(14.6874 9.01006 0)
(16.4849 9.81501 1.9824e-19)
(18.0193 10.4818 -2.42161e-19)
(19.2743 10.9779 0)
(20.2562 11.2883 0)
(20.9911 11.4158 0)
(21.5204 11.3802 0)
(21.8923 11.2115 1.12259e-19)
(22.1542 10.948 -1.52531e-19)
(22.3502 10.5994 -3.28278e-19)
(-3.64609 1.267 0)
(-4.59651 1.41434 0)
(-4.85179 1.47543 0)
(-4.81996 1.4528 -7.36701e-21)
(-4.58953 1.41585 7.27199e-18)
(-4.18831 1.39829 -4.96956e-18)
(-3.61757 1.42758 0)
(-2.85845 1.53075 -2.25638e-19)
(-1.87817 1.73492 3.89372e-19)
(-0.643578 2.06275 3.42124e-19)
(0.882258 2.53042 2.83889e-19)