/*--------------------------------*- C++ -*----------------------------------*\
| =========                 |                                                 |
| \\      /  F ield         | OpenFOAM: The Open Source CFD Toolbox           |
|  \\    /   O peration     | Version:  2.3.0                                 |
|   \\  /    A nd           | Web:      www.OpenFOAM.org                      |
|    \\/     M anipulation  |                                                 |
\*---------------------------------------------------------------------------*/
FoamFile
{
    version     2.0;
    format      ascii;
    class       surfaceScalarField;
    location    "2000";
    object      phi;
}
// * * * * * * * * * * * * * * * * * * * * * * * * * * * * * * * * * * * * * //

dimensions      [0 3 -1 0 0 0 0];

internalField   nonuniform List<scalar> 
78876
(
-0.00608706
-0.0058176
0.0063818
0.00552284
-0.00660734
-0.00557233
0.00609261
-0.00708523
-0.00533589
0.00581379
-0.00752125
-0.0051092
0.00554521
-0.00791592
-0.00489103
0.0052857
-0.00827435
-0.0046825
0.00504093
-0.00859598
-0.00448115
0.00480278
-0.00888583
-0.00428699
0.00457684
-0.00914239
-0.00410198
0.00435854
-0.00936598
-0.003923
0.00414659
-0.00956289
-0.00375074
0.00394764
-0.00972906
-0.00358639
0.00375256
-0.0098727
-0.00342437
0.00356801
-0.00998788
-0.00327312
0.0033883
-0.0100817
-0.00312442
0.0032182
-0.0101507
-0.00298359
0.00305258
-0.0102007
-0.00284451
0.00289451
-0.0102306
-0.0027117
0.00274162
-0.0102388
-0.00258448
0.00259266
-0.0102294
-0.00245983
0.00245052
-0.010201
-0.00233953
0.00231112
-0.0101554
-0.00222387
0.00217823
-0.0100914
-0.00210934
0.00204534
-0.0100109
-0.00199976
0.00191923
-0.00991094
-0.00189238
0.00179244
-0.00979593
-0.00178654
0.00167152
-0.00965998
-0.00168495
0.00154901
-0.00950803
-0.00158245
0.0014305
-0.00933804
-0.00148388
0.00131388
-0.0091514
-0.00138352
0.00119688
-0.00894872
-0.00128427
0.00108159
-0.00873003
-0.00118747
0.000968784
-0.00849775
-0.00108916
0.000856877
-0.00825797
-0.000988707
0.000748926
-0.00801129
-0.000887667
0.000640978
-0.0077627
-0.000785009
0.000536424
-0.00751853
-0.000679062
0.000434878
-0.00728408
-0.000570992
0.000336542
-0.00706345
-0.000462473
0.000241845
-0.00687219
-0.000348442
0.000157167
-0.00671454
-0.00023619
7.85377e-05
-0.00659998
-0.000131466
1.6909e-05
-2.51766e-05
-0.00661301
3.82051e-05
-0.00549741
-0.00531525
0.00499507
-0.00596137
-0.00510838
-0.00638636
-0.0049109
-0.00677404
-0.00472151
-0.00712372
-0.00454135
-0.0074426
-0.00436362
-0.00772888
-0.00419488
-0.00798311
-0.00403276
-0.00820899
-0.0038761
-0.00840609
-0.0037259
-0.00857909
-0.00357773
-0.0087275
-0.00343798
-0.00884723
-0.00330464
-0.00894966
-0.00317069
-0.00902772
-0.00304637
-0.00908809
-0.00292321
-0.00912854
-0.00280407
-0.00914982
-0.00269042
-0.00915559
-0.00257871
-0.00914448
-0.00247094
-0.00911913
-0.00236489
-0.00907944
-0.00226356
-0.00902676
-0.00216202
-0.00896144
-0.00206508
-0.00888634
-0.00196747
-0.00879969
-0.00187319
-0.00870346
-0.00178118
-0.00859865
-0.00168727
-0.00848753
-0.001595
-0.00836594
-0.00150511
-0.00823573
-0.00141449
-0.00810024
-0.00132296
-0.00795738
-0.00123203
-0.00780502
-0.00114107
-0.00764003
-0.00105265
-0.00746552
-0.000959523
-0.00727387
-0.000870717
-0.00706334
-0.00078152
-0.00683301
-0.000692805
-0.00657221
-0.000609245
-0.00627916
-0.000529241
-0.00595389
-0.000456738
-0.000388485
-0.00559058
-0.00496754
-0.00486584
0.00451812
-0.00538189
-0.00469402
-0.00575817
-0.00453462
-0.00610143
-0.00437825
-0.00641634
-0.00422644
-0.0066989
-0.00408106
-0.00695072
-0.00394306
-0.00717651
-0.00380697
-0.00737668
-0.00367592
-0.00755058
-0.003552
-0.00769979
-0.00342852
-0.00782675
-0.00331102
-0.00793423
-0.00319717
-0.00801894
-0.00308597
-0.00808619
-0.00297911
-0.00813351
-0.0028759
-0.00816375
-0.00277383
-0.00817807
-0.0026761
-0.00817678
-0.00258
-0.00816096
-0.00248676
-0.00813075
-0.00239511
-0.0080886
-0.00230571
-0.00803237
-0.00221825
-0.00796605
-0.0021314
-0.00788576
-0.00204777
-0.00779652
-0.00196242
-0.00769753
-0.00188018
-0.00758918
-0.00179561
-0.00746937
-0.00171481
-0.00734278
-0.00163171
-0.00720694
-0.00155033
-0.00706216
-0.00146774
-0.00690878
-0.00138541
-0.00674852
-0.00130133
-0.00658175
-0.00121941
-0.00640527
-0.00113601
-0.00622226
-0.00105373
-0.0060311
-0.000972677
-0.00582972
-0.00089419
-0.00562128
-0.000817679
-0.00540432
-0.000746199
-0.00517798
-0.000683082
-0.000627339
-0.00493913
-0.00449008
-0.00446398
0.00408823
-0.00485881
-0.0043253
-0.00519723
-0.00419619
-0.00550774
-0.00406775
-0.00578641
-0.00394776
-0.00603691
-0.00383056
-0.00626384
-0.00371613
-0.00646324
-0.00360757
-0.00664081
-0.00349835
-0.00679583
-0.00339698
-0.00692743
-0.00329692
-0.00703942
-0.00319903
-0.00713319
-0.0031034
-0.00720698
-0.00301218
-0.00726288
-0.00292322
-0.00730477
-0.00283401
-0.00732728
-0.00275132
-0.00733728
-0.00266609
-0.00733255
-0.00258473
-0.00731546
-0.00250384
-0.0072847
-0.00242587
-0.0072407
-0.00234971
-0.00718713
-0.00227182
-0.00712211
-0.00219642
-0.00704879
-0.00212109
-0.00696339
-0.00204782
-0.00687139
-0.00197218
-0.00676827
-0.00189873
-0.00665924
-0.00182384
-0.00654032
-0.00175062
-0.0064147
-0.00167596
-0.00628132
-0.00160111
-0.00614177
-0.00152496
-0.00599304
-0.00145006
-0.00583863
-0.00137383
-0.00567642
-0.00129822
-0.00550675
-0.00122339
-0.00532955
-0.00114988
-0.00514481
-0.00107893
-0.00495265
-0.00100984
-0.00475231
-0.00094654
-0.00454757
-0.000887821
-0.00083625
-0.00433866
-0.0040614
-0.0040996
0.00369701
-0.00439037
-0.00399632
-0.0046962
-0.00389037
-0.00496838
-0.00379556
-0.0052204
-0.00369575
-0.0054448
-0.00360616
-0.00564741
-0.00351352
-0.00582956
-0.00342541
-0.00598507
-0.00334285
-0.0061248
-0.00325724
-0.00624268
-0.00317904
-0.00634211
-0.0030996
-0.00642361
-0.0030219
-0.00648964
-0.00294616
-0.00653927
-0.00287358
-0.00657153
-0.00280176
-0.00659314
-0.0027297
-0.00660026
-0.00265897
-0.00659279
-0.00259221
-0.00657095
-0.00252568
-0.00654027
-0.00245655
-0.00650054
-0.00238944
-0.00644804
-0.00232432
-0.00638548
-0.00225898
-0.00631412
-0.00219245
-0.00623494
-0.002127
-0.00614668
-0.00206044
-0.00605009
-0.00199533
-0.00594524
-0.00192868
-0.00583442
-0.00186144
-0.00571787
-0.00179251
-0.00559303
-0.00172595
-0.00546305
-0.00165493
-0.00532551
-0.0015876
-0.00518303
-0.00151631
-0.00503349
-0.00144776
-0.00487828
-0.0013786
-0.00471726
-0.0013109
-0.00455263
-0.00124357
-0.00438152
-0.00118094
-0.00420588
-0.00112218
-0.00402545
-0.00106826
-0.00101791
-0.00384379
-0.00367224
-0.00377855
0.00335119
-0.00397061
-0.00369795
-0.00424128
-0.0036197
-0.0044899
-0.00354694
-0.00471339
-0.00347225
-0.00491965
-0.0033999
-0.00509926
-0.00333391
-0.00526106
-0.00326361
-0.00540328
-0.00320064
-0.00552594
-0.00313458
-0.00563331
-0.00307167
-0.0057215
-0.00301141
-0.00579398
-0.00294943
-0.00585108
-0.00288905
-0.00589641
-0.00282825
-0.00592582
-0.00277234
-0.00594041
-0.00271512
-0.00594553
-0.00265385
-0.00593739
-0.00260035
-0.00591894
-0.00254413
-0.0058889
-0.00248659
-0.00584911
-0.00242922
-0.00580061
-0.00237283
-0.005744
-0.00231558
-0.00567702
-0.00225943
-0.00560339
-0.00220063
-0.00552043
-0.0021434
-0.0054313
-0.00208446
-0.00533645
-0.00202353
-0.00523333
-0.00196456
-0.00512388
-0.00190196
-0.0050098
-0.00184003
-0.00488865
-0.00177608
-0.00476341
-0.00171284
-0.00463172
-0.001648
-0.00449649
-0.00158299
-0.00435524
-0.00151984
-0.00420953
-0.00145661
-0.00405925
-0.00139385
-0.00390402
-0.00133617
-0.00374679
-0.00127941
-0.00358558
-0.00122946
-0.00118098
-0.00342251
-0.00332672
-0.00348454
0.00303272
-0.00359189
-0.00343279
-0.00383841
-0.00337318
-0.00406121
-0.00332414
-0.0042628
-0.00327066
-0.00444437
-0.00321834
-0.00460944
-0.00316884
-0.00475276
-0.00312029
-0.00488129
-0.0030721
-0.00499298
-0.0030229
-0.00508658
-0.00297807
-0.00516732
-0.00293067
-0.00523349
-0.00288326
-0.00528478
-0.00283777
-0.00532114
-0.00279189
-0.00534886
-0.00274462
-0.00536539
-0.00269859
-0.0053651
-0.00265414
-0.00535691
-0.00260854
-0.00533979
-0.00256125
-0.00531248
-0.00251391
-0.00527533
-0.00246637
-0.00523007
-0.00241809
-0.0051755
-0.00237016
-0.00511458
-0.00232035
-0.00504564
-0.00226957
-0.00497025
-0.00221878
-0.00488821
-0.0021665
-0.00479867
-0.00211307
-0.00470561
-0.00205762
-0.00460577
-0.0020018
-0.00450036
-0.00194544
-0.00438862
-0.00188783
-0.00427372
-0.00182774
-0.00415444
-0.00176727
-0.00402949
-0.00170794
-0.00390097
-0.00164837
-0.00377024
-0.00158734
-0.00363347
-0.00153062
-0.00349335
-0.00147629
-0.00335069
-0.00142207
-0.00320698
-0.00137318
-0.00133
-0.00305796
-0.00301093
-0.00322319
0.00274958
-0.00325404
-0.00318968
-0.00347092
-0.00315631
-0.00367525
-0.00311981
-0.00385694
-0.00308897
-0.00401892
-0.00305636
-0.00416699
-0.00302077
-0.00429877
-0.00298852
-0.0044129
-0.00295797
-0.00451294
-0.00292286
-0.00460185
-0.00288916
-0.00467271
-0.00285981
-0.00472998
-0.00282599
-0.00477661
-0.00279114
-0.00481266
-0.00275585
-0.0048343
-0.00272298
-0.00484759
-0.0026853
-0.00484971
-0.00265202
-0.00484376
-0.00261449
-0.00482604
-0.00257897
-0.00480016
-0.00253979
-0.00476529
-0.00250124
-0.00472125
-0.00246213
-0.00467304
-0.00241836
-0.00461644
-0.00237696
-0.00455363
-0.00233238
-0.00448367
-0.00228874
-0.00440823
-0.00224194
-0.00432733
-0.00219397
-0.00423996
-0.002145
-0.00414744
-0.00209432
-0.00405166
-0.00204122
-0.0039516
-0.00198789
-0.00384565
-0.00193369
-0.00373493
-0.001878
-0.00362191
-0.00182096
-0.00350597
-0.00176431
-0.00338457
-0.00170874
-0.00326173
-0.00165345
-0.00313625
-0.00160177
-0.00300698
-0.00155134
-0.0028747
-0.00150546
-0.00146359
-0.00274111
-0.00272852
0.00249383
-0.00298851
-0.00294601
-0.00297218
-0.00314606
-0.00295627
-0.00332645
-0.00293942
-0.0034922
-0.00292321
-0.00364121
-0.00290735
-0.0037732
-0.00288878
-0.00388853
-0.00287319
-0.00399356
-0.00285294
-0.00408448
-0.00283194
-0.00416293
-0.00281071
-0.00422987
-0.00279287
-0.00428237
-0.00277349
-0.00432375
-0.00274976
-0.00435291
-0.00272669
-0.00437497
-0.00270091
-0.00438679
-0.00267348
-0.00438824
-0.00265057
-0.00438059
-0.00262214
-0.00436654
-0.00259302
-0.00434344
-0.00256289
-0.00430947
-0.00253521
-0.00427386
-0.00249773
-0.00422727
-0.00246496
-0.00417437
-0.00242985
-0.00411561
-0.00239114
-0.00405202
-0.00235233
-0.00398302
-0.00231094
-0.00390744
-0.00226955
-0.0038286
-0.00222383
-0.00374532
-0.0021776
-0.00365572
-0.00213082
-0.00356319
-0.00208042
-0.00346721
-0.00202967
-0.00336656
-0.00197865
-0.00326218
-0.00192533
-0.00315593
-0.00187055
-0.00304767
-0.00181701
-0.00293472
-0.0017664
-0.00282082
-0.00171567
-0.00270355
-0.00166861
-0.00258377
-0.00162523
-0.00246363
-0.00158373
-0.00590041
3.74433e-05
-0.000750028
-0.00541768
2.37826e-05
-0.000506513
-0.00502707
-7.60557e-06
-0.00038299
-0.00469302
-4.30025e-05
-0.000291048
-0.00439687
-8.27169e-05
-0.000213425
-0.00412665
-0.000126542
-0.000143665
-0.00387919
-0.000170304
-7.7153e-05
-0.00364867
-0.000216951
-1.357e-05
-0.00343123
-0.000264133
4.67007e-05
-0.0032247
-0.000312702
0.000106176
-0.00302828
-0.000361959
0.000165541
-0.00283992
-0.000413536
0.000225185
-0.00265909
-0.000465679
0.000284846
-0.00248605
-0.000518565
0.000345529
-0.0023206
-0.000573065
0.000407623
-0.00216127
-0.000629262
0.000469929
-0.00200836
-0.000687113
0.000534204
-0.0018639
-0.000745632
0.000601172
-0.00172576
-0.000806789
0.000668652
-0.00159613
-0.000869449
0.000739821
-0.00147422
-0.000934546
0.000812635
-0.00136126
-0.00100078
0.000887826
-0.00125657
-0.00107088
0.000966185
-0.00116253
-0.00114213
0.0010481
-0.00107857
-0.00121635
0.00113239
-0.00100554
-0.00129417
0.00122114
-0.000944703
-0.00137386
0.00131302
-0.000895304
-0.00145803
0.00140863
-0.000859646
-0.00154443
0.00150878
-0.00083838
-0.00163455
0.00161329
-0.000831461
-0.00172923
0.00172231
-0.00084125
-0.00182684
0.00183663
-0.00086745
-0.00192885
0.00195505
-0.000912014
-0.00203512
0.00207969
-0.000975687
-0.00214621
0.00220988
-0.0010596
-0.0022618
0.00234572
-0.00116481
-0.00238256
0.00248776
-0.00129263
-0.00250871
0.00263654
-0.00144434
-0.00263987
0.00279158
-0.00162072
-0.00277765
0.00295403
-0.00182407
-0.00292046
0.00312381
-0.00205585
-0.00306962
0.00330141
-0.00322619
0.00348645
-0.00231611
-0.00521037
-0.000342765
-0.0048641
-0.000322485
-0.00455224
-0.000319462
-0.00426947
-0.000325771
-0.00401046
-0.000341728
-0.0037709
-0.000366102
-0.00354752
-0.000393684
-0.00333635
-0.000428123
-0.00313682
-0.000463654
-0.00294713
-0.000502392
-0.00276456
-0.000544527
-0.00259128
-0.000586819
-0.00242491
-0.000632046
-0.00226604
-0.00067743
-0.00211289
-0.000726215
-0.0019672
-0.000774956
-0.0018287
-0.000825611
-0.00169653
-0.000877797
-0.00157138
-0.000931936
-0.00145382
-0.000987016
-0.00134477
-0.00104359
-0.00124335
-0.00110221
-0.00115071
-0.00116352
-0.00106695
-0.00122589
-0.000993205
-0.0012901
-0.000929926
-0.00135745
-0.000876853
-0.00142693
-0.000835707
-0.00149917
-0.000806855
-0.00157328
-0.000790375
-0.00165103
-0.000788779
-0.00173083
-0.00080093
-0.00181469
-0.00082877
-0.00190101
-0.000873136
-0.00199076
-0.000934414
-0.00208493
-0.00101397
-0.00218225
-0.00111246
-0.00228406
-0.00123128
-0.00238989
-0.00137098
-0.00250017
-0.00153378
-0.00261486
-0.00171946
-0.00273477
-0.00192996
-0.00285912
-0.00298882
-0.00216733
-0.00469352
-0.00058837
-0.00444514
-0.000570864
-0.00420419
-0.000560419
-0.00396948
-0.000560475
-0.00374272
-0.00056849
-0.00352681
-0.000582012
-0.00331937
-0.000601124
-0.0031223
-0.000625193
-0.00293292
-0.000653038
-0.00275193
-0.000683373
-0.00257907
-0.000717395
-0.0024128
-0.000753079
-0.00225413
-0.000790724
-0.00210198
-0.000829573
-0.00195725
-0.00087095
-0.00181899
-0.000913211
-0.00168835
-0.000956249
-0.00156445
-0.0010017
-0.00144785
-0.00104853
-0.00133913
-0.00109573
-0.00123767
-0.00114505
-0.00114445
-0.00119542
-0.00106032
-0.00124765
-0.000984448
-0.00130176
-0.000917961
-0.00135658
-0.000860964
-0.00141444
-0.000814378
-0.00147351
-0.000779061
-0.00153449
-0.000754845
-0.0015975
-0.000742658
-0.00166322
-0.00074294
-0.00173054
-0.000757124
-0.0018005
-0.000784977
-0.00187316
-0.000827644
-0.00194809
-0.000886216
-0.00202636
-0.000960823
-0.00210765
-0.00105252
-0.00219236
-0.00116271
-0.0022797
-0.00129245
-0.00237043
-0.00144136
-0.00246594
-0.00161229
-0.00256385
-0.00180477
-0.00266664
-0.00277315
-0.00202044
-0.00412533
-0.000801699
-0.00391645
-0.000779746
-0.00371114
-0.000765726
-0.00350998
-0.000761637
-0.00331746
-0.000761007
-0.00313039
-0.000769084
-0.00294907
-0.00078245
-0.00277572
-0.00079854
-0.00260902
-0.00081974
-0.00244809
-0.000844298
-0.00229465
-0.000870839
-0.00214673
-0.000901002
-0.00200518
-0.000932271
-0.0018702
-0.000964553
-0.00174076
-0.00100039
-0.00161792
-0.00103606
-0.00150106
-0.00107311
-0.0013906
-0.00111216
-0.00128792
-0.00115122
-0.0011914
-0.00119226
-0.0011026
-0.00123385
-0.001021
-0.00127702
-0.000947203
-0.00132145
-0.000881636
-0.00136733
-0.000823962
-0.00141426
-0.000775759
-0.00146265
-0.000737244
-0.00151203
-0.000708065
-0.00156367
-0.000689125
-0.00161644
-0.000681849
-0.0016705
-0.000685956
-0.00172644
-0.000702026
-0.00178443
-0.00073112
-0.00184407
-0.00077281
-0.0019064
-0.000828833
-0.00197034
-0.000900135
-0.00203634
-0.000986772
-0.00210573
-0.00108976
-0.00217672
-0.00120924
-0.00225094
-0.00134743
-0.00232775
-0.00150356
-0.00240772
-0.00168035
-0.00248985
-0.00257581
-0.00187769
-0.00366183
-0.000983651
-0.00348119
-0.000960388
-0.00330213
-0.000944785
-0.00312901
-0.000934763
-0.00295785
-0.000932164
-0.00279281
-0.000934124
-0.00263491
-0.000940354
-0.00248006
-0.00095339
-0.00233074
-0.000969061
-0.0021878
-0.00098723
-0.00204924
-0.00100941
-0.00191728
-0.00103295
-0.00178986
-0.00105969
-0.00166726
-0.00108715
-0.00155145
-0.0011162
-0.00144162
-0.00114588
-0.00133649
-0.00117825
-0.00123826
-0.00121038
-0.00114609
-0.00124338
-0.00106083
-0.00127752
-0.000981809
-0.00131287
-0.00090893
-0.0013499
-0.000844356
-0.00138602
-0.000786957
-0.00142473
-0.000737532
-0.00146368
-0.000696238
-0.00150394
-0.000663568
-0.0015447
-0.000640017
-0.00158722
-0.000626099
-0.00163036
-0.000621944
-0.00167465
-0.000628516
-0.00171986
-0.000646292
-0.00176666
-0.000674984
-0.00181537
-0.000716394
-0.00186499
-0.000770458
-0.00191627
-0.000837427
-0.00196937
-0.00091859
-0.00202456
-0.00101423
-0.00208108
-0.00112571
-0.00213946
-0.00125302
-0.00220044
-0.0013975
-0.00226324
-0.00155963
-0.00232772
-0.00239508
-0.00174037
-0.00325952
-0.00114664
-0.00309732
-0.00112259
-0.00293999
-0.00110211
-0.0027847
-0.00109005
-0.00263527
-0.0010816
-0.00248849
-0.0010809
-0.00234589
-0.00108295
-0.00220789
-0.00109139
-0.00207533
-0.00110162
-0.00194632
-0.00111624
-0.00182308
-0.00113264
-0.00170359
-0.00115245
-0.00159014
-0.00117314
-0.0014808
-0.00119649
-0.00137746
-0.00121955
-0.00127798
-0.00124535
-0.00118478
-0.00127145
-0.00109762
-0.00129754
-0.00101569
-0.00132532
-0.000939147
-0.00135406
-0.000869332
-0.00138268
-0.000806587
-0.00141264
-0.000749523
-0.00144309
-0.000699122
-0.00147513
-0.000656269
-0.00150653
-0.000621615
-0.0015386
-0.000594083
-0.00157223
-0.000574898
-0.00160641
-0.000564981
-0.00164027
-0.000563787
-0.00167585
-0.000572228
-0.00171142
-0.000590938
-0.00174795
-0.000620111
-0.0017862
-0.000660384
-0.00182471
-0.000711488
-0.00186517
-0.000774958
-0.0019059
-0.000851438
-0.00194808
-0.000940985
-0.00199154
-0.00104383
-0.00203661
-0.00116127
-0.002083
-0.00129443
-0.00213008
-0.00144312
-0.00217902
-0.00222945
-0.00160875
-0.00291081
-0.00129379
-0.00276813
-0.00126527
-0.00262645
-0.00124379
-0.00248759
-0.00122892
-0.00235283
-0.00121635
-0.00222132
-0.00121241
-0.00209255
-0.00121172
-0.00197053
-0.00121342
-0.00185029
-0.00122186
-0.00173502
-0.0012315
-0.00162311
-0.00124456
-0.0015165
-0.00125906
-0.00141413
-0.00127551
-0.00131686
-0.00129376
-0.00122305
-0.00131337
-0.00113481
-0.00133359
-0.00105171
-0.00135455
-0.000973087
-0.00137616
-0.0009006
-0.0013978
-0.000833273
-0.00142139
-0.000771505
-0.00144445
-0.00071504
-0.00146911
-0.000664935
-0.00149319
-0.00062149
-0.00151857
-0.000584488
-0.00154354
-0.000553512
-0.00156957
-0.000530896
-0.00159485
-0.000515725
-0.00162158
-0.000508447
-0.00164755
-0.000510128
-0.00167417
-0.000520121
-0.00170143
-0.00053907
-0.001729
-0.000567416
-0.00175786
-0.000605965
-0.00178616
-0.000654957
-0.00181618
-0.000714597
-0.00184626
-0.000786014
-0.00187667
-0.000868959
-0.00190859
-0.000964803
-0.00194077
-0.00107354
-0.00197427
-0.00119617
-0.00200746
-0.00133261
-0.00204258
-0.00207696
-0.0014851
-0.00260934
-0.00142557
-0.00247848
-0.00139612
-0.0023511
-0.00137118
-0.00222702
-0.00135299
-0.00210463
-0.00133875
-0.00198618
-0.00133086
-0.00187184
-0.00132606
-0.00175973
-0.00132553
-0.0016521
-0.00132949
-0.00154785
-0.00133575
-0.00144877
-0.00134365
-0.00135207
-0.00135576
-0.00126042
-0.00136716
-0.00117177
-0.00138241
-0.00108856
-0.00139658
-0.00100945
-0.0014127
-0.000935083
-0.00142892
-0.000865313
-0.00144593
-0.000799222
-0.00146389
-0.000739564
-0.00148105
-0.000684265
-0.00149975
-0.000634038
-0.00151933
-0.000590173
-0.00153706
-0.000551537
-0.00155721
-0.000519484
-0.00157559
-0.000493903
-0.00159515
-0.000474708
-0.00161404
-0.000462338
-0.00163395
-0.000457731
-0.00165216
-0.000460704
-0.00167119
-0.000471428
-0.00169071
-0.000490673
-0.00170975
-0.000518542
-0.00172999
-0.000554428
-0.00175028
-0.000601074
-0.00176953
-0.000657469
-0.00178987
-0.000723466
-0.00181067
-0.000800817
-0.00183124
-0.000889244
-0.00185234
-0.000989663
-0.00187385
-0.00110249
-0.00189463
-0.00122867
-0.0019164
-0.00193789
-0.00136774
-0.00234292
-0.00154628
-0.00222609
-0.00151296
-0.0021101
-0.00148717
-0.00199791
-0.00146518
-0.00188826
-0.0014484
-0.00178055
-0.00143857
-0.00167685
-0.00142976
-0.00157593
-0.00142645
-0.00147877
-0.00142665
-0.00138388
-0.00143063
-0.00129411
-0.00143342
-0.00120761
-0.00144226
-0.00112407
-0.0014507
-0.00104429
-0.00146218
-0.000970568
-0.0014703
-0.000899248
-0.00148402
-0.000831297
-0.00149687
-0.000768929
-0.00150829
-0.000711255
-0.00152157
-0.000656554
-0.00153575
-0.000606899
-0.00154941
-0.000561445
-0.00156479
-0.000523536
-0.00157497
-0.000489536
-0.00159121
-0.000461636
-0.00160349
-0.000439465
-0.00161732
-0.000422606
-0.0016309
-0.000414081
-0.00164248
-0.000410615
-0.00165563
-0.000415217
-0.00166659
-0.000426316
-0.00167961
-0.00044486
-0.00169121
-0.00047152
-0.00170333
-0.000506603
-0.0017152
-0.000550476
-0.00172566
-0.000602944
-0.0017374
-0.000665268
-0.00174835
-0.000736363
-0.00176015
-0.000818296
-0.00177041
-0.000911087
-0.00178106
-0.00101449
-0.00179123
-0.00113026
-0.00180063
-0.0018107
-0.00125744
0.00112735
-0.000949839
0.00103404
-0.00121155
0.0010511
-0.000903621
0.000979868
0.000983029
-0.000854803
0.000922875
0.000923215
-0.000804966
0.000864781
0.000872387
-0.000753968
0.000804796
0.000829945
-0.00070262
0.000745062
0.000795755
-0.000651729
0.000685918
0.000770036
-0.000601212
0.000626931
0.000751625
-0.000551353
0.000569764
0.000740235
-0.000502594
0.000513984
0.000734999
-0.000455334
0.00046057
0.000735627
-0.000409501
0.000408874
0.000740948
-0.00036471
0.000359389
0.000750875
-0.000322392
0.000312465
0.000764001
-0.000280849
0.000267723
0.000780373
-0.000241827
0.000225454
0.000798529
-0.000204235
0.000186079
0.000818327
-0.000168486
0.000148689
0.000838544
-0.000134113
0.000113895
0.000859072
-0.000101987
8.14592e-05
0.000879443
-7.12634e-05
5.08918e-05
0.000898817
-4.22113e-05
2.28372e-05
0.000916723
-1.48134e-05
-3.09277e-06
0.000932657
1.13802e-05
-2.73141e-05
0.000945753
3.61951e-05
-4.92916e-05
0.000956451
5.91051e-05
-6.9803e-05
0.000963379
8.13232e-05
-8.82512e-05
0.000967108
0.000101758
-0.000105487
0.000966472
0.000121705
-0.000121069
0.000961361
0.000140247
-0.000135136
0.000951385
0.000157892
-0.000147916
0.000936179
0.000174826
-0.00015962
0.000915302
0.000191237
-0.00017036
0.000887808
0.000207165
-0.000179671
0.000853122
0.000222854
-0.000188169
0.000810039
0.000238796
-0.000195714
0.000756404
0.000256515
-0.00020288
0.00068934
0.000276543
-0.000209481
0.000603143
0.000302321
-0.000216124
0.00048712
0.000340152
-0.000224132
0.000322285
0.00040194
-0.000237105
6.62253e-05
0.000519253
-0.000263198
0.00077158
-0.000389438
-0.000315917
0.0010269
-0.000873502
-0.00110324
0.000956908
-0.00083363
0.000894523
-0.000792418
0.000839298
-0.000749742
0.000791875
-0.000706546
0.000752338
-0.000663083
0.000719966
-0.000619357
0.000694989
-0.000576236
0.000676654
-0.000533018
0.000664558
-0.000490498
0.000657964
-0.000448741
0.000656771
-0.000408308
0.000660503
-0.000368442
0.000667861
-0.00032975
0.000679086
-0.000292074
0.000692953
-0.000255694
0.000709408
-0.000220691
0.000727405
-0.000186483
0.00074671
-0.000153418
0.000766505
-0.000121783
0.000786464
-9.1222e-05
0.000806004
-6.17522e-05
0.000824291
-3.31e-05
0.000841398
-5.72714e-06
0.000856438
2.1155e-05
0.000869001
4.65413e-05
0.000878498
7.18267e-05
0.00088417
9.60855e-05
0.000886182
0.000119692
0.000883202
0.000143227
0.000875127
0.000165967
0.000860967
0.000188986
0.000839896
0.000212308
0.000810925
0.000236136
0.000772075
0.000261704
0.000720852
0.000290019
0.000655049
0.000322317
0.000569038
0.000362554
0.000456387
0.000414973
0.000306571
0.000489967
0.000106069
0.000602443
-0.000160249
0.00078557
0.0010872
-0.000475872
0.000931667
-0.000803319
-0.00100185
0.000867947
-0.000769911
0.000810867
-0.000735338
0.000760758
-0.000699632
0.000717804
-0.000663593
0.00068124
-0.000626518
0.000651273
-0.00058939
0.000627585
-0.000552548
0.000609744
-0.000515176
0.000597739
-0.000478493
0.00059123
-0.000442233
0.000589012
-0.00040609
0.000590942
-0.000370372
0.000597164
-0.000335973
0.000606437
-0.000301347
0.000618578
-0.000267835
0.000632618
-0.000234731
0.000648402
-0.000202267
0.000665901
-0.000170916
0.000683927
-0.000139809
0.000701985
-0.00010928
0.000719733
-7.95005e-05
0.000736806
-5.01729e-05
0.000752317
-2.12381e-05
0.000766484
6.98788e-06
0.000777669
3.53569e-05
0.000786157
6.3339e-05
0.00079129
9.09519e-05
0.000792217
0.000118765
0.000788381
0.000147063
0.000778841
0.000175506
0.000762838
0.00020499
0.000738811
0.000236335
0.000705925
0.000269022
0.00066205
0.000305578
0.00060493
0.00034714
0.000530897
0.000396351
0.00043683
0.00045662
0.000315921
0.000535882
0.00016331
0.000642578
-2.95989e-05
0.000795352
-0.000259835
0.00101581
0.00133358
-0.000506208
0.000843922
-0.00073946
-0.00090778
0.000785722
-0.000711711
0.000733674
-0.00068329
0.000687378
-0.000653335
0.000647368
-0.000623583
0.000613207
-0.000592357
0.000585004
-0.000561188
0.000562417
-0.00052996
0.000545111
-0.000497871
0.00053298
-0.000466361
0.000525442
-0.000434695
0.000522215
-0.000402862
0.000522966
-0.000371124
0.000526805
-0.000339812
0.00053414
-0.000308681
0.000543843
-0.000277539
0.00055575
-0.000246637
0.000569509
-0.000216026
0.000584242
-0.000185649
0.000599703
-0.00015527
0.000616018
-0.000125595
0.000631862
-9.53447e-05
0.000647131
-6.54418e-05
0.00066146
-3.55671e-05
0.00067377
-5.32137e-06
0.000684377
2.47495e-05
0.000692089
5.56274e-05
0.000696343
8.66975e-05
0.000696659
0.00011845
0.000692033
0.000151689
0.000681871
0.000185668
0.000664986
0.000221875
0.000640649
0.000260672
0.000606686
0.000302985
0.000561858
0.000350407
0.000504227
0.000404771
0.000431113
0.000469465
0.000338434
0.000549299
0.000223335
0.000650981
8.04676e-05
0.000785446
-9.05312e-05
0.000966352
-0.00029049
0.00121576
0.00154768
-0.000504589
0.000762553
-0.000681463
-0.00082055
0.000709691
-0.000658849
0.000661713
-0.000635313
0.000619723
-0.000611345
0.000582443
-0.000586303
0.000551267
-0.000561182
0.000524979
-0.000534899
0.000502944
-0.000507925
0.000486644
-0.000481571
0.000474156
-0.000453873
0.000466088
-0.000426628
0.000461995
-0.000398769
0.00046144
-0.000370568
0.000464096
-0.000342467
0.000469408
-0.000313993
0.000477041
-0.000285172
0.000486907
-0.000256503
0.000498398
-0.000227517
0.000511154
-0.000198405
0.000524869
-0.000168984
0.000538611
-0.000139337
0.000552633
-0.000109368
0.000566424
-7.92325e-05
0.000579025
-4.81677e-05
0.0005903
-1.65963e-05
0.000599551
1.54986e-05
0.000606576
4.86024e-05
0.000610139
8.31346e-05
0.000609991
0.000118597
0.000605661
0.000156019
0.000595734
0.000195596
0.000579286
0.000238323
0.000555456
0.000284501
0.000523008
0.000335433
0.000480463
0.000392952
0.000425351
0.000459884
0.000356081
0.000538735
0.000270034
0.000635346
0.000163566
0.00075745
3.49231e-05
0.000914089
-0.000118499
0.00111977
-0.000294313
0.00139158
0.00174095
-0.000487586
0.000688288
-0.000627817
-0.000741934
0.000639902
-0.000610463
0.00059634
-0.000591751
0.000557865
-0.000572871
0.000523941
-0.000552378
0.000494363
-0.000531605
0.000469378
-0.000509914
0.000449521
-0.000488068
0.000433093
-0.000465143
0.00042121
-0.00044199
0.000413062
-0.000418481
0.000407964
-0.000393671
0.000406435
-0.00036904
0.000407734
-0.000343766
0.000411626
-0.000317885
0.00041777
-0.000291316
0.000426134
-0.000264867
0.000435674
-0.000237057
0.000446336
-0.000209067
0.000458196
-0.000180843
0.000470358
-0.000151499
0.00048262
-0.000121629
0.000494455
-9.10672e-05
0.000505941
-5.96536e-05
0.000516102
-2.67582e-05
0.00052437
7.23083e-06
0.000530506
4.24666e-05
0.000533895
7.97459e-05
0.000533968
0.000118524
0.000529925
0.000160063
0.000520672
0.000204849
0.000505773
0.000253222
0.000483763
0.000306511
0.000453445
0.000365751
0.000413688
0.00043271
0.000362861
0.00051071
0.000298937
0.000602659
0.000219995
0.000714289
0.000123215
0.00085423
6.86903e-06
0.00103044
-0.000131197
0.00125784
-0.000289336
0.00154972
0.00191533
-0.000463719
0.000621031
-0.000579619
-0.000669228
0.000577044
-0.000566476
0.00053731
-0.000552017
0.000501475
-0.000537036
0.000470326
-0.000521229
0.000443372
-0.000504651
0.000420386
-0.000486927
0.000401236
-0.000468918
0.000385876
-0.000449783
0.000374022
-0.000430136
0.000365646
-0.000410104
0.000360616
-0.000388641
0.000358444
-0.000366868
0.000358471
-0.000343792
0.000361257
-0.000320672
0.000366237
-0.000296295
0.000372711
-0.000271341
0.000380891
-0.000245237
0.000390419
-0.000218595
0.000400033
-0.000190458
0.000410726
-0.000162191
0.000421486
-0.00013239
0.000431954
-0.000101534
0.000441862
-6.95614e-05
0.000451032
-3.59285e-05
0.000458791
-5.27587e-07
0.00046431
3.69475e-05
0.000467585
7.64704e-05
0.000467478
0.000118631
0.000464063
0.000163478
0.000456037
0.000212874
0.000442789
0.00026647
0.0004231
0.000326201
0.000395731
0.000393121
0.000359034
0.000469406
0.000312917
0.000556828
0.000254423
0.000661153
0.00018245
0.000786262
9.45023e-05
0.000942177
-1.05781e-05
0.00113552
-0.000134688
0.00138195
-0.000278971
0.001694
0.00207415
-0.000437788
0.000559831
-0.000535747
-0.000603703
0.00051944
-0.000526085
0.000483219
-0.000515796
0.000451106
-0.000504923
0.000422226
-0.000492349
0.000397089
-0.000479514
0.000375946
-0.000465784
0.000358073
-0.000451045
0.000343579
-0.000435289
0.000332396
-0.000418952
0.000324099
-0.000401808
0.000318631
-0.000383173
0.000315867
-0.000364105
0.000315692
-0.000343617
0.000317464
-0.000322444
0.000321136
-0.000299966
0.000326717
-0.000276923
0.000333839
-0.000252359
0.000341733
-0.000226489
0.000350543
-0.000199268
0.000359517
-0.000171164
0.000368939
-0.000141813
0.000378111
-0.000110706
0.00038712
-7.85697e-05
0.000395234
-4.40432e-05
0.000402405
-7.69851e-06
0.000407485
3.1868e-05
0.000410225
7.37307e-05
0.00041053
0.000118326
0.00040755
0.000166459
0.000400688
0.000219736
0.000389221
0.000277938
0.000371648
0.000343773
0.000347084
0.000417685
0.000314295
0.000502195
0.000272019
0.000599104
0.000219378
0.000713793
0.00015359
0.00085205
7.44651e-05
0.0010213
-1.96031e-05
0.00122958
-0.000132461
0.00149481
-0.000265534
0.00182707
0.00221875
-0.000410133
0.000504638
-0.000544432
-0.000495953
0.000468288
-0.000489736
0.000435543
-0.00048305
0.000405361
-0.000474742
0.000379404
-0.000466392
0.000356381
-0.000456491
0.000336706
-0.00044611
0.000319982
-0.000434321
0.000306622
-0.00042193
0.000295678
-0.000408008
0.000287426
-0.000393556
0.000282008
-0.000377754
0.000278479
-0.000360576
0.000277672
-0.00034281
0.000278783
-0.000323554