/*--------------------------------*- C++ -*----------------------------------*\
| =========                 |                                                 |
| \\      /  F ield         | OpenFOAM: The Open Source CFD Toolbox           |
|  \\    /   O peration     | Version:  2.3.0                                 |
|   \\  /    A nd           | Web:      www.OpenFOAM.org                      |
|    \\/     M anipulation  |                                                 |
\*---------------------------------------------------------------------------*/
FoamFile
{
    version     2.0;
    format      ascii;
    class       volVectorField;
    location    "2000";
    object      U;
}
// * * * * * * * * * * * * * * * * * * * * * * * * * * * * * * * * * * * * * //

dimensions      [0 1 -1 0 0 0 0];

internalField   nonuniform List<vector> 
39608
(
(22.866 9.99274 0)
(22.7751 10.1938 -8.95257e-21)
(22.6801 10.398 -1.67665e-21)
(22.5812 10.6047 1.01099e-20)
(22.4784 10.8139 2.87333e-21)
(22.3715 11.0258 0)
(22.2602 11.2405 2.02626e-20)
(22.1446 11.4581 -5.1602e-21)
(22.0243 11.6788 -2.79471e-20)
(21.8993 11.9027 -1.90254e-20)
(21.7692 12.1299 4.06992e-20)
(21.6337 12.3606 7.50777e-21)
(21.4925 12.5947 -1.0621e-20)
(21.345 12.8322 0)
(21.1907 13.0731 -1.25734e-20)
(21.0291 13.3172 0)
(20.8592 13.5644 6.99393e-20)
(20.6804 13.8141 -1.47211e-19)
(20.4915 14.0657 7.74929e-20)
(20.2914 14.3184 -9.02643e-20)
(20.0785 14.5711 9.19135e-20)
(19.8511 14.8225 1.21129e-20)
(19.6069 15.071 -1.34171e-21)
(19.3434 15.3148 7.48085e-21)
(19.0574 15.5518 1.8139e-21)
(18.7451 15.7802 0)
(18.4023 15.9976 -1.04636e-20)
(18.0238 16.2031 0)
(17.6035 16.3948 1.31733e-20)
(17.1343 16.5729 0)
(16.6084 16.7388 0)
(16.0163 16.8944 -1.00077e-19)
(15.347 17.0432 9.56481e-20)
(14.5882 17.1909 0)
(13.725 17.3429 0)
(12.7422 17.5079 4.09173e-20)
(11.6236 17.6935 -5.34691e-20)
(10.3526 17.9026 0)
(8.9073 18.1216 1.50955e-19)
(7.27424 18.3368 -1.03559e-19)
(5.49976 18.6291 0)
(3.68778 19.1709 -1.4243e-19)
(1.79368 19.5328 1.76405e-19)
(22.6832 9.9521 -1.31777e-20)
(22.5928 10.132 1.98767e-20)
(22.4994 10.3142 0)
(22.4028 10.4985 -1.63619e-20)
(22.3027 10.6849 -2.07549e-20)
(22.1989 10.8734 5.7336e-20)
(22.091 11.0642 -3.16286e-20)
(21.9789 11.2573 -3.0839e-20)
(21.8624 11.453 5.08929e-20)
(21.7411 11.6514 -3.18349e-20)
(21.615 11.8526 2.32792e-21)
(21.4837 12.0569 -1.0859e-20)
(21.3469 12.2643 -1.36912e-20)
(21.2041 12.4749 0)
(21.0548 12.6889 0)
(20.8983 12.9066 0)
(20.734 13.128 0)
(20.561 13.3535 0)
(20.3786 13.5833 0)
(20.1856 13.8177 -5.68452e-20)
(19.9808 14.0571 6.87002e-20)
(19.7632 14.3017 1.17165e-20)
(19.531 14.5518 1.31021e-21)
(19.2829 14.8077 0)
(19.0171 15.0695 8.57454e-20)
(18.7316 15.337 -1.71148e-19)
(18.4248 15.6099 9.15147e-20)
(18.0942 15.8873 -1.0344e-20)
(17.7372 16.1679 0)
(17.3514 16.4495 1.72041e-19)
(16.9341 16.7294 2.54465e-20)
(16.4821 17.0034 -2.10391e-19)
(15.9922 17.2658 0)
(15.4611 17.5093 -3.74087e-19)
(14.8858 17.7245 3.62894e-19)
(14.2631 17.8994 0)
(13.5907 18.0191 6.33498e-19)
(12.8676 18.0661 -5.99359e-19)
(12.0942 18.0174 -9.80384e-19)
(11.2762 17.8453 9.35295e-19)
(10.4307 17.5265 7.06523e-20)
(9.56152 17.0441 -7.63867e-19)
(8.63823 16.3821 1.57006e-18)
(22.52 9.90689 2.50532e-20)
(22.4291 10.068 -2.52189e-20)
(22.3352 10.2316 2.6498e-20)
(22.2382 10.3969 -3.25575e-20)
(22.1379 10.564 4.51243e-20)
(22.0339 10.7329 1.90498e-20)
(21.926 10.9037 -7.46111e-20)
(21.8139 11.0764 0)
(21.6972 11.251 -7.13382e-21)
(21.5756 11.4279 0)
(21.4489 11.6072 -6.64896e-20)
(21.317 11.7889 7.94762e-20)
(21.1797 11.9733 1.361e-20)
(21.0366 12.1603 7.51496e-20)
(20.8872 12.3499 -8.73728e-20)
(20.7309 12.5423 -1.25347e-20)
(20.5672 12.7376 -1.32177e-20)
(20.3955 12.9357 -9.2986e-20)
(20.2149 13.1367 9.41037e-20)
(20.0247 13.3405 0)
(19.8238 13.5471 -1.07071e-20)
(19.611 13.7562 1.10998e-19)
(19.3848 13.9676 -1.05342e-19)
(19.1436 14.181 0)
(18.8855 14.3959 0)
(18.6087 14.6116 1.30897e-19)
(18.3109 14.8273 -1.68037e-19)
(17.9895 15.0419 1.00663e-20)
(17.6422 15.2537 1.68612e-20)
(17.2664 15.4609 0)
(16.8592 15.6611 2.08689e-20)
(16.418 15.8511 0)
(15.9402 16.0269 0)
(15.4237 16.1836 2.22997e-20)
(14.8674 16.3156 0)
(14.271 16.4157 0)
(13.636 16.4751 0)
(12.9667 16.4846 -4.15057e-20)
(12.2702 16.4333 4.85222e-20)
(11.5591 16.3101 4.6042e-19)
(10.8515 16.1052 -1.23742e-20)
(10.1697 15.8078 -1.53737e-20)
(9.54023 15.4077 -1.26604e-18)
(22.3779 9.86164 1.83571e-20)
(22.2884 10.0061 -3.61147e-20)
(22.1964 10.153 0)
(22.1015 10.3016 1.65491e-20)
(22.0038 10.4518 0)
(21.9028 10.6036 -1.73929e-20)
(21.7982 10.757 1.78521e-20)
(21.6898 10.912 -8.7514e-20)
(21.5771 11.0687 1.96244e-19)
(21.4597 11.2269 -1.15705e-19)
(21.337 11.3871 0)
(21.2091 11.5493 0)
(21.0757 11.7137 -1.18903e-19)
(20.9369 11.8803 1.04691e-19)
(20.792 12.0489 -1.18085e-19)
(20.6405 12.2196 1.27466e-19)
(20.4817 12.3924 1.31791e-20)
(20.3151 12.5674 -1.33956e-19)
(20.1399 12.7445 2.58409e-19)
(19.9556 12.9238 -2.95559e-19)
(19.7614 13.105 1.53784e-19)
(19.5566 13.2881 0)
(19.3401 13.4725 5.51542e-21)
(19.1108 13.6579 0)
(18.8673 13.8434 -2.91313e-20)
(18.6082 14.0286 2.50074e-20)
(18.332 14.2121 0)
(18.0371 14.3928 -2.51744e-19)
(17.7218 14.5688 2.80823e-19)
(17.3846 14.7383 -3.0866e-19)
(17.0237 14.8983 3.43989e-19)
(16.6378 15.0459 4.11411e-19)
(16.2254 15.177 -4.52283e-19)
(15.7855 15.287 0)
(15.3181 15.3705 0)
(14.8235 15.4213 0)
(14.3039 15.4326 3.8744e-19)
(13.7628 15.397 -3.9653e-19)
(13.2063 15.3075 4.81899e-19)
(12.6427 15.1573 -4.90162e-19)
(12.0836 14.942 0)
(11.5427 14.6598 7.19476e-20)
(11.0365 14.3128 3.40397e-19)
(22.2532 9.81815 2.46294e-20)
(22.1658 9.94755 -4.71575e-20)
(22.0763 10.0801 7.32148e-20)
(21.9839 10.2141 2.67839e-20)
(21.8889 10.3497 -2.74095e-20)
(21.791 10.4868 0)
(21.6896 10.6254 2.87331e-20)
(21.5847 10.7656 -2.54429e-20)
(21.476 10.9073 1.11057e-19)
(21.3629 11.0502 -3.0297e-20)
(21.2446 11.1944 -7.61864e-20)
(21.1206 11.3404 -2.24828e-21)
(20.991 11.4885 -5.26307e-20)
(20.856 11.6385 1.29542e-19)
(20.7155 11.7902 -1.06257e-19)
(20.5687 11.9435 -5.89029e-21)
(20.4151 12.0982 1.48313e-19)
(20.2538 12.2545 0)
(20.0841 12.4122 -3.34333e-21)
(19.9053 12.5712 2.06997e-19)
(19.7169 12.7316 -1.85828e-19)
(19.5182 12.893 -2.71357e-20)
(19.3086 13.055 -2.50518e-20)
(19.087 13.2171 0)
(18.8522 13.3784 2.91497e-20)
(18.603 13.5383 1.75978e-19)
(18.338 13.6956 -1.04268e-19)
(18.0559 13.8492 -8.00478e-20)
(17.7553 13.9974 1.3461e-19)
(17.435 14.1384 -2.31241e-19)
(17.0938 14.2697 0)
(16.7308 14.3885 2.76344e-20)
(16.3452 14.4915 -6.67607e-20)
(15.9371 14.5746 2.93054e-19)
(15.5068 14.6334 -2.20204e-19)
(15.0558 14.6628 -3.58851e-19)
(14.5865 14.6575 3.67798e-19)
(14.1028 14.6118 4.37711e-19)
(13.6104 14.5205 -4.46514e-19)
(13.1168 14.3791 0)
(12.6314 14.185 0)
(12.165 13.9382 0)
(11.7294 13.6413 8.11401e-20)
(22.144 9.77831 -2.50358e-20)
(22.0596 9.89401 -2.96965e-20)
(21.9731 10.0141 -2.63139e-20)
(21.8839 10.1354 3.19248e-20)
(21.7922 10.2584 -3.0952e-20)
(21.6979 10.3827 -1.61954e-20)
(21.6001 10.5085 -4.53803e-20)
(21.499 10.636 -2.95746e-20)
(21.3944 10.7652 4.89173e-20)
(21.2865 10.8957 -8.37994e-20)
(21.174 11.0267 1.61105e-20)
(21.0553 11.1588 0)
(20.93 11.2931 0)
(20.7993 11.4295 0)
(20.6636 11.5675 -1.87078e-20)
(20.5222 11.7067 8.51109e-20)
(20.3743 11.8471 -8.57719e-20)
(20.2192 11.9884 0)
(20.0562 12.1307 -2.70882e-21)
(19.8844 12.2739 8.06337e-20)
(19.703 12.4177 -7.7831e-20)
(19.5113 12.5622 2.72792e-20)
(19.3094 12.7071 0)
(19.0968 12.8513 3.44879e-20)
(18.8723 12.9943 0)
(18.6347 13.1352 -7.60115e-20)
(18.383 13.273 -3.92211e-20)
(18.1161 13.4065 2.73178e-19)
(17.8327 13.5342 -3.43146e-19)
(17.5319 13.6542 2.60448e-19)
(17.2128 13.7644 0)
(16.8748 13.8621 6.49582e-20)
(16.5174 13.9445 -2.19916e-19)
(16.1409 14.0081 -9.7708e-20)
(15.7461 14.0492 2.42179e-19)
(15.3345 14.0634 -4.71787e-19)
(14.9087 14.0466 2.86262e-19)
(14.4724 13.994 1.10799e-19)
(14.03 13.9014 0)
(13.5877 13.7658 2.68361e-19)
(13.1526 13.5855 -2.7189e-19)
(12.7335 13.3611 4.60419e-19)
(12.3389 13.0953 -4.71726e-19)
(22.0486 9.74187 1.41687e-20)
(21.9676 9.84646 6.19106e-20)
(21.8845 9.95565 -4.76653e-20)
(21.7986 10.0658 -8.57313e-22)
(21.7102 10.1779 3.32269e-20)
(21.6199 10.2911 3.43428e-20)
(21.5257 10.4059 1.66055e-20)
(21.4285 10.5222 -1.88553e-20)
(21.3267 10.641 -3.79145e-20)
(21.2231 10.7617 9.21272e-20)
(21.1168 10.8823 0)
(21.0046 11.0027 0)
(20.8843 11.1249 0)
(20.7573 11.2502 0)
(20.6258 11.3773 0)
(20.4889 11.5052 9.46662e-20)
(20.3461 11.634 -9.53632e-20)
(20.1967 11.7634 -1.03884e-19)
(20.0397 11.8936 1.02928e-19)
(19.8748 12.0242 0)
(19.7007 12.1546 6.25365e-20)
(19.5155 12.2851 -1.24245e-19)
(19.3196 12.4165 0)
(19.1141 12.5472 -3.4656e-20)
(18.8971 12.6761 0)
(18.6684 12.8025 2.09531e-19)
(18.4267 12.9253 -2.19339e-19)
(18.171 13.0437 -2.43594e-19)
(17.9004 13.1563 -1.11833e-20)
(17.614 13.2612 1.64275e-19)
(17.3108 13.3565 6.24168e-20)
(16.9907 13.4397 -6.48458e-20)
(16.6533 13.508 -2.98494e-19)
(16.2989 13.5586 3.8372e-19)
(15.9286 13.5882 2.67874e-19)
(15.5441 13.5932 -5.6e-19)
(15.1476 13.5704 2.98924e-19)
(14.744 13.5156 -1.09901e-19)
(14.3367 13.4248 -1.20964e-19)
(13.9307 13.2957 -1.30336e-19)
(13.5312 13.1269 0)
(13.1451 12.9191 3.06012e-19)
(12.7792 12.6753 -4.73406e-19)
(21.9655 9.7164 4.94215e-20)
(21.8892 9.80691 -3.47642e-20)
(21.8091 9.90517 -1.71363e-20)
(21.7266 10.0052 0)
(21.6406 10.1078 0)
(21.555 10.2117 -1.81385e-20)
(21.4637 10.3171 0)
(21.3719 10.4233 1.89137e-20)
(21.2722 10.5322 -1.92989e-20)
(21.1707 10.6451 2.11852e-20)
(21.0691 10.7584 -1.07693e-19)
(20.9647 10.8697 1.08407e-19)
(20.8515 10.9806 2.34012e-20)
(20.7276 11.0961 -7.07115e-20)
(20.6 11.2144 9.51387e-20)
(20.4673 11.3332 0)
(20.329 11.4527 -2.66301e-20)
(20.1843 11.5725 -2.78211e-20)
(20.0324 11.693 5.70504e-20)
(19.873 11.8143 -3.05823e-20)
(19.7063 11.9346 3.1099e-20)
(19.5294 12.0533 -1.38716e-19)
(19.3383 12.1733 1.41215e-19)
(19.1395 12.293 0)
(18.9291 12.4109 1.67239e-19)
(18.7081 12.5262 -3.06025e-19)
(18.4748 12.6374 4.21188e-19)
(18.2281 12.744 1.00679e-20)
(17.968 12.8451 -4.35061e-19)
(17.6944 12.9379 1.6953e-19)
(17.4044 13.0219 -6.21484e-20)
(17.1 13.0943 0)
(16.7792 13.1522 2.28043e-19)
(16.4426 13.1934 -1.56956e-19)
(16.0913 13.2149 -9.40308e-20)
(15.7282 13.2123 1.82855e-19)
(15.3531 13.1852 -1.03394e-19)
(14.9735 13.1301 -1.11696e-19)
(14.5925 13.0421 2.39668e-19)
(14.2146 12.9183 1.28249e-19)
(13.8423 12.7584 0)
(13.4811 12.5626 -4.46842e-19)
(13.1362 12.3345 3.02069e-19)
(21.8898 9.68618 -8.36134e-22)
(21.8179 9.77133 -4.45781e-22)
(21.7416 9.86196 0)
(21.6675 9.95355 0)
(21.5822 10.047 -2.05557e-20)
(21.5035 10.1434 4.10439e-20)
(21.4112 10.2413 -1.9487e-20)
(21.326 10.3404 -1.94336e-20)
(21.2276 10.4388 0)
(21.1299 10.5425 6.79218e-23)
(21.034 10.6497 -6.86971e-20)
(20.9354 10.7561 2.22761e-20)
(20.8314 10.8578 -2.2849e-20)
(20.7096 10.9642 -7.45995e-20)
(20.5873 11.0751 1.04037e-19)
(20.4622 11.1852 1.29887e-21)
(20.3315 11.2957 -2.7335e-20)
(20.1936 11.4071 -3.00092e-20)
(20.0482 11.5181 9.06932e-20)
(19.8942 11.6308 6.7348e-20)
(19.733 11.7441 -3.02469e-20)
(19.5649 11.8562 0)
(19.3753 11.9666 7.57968e-20)
(19.1854 12.0759 -3.67061e-20)
(18.9838 12.1832 8.63019e-20)
(18.7714 12.2892 -1.32647e-19)
(18.5464 12.3907 4.98505e-20)
(18.3062 12.4874 -5.33084e-20)
(18.0487 12.5823 -1.1439e-19)
(17.7861 12.6657 1.77511e-19)
(17.5035 12.7411 0)
(17.2115 12.806 0)
(16.9047 12.8551 1.66863e-21)
(16.5825 12.8888 -1.68157e-19)
(16.2393 12.9086 3.49811e-19)
(15.891 12.9018 -9.01549e-20)
(15.5293 12.8692 1.02131e-19)
(15.164 12.8152 1.10063e-19)
(14.7935 12.7345 1.25619e-19)
(14.4287 12.6185 -2.47298e-19)
(14.0715 12.4691 0)
(13.7281 12.282 1.47274e-19)
(13.3971 12.0687 6.97428e-21)
(-0.120895 18.313 0)
(0.392868 16.4551 6.89786e-20)
(0.981135 14.8913 7.34643e-20)
(1.58171 13.6437 9.74715e-20)
(2.16153 12.6165 2.95781e-19)
(2.71038 11.7494 -1.34516e-19)
(3.22681 11.0071 -3.00846e-19)
(3.71103 10.365 -1.40981e-19)
(4.1653 9.80356 1.3377e-19)
(4.59509 9.31019 0)
(5.0029 8.87278 5.64196e-20)
(5.38985 8.48183 0)
(5.75684 8.12997 -1.27584e-19)
(6.10502 7.81117 0)
(6.43539 7.52039 1.16291e-19)
(6.74928 7.25382 0)
(7.04778 7.00798 1.07076e-19)
(7.33208 6.77981 0)
(7.60343 6.5673 0)
(7.86282 6.36817 0)
(8.11129 6.18083 -1.79066e-19)
(8.34987 6.00397 -1.74851e-19)
(8.5794 5.83632 -1.20344e-18)
(8.80058 5.67666 1.52159e-18)
(9.01423 5.52432 -1.15536e-18)
(9.22082 5.37833 1.14438e-18)
(9.42094 5.23809 1.29127e-18)
(9.61507 5.10308 -1.44254e-18)
(9.80359 4.97272 1.26691e-18)
(9.98683 4.84668 -9.50521e-19)
(10.1651 4.72457 -3.19325e-19)
(10.3386 4.60606 3.17392e-19)
(10.5079 4.49105 6.26868e-19)
(10.673 4.37926 -6.21027e-19)
(10.8342 4.27045 0)
(10.9918 4.16446 3.10698e-19)
(11.146 4.06112 -3.08492e-19)
(11.2969 3.96018 3.01164e-19)
(11.4447 3.86154 0)
(11.5893 3.76503 1.18256e-18)
(11.7307 3.67088 5.8338e-19)
(11.8689 3.57915 5.63324e-19)
(12.0018 3.48006 0)
(7.70054 15.5667 -1.79627e-18)
(7.05101 14.6597 9.16317e-19)
(6.66573 13.7981 -6.01209e-20)
(6.46111 13.0029 1.24102e-19)
(6.38348 12.2764 -1.26186e-19)
(6.3951 11.6169 0)
(6.46972 11.0199 -5.57346e-20)
(6.58855 10.4795 -1.36527e-19)
(6.73743 9.98959 2.64108e-19)
(6.9069 9.5442 -8.62878e-19)
(7.08968 9.13811 3.6017e-19)
(7.2807 8.76674 -4.64041e-19)
(7.47627 8.42596 -3.40877e-19)
(7.67377 8.11221 8.62975e-19)
(7.87125 7.8222 7.32657e-19)
(8.06717 7.55309 -8.06308e-19)
(8.26066 7.30239 -7.79074e-19)
(8.45104 7.068 9.40662e-19)
(8.63787 6.84802 -1.78726e-19)
(8.82086 6.64087 0)
(8.99998 6.4452 1.75129e-19)
(9.17526 6.25986 -1.18999e-18)
(9.34663 6.08367 -1.62816e-19)
(9.51415 5.91582 -3.20604e-19)
(9.67806 5.75556 2.42401e-18)
(9.83836 5.60211 -1.27628e-18)
(9.99513 5.45491 6.28054e-19)
(10.1485 5.31337 -4.68088e-19)
(10.2985 5.1771 -6.17162e-19)
(10.4452 5.04575 1.55359e-19)
(10.5889 4.9189 6.10607e-19)
(10.7296 4.79634 -6.11403e-19)
(10.8675 4.67777 6.06933e-19)
(11.0028 4.56299 6.05654e-19)
(11.1358 4.45167 -3.07275e-19)
(11.2664 4.34356 -6.01157e-19)
(11.395 4.23843 1.51759e-19)
(11.5214 4.13601 -1.50907e-19)
(11.6458 4.0361 0)
(11.7681 3.93851 -2.98587e-19)
(11.8881 3.84339 -2.8796e-19)
(12.0059 3.75079 -5.33867e-21)
(12.1195 3.65185 0)
(8.99986 14.9037 5.98363e-19)
(8.57963 14.3197 0)
(8.27045 13.6987 -4.059e-19)
(8.05952 13.0728 4.99465e-19)
(7.93139 12.4618 2.32989e-19)
(7.87073 11.8776 -1.04461e-19)
(7.86393 11.3269 1.2114e-19)
(7.89923 10.812 -3.36697e-21)
(7.96689 10.3334 1.14863e-19)
(8.05931 9.88965 -1.02063e-19)
(8.17015 9.47874 1.03997e-19)
(8.29451 9.09837 0)
(8.4285 8.74591 -1.04148e-19)
(8.56911 8.41895 0)
(8.71385 8.11493 9.83272e-20)
(8.86085 7.83172 9.23972e-19)
(9.00881 7.56724 -5.41639e-19)
(9.15665 7.31969 -1.80885e-19)
(9.30351 7.08733 8.63975e-19)
(9.44896 6.86877 -5.0568e-19)
(9.59273 6.66272 -6.58256e-19)
(9.73457 6.46798 6.46101e-19)
(9.87433 6.28341 0)
(10.0119 6.1081 -3.10915e-19)
(10.1474 5.94119 7.73924e-19)
(10.2806 5.7819 -1.50897e-19)
(10.4114 5.62953 1.49477e-19)
(10.5399 5.4835 0)
(10.666 5.34337 4.46923e-19)
(10.7899 5.20865 -2.96685e-19)
(10.9115 5.07902 0)
(11.0309 4.95415 -2.92313e-19)
(11.1484 4.83373 -8.85137e-19)
(11.2641 4.71745 2.97615e-19)
(11.3783 4.60495 -5.88711e-19)
(11.4908 4.49592 5.89771e-19)
(11.6019 4.39009 -4.40758e-19)
(11.7114 4.2872 2.19727e-19)
(11.8196 4.18701 -3.66272e-20)
(11.9261 4.08929 -3.93843e-20)
(12.0308 3.99413 2.0416e-21)
(12.1336 3.90165 -2.81496e-19)
(12.2328 3.80343 -1.52868e-21)
(10.5813 13.9078 -2.56735e-19)
(10.1895 13.4566 9.25391e-20)
(9.86655 12.9758 0)
(9.61207 12.4824 1.00167e-19)
(9.4213 11.9899 1.08458e-19)
(9.28736 11.5078 -4.22245e-19)
(9.20237 11.0429 1.05027e-19)
(9.15874 10.5991 0)
(9.14944 10.1787 -1.02873e-19)
(9.16807 9.78228 2.08326e-19)
(9.20922 9.40979 3.09152e-19)
(9.26816 9.06042 -3.96022e-19)
(9.34105 8.733 1.91095e-19)
(9.42479 8.42619 1.94044e-19)
(9.51667 8.13849 -7.40477e-19)
(9.61446 7.86849 1.78024e-19)
(9.71664 7.61485 7.0106e-19)
(9.82181 7.3762 -6.87213e-19)
(9.92892 7.15133 -6.72533e-19)
(10.0373 6.93915 4.91209e-19)
(10.1465 6.73855 0)
(10.2561 6.54855 0)
(10.3657 6.36815 7.74196e-19)
(10.475 6.19645 -7.66014e-19)
(10.5837 6.03272 0)
(10.6916 5.87624 1.5037e-19)
(10.7984 5.72645 -2.76376e-21)
(10.904 5.58285 0)
(11.0081 5.44499 -5.78357e-19)
(11.1108 5.31248 4.3362e-19)
(11.212 5.18508 -1.43021e-19)
(11.3119 5.06249 1.47273e-19)
(11.4108 4.94436 0)
(11.5086 4.83031 5.7511e-19)
(11.6056 4.71997 2.88091e-19)
(11.7016 4.6131 1.44558e-19)
(11.7967 4.50941 -1.41757e-19)
(11.8909 4.40865 -2.85363e-19)
(11.9842 4.31059 -1.78467e-20)
(12.0763 4.21493 -2.67892e-19)
(12.1671 4.12183 0)
(12.2563 4.03144 5.56095e-19)
(12.3419 3.9355 -5.39732e-19)
(11.3342 13.3 -4.36997e-19)
(10.9857 12.9215 2.5837e-19)
(10.6883 12.5159 1.91766e-19)
(10.4436 12.0949 -2.88819e-19)
(10.2496 11.6688 -2.43697e-21)
(10.1027 11.2459 9.89526e-20)
(9.99795 10.8323 3.19599e-21)
(9.92995 10.4325 -3.11788e-21)
(9.89341 10.0493 1.0225e-19)
(9.88337 9.6841 0)
(9.89527 9.33774 0)
(9.92508 9.01013 -1.89579e-19)
(9.9693 8.70089 1.86194e-19)
(10.0251 8.40922 2.50057e-21)
(10.0897 8.13417 -1.77836e-19)
(10.1613 7.87491 0)
(10.2381 7.6304 -1.74079e-19)
(10.3189 7.39963 -1.66177e-19)
(10.4026 7.18174 1.62598e-19)
(10.4887 6.97575 0)
(10.5766 6.78078 1.5616e-19)
(10.666 6.59581 0)
(10.7564 6.4199 -3.04713e-19)
(10.8474 6.25228 -4.50975e-19)
(10.9384 6.09225 2.60516e-22)
(11.029 5.93926 5.84791e-19)
(11.119 5.7928 -2.48825e-21)
(11.2082 5.65239 0)
(11.2963 5.51762 -2.84616e-19)
(11.3833 5.38822 5.67985e-19)
(11.4692 5.26402 1.42483e-19)
(11.5544 5.14472 2.82271e-19)
(11.639 5.02983 2.81719e-19)
(11.7231 4.91886 -8.48045e-19)
(11.8067 4.81154 2.80374e-19)
(11.8896 4.70768 -5.63347e-19)
(11.9719 4.60702 1.43024e-19)
(12.0536 4.50929 4.251e-19)
(12.1347 4.41419 0)
(12.2149 4.32147 0)
(12.2938 4.23127 0)
(12.3712 4.14379 2.73547e-19)
(12.4449 4.05063 -2.68161e-19)
(11.9764 12.7929 0)
(11.6511 12.4598 0)
(11.367 12.1028 1.88123e-19)
(11.1263 11.7308 -5.67642e-19)
(10.9284 11.3518 9.27868e-20)
(10.7713 10.9727 0)
(10.6515 10.5989 1.95057e-19)
(10.5653 10.2346 0)
(10.5083 9.88264 0)
(10.4767 9.54483 -1.91522e-19)
(10.4662 9.22233 -3.80752e-19)
(10.4737 8.91553 3.75997e-19)
(10.4956 8.62439 -1.82243e-19)
(10.5296 8.34832 -3.55649e-21)
(10.5726 8.08694 5.32322e-19)
(10.6232 7.83979 -6.90626e-19)
(10.6795 7.60593 -1.47094e-21)
(10.7404 7.38476 8.2799e-19)
(10.8051 7.17553 -6.46913e-19)
(10.8731 6.97745 0)
(10.9439 6.78977 -1.56909e-19)
(11.0174 6.61124 0)
(11.0925 6.4411 6.00654e-19)
(11.1687 6.27873 -4.44784e-19)
(11.2451 6.12361 0)
(11.3216 5.9753 0)
(11.3979 5.8333 1.4146e-19)
(11.4735 5.69717 -5.65709e-19)
(11.5485 5.5665 -2.80656e-19)
(11.6222 5.4412 4.1841e-19)
(11.6953 5.32123 2.78174e-19)
(11.7684 5.20613 -4.17683e-19)
(11.8415 5.09521 0)
(11.9145 4.98794 0)
(11.9869 4.88424 -2.76606e-19)
(12.0588 4.784 4.18325e-19)
(12.1303 4.68699 6.94109e-20)
(12.2016 4.59287 -6.95544e-20)
(12.2725 4.50124 0)
(12.3427 4.41185 0)
(12.4115 4.32488 0)
(12.479 4.24039 -2.21346e-21)
(12.5434 4.15096 2.69285e-19)
(12.44 12.3995 3.24637e-19)
(12.1325 12.097 1.7297e-19)
(11.8609 11.7731 3.62125e-19)
(11.6267 11.4347 4.79189e-21)
(11.4302 11.0886 1.86977e-19)
(11.2703 10.7403 0)
(11.1436 10.3954 -1.91735e-19)
(11.0479 10.0573 -4.9772e-20)
(10.9798 9.72912 -1.41666e-19)
(10.9355 9.41231 9.54097e-20)
(10.9111 9.1089 9.56587e-20)
(10.9045 8.81915 -3.6618e-19)
(10.9119 8.5432 3.60995e-19)
(10.9319 8.28024 -1.78345e-19)
(10.9597 8.03086 -3.47561e-19)
(10.9958 7.79468 3.38411e-19)
(11.0378 7.57059 -3.33161e-19)
(11.0843 7.35825 1.60384e-19)
(11.1355 7.15705 4.7925e-19)
(11.1904 6.96646 0)
(11.2493 6.78582 -1.52267e-19)
(11.312 6.61297 -4.51214e-19)
(11.3754 6.4479 1.46909e-19)
(11.4403 6.29056 2.92112e-19)
(11.5055 6.14033 1.17449e-22)
(11.5711 5.99682 -2.84572e-19)
(11.6368 5.85928 0)
(11.7018 5.72753 0)
(11.7663 5.60106 1.39456e-19)
(11.8292 5.48007 -1.38653e-19)
(11.8921 5.36464 0)
(11.9557 5.25385 0)
(12.02 5.1468 -1.35935e-19)
(12.084 5.04313 0)
(12.1471 4.94318 1.38056e-19)
(12.21 4.84679 -1.36962e-19)
(12.2728 4.7536 0)
(12.3356 4.66323 0)
(12.3983 4.57522 1.71016e-20)
(12.46 4.48945 -1.53124e-19)
(12.5204 4.40637 1.35802e-19)
(12.5797 4.32617 -4.05643e-19)
(12.6361 4.24411 2.66175e-19)
(12.8131 12.0773 0)
(12.5176 11.7976 -1.69785e-19)
(12.2555 11.4987 -1.03325e-21)
(12.027 11.1852 0)
(11.832 10.8635 -1.83629e-19)
(11.6712 10.5387 0)
(11.5396 10.2154 -1.84568e-19)
(11.4376 9.89793 -1.84447e-19)
(11.3616 9.58821 4.16406e-19)
(11.308 9.28793 -4.5466e-20)
(11.2718 9.00038 3.62421e-19)
(11.2556 8.7257 1.82547e-19)
(11.2509 8.46244 -1.75056e-19)
(11.2624 8.21111 -1.7152e-19)
(11.2763 7.97253 -3.38434e-19)
(11.3034 7.74707 1.66021e-19)
(11.3348 7.53177 0)
(11.3701 7.32735 -1.61149e-19)
(11.4117 7.13356 3.14314e-19)
(11.457 6.94987 -3.07539e-19)
(11.5071 6.77545 1.52152e-19)
(11.5619 6.606 -5.82442e-22)
(11.6134 6.4454 -4.49215e-22)
(11.6708 6.29376 -2.70653e-22)
(11.7271 6.14849 4.25152e-19)
(11.7847 6.00968 -1.39224e-19)
(11.8422 5.87618 0)
(11.8985 5.74882 1.38918e-19)
(11.9551 5.62657 -2.7359e-19)
(12.0084 5.5098 0)
(12.0634 5.39886 1.34276e-19)
(12.1202 5.29189 0)
(12.1778 5.18823 1.35422e-19)
(12.2347 5.08796 1.34601e-19)
(12.2899 4.99196 5.66399e-22)
(12.3458 4.89947 6.73765e-20)
(12.4014 4.80989 -9.80744e-23)
(12.4575 4.723 -6.76202e-20)
(12.5131 4.63841 -8.44339e-21)
(12.5676 4.55619 1.4401e-19)
(12.6201 4.47717 2.01349e-19)
(12.6717 4.40145 6.68074e-20)
(12.7201 4.32429 -1.32427e-19)
(13.0871 11.8221 6.60989e-21)
(12.8032 11.5593 6.34053e-21)
(12.554 11.2803 -3.4673e-19)
(12.3347 10.9859 -9.00733e-20)
(12.1447 10.6811 8.91297e-20)
(11.9884 10.374 -1.81554e-19)
(11.8565 10.0655 3.66973e-19)
(11.7538 9.76245 1.6302e-19)
(11.6754 9.46567 -3.85479e-19)
(11.618 9.17703 3.1169e-19)
(11.5735 8.90146 -2.68903e-19)
(11.5571 8.64139 1.75486e-19)
(11.5434 8.38531 -3.39561e-19)
(11.5551 8.14748 5.06325e-19)
(11.553 7.9162 1.68449e-19)
(11.5803 7.70376 -3.30401e-19)
(11.6025 7.49404 3.11277e-19)
(11.6288 7.29589 0)
(11.665 7.10974 -1.53443e-19)
(11.6998 6.93017 -1.51595e-19)
(11.7439 6.75852 1.22791e-22)
(11.7935 6.5875 -1.43221e-19)
(11.8332 6.4338 -1.42066e-19)
(11.8905 6.29228 1.4115e-19)
(11.9356 6.14997 -1.56446e-21)
(11.9876 6.01515 -1.36786e-19)
(12.0363 5.88432 1.3737e-19)
(12.0849 5.76293 5.51125e-19)
(12.1362 5.64566 -2.72157e-19)
(12.178 5.53134 0)
(12.2275 5.42459 -1.05218e-21)
(12.2789 5.32053 0)
(12.3304 5.2202 0)
(12.3799 5.12397 -1.31793e-19)
(12.4257 5.03285 0)
(12.4743 4.94426 -1.33948e-19)
(12.5212 4.8578 0)
(12.5692 4.77402 1.52761e-19)
(12.617 4.69255 1.18235e-19)
(12.6636 4.61375 -1.33975e-19)
(12.7076 4.53867 -1.35199e-19)
(12.7524 4.46681 -1.37176e-19)
(12.7947 4.38876 -1.33287e-19)
(-3.96327 -2.47359 0)
(-3.91674 -2.47975 -2.0308e-20)
(-3.85305 -2.48593 0)
(-3.77363 -2.49242 1.22712e-21)
(-3.67977 -2.49898 -1.14605e-20)
(-3.5728 -2.50543 9.41717e-21)
(-3.45397 -2.51163 -1.87079e-20)
(-3.3245 -2.51744 1.71304e-20)
(-3.18555 -2.52273 -5.74308e-22)
(-3.03823 -2.52739 -1.76838e-20)
(-2.8835 -2.53132 6.65918e-21)
(-2.72229 -2.53443 9.95184e-21)
(-2.55548 -2.53665 -1.68962e-20)
(-2.38383 -2.5379 -3.3175e-20)
(-2.20805 -2.53812 3.37623e-20)
(-2.02877 -2.53727 -4.91325e-21)
(-1.84642 -2.53532 -5.91009e-21)
(-1.66158 -2.53223 0)
(-1.47472 -2.52797 6.45192e-21)
(-1.28605 -2.52256 -6.79192e-21)
(-1.09591 -2.51598 3.44871e-20)
(-0.904556 -2.50821 -4.34304e-20)
(-0.712236 -2.49928 0)
(-0.519076 -2.48918 5.12839e-20)
(-0.325358 -2.47788 -3.16801e-21)
(-0.131076 -2.46535 -8.49757e-20)
(0.0636269 -2.45159 3.2114e-20)
(0.258946 -2.4366 0)
(0.454888 -2.42034 -4.01472e-20)
(0.651513 -2.40272 3.77345e-20)
(0.849181 -2.38365 0)
(1.04819 -2.3629 3.66083e-20)
(1.24898 -2.34002 -3.06695e-20)
(1.45238 -2.31442 -8.78267e-21)
(1.6597 -2.28498 0)
(1.87326 -2.24996 0)
(2.09799 -2.20637 6.88325e-21)
(2.34448 -2.14967 0)
(2.63664 -2.07381 0)
(3.03414 -1.96921 1.00803e-19)
(3.68664 -1.82457 -3.68922e-19)
(5.00467 -1.65713 3.49355e-19)
(8.3113 -1.73671 -4.22946e-20)
(-3.96094 -2.47964 -2.10142e-20)
(-3.91567 -2.48376 2.17287e-20)
(-3.85613 -2.48835 -5.28671e-21)
(-3.78333 -2.4932 5.37063e-21)
(-3.69823 -2.49815 2.0787e-20)
(-3.60177 -2.50309 1.04787e-20)
(-3.49486 -2.50797 0)
(-3.37836 -2.51271 0)
(-3.25309 -2.51724 -1.0048e-20)
(-3.11982 -2.52152 0)
(-2.97927 -2.52548 0)
(-2.83211 -2.52906 0)
(-2.67894 -2.53221 0)
(-2.52032 -2.53489 -4.89766e-21)
(-2.35676 -2.53705 0)
(-2.18869 -2.53863 9.71175e-21)
(-2.01651 -2.53957 0)
(-1.84058 -2.53983 4.45368e-20)
(-1.66112 -2.53934 9.28312e-23)
(-1.47842 -2.53804 -4.18964e-20)
(-1.2926 -2.53582 0)
(-1.10382 -2.53259 -2.56969e-20)
(-0.912128 -2.52825 3.29231e-20)
(-0.717475 -2.52266 6.41994e-21)
(-0.519843 -2.51565 6.76871e-21)
(-0.319232 -2.50705 3.45521e-21)
(-0.115439 -2.49664 3.82619e-21)
(0.091787 -2.48413 -4.10562e-21)
(0.302906 -2.46913 0)
(0.518519 -2.45121 5.12143e-21)
(0.7397 -2.4297 2.28499e-20)
(0.968004 -2.40371 -2.47041e-20)
(1.20567 -2.37198 2.12048e-20)
(1.45654 -2.33273 -2.25674e-20)
(1.72668 -2.28349 0)
(2.02599 -2.22104 -9.99577e-21)
(2.3718 -2.14101 -5.23542e-21)
(2.79418 -2.03815 0)
(3.34604 -1.90829 0)
(4.12893 -1.7528 -3.15227e-20)
(5.34188 -1.59513 1.83907e-20)
(7.37317 -1.53077 -4.51381e-20)
(10.9716 -1.81719 5.79802e-20)
(-3.95358 -2.47709 -2.24429e-20)
(-3.90858 -2.47973 0)
(-3.851 -2.48314 -5.36261e-21)
(-3.78162 -2.48686 5.43181e-21)
(-3.7012 -2.49079 -1.04461e-20)
(-3.61047 -2.49484 -5.17997e-21)
(-3.51015 -2.49897 -1.51085e-20)
(-3.4009 -2.5031 1.00293e-20)
(-3.28331 -2.50718 1.93843e-20)
(-3.15795 -2.51114 -2.84395e-20)
(-3.02539 -2.51491 2.8461e-20)
(-2.88616 -2.51842 -9.40157e-21)
(-2.74069 -2.5216 0)
(-2.58943 -2.52436 9.35728e-21)
(-2.43273 -2.52664 4.59577e-21)
(-2.27091 -2.52838 1.77563e-20)
(-2.10429 -2.52947 -1.83278e-20)
(-1.93306 -2.52985 0)
(-1.75735 -2.52942 0)
(-1.57729 -2.52806 9.0567e-21)
(-1.39286 -2.52563 4.89959e-21)
(-1.20404 -2.52195 -1.52889e-20)
(-1.01072 -2.51679 -5.05927e-22)
(-0.812761 -2.50993 -5.49086e-22)
(-0.609867 -2.50107 1.11994e-20)
(-0.401715 -2.48986 -3.1461e-20)
(-0.187709 -2.47589 2.95108e-21)
(0.0329452 -2.4586 1.08918e-20)
(0.261269 -2.43733 3.07646e-20)
(0.498775 -2.41119 -4.95056e-20)
(0.747595 -2.3791 -4.95334e-22)
(1.01075 -2.33966 4.00909e-20)
(1.29288 -2.29113 -2.7445e-20)
(1.60083 -2.23129 -6.41096e-22)
(1.94461 -2.15745 6.53437e-21)
(2.33945 -2.06673 1.64066e-20)
(2.8093 -1.95625 1.03404e-20)
(3.39245 -1.82428 -1.26737e-20)
(4.15269 -1.6729 3.25388e-20)
(5.1945 -1.51585 2.9396e-21)
(6.68954 -1.39508 -2.50894e-20)
(8.9009 -1.4135 7.65796e-20)
(12.1557 -1.78716 3.15411e-20)
(-3.94268 -2.46714 0)
(-3.89842 -2.46798 -1.14529e-20)
(-3.84315 -2.46963 0)
(-3.77746 -2.47151 -6.75326e-22)
(-3.70193 -2.47355 3.32996e-21)
(-3.61715 -2.47568 2.52658e-21)
(-3.52363 -2.47788 -5.20913e-21)
(-3.42181 -2.48014 9.93993e-21)
(-3.31213 -2.48239 -2.37491e-22)
(-3.19497 -2.4846 -9.7699e-21)
(-3.07067 -2.48666 -9.32562e-21)
(-2.93961 -2.48852 2.76734e-20)
(-2.80213 -2.49012 -1.86505e-20)
(-2.65844 -2.49137 -4.50166e-21)
(-2.50876 -2.49217 1.35816e-20)
(-2.35335 -2.49242 -2.28366e-20)
(-2.19234 -2.49203 0)
(-2.02584 -2.49091 0)
(-1.85386 -2.48892 -2.32474e-20)
(-1.67636 -2.4859 2.85635e-20)
(-1.49321 -2.48171 1.94241e-20)
(-1.30413 -2.47611 -5.08112e-21)
(-1.10882 -2.46881 -2.58865e-20)
(-0.906865 -2.45944 1.61621e-20)
(-0.697755 -2.44758 -1.12623e-20)
(-0.48084 -2.4327 0)
(-0.255182 -2.41425 -6.28663e-21)
(-0.019483 -2.39149 6.78092e-21)
(0.22786 -2.36353 -2.14752e-20)
(0.489148 -2.32931 0)
(0.767478 -2.28752 -1.74409e-20)
(1.06699 -2.23663 1.85608e-20)
(1.39377 -2.17496 0)
(1.75629 -2.10055 0)
(2.16676 -2.01153 0)
(2.64325 -1.9062 -2.686e-22)
(3.2131 -1.78363 -9.20628e-21)
(3.9177 -1.64554 4.87103e-20)
(4.81958 -1.49986 -2.86094e-20)
(6.0131 -1.36784 -4.02423e-20)
(7.63278 -1.29734 0)
(9.85959 -1.38162 1.28921e-19)
(12.8601 -1.78287 -2.8435e-19)
(-3.92864 -2.45201 1.19398e-20)
(-3.88509 -2.45106 -3.73983e-22)
(-3.83183 -2.45097 0)
(-3.7693 -2.45098 0)
(-3.6979 -2.45109 0)
(-3.61802 -2.45125 -5.29954e-21)
(-3.5301 -2.45147 5.31304e-21)
(-3.43444 -2.45174 0)
(-3.33124 -2.45203 0)
(-3.22074 -2.45231 0)
(-3.10317 -2.45246 0)
(-2.9787 -2.45243 0)
(-2.8476 -2.45213 0)
(-2.70997 -2.4515 -4.70874e-21)
(-2.56589 -2.45043 -2.27453e-20)
(-2.41549 -2.44876 1.37131e-20)
(-2.25882 -2.44639 4.6465e-21)
(-2.09585 -2.44317 4.6664e-21)
(-1.92655 -2.43893 4.58742e-21)
(-1.75078 -2.43355 1.11885e-22)
(-1.56828 -2.42687 -2.3738e-20)
(-1.37856 -2.41865 1.96361e-20)
(-1.18114 -2.40855 0)
(-0.975321 -2.39616 -5.3302e-21)
(-0.760334 -2.38097 -5.4622e-21)
(-0.535234 -2.36233 -5.8446e-21)
(-0.298761 -2.33959 0)
(-0.0493668 -2.31203 0)
(0.215286 -2.27871 -1.83453e-22)
(0.498043 -2.23847 1.54305e-20)
(0.802567 -2.18994 9.26267e-21)
(1.13382 -2.13164 -1.8054e-20)
(1.49881 -2.06203 0)
(1.90673 -1.9797 0)
(2.37137 -1.88338 -3.6563e-21)
(2.91244 -1.77252 2.088e-20)
(3.5579 -1.64821 -3.01323e-20)
(4.34866 -1.51481 0)
(5.34386 -1.38367 0)
(6.62544 -1.27963 -1.67574e-21)
(8.30322 -1.25012 0)
(10.5091 -1.37765 -3.69393e-20)
(13.3495 -1.78722 2.03527e-19)
(-3.91218 -2.43342 3.46535e-22)
(-3.86936 -2.43071 2.36527e-20)
(-3.81796 -2.42895 0)
(-3.75829 -2.42715 0)
(-3.69051 -2.42541 -1.38801e-21)
(-3.61496 -2.42363 4.10784e-21)
(-3.53197 -2.42181 -2.72177e-21)
(-3.44173 -2.42004 0)
(-3.34427 -2.41833 0)
(-3.23965 -2.41658 -9.96083e-21)
(-3.128 -2.41473 1.00029e-20)
(-3.00934 -2.41268 0)
(-2.8839 -2.41032 -4.55624e-21)
(-2.75168 -2.40764 1.42028e-20)
(-2.61254 -2.40456 4.59562e-21)
(-2.4665 -2.40086 1.38214e-20)
(-2.31357 -2.39638 -1.87719e-20)
(-2.1536 -2.391 4.6911e-21)
(-1.98642 -2.38447 -1.88625e-20)
(-1.81195 -2.37652 3.28758e-22)
(-1.62992 -2.36713 9.77281e-21)
(-1.43961 -2.35617 0)
(-1.24033 -2.34324 4.97019e-21)
(-1.03113 -2.32797 -5.41158e-21)
(-0.810873 -2.30983 5.66683e-21)
(-0.578449 -2.28802 2.32648e-20)
(-0.332345 -2.26177 -1.82162e-20)
(-0.0709228 -2.23044 1.29031e-20)
(0.208516 -2.19334 6.86372e-21)
(0.509588 -2.14933 7.82e-21)
(0.836646 -2.09702 -8.17929e-21)
(1.19505 -2.03491 -9.63703e-21)
(1.59236 -1.96157 1.00783e-20)
(2.03844 -1.87569 -7.90835e-22)
(2.54703 -1.77689 0)
(3.13869 -1.66568 -1.62405e-20)