/*--------------------------------*- C++ -*----------------------------------*\
| =========                 |                                                 |
| \\      /  F ield         | OpenFOAM: The Open Source CFD Toolbox           |
|  \\    /   O peration     | Version:  2.3.0                                 |
|   \\  /    A nd           | Web:      www.OpenFOAM.org                      |
|    \\/     M anipulation  |                                                 |
\*---------------------------------------------------------------------------*/
FoamFile
{
    version     2.0;
    format      ascii;
    class       surfaceScalarField;
    location    "4000";
    object      phi;
}
// * * * * * * * * * * * * * * * * * * * * * * * * * * * * * * * * * * * * * //

dimensions      [0 3 -1 0 0 0 0];

internalField   nonuniform List<scalar> 
74128
(
-0.00225858
-0.0070015
0.00765256
0.00160752
-0.00286744
-0.00676906
0.00737792
-0.00343521
-0.00654499
0.00711276
-0.00396403
-0.00632862
0.00685744
-0.00445465
-0.00612093
0.00661155
-0.00490923
-0.00591976
0.00637434
-0.00532888
-0.00572691
0.00614655
-0.00571497
-0.00554023
0.00592632
-0.00606821
-0.00536127
0.00571451
-0.00639092
-0.00518734
0.00551005
-0.00668284
-0.00502096
0.00531288
-0.00694619
-0.00485971
0.00512306
-0.0071816
-0.00470452
0.00493993
-0.00739072
-0.00455469
0.00476381
-0.00757427
-0.00440975
0.0045933
-0.00773351
-0.00426992
0.00442917
-0.00787001
-0.00413451
0.00427101
-0.00798329
-0.00400481
0.00411809
-0.00807728
-0.00387794
0.00397192
-0.00815076
-0.00375629
0.00382976
-0.0082071
-0.00363747
0.00369381
-0.00824583
-0.00352366
0.00356239
-0.00826892
-0.00341306
0.00343615
-0.00827817
-0.0033047
0.00331395
-0.00827553
-0.0031998
0.00319715
-0.00826199
-0.00309813
0.0030846
-0.00823769
-0.00299969
0.00297538
-0.0082067
-0.00290131
0.00287032
-0.00816681
-0.00280771
0.00276782
-0.00812277
-0.00271252
0.00266849
-0.0080724
-0.00262127
0.0025709
-0.00801803
-0.00252807
0.0024737
-0.00795729
-0.00243618
0.00237544
-0.00789069
-0.00234224
0.00227563
-0.00781586
-0.00224564
0.00217081
-0.00773121
-0.00214498
0.00206034
-0.00763168
-0.00203765
0.00193812
-0.00751291
-0.00192425
0.00180548
-0.007372
-0.00179726
0.00165635
-0.0072011
-0.00165837
0.00148747
-0.00698782
-0.00150324
0.00128996
-0.00672409
-0.00132818
0.00106445
-0.00113001
-0.00642992
0.00083583
-0.00206807
-0.00641556
0.00148212
-0.0026155
-0.00622163
-0.00312517
-0.00603531
-0.00359857
-0.00585522
-0.00403773
-0.00568178
-0.00444285
-0.00551464
-0.00481575
-0.005354
-0.00515724
-0.00519874
-0.00546944
-0.00504907
-0.00575193
-0.00490484
-0.00600701
-0.00476588
-0.00623534
-0.00463138
-0.00643802
-0.00450184
-0.00661593
-0.00437678
-0.00676969
-0.00425599
-0.0069009
-0.00413871
-0.00700925
-0.00402616
-0.00709745
-0.0039166
-0.00716433
-0.00381106
-0.00721279
-0.00370782
-0.00724223
-0.00360803
-0.00725458
-0.00351131
-0.00725029
-0.00341735
-0.0072294
-0.0033256
-0.00719396
-0.00323523
-0.0071451
-0.00314699
-0.00708379
-0.003061
-0.00700976
-0.00297534
-0.00692675
-0.00289072
-0.00683267
-0.0028066
-0.00673152
-0.00272242
-0.00662184
-0.00263776
-0.00650608
-0.00255194
-0.00638485
-0.00246347
-0.00625549
-0.002375
-0.00611899
-0.00228149
-0.00597248
-0.00218416
-0.00581273
-0.002084
-0.0056302
-0.0019798
-0.00541827
-0.0018703
-0.00516371
-0.0017578
-0.00484702
-0.00164486
-0.00153121
-0.00444581
-0.00189014
-0.00588724
0.00136183
-0.00238246
-0.00572931
-0.00284054
-0.00557723
-0.00326538
-0.00543038
-0.00365824
-0.00528891
-0.0040204
-0.00515248
-0.00435289
-0.00502151
-0.00465701
-0.00489463
-0.00493333
-0.00477274
-0.00518317
-0.00465501
-0.00540715
-0.00454189
-0.00560679
-0.00443174
-0.00578274
-0.00432589
-0.00593613
-0.0042234
-0.00606738
-0.00412474
-0.00617765
-0.00402844
-0.00626787
-0.00393594
-0.00633847
-0.00384601
-0.00639122
-0.00375831
-0.00642542
-0.00367363
-0.00644242
-0.00359103
-0.00644369
-0.00351004
-0.00642892
-0.00343212
-0.00639948
-0.00335503
-0.00635524
-0.00327947
-0.00629738
-0.00320484
-0.00622764
-0.00313074
-0.00614411
-0.00305887
-0.00604916
-0.00298567
-0.00594269
-0.00291307
-0.00582459
-0.00284052
-0.00569642
-0.00276592
-0.00555713
-0.00269124
-0.00540666
-0.00261393
-0.0052474
-0.00253425
-0.00507561
-0.00245329
-0.0048917
-0.00236807
-0.00469515
-0.00228055
-0.00448418
-0.00219076
-0.00425717
-0.00209731
-0.00401043
-0.00200454
-0.00374345
-0.00191184
-0.00182205
-0.00345261
-0.00172374
-0.00541103
0.00124753
-0.00216729
-0.00528576
-0.00257951
-0.00516501
-0.00296098
-0.00504891
-0.00331334
-0.00493656
-0.00363743
-0.0048284
-0.00393432
-0.00472461
-0.0042051
-0.00462385
-0.00445066
-0.00452718
-0.00467179
-0.00443389
-0.00487046
-0.00434322
-0.00504555
-0.00425665
-0.0051997
-0.00417175
-0.00533198
-0.00409112
-0.00544562
-0.0040111
-0.00553894
-0.00393512
-0.00561427
-0.0038606
-0.00567134
-0.00378894
-0.00571135
-0.0037183
-0.00573527
-0.00364971
-0.00574291
-0.00358339
-0.00573537
-0.00351758
-0.00571426
-0.00345323
-0.00567876
-0.00339053
-0.00563013
-0.0033281
-0.00556917
-0.00326581
-0.00549456
-0.00320534
-0.00541027
-0.00314316
-0.00531394
-0.003082
-0.00520722
-0.00301979
-0.00508999
-0.00295776
-0.00496246
-0.00289345
-0.00482548
-0.00282822
-0.00467852
-0.00276089
-0.0045211
-0.00269167
-0.00435423
-0.00262016
-0.0041762
-0.0025461
-0.00398598
-0.00247076
-0.00378495
-0.00239179
-0.0035698
-0.00231246
-0.00334152
-0.00223281
-0.00309972
-0.00215365
-0.00207972
-0.00284206
-0.00157078
-0.00498184
0.00114159
-0.00197058
-0.00488595
-0.00234126
-0.00479434
-0.00268451
-0.00470566
-0.00300061
-0.00462045
-0.00329124
-0.00453778
-0.00355726
-0.00445858
-0.00379877
-0.00438235
-0.00401776
-0.00430818
-0.00421515
-0.0042365
-0.00439059
-0.00416778
-0.0045455
-0.00410173
-0.00468033
-0.00403692
-0.00479732
-0.00397412
-0.00489511
-0.00391331
-0.00497551
-0.00385472
-0.00503897
-0.00379714
-0.00508669
-0.00374123
-0.00511859
-0.0036864
-0.00513515
-0.00363315
-0.00513792
-0.00358062
-0.00512617
-0.00352934
-0.0051013
-0.00347809
-0.00506408
-0.00342775
-0.00501411
-0.00337808
-0.00495198
-0.00332794
-0.00488042
-0.0032769
-0.00479639
-0.0032272
-0.00470255
-0.00317583
-0.00459866
-0.00312368
-0.00448564
-0.00307078
-0.00436303
-0.00301605
-0.00423089
-0.00296037
-0.00408937
-0.00290241
-0.00393941
-0.00284164
-0.00378006
-0.0027795
-0.00361029
-0.00271587
-0.00343333
-0.00264772
-0.00324499
-0.00258013
-0.00304749
-0.00250997
-0.00284006
-0.00244024
-0.0026224
-0.0023713
-0.00230558
-0.00239654
-0.00142958
-0.00459371
0.00104145
-0.00179006
-0.00452548
-0.00212443
-0.00445997
-0.00243336
-0.00439673
-0.00271785
-0.00433595
-0.0029784
-0.00427723
-0.00321677
-0.00422021
-0.00343336
-0.00416576
-0.00362929
-0.00411226
-0.00380477
-0.00406101
-0.00396092
-0.00401164
-0.00409883
-0.00396382
-0.0042187
-0.00391705
-0.00432114
-0.00387168
-0.00440665
-0.00382781
-0.00447635
-0.00378502
-0.00453091
-0.00374258
-0.00457057
-0.00370157
-0.00459547
-0.0036615
-0.00460762
-0.003621
-0.00460596
-0.00358228
-0.00459254
-0.00354275
-0.00456617
-0.00350447
-0.00452858
-0.00346534
-0.00448026
-0.00342639
-0.00442089
-0.00338731
-0.0043503
-0.00334748
-0.0042707
-0.0033068
-0.00418186
-0.00326466
-0.00408339
-0.00322216
-0.0039764
-0.00317777
-0.00386036
-0.00313209
-0.00373695
-0.00308378
-0.0036058
-0.00303356
-0.00346457
-0.00298286
-0.00331595
-0.00292812
-0.00316069
-0.00287114
-0.00299531
-0.00281311
-0.00282336
-0.00275208
-0.00264268
-0.00269065
-0.00245369
-0.00262923
-0.00225741
-0.00256759
-0.00250819
-0.0020548
-0.00130064
-0.00424302
0.000949944
-0.00162589
-0.00420022
-0.00192712
-0.00415874
-0.00220543
-0.00411843
-0.00246138
-0.00407999
-0.00269591
-0.0040427
-0.00291043
-0.00400569
-0.00310505
-0.00397113
-0.00328043
-0.00393688
-0.00343712
-0.00390432
-0.00357673
-0.00387203
-0.00369948
-0.00384107
-0.00380561
-0.00381092
-0.00389633
-0.00378096
-0.00397147
-0.00375267
-0.00403287
-0.00372362
-0.0040796
-0.00369584
-0.00411299
-0.00366817
-0.00413422
-0.00364027
-0.00414228
-0.00361294
-0.00413872
-0.00358584
-0.00412371
-0.00355776
-0.00409804
-0.00353014
-0.0040612
-0.00350218
-0.00401444
-0.00347315
-0.00395766
-0.0034441
-0.00389178
-0.00341336
-0.00381732
-0.00338127
-0.00373344
-0.00334854
-0.00364138
-0.00331422
-0.00354147
-0.00327769
-0.00343398
-0.00323958
-0.00331947
-0.00319828
-0.00319613
-0.0031569
-0.00306757
-0.00311143
-0.002931
-0.00306469
-0.00278689
-0.00301525
-0.00263587
-0.00296413
-0.00247756
-0.00291039
-0.00231301
-0.0028552
-0.00214251
-0.00279972
-0.00196557
-0.00274453
-0.00269119
-0.00178257
-0.00118257
-0.00392607
0.00086562
-0.00147632
-0.00390647
-0.00174837
-0.00388669
-0.00199907
-0.00386772
-0.00222999
-0.00384908
-0.00244146
-0.00383123
-0.00263379
-0.00381336
-0.00280862
-0.0037963
-0.00296585
-0.00377966
-0.00310714
-0.00376303
-0.00323168
-0.00374749
-0.00334091
-0.00373184
-0.00343615
-0.00371569
-0.00351647
-0.00370064
-0.00358366
-0.00368548
-0.00363691
-0.00367036
-0.00367803
-0.00365472
-0.00370703
-0.00363918
-0.00372403
-0.00362327
-0.00372964
-0.00360734
-0.00372472
-0.00359075
-0.00370949
-0.003573
-0.00368404
-0.00355559
-0.00364953
-0.00353668
-0.00360531
-0.00351737
-0.00355267
-0.00349674
-0.00349085
-0.00347518
-0.00342075
-0.00345136
-0.00334323
-0.00342606
-0.00325762
-0.00339983
-0.00316524
-0.00337007
-0.00306589
-0.00333893
-0.00295898
-0.0033052
-0.00284725
-0.00326863
-0.00272792
-0.00323075
-0.00260266
-0.00318995
-0.00247056
-0.00314736
-0.00233338
-0.00310131
-0.00218924
-0.00305453
-0.00203952
-0.00300492
-0.00188406
-0.00295518
-0.00172437
-0.00290423
-0.00285673
-0.00155882
-0.00107439
-0.00363933
0.000787656
-0.00134002
-0.00364084
-0.00158599
-0.00364073
-0.00181263
-0.00364108
-0.0020208
-0.00364091
-0.00221128
-0.00364076
-0.00238453
-0.00364011
-0.0025418
-0.00363903
-0.00268373
-0.00363773
-0.00281003
-0.00363672
-0.00292228
-0.00363524
-0.00302054
-0.00363357
-0.00310524
-0.00363099
-0.00317694
-0.00362894
-0.00323638
-0.00362604
-0.00328399
-0.00362275
-0.00332015
-0.00361857
-0.00334511
-0.00361422
-0.00335981
-0.00360856
-0.00336352
-0.00360363
-0.00335825
-0.00359602
-0.00334293
-0.00358832
-0.00331899
-0.00357953
-0.00328674
-0.00356893
-0.00324556
-0.00355855
-0.00319648
-0.00354581
-0.00313905
-0.00353261
-0.00307498
-0.00351544
-0.00300329
-0.00349775
-0.00292497
-0.00347815
-0.00283924
-0.0034558
-0.00274704
-0.00343114
-0.00264981
-0.00340242
-0.0025459
-0.00337254
-0.00243679
-0.00333986
-0.00232214
-0.0033046
-0.00220227
-0.00326723
-0.00207647
-0.00322711
-0.00194447
-0.00318653
-0.00180802
-0.00314136
-0.00166693
-0.00309627
-0.00152191
-0.00304925
-0.001372
-0.00300664
-0.00540233
-0.000998448
-2.91389e-05
-0.00466771
-0.00096986
0.000235232
-0.00405053
-0.000975734
0.000358557
-0.00350654
-0.00100005
0.000456058
-0.0030157
-0.00103442
0.000543587
-0.00256964
-0.00107425
0.000628182
-0.00215827
-0.00112146
0.000710096
-0.00177818
-0.00117219
0.000792092
-0.00142453
-0.00122635
0.000872699
-0.00109476
-0.0012837
0.00095393
-0.000786145
-0.00134369
0.00103507
-0.000498144
-0.00140557
0.00111757
-0.000228377
-0.00147043
0.00120066
2.40123e-05
-0.00153756
0.00128517
0.000259633
-0.00160694
0.00137132
0.000477836
-0.00167763
0.00145943
0.000680037
-0.00175185
0.00154965
0.00086635
-0.00182858
0.00164226
0.00103626
-0.00190704
0.00173713
0.00119016
-0.00198881
0.0018349
0.00132785
-0.00207391
0.00193623
0.00144818
-0.00216088
0.00204055
0.00155201
-0.00225234
0.00214852
0.00163841
-0.00234645
0.00226005
0.00170608
-0.00244409
0.00237642
0.00175605
-0.0025461
0.00249614
0.00178607
-0.00265123
0.00262121
0.00179598
-0.00276076
0.00275086
0.00178518
-0.00287484
0.00288564
0.00175274
-0.00299335
0.00302579
0.00169754
-0.00311637
0.00317158
0.00161891
-0.00324428
0.00332291
0.00151553
-0.0033776
0.00348098
0.00138645
-0.00351597
0.00364506
0.00123026
-0.00366016
0.00381634
0.00104635
-0.00381059
0.00399451
0.000833347
-0.00396691
0.00417991
0.00058969
-0.00412954
0.0043732
0.00031412
-0.00429904
0.00457461
5.41799e-06
-0.0044757
0.0047844
-0.000338128
-0.00465953
0.00500308
-0.000718379
-0.00485078
0.00523103
-0.0050506
0.00546829
-0.00113607
-0.00398629
-0.00145797
-0.00353045
-0.0014257
-0.00309868
-0.00140751
-0.00269453
-0.00140419
-0.00231833
-0.00141062
-0.00196513
-0.00142744
-0.00163474
-0.00145186
-0.00132555
-0.00148137
-0.00103538
-0.00151652
-0.000762274
-0.0015568
-0.000505718
-0.00160025
-0.000264124
-0.00164716
-3.74342e-05
-0.00169712
0.00017498
-0.00174997
0.000373527
-0.00180549
0.000559423
-0.00186353
0.000731656
-0.00192408
0.00088972
-0.00198664
0.00103488
-0.0020522
0.00116593
-0.00211986
0.0012826
-0.00219058
0.00138527
-0.00226356
0.00147271
-0.00233978
0.0015444
-0.00241814
0.00160019
-0.00249988
0.0016388
-0.00258472
0.0016607
-0.00267313
0.00166462
-0.00276468
0.00164916
-0.00285937
0.00161455
-0.00295874
0.00155919
-0.00306102
0.00148261
-0.00316771
0.00138386
-0.00327885
0.00126223
-0.00339433
0.00111631
-0.00351424
0.000944809
-0.00363909
0.000747231
-0.00376933
0.000522096
-0.0039044
0.000268361
-0.0040453
-1.51985e-05
-0.00419214
-0.000330159
-0.00434457
-0.000677369
-0.00450357
-0.00466909
-0.00105888
-0.00314582
-0.00176476
-0.00283392
-0.0017376
-0.00252242
-0.00171901
-0.0022182
-0.00170841
-0.00192135
-0.00170747
-0.0016361
-0.00171269
-0.00136295
-0.00172501
-0.00110073
-0.0017436
-0.000850906
-0.00176634
-0.000613357
-0.00179435
-0.00038732
-0.00182628
-0.00017343
-0.00186105
2.90237e-05
-0.00189957
0.000219382
-0.00194033
0.000397661
-0.00198377
0.000563835
-0.0020297
0.000718268
-0.00207852
0.000860731
-0.0021291
0.000990524
-0.00218199
0.00110779
-0.00223712
0.00121133
-0.00229412
0.00130209
-0.00235433
0.00137837
-0.00241606
0.00144082
-0.00248059
0.00148837
-0.00254743
0.0015209
-0.00261724
0.00153719
-0.00268943
0.00153673
-0.00276423
0.00151981
-0.00284245
0.00148421
-0.00292314
0.00143049
-0.0030073
0.00135742
-0.00309464
0.00126411
-0.00318554
0.00114975
-0.00327998
0.001014
-0.00337849
0.000855139
-0.00348023
0.000672484
-0.00358668
0.000465023
-0.00369694
0.000231752
-0.00381203
-2.86875e-05
-0.0039317
-0.000317249
-0.00405601
-0.000635167
-0.00418565
-0.00432059
-0.000983665
-0.00257822
-0.0020286
-0.00231521
-0.00200061
-0.00205424
-0.00197998
-0.00179766
-0.00196498
-0.00154841
-0.00195673
-0.00130574
-0.00195536
-0.00107222
-0.00195853
-0.000848167
-0.00196765
-0.000632903
-0.0019816
-0.000427435
-0.00199982
-0.000231931
-0.00202179
-4.58603e-05
-0.00204712
0.000130026
-0.00207546
0.000295667
-0.00210597
0.000451456
-0.00213956
0.000596678
-0.00217493
0.000731634
-0.00221347
0.000855124
-0.00225259
0.000967804
-0.00229467
0.00106936
-0.00233868
0.00115946
-0.00238422
0.00123682
-0.00243168
0.00130209
-0.00248133
0.0013543
-0.00253281
0.00139326
-0.00258639
0.00141859
-0.00264257
0.00142925
-0.00270008
0.00142537
-0.00276034
0.0014054
-0.00282249
0.00136998
-0.00288771
0.00131752
-0.00295485
0.0012475
-0.00302461
0.00115931
-0.00309735
0.00105218
-0.00317285
0.000925228
-0.00325154
0.000777621
-0.00333263
0.000608736
-0.00341779
0.000417425
-0.00350563
0.000202884
-0.00359749
-3.604e-05
-0.00369278
-0.000300528
-0.00379152
-0.000591419
-0.00389476
-0.00400221
-0.000909794
-0.00216639
-0.00225874
-0.00193805
-0.00222895
-0.00171302
-0.00220502
-0.00149202
-0.00218597
-0.00127586
-0.0021729
-0.00106722
-0.002164
-0.00086417
-0.00216158
-0.000667719
-0.0021641
-0.000479738
-0.00216958
-0.000299211
-0.00218035
-0.000127038
-0.00219396
3.66059e-05
-0.00221077
0.000190963
-0.00222981
0.000337537
-0.00225254
0.000474999
-0.00227702
0.000603644
-0.00230357
0.000722192
-0.00233202
0.000831819
-0.00236222
0.000930858
-0.00239371
0.00101992
-0.00242774
0.00109817
-0.00246247
0.00116552
-0.00249903
0.00122216
-0.00253797
0.00126693
-0.00257758
0.00129952
-0.00261898
0.00131923
-0.00266229
0.00132624
-0.00270709
0.00131967
-0.00275377
0.00129897
-0.00280179
0.00126346
-0.0028522
0.00121277
-0.00290416
0.0011465
-0.00295835
0.00106358
-0.00301442
0.000963616
-0.00307289
0.000845499
-0.00313342
0.000709125
-0.00319625
0.000552946
-0.00326161
0.000377058
-0.00332974
0.000179468
-0.0033999
-4.00993e-05
-0.00347321
-0.000282479
-0.00354914
-0.00054879
-0.00362845
-0.00371009
-0.000840908
-0.00185078
-0.00246276
-0.00164808
-0.00243165
-0.00144858
-0.00240451
-0.00125358
-0.00238098
-0.00106403
-0.00236245
-0.00087837
-0.00234965
-0.000699359
-0.00234059
-0.000526741
-0.00233672
-0.00035951
-0.00233681
-0.000200546
-0.00233931
-4.82e-05
-0.00234631
9.71911e-05
-0.00235616
0.000235429
-0.00236805
0.000365219
-0.00238233
0.000486967
-0.00239877
0.000600835
-0.00241744
0.000706054
-0.00243724
0.000802412
-0.00245858
0.000890053
-0.00248135
0.000967801
-0.00250549
0.00103698
-0.00253164
0.00109578
-0.00255783
0.00114434
-0.00258654
0.0011822
-0.00261543
0.00120936
-0.00264614
0.00122543
-0.00267836
0.00122935
-0.00271101
0.0012208
-0.00274521
0.00119942
-0.00278042
0.00116519
-0.00281797
0.00111692
-0.00285589
0.00105439
-0.00289581
0.000976715
-0.00293675
0.000883323
-0.0029795
0.00077397
-0.00302407
0.000647836
-0.00307012
0.000504089
-0.00311787
0.000341487
-0.00316714
0.000160221
-0.00321863
-4.1153e-05
-0.00327184
-0.000263098
-0.0033272
-0.000506781
-0.00338477
-0.00344418
-0.000772695
-0.00159839
-0.00264694
-0.00141731
-0.00261273
-0.00124015
-0.00258167
-0.00106636
-0.00255476
-0.000896683
-0.00253213
-0.000732465
-0.00251387
-0.000572074
-0.00250098
-0.000417952
-0.00249084
-0.000270374
-0.00248439
-0.000127177
-0.00248251
8.38753e-06
-0.00248187
0.000137826
-0.0024856
0.000260445
-0.00249067
0.000376074
-0.00249796
0.000485509
-0.0025082
0.000586277
-0.00251821
0.000679743
-0.00253071
0.000765657
-0.00254449
0.000843221
-0.00255891
0.000912964
-0.00257523
0.00097304
-0.00259172
0.0010249
-0.00260969
0.00106731
-0.00262894
0.00110028
-0.0026484
0.00112309
-0.00266895
0.00113532
-0.00269059
0.00113702
-0.00271271
0.00112734
-0.00273553
0.00110675
-0.00275983
0.00107296
-0.00278417
0.00102742
-0.00281035
0.000968563
-0.00283696
0.000896301
-0.00286449
0.000810054
-0.00289325
0.000708703
-0.00292272
0.000591873
-0.00295329
0.000459154
-0.00298515
0.000310211
-0.0030182
0.000143784
-0.00305221
-4.06214e-05
-0.00308743
-0.000244056
-0.00312376
-0.000466908
-0.00316191
-0.00320079
-0.000710295
-0.00139337
-0.0028124
-0.00123004
-0.00277606
-0.00107106
-0.00274065
-0.000915279
-0.00271055
-0.000763618
-0.00268379
-0.000615361
-0.00266213
-0.00047308
-0.00264326
-0.000334556
-0.00262937
-0.000201409
-0.00261754
-7.44317e-05
-0.00260949
4.78573e-05
-0.00260416
0.000163566
-0.0026013
0.000273684
-0.00260079
0.000377641
-0.00260192
0.000474544
-0.00260511
0.000565192
-0.00260886
0.000648981
-0.0026145
0.000725002
-0.00262051
0.000794469
-0.00262838
0.00085539
-0.00263615
0.000909255
-0.00264558
0.000954901
-0.00265534
0.000991816
-0.00266586
0.00102051
-0.0026771
0.00104031
-0.00268875
0.00104982
-0.0027001
0.00104958
-0.00271248
0.00103972
-0.00272568
0.00101872
-0.00273883
0.00098731
-0.00275276
0.00094442
-0.00276746
0.000889267
-0.00278181
0.00082241
-0.00279763
0.000742206
-0.00281304
0.000648759
-0.00282927
0.000541571
-0.0028461
0.000419623
-0.0028632
0.000282444
-0.00288102
0.000129951
-0.00289971
-3.93505e-05
-0.00291813
-0.000225343
-0.00293777
-0.000429398
-0.00295786
-0.00297873
-0.000651461
-0.00122192
-0.00296248
-0.00107501
-0.00292297
-0.000931316
-0.00288434
-0.000790933
-0.00285093
-0.00065565
-0.00281907
-0.000522945
-0.00279483
-0.000393437
-0.00277277
-0.000269632
-0.00275317
-0.000149571
-0.0027376
-3.50857e-05
-0.00272397
7.47674e-05
-0.00271401
0.00017869
-0.00270523
0.000277184
-0.00269928
0.000371141
-0.00269588
0.000458135
-0.0026921
0.000538391
-0.00268911
0.00061327
-0.00268937
0.000682122
-0.00268936
0.00074346
-0.00268972
0.000799068
-0.00269176
0.000846616
-0.00269313
0.000886923
-0.00269564
0.000920004
-0.00269894
0.000944419
-0.00270151
0.000961082
-0.00270542
0.000968532
-0.00270755
0.000967862
-0.00271181
0.000957101
-0.00271491
0.000937358
-0.00271909
0.000907678
-0.00272308
0.000867233
-0.00272702
0.000816755
-0.00273133
0.000753904
-0.00273478
0.000679826
-0.00273897
0.000593929
-0.00274337
0.00049516
-0.00274733
0.000383295
-0.00275134
0.000257844
-0.00275557
0.000117613
-0.00275948
-3.7015e-05
-0.0027635
-0.000207438
-0.00276735
-0.000393753
-0.00277155
-0.00277602
-0.000596466
0.000411436
0.00546715
-0.00594466
6.60745e-05
0.000844927
0.00523203
-0.00566552
0.00123685
0.0050067
-0.00539862
0.00158929
0.0047914
-0.00514384
0.00190422
0.0045855
-0.00490044
0.00218376
0.00438863
-0.00466817
0.00242983
0.0042003
-0.00444637
0.00264429
0.00402037
-0.00423483
0.0028288
0.00384848
-0.004033
0.00298521
0.00368419
-0.00384061
0.00311518
0.00352704
-0.00365701
0.00322012
0.00337707
-0.00348201
0.0033017
0.00323336
-0.00331495
0.003361
0.00309635
-0.00315564
0.00339953
0.00296535
-0.00300387
0.00341844
0.00284013
-0.00285904
0.00341919
0.00272009
-0.00272083
0.00340264
0.00260548
-0.00258893
0.00337023
0.0024957
-0.00246329
0.00332247
0.0023908
-0.00234304
0.00326072
0.00229014
-0.0022284
0.00318597
0.00219372
-0.00211897
0.00309874
0.00210147
-0.00201423
0.00300007
0.00201297
-0.0019143
0.00289079
0.00192782
-0.00181855
0.00277177
0.00184612
-0.0017271
0.00264381
0.00176759
-0.00163963
0.00250727
0.0016922
-0.00155565
0.00236349
0.00161908
-0.0014753
0.00221277
0.00154877
-0.00139804
0.00205587
0.00148063
-0.00132374
0.00189345
0.00141478
-0.00125236
0.00172649
0.0013504
-0.00118344
0.00155538
0.0012877
-0.00111659
0.00138122
0.00122605
-0.00105189
0.00120462
0.00116519
-0.000988592
0.00102669
0.00110436
-0.000926432
0.000848376
0.00104302
-0.000864699
0.000670961
0.000979608
-0.000802194
0.000496396
0.000912374
-0.000737809
0.00032649
0.000837843
-0.00066794
0.000159189
0.000753004
-0.000585703
0.00070131
-6.28563e-05
-0.000479263
0.000373124
0.00503344
6.05828e-05
0.000767828
0.00483732
0.00112501
0.00464951
0.001447
0.00446941
0.0017354
0.0042971
0.00199197
0.00413206
0.00221841
0.00397385
0.00241622
0.00382256
0.00258716
0.00367754
0.00273269
0.00353867
0.00285399
0.00340574
0.0029527
0.00327836
0.00302974
0.00315632
0.00308653
0.00303956
0.00312428
0.0029276
0.00314441
0.00281999
0.00314731
0.00271719
0.00313436
0.00261842
0.00310648
0.00252359
0.00306483
0.00243245
0.00300986
0.00234511
0.00294258
0.00226101
0.00286383
0.00218021
0.00277444
0.00210236
0.0026751
0.00202717
0.00256635
0.00195487
0.00244908
0.00188486
0.00232418
0.00181709
0.00219179
0.00175148
0.00205282
0.00168773
0.00190789
0.00162557
0.00175786
0.00156481
0.00160316
0.0015051
0.00144467
0.00144619
0.00128276
0.00138795
0.00111845
0.00132951
0.000952598
0.00127021
0.000786247
0.00120937
0.000620379
0.00114547
0.000456798
0.00107595
0.000296548
0.00099809
0.000134484
0.000915067
0.000902908
-6.71152e-05
0.00033838
0.00463898
5.60826e-05
0.000697518
0.00447819
0.00102333
0.0043237
0.00131704
0.0041757
0.00158066
0.00403349
0.00181559
0.00389713
0.00202328
0.00376616
0.00220518
0.00364067
0.00236269
0.00352003
0.00249696
0.0034044
0.00260931
0.00329338
0.00270098
0.00318669
0.00277308
0.00308422
0.00282671
0.00298593
0.00286294
0.00289137
0.00288255
0.00280038
0.00288684
0.0027129
0.00287648
0.00262879
0.00285232
0.00254775
0.00281524
0.00246952
0.00276597
0.00239438
0.0027054
0.00232157
0.00263413
0.00225148
0.00255317
0.00218332
0.00246259
0.00211774
0.00236365
0.00205381
0.00225649
0.00199201
0.00214199
0.0019316
0.00202063
0.00187283
0.00189313
0.00181524
0.00176018
0.00175851
0.00162201
0.00170297
0.00147946
0.00164765
0.00133306
0.00159259
0.00118346
0.00153755
0.00103165
0.00148132
0.000877991
0.00142387
0.000723694
0.00136366
0.000569913
0.00129925
0.000417772
0.0012281
0.000267996
0.00114786
0.00011474
0.00106832
0.0010847
-6.70526e-05
0.000306939
0.00428047
5.15677e-05
0.000633607
0.00415152
0.000930178
0.00402713
0.00119828
0.0039076
0.00143903
0.00379274
0.00165386
0.0036823
0.00184408
0.00357594
0.00201093
0.00347382
0.00215563
0.00337533
0.00227937
0.00328065
0.00238321
0.00318955
0.00246816
0.00310174
0.0025352
0.00301717
0.00258562
0.00293552
0.00261986
0.00285712
0.00263915
0.00278109
0.00264406
0.00270798
0.00263564
0.00263721
0.0026144
0.002569
0.00258124
0.00250268
0.00253717
0.00243845
0.00248243
0.00237631
0.00241794
0.00231597
0.00234421
0.00225706
0.0022618
0.00220014
0.00217128
0.00214433
0.00207351
0.00208978
0.00196882
0.00203629
0.00185784
0.00198381
0.00174101
0.00193207
0.0016187
0.00188082
0.00149202
0.00182965
0.00136093
0.00177875
0.00122625
0.00172726
0.00108876
0.00167505
0.000948676
0.00162141
0.000807127
0.00156541
0.000664856
0.00150593
0.000522697
0.00144141
0.000381828
0.00136896
0.000242414
0.00128728
9.91007e-05
0.00121163
0.00124977
-6.59704e-05
0.000278329
0.0039549
4.72474e-05
0.000575719
0.00385413
0.00084585
0.003757
0.00109003
0.00366343
0.00130978
0.00357298
0.00150625
0.00348583
0.00168036
0.00340183
0.0018334
0.00332078
0.00196632
0.00324241
0.00208016
0.00316682
0.00217596
0.00309375
0.00225456
0.00302314
0.00231692
0.00295481
0.0023637
0.00288874
0.00239624
0.00282459
0.00241462
0.00276271
0.00241996
0.00270265
0.00241288
0.00264428
0.00239439
0.00258749
0.00236491
0.00253216
0.00232517
0.0024782
0.00227555
0.00242592
0.00221695
0.00237457
0.00214988
0.00232413
0.00207486
0.00227516
0.00199246
0.00222674
0.00190304
0.00217921
0.00180725
0.00213207
0.00170557
0.0020855
0.00159858
0.00203905
0.00148648
0.00199292
0.00136999
0.00194614
0.00124984
0.00189889
0.00112623
0.00185087
0.000999804
0.00180147
0.000871262
0.00174995
0.000740902
0.00169577
0.000609739
0.0016371
0.000478855
0.0015723
0.000348856
0.00149896
0.000219751
0.00141638
8.69909e-05
0.00134439
0.0014007
-6.39446e-05
0.000252551
0.00365919
4.31608e-05
0.000522835
0.00358384
0.00076876
0.00351107
0.000991531
0.00344066
0.00119216
0.00337236
0.00137143
0.00330655
0.00153074
0.00324252
0.00167097
0.00318055
0.00179284
0.00312054
0.00189735
0.00306231
0.00198552
0.00300558
0.00205794
0.00295071
0.00211562
0.00289713
0.00215939
0.00284498
0.00218948
0.00279449
0.0022072
0.00274498
0.002213
0.00269685
0.00220737
0.00264992
0.00219092
0.00260394
0.00216435
0.00255872
0.00212822
0.00251433
0.00208338
0.00247077
0.0020303
0.00242765
0.00196899
0.00238544
0.00190069
0.00234346
0.00182541
0.00230201
0.0017439
0.00226073
0.00165648
0.00221948
0.00156343
0.00217855
0.00146544
0.00213704
0.00136307
0.00209529
0.0012564
0.00205282
0.00114604
0.00200925
0.0010326
0.00196432
0.000916658
0.00191741
0.000798603
0.001868
0.00067914
0.00181524
0.000558828
0.00175741
0.000438354
0.00169277
0.000318578
0.00161874
0.000199222
0.00153574
7.61917e-05
0.00146742
0.00153881
-6.19277e-05
0.00022922
0.00339038
3.95895e-05
0.000475059
0.00333801
0.000698881
0.00328725
0.000901866
0.00323767
0.00108473
0.0031895
0.00124871
0.00314257
0.00139431
0.00309693
0.00152236
0.0030525
0.00163409
0.00300881
0.00173015
0.00296625
0.00181104
0.00292469
0.00187783
0.00288392
0.00193107
0.00284389
0.00197143
0.00280463
0.00199999
0.00276593
0.0020167
0.00272828
0.00202253
0.00269102
0.00201787
0.00265457
0.00200338
0.00261843
0.00197932
0.00258279
0.00194677
0.00254688
0.0019061
0.00251143
0.00185766
0.00247608
0.00180224
0.00244087
0.0017398
0.0024059
0.0016713
0.00237051
0.0015969
0.00233513
0.00151684
0.00229955
0.0014322
0.00226318
0.00134263
0.00222662
0.00124886
0.00218906
0.00115114
0.00215054
0.00104995
0.00211044
0.000946057
0.00206821
0.000839853
0.00202362
0.00073177
0.00197609
0.000622548
0.00192446
0.000512327
0.00186763
0.000401893
0.0018032
0.000292104
0.00172853
0.000182542
0.0016453
6.89608e-05
0.001581
0.00166692
-5.91479e-05
0.000208131
0.00314561
3.66366e-05
0.000431572
0.00311456
0.000635516
0.00308331
0.00082023
0.00305296
0.000986976
0.00302275
0.00113647
0.00299307
0.00126936
0.00296404
0.0013866
0.00293526
0.00148871
0.0029067
0.00157663
0.00287832
0.00165093
0.0028504
0.00171203
0.00282282
0.00176089
0.00279502
0.00179824
0.00276728
0.00182436
0.0027398
0.0018405
0.00271214
0.00184629
0.00268524
0.00184235
0.00265851
0.00182975
0.00263103
0.00180809
0.00260445
0.00177824
0.00257672
0.00174114
0.00254854
0.00169724
0.00251999
0.00164671
0.00249139
0.00158999
0.00246262
0.00152738
0.00243313
0.00145936
0.00240315
0.00138635
0.00237255
0.00130881
0.00234072
0.00122742
0.00230801
0.00114175
0.00227473
0.00105209
0.0022402
0.000959504
0.00220302
0.000864396
0.00216332
0.0007673
0.00212071
0.000668696
0.00207469
0.000568803
0.00202435
0.000468222
0.00196821
0.000367167
0.00190426
0.000266253
0.00182944
0.000165165
0.00174639
5.98264e-05
0.00168633
0.00178592
-5.91829e-05
0.000188792
0.00292427
3.25478e-05
0.000391962
0.0029114
0.000577412
0.00289786
0.000745988
0.00288438
0.000897951
0.00287079
0.00103469
0.00285633
0.00115651
0.00284222
0.00126374
0.00282803
0.00135728
0.00281317
0.00143816
0.00279744
0.00150641
0.00278215
0.00156287
0.00276636
0.00160762
0.00275027
0.00164207
0.00273283
0.00166636
0.00271551
0.00168152
0.00269698
0.00168817
0.00267859
0.00168483
0.00266185
0.00167398
0.00264188
0.00165476
0.00262366
0.0016274
0.00260408
0.00159341
0.00258253
0.0015532
0.0025602
0.00150753
0.00253707
0.0014555
0.00251464
0.00139879
0.00248984
0.00133681
0.00246513
0.00127011
0.00243924
0.00119916
0.00241168
0.00112524
0.00238193
0.00104747
0.00235249
0.000965681
0.002322
0.000880216
0.00228849
0.000792749
0.00225078
0.000703474
0.00220999
0.000613159
0.002165
0.000522338
0.00211517
0.000431259
0.00205929
0.000339294
0.00199622
0.000247909
0.00192083
0.000158828
0.00183547
6.26005e-05
0.00178256
-5.55968e-05
0.00190412
-0.000279153
0.000986672
-0.000770367
-0.000531909
0.00119212
-0.000939367
-0.000799501
0.00132765
-0.00106006
-0.00107294
0.00143371
-0.00116028
-0.00134788
0.00152754
-0.00125261
-0.0016211
0.0016148
-0.00134158
-0.00189088
0.00169883
-0.00142905
-0.00215525
0.00178094
-0.00151656
-0.00241257
0.00186221
-0.0016049
-0.00266174
0.0019435
-0.00169433
-0.00290104
0.00202501
-0.00178572
-0.00312951
0.00210729
-0.00187882
-0.00334614
0.00219058
-0.00197395
-0.0035497
0.00227517
-0.00207161
-0.00373894
0.00236087
-0.00217164
-0.00391325