/*--------------------------------*- C++ -*----------------------------------*\
| =========                 |                                                 |
| \\      /  F ield         | OpenFOAM: The Open Source CFD Toolbox           |
|  \\    /   O peration     | Version:  2.3.0                                 |
|   \\  /    A nd           | Web:      www.OpenFOAM.org                      |
|    \\/     M anipulation  |                                                 |
\*---------------------------------------------------------------------------*/
FoamFile
{
    version     2.0;
    format      ascii;
    class       volScalarField;
    location    "8000";
    object      nuTilda;
}
// * * * * * * * * * * * * * * * * * * * * * * * * * * * * * * * * * * * * * //

dimensions      [0 2 -1 0 0 0 0];

internalField   nonuniform List<scalar> 
14050
(
0.0582327
0.0550002
0.0518375
0.0487578
0.0457717
0.04289
0.0401258
0.0374943
0.035015
0.0327068
0.0305846
0.0286667
0.0269725
0.0254935
0.0241125
0.0227472
0.0213957
0.0200663
0.0187571
0.0174559
0.0161353
0.0147587
0.0133176
0.0120669
0.0617121
0.0590323
0.0564252
0.0538979
0.0514552
0.0491016
0.0468423
0.0446813
0.0426243
0.0406757
0.0388411
0.0371275
0.0355413
0.03409
0.0327773
0.031607
0.0305846
0.0297168
0.0290126
0.028476
0.0281112
0.02792
0.0279009
0.0280515
0.0648491
0.06261
0.0604428
0.0583486
0.0563303
0.0543906
0.0525333
0.0507611
0.049078
0.0474879
0.0459946
0.0446024
0.0433167
0.0421425
0.0410858
0.0401516
0.039347
0.0386764
0.0381438
0.0377535
0.0375057
0.0373993
0.0374307
0.0375925
0.0676565
0.0657784
0.0639653
0.0622155
0.0605301
0.058911
0.057361
0.0558824
0.0544781
0.0531512
0.0519051
0.0507437
0.0496712
0.048692
0.0478112
0.0470337
0.046364
0.0458078
0.0453682
0.0450485
0.0448502
0.0447726
0.0448134
0.0449684
0.0701517
0.0685737
0.0670468
0.0655709
0.0641471
0.062777
0.0614626
0.0602064
0.0590108
0.0578788
0.056813
0.0558175
0.0548963
0.0540534
0.0532935
0.0526211
0.0520414
0.0515587
0.0511773
0.0509003
0.0507302
0.0506677
0.0507119
0.0508601
0.0723763
0.0710374
0.0697397
0.0684818
0.0672645
0.066089
0.0649569
0.0638711
0.0628341
0.0618488
0.0609178
0.0600451
0.0592346
0.0584907
0.0578178
0.0572207
0.0567039
0.0562726
0.0559305
0.055682
0.0555298
0.0554755
0.0555198
0.0556611
0.0743481
0.0732056
0.0720933
0.0710106
0.0699574
0.0689352
0.0679458
0.0669921
0.0660775
0.0652046
0.0643766
0.0635969
0.0628698
0.0622
0.0615925
0.0610517
0.060582
0.060188
0.0598747
0.0596462
0.0595065
0.0594573
0.0595004
0.0596356
0.0760988
0.0751146
0.0741525
0.0732114
0.0722905
0.0713907
0.0705145
0.0696642
0.0688449
0.0680601
0.0673128
0.0666056
0.0659425
0.0653292
0.0647719
0.0642749
0.0638421
0.0634777
0.0631865
0.0629729
0.062842
0.0627962
0.0628375
0.0629673
0.0776508
0.0767963
0.075956
0.0751311
0.074318
0.0735166
0.0727345
0.0719647
0.0712196
0.0705043
0.0698215
0.0691728
0.068561
0.0679896
0.0674718
0.0670092
0.0666075
0.0662669
0.0659962
0.0657918
0.0656681
0.0656255
0.0656633
0.0657886
0.0790361
0.0782795
0.0775312
0.0767985
0.07608
0.0753576
0.0746656
0.073956
0.0732661
0.0726046
0.0719729
0.0713712
0.0708099
0.0702658
0.0697798
0.0693386
0.0689699
0.0686452
0.0684038
0.0681989
0.068081
0.0680466
0.0680742
0.0681959
0.013027
0.015381
0.0168895
0.0183204
0.0198747
0.0216009
0.0234971
0.0255484
0.0277374
0.0300489
0.0324719
0.034996
0.0376138
0.040319
0.0431051
0.0459659
0.0488954
0.0518872
0.054934
0.0580286
0.0611626
0.064327
0.0675126
0.0707209
0.0283537
0.028818
0.0294714
0.030318
0.031355
0.0325746
0.0339656
0.0355152
0.0372091
0.0390333
0.0409755
0.0430231
0.0451661
0.0473955
0.049703
0.0520815
0.0545245
0.0570266
0.0595817
0.0621839
0.0648273
0.0675054
0.0702114
0.0729461
0.0378719
0.0382774
0.0388278
0.0395277
0.040375
0.0413659
0.0424944
0.0437525
0.0451316
0.0466222
0.0482149
0.0499006
0.0516715
0.05352
0.0554394
0.0574235
0.059467
0.0615652
0.0637133
0.0659067
0.068141
0.0704114
0.0727129
0.0750469
0.0452294
0.0456019
0.046096
0.0467134
0.0474531
0.0483115
0.0492832
0.0503619
0.0515407
0.0528123
0.0541689
0.0556033
0.0571089
0.0586796
0.06031
0.0619952
0.0637307
0.0655126
0.0673374
0.0692018
0.0711029
0.0730374
0.0750027
0.0770013
0.0511071
0.0514562
0.0519131
0.0524773
0.0531471
0.0539185
0.0547859
0.0557434
0.0567846
0.057903
0.0590918
0.0603448
0.0616564
0.0630209
0.0644339
0.0658911
0.0673891
0.0689242
0.0704939
0.0720956
0.0737273
0.0753871
0.0770745
0.0787968
0.0558963
0.0562273
0.0566568
0.0571829
0.0578029
0.0585121
0.0593047
0.0601747
0.0611159
0.062122
0.0631872
0.0643056
0.0654717
0.0666807
0.0679284
0.0692106
0.070524
0.0718663
0.0732344
0.0746263
0.0760408
0.0774762
0.0789326
0.0804194
0.0598611
0.0601775
0.0605856
0.0610831
0.061666
0.0623283
0.0630643
0.0638679
0.0647327
0.0656531
0.0666238
0.0676392
0.0686938
0.0697829
0.0709022
0.0720479
0.0732165
0.0744059
0.0756138
0.0768378
0.0780761
0.0793277
0.0805926
0.0818776
0.0631844
0.0634883
0.0638795
0.0643552
0.0649098
0.0655355
0.066227
0.066978
0.0677819
0.0686345
0.0695309
0.0704655
0.071433
0.0724281
0.0734459
0.074483
0.0755365
0.0766039
0.0776833
0.0787721
0.0798662
0.0809669
0.082074
0.0831981
0.0659988
0.0662903
0.0666674
0.0671271
0.0676618
0.0682559
0.0689118
0.0696201
0.0703726
0.0711702
0.0720078
0.0728783
0.0737769
0.0746968
0.0756331
0.0765826
0.0775429
0.0785119
0.0794884
0.0804689
0.0814416
0.0824182
0.0833929
0.0843824
0.0684033
0.0686781
0.0690411
0.0694846
0.0700086
0.0705678
0.0711928
0.0718688
0.072574
0.0733286
0.0741202
0.0749403
0.0757862
0.0766455
0.0775164
0.0783964
0.0792812
0.0801728
0.0810714
0.081971
0.082828
0.0837043
0.084566
0.0854504
0.0659761
0.0595319
0.0536497
0.0483094
0.0434676
0.0390796
0.0351039
0.0315022
0.0282405
0.0252885
0.0226192
0.0201978
0.0179967
0.0159927
0.0141673
0.0125049
0.0109898
0.009617
0.00841604
0.00747427
0.00663158
0.00572364
0.00468119
0.00340482
0.0666438
0.0608168
0.0554897
0.0506296
0.0461984
0.0421624
0.0384914
0.0351604
0.0321488
0.0294346
0.0269882
0.024786
0.0228078
0.0210382
0.0194686
0.0181225
0.0169506
0.0157875
0.0145671
0.0132688
0.0118699
0.010334
0.00861347
0.00663935
0.0673734
0.0621202
0.0572964
0.0528736
0.0488223
0.0451186
0.041743
0.0386813
0.0359258
0.0334524
0.0312434
0.0292855
0.0275717
0.0261094
0.0248218
0.0235555
0.0222541
0.0208837
0.0194127
0.0178099
0.0160443
0.0140831
0.0118887
0.0094221
0.0681229
0.0633934
0.0590258
0.0549979
0.0512904
0.0478891
0.0447838
0.0419713
0.0394426
0.0371837
0.035186
0.0334471
0.0319758
0.0306467
0.0293303
0.0279703
0.0265312
0.0249848
0.0233027
0.0214554
0.0194104
0.0171349
0.0145916
0.0117462
0.0688765
0.0646146
0.0606522
0.0569759
0.0535751
0.0504426
0.0475766
0.0449814
0.0426475
0.0405697
0.0387479
0.0371912
0.03582
0.0344771
0.0330974
0.0316429
0.0300837
0.028391
0.0265367
0.0244892
0.0222172
0.0196844
0.0168529
0.0136872
0.0696134
0.0657661
0.0621618
0.0587963
0.0556658
0.0527705
0.0501155
0.047705
0.0455349
0.0436058
0.0419227
0.0404851
0.0391202
0.0377395
0.036297
0.0347598
0.0330981
0.0312833
0.0292847
0.0270703
0.0246054
0.0218521
0.0187714
0.0153235
0.0703275
0.0668406
0.06355
0.0604564
0.0575631
0.0548759
0.0524044
0.0501523
0.0481202
0.0463148
0.0447503
0.0433489
0.0419684
0.0405479
0.0390496
0.0374411
0.0356928
0.0337741
0.0316531
0.0292951
0.0266633
0.023718
0.0204169
0.0167163
0.0710164
0.0678322
0.0648156
0.0619602
0.0592739
0.0567682
0.0544576
0.0523425
0.0504266
0.0487201
0.0472389
0.0458435
0.0444421
0.0429854
0.0414385
0.0397702
0.0379486
0.0359411
0.0337144
0.0312315
0.0284532
0.0253378
0.0218401
0.0179136
0.0716009
0.0687248
0.0659612
0.0633144
0.0608069
0.0584606
0.0562928
0.0542996
0.0524852
0.0508621
0.0494213
0.0480204
0.0465989
0.0451136
0.0435259
0.041807
0.0399254
0.0378424
0.0355233
0.0329292
0.0300194
0.026752
0.0230815
0.0189539
0.0721645
0.0695402
0.067004
0.064531
0.0621728
0.0599619
0.057927
0.056048
0.0543237
0.0527822
0.05134
0.0499238
0.0484806
0.046981
0.0453617
0.0435942
0.0416653
0.0395249
0.0371232
0.034425
0.0313904
0.0279885
0.0241764
0.0198768
0.0018682
0.000956843
0.00109459
0.0013934
0.00168014
0.00196114
0.00224681
0.00255269
0.00290308
0.00333476
0.00389208
0.00456665
0.00534532
0.00622755
0.00721745
0.0083218
0.00954809
0.0109036
0.0123959
0.014034
0.015828
0.0177879
0.019925
0.0222584
0.00434185
0.00218569
0.00147711
0.00168442
0.00197987
0.00228325
0.00260874
0.00297852
0.00341735
0.00394946
0.00459744
0.00533891
0.00616732
0.00708428
0.00809423
0.00920257
0.0104147
0.0117364
0.0131747
0.0147372
0.0164323
0.0182694
0.0202606
0.0224232
0.00662868
0.00369671
0.00200705
0.00196243
0.0022701
0.00261632
0.00300551
0.00345796
0.003989
0.00460888
0.00532915
0.00612547
0.00699556
0.0079414
0.00896647
0.0100746
0.0112696
0.0125564
0.0139406
0.0154287
0.0170281
0.018747
0.0205954
0.0225826
0.00854697
0.0050999
0.00262361
0.00223466
0.00255403
0.00295807
0.00342253
0.00395883
0.00457198
0.00526592
0.00604405
0.00688595
0.00779056
0.00875977
0.00979563
0.0109003
0.0120767
0.0133289
0.0146617
0.0160802
0.0175905
0.0191996
0.0209148
0.0227423
0.0101362
0.00628773
0.00323742
0.00250619
0.00283624
0.00330541
0.00384559
0.0044576
0.00513988
0.00589871
0.00672514
0.00760575
0.0085396
0.00952758
0.0105707
0.01167
0.012828
0.0140475
0.0153322
0.0166864
0.0181152
0.0196233
0.0212161
0.0228978
0.0114605
0.00727111
0.0037969
0.00277515
0.00311691
0.00365209
0.0042625
0.00494081
0.00568339
0.00649749
0.00736551
0.00827959
0.00923851
0.0102418
0.0112897
0.0123828
0.0135227
0.0147117
0.0159522
0.0172477
0.0186014
0.0200169
0.0214971
0.0230422
0.0125729
0.00808667
0.00428572
0.00303682
0.00339265
0.00399074
0.00466463
0.00540128
0.00619803
0.00705826
0.00796272
0.0089059
0.00988624
0.0109021
0.0119532
0.0130399
0.0141628
0.0153235
0.0165236
0.0177651
0.0190503
0.0203815
0.0217605
0.0231919
0.0135174
0.00876733
0.00470663
0.00328732
0.0036606
0.00431684
0.00504675
0.00583422
0.00668008
0.00757976
0.00851628
0.00948525
0.0104839
0.0115104
0.0125638
0.0136439
0.014751
0.0158857
0.0170486
0.0182409
0.0194636
0.0207179
0.0220048
0.0233252
0.0143308
0.00934161
0.00506175
0.00352462
0.00391991
0.00462561
0.00540329
0.00623562
0.00712694
0.00806212
0.00902757
0.0100188
0.0110332
0.012069
0.013125
0.0141997
0.0152915
0.016401
0.017529
0.0186758
0.0198416
0.0210257
0.0222277
0.0234478
0.0150773
0.0099369
0.00544152
0.003748
0.00414383
0.00491109
0.00574806
0.00663088
0.00756062
0.00852135
0.00950501
0.0105148
0.0115483
0.0125993
0.0136646
0.0147295
0.0157924
0.0168684
0.01796
0.019064
0.0201795
0.0212993
0.0224222
0.0235507
0.000535101
0.00182662
0.00375775
0.00593561
0.00810211
0.0102144
0.0122677
0.0142621
0.0161986
0.0180779
0.0199081
0.0217228
0.0235811
0.0255265
0.0275549
0.0296203
0.0320063
0.0347352
0.0377236
0.0409045
0.0442326
0.0476778
0.0512176
0.0548389
0.00040325
0.00115538
0.00269082
0.00450694
0.0062563
0.0079807
0.00971571
0.011479
0.0132674
0.015075
0.0168965
0.0187328
0.0205961
0.0225074
0.0244834
0.0265388
0.0287809
0.0312611
0.0338971
0.0369474
0.0403364
0.0439504
0.0477137
0.0515804
0.000245892
0.000745774
0.00177007
0.0031702
0.00497391
0.0069641
0.00885816
0.0106573
0.0123937
0.0140922
0.0157724
0.0174522
0.0191502
0.0208883
0.0226929
0.0245974
0.0266521
0.0289082
0.0313781
0.0341522
0.0371616
0.0406388
0.0444524
0.0484847
0.000262615
0.000626076
0.0014737
0.00263006
0.0041342
0.00601522
0.00803311
0.0100082
0.0119099
0.0137322
0.0154756
0.0171475
0.018766
0.0203596
0.0219676
0.0236397
0.0254331
0.0274104
0.0296275
0.0321354
0.0349362
0.0381013
0.0416165
0.0455754
0.000237953
0.000551974
0.00129581
0.0023121
0.00362839
0.00527909
0.00726524
0.00934837
0.0113943
0.0133725
0.0152714
0.0170792
0.018788
0.0204021
0.0219444
0.0234604
0.0250166
0.0266958
0.0285877
0.0307701
0.0332942
0.0361942
0.03946
0.0430745
0.000235298
0.000510599
0.00118977
0.0021173
0.00331578
0.00481702
0.00665611
0.00874466
0.0108804
0.0129812
0.0150207
0.0169813
0.018843
0.0205876
0.0222084
0.0237196
0.0251663
0.0266278
0.0282119
0.0300357
0.0322028
0.0347792
0.0377795
0.0411698
0.000228099
0.000477926
0.00110879
0.00197305
0.00308739
0.00448052
0.0061877
0.00821433
0.0103952
0.01259
0.0147447
0.0168362
0.0188431
0.020741
0.0225053
0.0241218
0.0255986
0.0269816
0.0283627
0.0298735
0.0316618
0.0338526
0.0365153
0.0396482
0.000224923
0.000455138
0.00105109
0.00186861
0.00292072
0.00423401
0.00584194
0.00777466
0.00995227
0.0122093
0.0144578
0.0166609
0.0187952
0.0208353
0.0227515
0.0245148
0.0261066
0.0275336
0.0288473
0.0301562
0.0316197
0.0334134
0.0356779
0.0384775
0.000221718
0.000436676
0.00100472
0.00178573
0.00278941
0.00404042
0.00557029
0.00741374
0.00955462
0.0118464
0.01417
0.016469
0.0187143
0.0208806
0.0229378
0.0248518
0.0265899
0.0281321
0.0294885
0.0307233
0.0319698
0.0334186
0.0352709
0.0376741
0.000219558
0.000422073
0.000967843
0.00171967
0.00268458
0.00388596
0.00535339
0.00712186
0.00920616
0.0115064
0.013886
0.0162667
0.0186099
0.0208886
0.0230732
0.0251288
0.0270171
0.0287028
0.0301675
0.0314315
0.0325811
0.0337834
0.0352648
0.037249
0.000217736
0.000409941
0.000937212
0.00166499
0.00259806
0.00375853
0.00517478
0.00688047
0.00890359
0.0111915
0.0136092
0.0160587
0.0184887
0.0208679
0.0231676
0.025353
0.0273845
0.0292196
0.0308225
0.0321812
0.0333344
0.0344024
0.0355969
0.0371858
0.000216382
0.000399809
0.00091147
0.00161909
0.00252548
0.00365181
0.00502509
0.00667801
0.0086432
0.0109035
0.0133426
0.0158484
0.0183548
0.0208248
0.0232286
0.0255329
0.0276976
0.0296776
0.031428
0.0329156
0.0341415
0.0351748
0.0361848
0.0374418
0.000215335
0.000391368
0.000889787
0.00158009
0.00246374
0.00356095
0.0048978
0.00650572
0.00841888
0.0106429
0.013089
0.0156386
0.0182121
0.0207643
0.023263
0.0256757
0.0279636
0.0300807
0.0319774
0.033608
0.0349474
0.0360207
0.036944
0.0379551
0.000214634
0.000384424
0.00087193
0.00154667
0.00241077
0.00348298
0.00478855
0.00635776
0.00822513
0.0104092
0.0128505
0.0154326
0.0180642
0.0206905
0.0232761
0.0257885
0.0281898
0.030435
0.0324723
0.034249
0.0357227
0.0368853
0.0378026
0.038661
0.000214127
0.000378481
0.000856663
0.00151785
0.00236507
0.00341576
0.00469416
0.00622993
0.00805694
0.0102015
0.012629
0.0152333
0.0179144
0.0206078
0.0232732
0.0258773
0.0283836
0.0307479
0.0329181
0.034838
0.0364544
0.0377359
0.0387065
0.0394978
0.000213785
0.00037339
0.000843571
0.00149306
0.00232565
0.0033576
0.00461254
0.00611911
0.00791083
0.010018
0.0124262
0.0150437
0.0177665
0.0205205
0.0232594
0.0259484
0.0285519
0.0310269
0.0333221
0.0353794
0.0371396
0.0385553
0.0396187
0.0404108
0.000213628
0.00036901
0.000832206
0.00147153
0.0022915
0.00330723
0.00454176
0.006023
0.00778378
0.0098566
0.0122422
0.014866
0.0176232
0.020432
0.0232393
0.0260077
0.0287015
0.0312796
0.0336918
0.0358798
0.0377806
0.0393364
0.0405148
0.041346
0.000213614
0.000365267
0.000822431
0.00145295
0.00226194
0.00326361
0.00448025
0.00593938
0.00767306
0.00971507
0.0120767
0.0147013
0.017487
0.0203453
0.0232164
0.0260592
0.0288382
0.0315129
0.0340348
0.0363463
0.0383827
0.0400793
0.0413861
0.0422946
0.00021371
0.000362037
0.000813972
0.00143679
0.00223621
0.00322552
0.00442668
0.00586639
0.00757636
0.00959056
0.0119284
0.0145496
0.0173584
0.0202617
0.0231928
0.0261064
0.0289656
0.0317316
0.0343569
0.0367849
0.0389507
0.0407848
0.0422246
0.0432319
0.00021388
0.000359226
0.000806524
0.00142255
0.00221355
0.00319208
0.00437947
0.00580214
0.00749102
0.00948051
0.0117951
0.0144097
0.0172373
0.0201814
0.0231689
0.02615
0.0290862
0.0319386
0.0346617
0.0372001
0.0394887
0.0414557
0.0430299
0.0441559
0.000214075
0.000356736
0.000799909
0.0014099
0.00219341
0.0031623
0.00433757
0.00574502
0.00741513
0.00938228
0.0116749
0.0142803
0.0171224
0.0201035
0.0231443
0.0261901
0.0292
0.0321353
0.0349514
0.0375942
0.0399994
0.0420937
0.0437998
0.0450479
0.000214344
0.000354579
0.000793987
0.00139852
0.00217532
0.00313553
0.00429987
0.00569365
0.00734696
0.00929381
0.0115653
0.0141599
0.0170125
0.0200265
0.0231177
0.0262255
0.0293063
0.032321
0.0352259
0.0379682
0.0404842
0.0426999
0.0445342
0.0459072
0.000214612
0.00035263
0.000788558
0.00138812
0.0021588
0.00311121
0.00426555
0.00564693
0.00728484
0.00921318
0.0114647
0.0140467
0.0169062
0.0199494
0.0230874
0.0262545
0.0294036
0.0324946
0.0354846
0.0383216
0.040943
0.0432746
0.0452323
0.0467279
0.000214849
0.000350902
0.000783605
0.00137859
0.00214365
0.00308879
0.004234
0.00560394
0.00722777
0.00913897
0.0113715
0.0139398
0.0168028
0.0198711
0.0230527
0.0262763
0.0294911
0.0326556
0.0357271
0.0386549
0.0413772
0.0438203
0.0458995
0.0475254
0.000215094
0.000349345
0.000779003
0.00136975
0.00212957
0.00306801
0.00420473
0.00556407
0.00717481
0.00907009
0.0112846
0.0138384
0.0167018
0.0197913
0.0230129
0.0262902
0.0295683
0.0328038
0.0359539
0.0389689
0.0417882
0.0443388
0.0465361
0.0482877
0.000215329
0.00034797
0.000774719
0.0013615
0.00211643
0.00304859
0.00417737
0.00552684
0.00712537
0.00900574
0.0112031
0.0137419
0.0166028
0.0197098
0.0229679
0.0262961
0.029635
0.032939
0.036165
0.0392641
0.0421767
0.0448308
0.0471416
0.0490136
0.000215528
0.000346713
0.000770689
0.00135376
0.00210407
0.00303033
0.00415168
0.00549184
0.00707889
0.00894528
0.0111264
0.0136498
0.0165058
0.0196267
0.0229177
0.0262938
0.029691
0.0330612
0.0363606
0.0395408
0.0425433
0.045297
0.0477171
0.0497069
0.000215705
0.000345584
0.000766883
0.00134645
0.00209244
0.00301313
0.00412744
0.00545886
0.00703512
0.00888829
0.0110538
0.0135619
0.016411
0.0195423
0.0228627
0.0262836
0.0297366
0.0331705
0.0365407
0.0397992
0.0428882
0.0457376
0.0482627
0.0503644
0.000215864
0.000344586
0.000763349
0.00133961
0.00208152
0.00299695
0.00410461
0.00542776
0.00699382
0.00883452
0.0109852
0.0134782
0.0163188
0.0194573
0.0228035
0.0262661
0.0297723
0.0332676
0.0367062
0.0400403
0.0432133
0.0461558
0.0487846
0.0510038
0.000215982
0.000343669
0.000759991
0.00133316
0.00207123
0.00298173
0.00408315
0.00539849
0.0069549
0.00878378
0.0109204
0.0133985
0.0162293
0.0193723
0.0227412
0.0262424
0.0297992
0.0333537
0.0368586
0.0402661
0.0435205
0.046554
0.0492851
0.0516204
0.000216085
0.000342857
0.00075688
0.00132714
0.0020616
0.00296744
0.00406297
0.00537096
0.00691826
0.00873601
0.0108593
0.0133229
0.0161431
0.0192881
0.0226764
0.0262134
0.0298182
0.0334295
0.0369982
0.0404763
0.0438089
0.0469288
0.0497538
0.0521807
0.000216161
0.000342097
0.00075393
0.00132147
0.00205256
0.00295407
0.00404408
0.00534517
0.00688391
0.00869116
0.0108019
0.0132514
0.0160606
0.0192057
0.0226107
0.0261805
0.0298308
0.0334967
0.0371269
0.0406733
0.0440816
0.047286
0.0502069
0.052752
0.000216207
0.000341388
0.000751158
0.00131615
0.00204407
0.00294149
0.00402633
0.00532095
0.00685169
0.00864912
0.0107479
0.0131841
0.015982
0.0191256
0.0225448
0.026145
0.0298385
0.0335569
0.0372467
0.0408592
0.0443407
0.0476266
0.0506388
0.0532839
0.000216221
0.000340708
0.000748516
0.00131111
0.00203603
0.00292961
0.0040096
0.00529815
0.00682137
0.00860958
0.0106972
0.0131208
0.0159074
0.0190481
0.0224797
0.026108
0.0298427
0.0336118
0.0373594
0.0410359
0.0445881
0.0479527
0.051052
0.053792
0.000216199
0.000340047
0.000745965
0.00130625
0.00202831
0.00291823
0.00399362
0.00527643
0.00679259
0.00857216
0.0106493
0.0130608
0.0158363
0.0189734
0.0224154
0.0260701
0.0298443
0.0336625
0.0374663
0.0412052
0.0448263
0.0482674
0.0514527
0.0542909
0.000216139
0.000339403
0.000743471
0.00130151
0.00202079
0.00290718
0.00397814
0.00525546
0.00676487
0.00853619
0.0106034
0.0130034
0.015768
0.0189006
0.0223516
0.0260309
0.0298431
0.0337093
0.0375681
0.041368
0.0450562
0.0485716
0.0518403
0.0547739
0.000216036
0.00033879
0.000741008
0.00129685
0.00201338
0.00289628
0.00396288
0.00523484
0.00673771
0.00850105
0.0105587
0.0129476
0.0157012
0.0188286
0.0222871
0.0259894
0.0298385
0.0337517
0.0376647
0.0415243
0.045278
0.0488652
0.0522132
0.0552353
0.000215878
0.000338207
0.000738563
0.00129223
0.00200602
0.00288544
0.00394769
0.0052143
0.00671066
0.00846613
0.0105143
0.0128922
0.0156347
0.0187558
0.0222201
0.0259439
0.0298286
0.033788
0.0377545
0.0416734
0.0454915
0.0491489
0.052573
0.0556758
0.000215668
0.000337615
0.000736152
0.00128767
0.00199873
0.00287467
0.00393255
0.00519379
0.00668359
0.00843109
0.0104697
0.0128365
0.0155674
0.0186807
0.0221487
0.0258918
0.0298107
0.0338154
0.0378353
0.0418133
0.0456957
0.0494224
0.052921
0.0561021
0.000215406
0.000337021
0.000733785
0.00128319
0.00199155
0.00286401
0.00391754
0.00517337
0.00665654
0.008396
0.0104249
0.0127803
0.0154989
0.0186029
0.0220716
0.0258311
0.0297817
0.0338304
0.0379028
0.0419396
0.0458862
0.0496827
0.0532565
0.0565175
0.0002151
0.000336425
0.000731474
0.00127882
0.00198455
0.00285361
0.00390283
0.00515331
0.00662989
0.00836129
0.0103804
0.0127241
0.0154299
0.0185229
0.0219894
0.0257614
0.0297403
0.03383
0.0379527
0.0420466
0.0460562
0.0499218
0.0535717
0.0569151
0.000214754
0.000335833
0.00072922
0.00127459
0.00197776
0.00284353
0.0038886
0.00513389
0.00660406
0.0083276
0.0103372
0.0126693
0.015362
0.018443
0.0219047
0.0256855
0.0296884
0.0338151
0.0379844
0.0421315
0.0461996
0.0501289
0.053849
0.0572785
0.000214371
0.000335234
0.000727025
0.00127048
0.00197121
0.00283385
0.00387495
0.0051153
0.00657935
0.00829539
0.0102958
0.012617
0.015297
0.0183659
0.0218213
0.025608
0.0296312
0.033791
0.0380026
0.0421982
0.0463185
0.0503011
0.054069
0.057513
0.000213956
0.000334625
0.000724876
0.00126651
0.00196489
0.00282453
0.00386188
0.00509757
0.00655587
0.00826488
0.0102567
0.0125676
0.0152359
0.0182932
0.0217423
0.0255337
0.0295755
0.0337665
0.0380188
0.0422623
0.0464366
0.050481
0.0543261
0.0578965
0.000213509
0.000334003
0.000722762
0.00126261
0.00195873
0.00281551
0.00384928
0.00508055
0.00653346
0.00823589
0.0102198
0.0125211
0.0151784
0.018225
0.021668
0.0254639
0.0295238
0.0337456
0.0380388
0.0423312
0.0465617
0.0506711
0.0545935
0.0582533
0.000213032
0.000333358
0.000720656
0.00125876
0.00195266
0.00280664
0.00383695
0.00506398
0.00651172
0.0082079
0.0101843
0.0124766
0.0151236
0.01816
0.021597
0.025397
0.0294745
0.0337267
0.0380607
0.0424018
0.046688
0.0508603
0.0548539
0.0585943
0.000212521
0.000332692
0.000718538
0.0012549
0.00194659
0.0027978
0.0038247
0.00504757
0.00649028
0.00818041
0.0101495
0.0124333
0.0150704
0.0180968
0.0215276
0.0253312
0.0294254
0.0337073
0.0380813
0.0424701
0.0468103
0.0510417
0.0550979
0.0588973
0.000211984
0.000331996
0.000716389
0.00125099
0.00194046
0.00278889
0.00381237
0.00503109
0.0064688
0.00815294
0.0101149
0.0123902
0.0150176
0.0180341
0.0214583
0.0252644
0.0293741
0.0336846
0.0380978
0.0425336
0.0469269
0.0512171
0.0553383
0.0592114
0.000211395
0.000331289
0.000714195
0.00124702
0.00193422
0.00277983
0.00379984
0.00501437
0.00644704
0.00812517
0.01008
0.0123468
0.0149646
0.0179709
0.0213878
0.0251951
0.029319
0.0336567
0.0381081
0.0425905
0.0470367
0.051386
0.055574
0.0595268
0.000210773
0.000330516
0.000711943
0.00124296
0.00192785
0.00277057
0.00378706
0.00499731
0.00642485
0.00809687
0.0100444
0.0123027
0.0149106
0.0179065
0.0213152
0.025122
0.029258
0.0336213
0.0381095
0.0426371
0.0471348
0.0515414
0.0557926
0.0598144
0.000210107
0.000329765
0.000709682
0.00123885
0.00192138
0.00276115
0.00377403
0.00497992
0.00640224
0.00806802
0.0100082
0.0122577
0.0148555
0.0178405
0.02124
0.0250446
0.0291905
0.0335771
0.0381001
0.042671
0.0472182
0.0516791
0.0559887
0.0600714
0.000209401
0.000328938
0.000707361
0.00123467
0.00191481
0.0027516
0.00376081
0.00496227
0.00637926
0.00803869
0.00997131
0.012212
0.0147994
0.0177731
0.0211624
0.024963
0.0291165
0.033524
0.0380796
0.0426917
0.0472865
0.0517996
0.0561651
0.0603063
0.000208693
0.000328145
0.000705064
0.00123048
0.00190823
0.002742
0.00374751
0.00494447
0.00635609
0.00800906
0.00993404
0.0121657
0.0147426
0.0177046
0.021083
0.024878
0.0290367
0.0334626
0.0380486
0.0427002
0.0473409
0.0519051
0.056326
0.0605266
0.000207935
0.00032733
0.000702729
0.00122629
0.00190163
0.00273241
0.00373418
0.00492667
0.00633284
0.0079794
0.00989668
0.0121193
0.0146856
0.0176357
0.0210025
0.0247905
0.0289524
0.0333942
0.0380082
0.0426976
0.0473832
0.0519978
0.0564748
0.0607379
0.000207178
0.000326499
0.000700467
0.00122217
0.00189512
0.00272287
0.00372101
0.00490897
0.00630978
0.00794987
0.00985956
0.0120731
0.0146288
0.0175669
0.0209219
0.0247015
0.0288645
0.0333201
0.0379602
0.0426852
0.047414
0.052078
0.0566107
0.060939
0.00020638
0.000325704
0.000698161
0.00121807
0.00188867
0.00271351
0.00370798
0.00489154
0.00628701
0.00792077
0.00982286
0.0120275
0.0145727
0.017499
0.0208417
0.0246125
0.0287747
0.0332419
0.0379055
0.0426644
0.0474346
0.0521457
0.0567309
0.0611159
0.000205559
0.000324816
0.00069592
0.00121408
0.00188236
0.00270429
0.00369523
0.00487447
0.00626475
0.00789234
0.00978708
0.0119829
0.0145179
0.0174325
0.020763
0.0245242
0.0286847
0.0331613
0.0378465
0.0426371
0.0474469
0.0522039
0.0568404
0.0612819
0.000204773
0.000324041
0.000693795
0.00121019
0.00187625
0.00269535
0.00368284
0.00485786
0.00624317
0.00786462
0.00975217
0.0119396
0.0144646
0.0173678
0.0206864
0.0244378
0.0285952
0.0330799
0.0377849
0.0426054
0.0474534
0.052255
0.0569419
0.0614392
0.000203951
0.000323226
0.000691659
0.00120639
0.00187028
0.0026867
0.00367081
0.00484184
0.00622218
0.00783786
0.00971837
0.0118976
0.0144131
0.0173052
0.0206121
0.0243536
0.0285075
0.0329989
0.0377218
0.0425708
0.0474552
0.0523
0.0570371
0.0615942
0.000203106
0.000322411
0.000689651
0.00120277
0.00186457
0.00267832
0.00365922
0.00482626
0.00620192
0.00781193
0.00968586
0.0118571
0.0143633
0.0172449
0.0205404
0.0242722
0.0284221
0.0329191
0.0376591
0.0425347
0.0474542
0.0523406
0.0571255
0.0617378
0.000202284
0.000321573
0.000687643
0.00119922
0.00185901
0.00267023
0.003648
0.0048113
0.00618238
0.00778692
0.00965441
0.0118181
0.0143154
0.0171868
0.0204714
0.0241936
0.028339
0.0328411
0.0375968
0.0424983
0.0474512
0.0523781
0.0572092
0.0618736
0.000201455
0.000320781
0.000685745
0.00119583
0.00185364
0.00266242
0.00363715
0.00479683
0.00616351
0.00776291
0.00962415
0.0117805
0.0142692
0.0171308
0.0204049
0.0241175
0.0282586
0.0327649
0.0375353
0.0424613
0.0474469
0.0524123
0.057287
0.0619987
0.000200635
0.000319972
0.000683951
0.00119261
0.00184854
0.00265495
0.00362683
0.00478293
0.0061454
0.00773971
0.00959505
0.0117443
0.0142247
0.0170768
0.0203407
0.0240441
0.0281802
0.0326903
0.0374747
0.0424242
0.0474411
0.0524441
0.0573612
0.0621185
0.000199797
0.000319203
0.000682179
0.00118946
0.00184357
0.00264773
0.00361676
0.00476949
0.00612788
0.00771735
0.00956685
0.0117094
0.0141818
0.0170247
0.0202785
0.0239728
0.028104
0.0326172
0.0374148
0.042387
0.0474344
0.0524743
0.0574349
0.0622456
0.000198939
0.000318357
0.000680469
0.00118644
0.00183878
0.00264072
0.00360708
0.00475652
0.00611096
0.00769577
0.00953976
0.0116756
0.0141403
0.0169744
0.0202185
0.0239037
0.0280299
0.0325458
0.037356
0.04235
0.0474272
0.0525027
0.0575035
0.0623577
0.000198127
0.000317567
0.000678813
0.00118349
0.00183414
0.00263392
0.00359766
0.00474391
0.00609461
0.00767479
0.00951338
0.0116429
0.0141001
0.0169255
0.0201603
0.0238367
0.0279576
0.0324759
0.0372981
0.0423137
0.0474198
0.0525307
0.0575719
0.0624714
0.000197267
0.000316786
0.000677155
0.0011806
0.00182958
0.00262731
0.00358846
0.00473165
0.00607856
0.00765439
0.0094877
0.0116111
0.0140611
0.0168782
0.0201037
0.0237712
0.0278869
0.032407
0.0372405
0.042277
0.0474118
0.0525573
0.0576382
0.0625817
0.000196403
0.000315925
0.00067556
0.00117778
0.00182513
0.00262077
0.00357945
0.00471956
0.00606289
0.00763436
0.00946259
0.0115799
0.0140229
0.0168317
0.0200483
0.0237072
0.0278172
0.0323389
0.0371834
0.0422398
0.0474026
0.0525819
0.0577018
0.0626902
0.000195521
0.000315151
0.000673995
0.00117504
0.00182076
0.00261441
0.00357056
0.00470768
0.00604741
0.00761464
0.00943779
0.0115493
0.0139853
0.0167862
0.0199938
0.0236442
0.0277485
0.0322713
0.0371261
0.0422022
0.0473922
0.0526045
0.0577619
0.0627919
0.000194615
0.000314264
0.000672456
0.00117236
0.00181648
0.00260811
0.00356185
0.004696
0.00603216
0.0075952
0.0094134
0.0115189
0.0139481
0.0167411
0.01994
0.0235817
0.0276805
0.0322039
0.0370687
0.0421641
0.0473812
0.0526261
0.0578199
0.0628889
0.000193738
0.000313488
0.000671028
0.00116977
0.00181235
0.002602
0.00355331
0.00468451
0.0060172
0.00757595
0.00938917
0.0114889
0.0139112
0.0166962
0.0198864
0.0235195
0.027612
0.0321359
0.0370104
0.042125
0.0473693
0.0526477
0.0578781
0.0629793
0.000192811
0.000312661
0.000669584
0.00116725
0.00180833
0.00259609
0.003545
0.00467338
0.00600251
0.00755715
0.0093653
0.0114592
0.0138746
0.0166516
0.0198328
0.0234568
0.0275427
0.0320659
0.036949
0.0420824
0.0473545
0.0526688
0.0579452
0.0631141
0.000191872
0.000311824
0.000668261
0.00116489
0.00180452
0.00259038
0.00353702
0.00466253
0.00598827
0.00753877
0.00934213
0.0114301
0.0138387
0.0166076
0.0197796
0.0233942
0.0274725
0.0319939
0.0368841
0.0420341
0.0473313
0.0526772
0.0579893
0.0631931
0.000190943
0.000310985
0.000666929
0.00116257
0.00180082
0.00258495
0.00352935
0.00465216
0.00597456
0.00752109
0.00931965
0.011402
0.0138037
0.0165648
0.0197278
0.0233328
0.027403
0.0319215
0.0368171
0.041982
0.047302
0.0526768
0.0580224
0.0632666
0.000190008
0.000310159
0.000665688
0.00116039
0.00179728
0.00257972
0.00352198
0.00464221
0.00596144
0.00750421
0.0092982
0.0113749
0.0137702
0.0165236
0.0196778
0.0232734
0.0273358
0.031851
0.0367513
0.0419301
0.0472719
0.0526736
0.0580475
0.0633122
0.000189081
0.000309353
0.000664538
0.00115836
0.00179399
0.00257476
0.00351504
0.00463271
0.00594892
0.00748796
0.00927757
0.0113491
0.013738
0.016484
0.0196298
0.0232165
0.027271
0.0317831
0.0366884
0.0418812
0.0472455
0.0526766
0.0580866
0.0633985
0.000188123
0.000308568
0.000663383
0.00115636
0.00179076
0.00257
0.00350828
0.00462359
0.00593688
0.00747241
0.00925774
0.0113242
0.0137072
0.0164461
0.0195837
0.0231616
0.0272086
0.0317174
0.0366274
0.0418341
0.047221
0.0526817
0.0581272
0.0634794
0.000187117
0.000307728
0.000662277
0.00115445
0.00178763
0.00256532
0.00350176
0.00461472
0.0059252
0.00745739
0.0092387
0.0113003
0.0136775
0.0164095
0.0195392
0.0231086
0.0271482
0.0316535
0.0365675
0.0417872
0.0471955
0.052684
0.0581619
0.0635496