/*--------------------------------*- C++ -*----------------------------------*\
| =========                 |                                                 |
| \\      /  F ield         | OpenFOAM: The Open Source CFD Toolbox           |
|  \\    /   O peration     | Version:  2.3.0                                 |
|   \\  /    A nd           | Web:      www.OpenFOAM.org                      |
|    \\/     M anipulation  |                                                 |
\*---------------------------------------------------------------------------*/
FoamFile
{
    version     2.0;
    format      ascii;
    class       volVectorField;
    location    "8000";
    object      U;
}
// * * * * * * * * * * * * * * * * * * * * * * * * * * * * * * * * * * * * * //

dimensions      [0 1 -1 0 0 0 0];

internalField   nonuniform List<vector> 
14050
(
(22.6504 9.01128 -1.28796e-20)
(22.5306 9.40119 -4.27652e-21)
(22.3974 9.8034 -4.00001e-20)
(22.2522 10.2191 7.869e-20)
(22.0957 10.6512 -2.90805e-20)
(21.9286 11.1017 3.31701e-20)
(21.7506 11.5718 3.17785e-20)
(21.5595 12.0601 0)
(21.3499 12.563 -8.12047e-20)
(21.1136 13.0741 3.34678e-21)
(20.839 13.585 1.06442e-19)
(20.5129 14.0861 -4.03385e-20)
(20.1207 14.5675 -9.5466e-21)
(19.6466 15.0204 -6.18392e-21)
(19.0748 15.4381 0)
(18.3895 15.8152 -1.04549e-20)
(17.5761 16.1478 8.10783e-20)
(16.6218 16.4344 -5.02506e-20)
(15.5141 16.6712 0)
(14.2397 16.8471 -2.16218e-19)
(12.7866 16.9401 2.29324e-19)
(11.1681 16.9738 -2.34166e-20)
(9.42719 17.0336 0)
(7.57889 16.9468 9.57119e-19)
(22.2807 8.89797 -3.2841e-20)
(22.1376 9.23024 6.7379e-20)
(21.981 9.56431 -6.8026e-20)
(21.809 9.90139 -1.44958e-19)
(21.6197 10.2417 1.51924e-19)
(21.4114 10.5858 2.55577e-20)
(21.1827 10.9346 0)
(20.9318 11.289 1.96625e-19)
(20.657 11.6491 -1.77416e-19)
(20.3561 12.0145 1.80972e-20)
(20.0265 12.3832 2.53861e-20)
(19.6652 12.7521 7.24388e-21)
(19.2691 13.116 -3.65084e-19)
(18.8348 13.4685 4.17505e-19)
(18.3595 13.8008 2.13134e-20)
(17.8412 14.1023 -6.73225e-19)
(17.2791 14.3606 1.56933e-18)
(16.6748 14.5622 -8.79023e-19)
(16.0313 14.6919 -6.125e-19)
(15.3544 14.7333 5.86595e-19)
(14.6548 14.6688 8.53515e-19)
(13.9494 14.482 1.57226e-19)
(13.2524 14.1587 1.4978e-19)
(12.5654 13.689 -4.94239e-19)
(21.9658 8.7632 -7.47344e-20)
(21.8119 9.0472 -8.00296e-20)
(21.6458 9.3282 4.22274e-20)
(21.4662 9.60904 1.52059e-19)
(21.2719 9.88871 -1.52378e-19)
(21.062 10.1666 -3.15577e-20)
(20.835 10.4419 -5.46799e-20)
(20.5894 10.7134 0)
(20.3231 10.9799 -2.02705e-20)
(20.0338 11.2397 -5.20053e-19)
(19.7194 11.4907 -1.12054e-19)
(19.3778 11.7304 1.16348e-18)
(19.007 11.9556 -6.46994e-19)
(18.6057 12.1626 0)
(18.1729 12.3467 4.02599e-19)
(17.7089 12.5028 -4.5235e-19)
(17.2149 12.6248 0)
(16.694 12.7066 0)
(16.1511 12.7419 6.63754e-19)
(15.5934 12.7244 -6.26542e-19)
(15.031 12.6491 -8.66818e-19)
(14.4766 12.5125 8.17069e-19)
(13.9457 12.3129 5.47031e-19)
(13.456 12.0505 -1.01207e-18)
(21.7007 8.62048 7.58822e-20)
(21.5465 8.86065 2.82984e-20)
(21.3803 9.09541 -1.90234e-19)
(21.2017 9.3284 3.6001e-19)
(21.01 9.55849 -1.53252e-19)
(20.8046 9.78524 2.43987e-19)
(20.5849 10.0079 7.19199e-20)
(20.3503 10.2255 -2.24222e-19)
(20.0998 10.4368 4.00479e-20)
(19.8325 10.6401 -3.29293e-19)
(19.5473 10.8337 3.22686e-19)
(19.2434 11.015 0)
(18.92 11.1815 4.30859e-19)
(18.5767 11.3298 -4.35322e-19)
(18.2135 11.4564 5.22898e-19)
(17.8313 11.5572 -1.03465e-18)
(17.4315 11.628 -1.3281e-20)
(17.017 11.6642 1.34692e-18)
(16.5918 11.6618 6.13186e-20)
(16.161 11.617 1.15975e-19)
(15.7313 11.527 -7.44967e-19)
(15.3107 11.3905 0)
(14.9076 11.2085 -1.25874e-19)
(14.5313 10.9841 0)
(21.4844 8.48062 -5.42412e-20)
(21.3324 8.67928 -6.68361e-20)
(21.1705 8.87577 1.30852e-19)
(20.9984 9.06999 -1.09661e-20)
(20.8153 9.26064 -6.23121e-20)
(20.6205 9.44713 -2.20091e-19)
(20.4134 9.62882 5.72366e-19)
(20.1934 9.80483 -3.53616e-19)
(19.96 9.97398 3.19228e-19)
(19.7124 10.135 2.439e-20)
(19.4499 10.2862 -2.88404e-19)
(19.172 10.4258 -4.47787e-19)
(18.8784 10.5516 4.52325e-19)
(18.5688 10.6611 0)
(18.2438 10.7514 -5.72081e-19)
(17.9042 10.8197 5.07569e-19)
(17.5515 10.8627 -3.97616e-20)
(17.1883 10.8773 7.37533e-19)
(16.818 10.8607 -1.49986e-18)
(16.4451 10.8106 3.25918e-19)
(16.0748 10.7253 3.82281e-19)
(15.7134 10.6043 0)
(15.3672 10.4487 6.57558e-20)
(15.0425 10.2611 0)
(21.3033 8.3323 7.12991e-20)
(21.1562 8.50396 0)
(21.0023 8.67184 -2.14422e-19)
(20.8397 8.83596 2.17288e-19)
(20.6675 8.99614 4.06213e-19)
(20.4848 9.15205 -6.07232e-20)
(20.2914 9.30336 -2.98586e-19)
(20.0871 9.44929 -4.81153e-20)
(19.8712 9.58886 5.0888e-20)
(19.6435 9.72087 5.40019e-20)
(19.4035 9.84392 -5.3156e-20)
(19.1507 9.95635 -6.14304e-20)
(18.8852 10.0563 0)
(18.6069 10.1417 0)
(18.3162 10.2104 0)
(18.0141 10.2595 -6.66112e-19)
(17.7015 10.2866 1.03703e-18)
(17.3804 10.2891 2.33267e-20)
(17.0535 10.265 -4.45769e-19)
(16.7244 10.2126 0)
(16.3975 10.1308 -6.03728e-19)
(16.0774 10.0193 4.91498e-19)
(15.7692 9.87907 6.69689e-20)
(15.4777 9.71216 0)
(21.1477 8.20098 -7.57006e-20)
(21.0107 8.34457 0)
(20.8665 8.48754 0)
(20.7145 8.62712 -8.7263e-20)
(20.554 8.76311 -2.16769e-19)
(20.3838 8.89522 -8.53346e-21)
(20.2035 9.02326 1.37412e-19)
(20.0131 9.14651 4.84296e-20)
(19.8123 9.2642 -2.69274e-19)
(19.6011 9.37519 1.6493e-19)
(19.379 9.47806 0)
(19.1455 9.5714 6.20291e-20)
(18.9007 9.65361 6.94732e-20)
(18.6447 9.72305 0)
(18.3782 9.77789 7.95882e-20)
(18.1024 9.81565 -2.61809e-19)
(17.8179 9.83377 -2.05007e-20)
(17.5261 9.83001 2.81552e-19)
(17.2286 9.80269 -1.05503e-19)
(16.9288 9.75064 0)
(16.6303 9.67287 1.20309e-19)
(16.3373 9.56927 3.91585e-19)
(16.0538 9.44054 -4.70549e-19)
(15.784 9.28848 -1.4346e-19)
(21.0209 8.07878 -8.95365e-20)
(20.8919 8.1991 8.34677e-20)
(20.7562 8.32172 4.53901e-20)
(20.6141 8.44181 8.77874e-20)
(20.465 8.55868 -4.56306e-20)
(20.3071 8.67209 5.04866e-20)
(20.1393 8.78222 4.9749e-20)
(19.9616 8.88817 0)
(19.7737 8.9895 0)
(19.5766 9.08526 3.0506e-19)
(19.3698 9.17359 1.2231e-20)
(19.1528 9.25313 -1.93444e-19)
(18.9253 9.32228 -7.00431e-20)
(18.6871 9.37988 0)
(18.4386 9.42539 -8.0293e-20)
(18.1827 9.45614 -1.73986e-19)
(17.9204 9.46884 3.83206e-19)
(17.652 9.46128 -7.00805e-19)
(17.3778 9.43233 8.47406e-20)
(17.1001 9.38119 8.00525e-19)
(16.823 9.30702 -5.97991e-19)
(16.5502 9.20923 -1.29622e-19)
(16.2846 9.08869 1.37374e-19)
(16.0302 8.94733 5.83723e-19)
(20.9141 7.96517 8.57317e-20)
(20.7938 8.06587 -4.69305e-20)
(20.6663 8.17214 -1.41261e-19)
(20.5332 8.2773 -1.02211e-19)
(20.3948 8.37963 -7.67586e-21)
(20.2485 8.4782 -1.11892e-19)
(20.0911 8.57437 -6.38406e-20)
(19.9255 8.66648 2.21182e-19)
(19.7485 8.75442 5.9926e-20)
(19.5627 8.83912 1.81377e-21)
(19.3685 8.91743 0)
(19.165 8.98776 -6.82957e-20)
(18.9516 9.04751 -3.01272e-19)
(18.7285 9.09411 2.2658e-19)
(18.492 9.13229 -4.24903e-19)
(18.2504 9.15946 5.23629e-19)
(18.0046 9.17025 0)
(17.7557 9.16036 4.14473e-19)
(17.4997 9.13053 -4.21152e-19)
(17.2391 9.08037 -4.32865e-22)
(16.9786 9.00965 3.71525e-19)
(16.7213 8.91646 -2.52891e-19)
(16.469 8.80122 1.36558e-19)
(16.2255 8.66836 -2.90025e-19)
(20.82 7.85877 4.71827e-20)
(20.7136 7.94588 1.99911e-19)
(20.5981 8.03801 -1.00322e-19)
(20.4765 8.13059 1.56923e-19)
(20.3469 8.22186 -1.00546e-19)
(20.207 8.30802 -1.67933e-19)
(20.0542 8.39408 2.8154e-19)
(19.9014 8.47745 0)
(19.7364 8.55176 -1.24656e-19)
(19.5604 8.62702 -3.30937e-19)
(19.3782 8.69755 -1.1248e-20)
(19.1869 8.76196 2.75826e-19)
(18.983 8.81882 0)
(18.7721 8.85456 4.06538e-19)
(18.5465 8.88345 -2.54948e-19)
(18.3187 8.90721 -9.12171e-20)
(18.0847 8.92014 0)
(17.8454 8.90974 0)
(17.5991 8.88072 0)
(17.352 8.83182 -1.22351e-19)
(17.1036 8.76382 2.39855e-19)
(16.8558 8.67641 -1.26926e-19)
(16.6135 8.56332 -1.35999e-19)
(16.3769 8.4379 -1.41901e-19)
(5.72818 15.9793 -1.65788e-18)
(5.48176 14.5259 6.89176e-19)
(5.60657 13.2681 0)
(5.86909 12.1628 -5.96736e-20)
(6.21365 11.187 -3.37454e-20)
(6.61185 10.3116 0)
(7.04443 9.5225 -2.28158e-19)
(7.49745 8.81079 -9.81911e-19)
(7.95969 8.16822 1.14232e-18)
(8.42205 7.588 1.3019e-18)
(8.87759 7.06422 9.80989e-19)
(9.32054 6.59118 -2.2485e-18)
(9.74698 6.16407 0)
(10.1546 5.77842 0)
(10.5424 5.42956 -2.69251e-19)
(10.9104 5.11318 0)
(11.26 4.82512 -5.18651e-19)
(11.593 4.56121 -1.05076e-18)
(11.9112 4.31747 2.02413e-18)
(12.2168 4.09037 -1.45333e-18)
(12.5114 3.87697 -1.39032e-18)
(12.7962 3.67575 -1.7634e-18)
(13.0718 3.48287 8.25243e-19)
(13.337 3.2754 -7.51389e-19)
(11.9017 13.0922 -1.3635e-18)
(11.3806 12.4074 7.76679e-19)
(11.0057 11.703 0)
(10.7534 11.0101 -5.29989e-20)
(10.5982 10.3431 5.64215e-20)
(10.5214 9.70957 0)
(10.5084 9.11435 6.24323e-19)
(10.5476 8.55967 -6.2954e-19)
(10.6291 8.0459 1.2715e-19)
(10.7444 7.57209 0)
(10.8867 7.13619 0)
(11.0499 6.73537 7.76396e-19)
(11.2295 6.36648 -1.01674e-18)
(11.4215 6.02589 -1.76135e-18)
(11.6228 5.71016 2.82973e-20)
(11.8311 5.41587 2.95207e-18)
(12.0442 5.14004 -4.81094e-19)
(12.2605 4.88014 4.64259e-19)
(12.4787 4.63404 -4.64433e-19)
(12.6976 4.40012 4.41146e-19)
(12.9161 4.17723 4.69586e-19)
(13.1334 3.96507 1.90724e-18)
(13.3487 3.76143 -2.03539e-19)
(13.5613 3.55187 7.39871e-19)
(13.0219 11.7273 5.30554e-19)
(12.6516 11.3459 3.09293e-19)
(12.3461 10.9192 -6.66974e-20)
(12.1056 10.4649 -2.56452e-19)
(11.9265 9.9973 -9.16778e-20)
(11.8039 9.52733 9.56286e-20)
(11.7321 9.06293 4.04773e-19)
(11.7052 8.61012 -8.22092e-19)
(11.7171 8.17293 5.20469e-19)
(11.762 7.75423 8.6262e-19)
(11.8344 7.35553 -6.49152e-19)
(11.9294 6.97754 1.11011e-18)
(12.0426 6.6203 -6.62614e-19)
(12.1704 6.28325 -2.30082e-19)
(12.3095 5.96563 4.47072e-19)
(12.4572 5.66629 0)
(12.6117 5.38412 8.81822e-19)
(12.7711 5.1178 -1.7536e-18)
(12.9345 4.86602 4.36839e-19)
(13.1007 4.62745 -1.28206e-18)
(13.269 4.40095 1.26054e-18)
(13.4388 4.18572 -7.21305e-19)
(13.6095 3.97978 -9.81584e-20)
(13.7805 3.77156 -1.46913e-18)
(14.1864 10.7216 0)
(13.8741 10.4229 -7.69995e-20)
(13.5981 10.0931 -8.29595e-20)
(13.3619 9.74092 1.73407e-19)
(13.1667 9.37459 8.81464e-20)
(13.0116 9.00134 2.8238e-19)
(12.8945 8.62725 -2.87325e-19)
(12.8124 8.25724 -9.69773e-20)
(12.7623 7.89509 9.47305e-20)
(12.7406 7.54357 0)
(12.744 7.20459 -1.24075e-18)
(12.7694 6.8793 1.66041e-18)
(12.8136 6.5682 -1.04312e-18)
(12.8743 6.27133 0)
(12.9491 5.98839 -2.12484e-19)
(13.036 5.7188 0)
(13.1331 5.46186 0)
(13.2391 5.21676 0)
(13.3525 4.98266 -5.26488e-21)
(13.4721 4.75875 1.6326e-18)
(13.5969 4.54432 -8.00123e-19)
(13.726 4.33903 3.86653e-19)
(13.8586 4.14179 0)
(13.9938 3.94318 1.44853e-18)
(14.7423 10.0443 -7.31034e-20)
(14.4672 9.79899 7.92369e-20)
(14.2197 9.52828 1.66332e-19)
(14.003 9.2378 -2.54586e-19)
(13.8184 8.93319 -9.06489e-20)
(13.6657 8.61984 -9.341e-20)
(13.5439 8.30271 2.84221e-19)
(13.4511 7.98591 -2.78002e-19)
(13.385 7.67285 1.91065e-19)
(13.3434 7.36616 -1.94511e-19)
(13.3238 7.06779 2.00714e-19)
(13.3236 6.77899 0)
(13.3407 6.50055 -9.89945e-19)
(13.3729 6.23281 7.91281e-19)
(13.4183 5.97583 1.95888e-19)
(13.4751 5.72944 0)
(13.5419 5.49324 0)
(13.6172 5.26678 5.90526e-19)
(13.6999 5.04951 -1.18516e-18)
(13.7888 4.84085 3.81186e-19)
(13.8831 4.64039 8.52674e-21)
(13.9821 4.44806 -3.82631e-19)
(14.0854 4.2631 3.69269e-19)
(14.1917 4.07614 -3.52955e-21)
(15.2057 9.52077 3.81789e-19)
(14.9542 9.30592 -2.26231e-19)
(14.7254 9.0701 1.6059e-21)
(14.5219 8.81745 0)
(14.3449 8.55203 -1.74171e-19)
(14.1944 8.2782 0)
(14.0696 7.99995 0)
(13.9691 7.72084 5.66029e-19)
(13.8914 7.44399 -3.74223e-19)
(13.8349 7.17177 -1.92812e-19)
(13.7979 6.9059 3.84309e-19)
(13.7786 6.64754 -9.55614e-19)
(13.7751 6.39746 7.66368e-19)
(13.7856 6.15605 0)
(13.8086 5.92345 -1.94372e-19)
(13.8426 5.69964 0)
(13.8863 5.48436 0)
(13.9384 5.27719 1.88654e-19)
(13.9978 5.07774 -7.59433e-19)
(14.0634 4.88553 5.58193e-19)
(14.1343 4.70033 5.60586e-19)
(14.2099 4.52229 9.2028e-20)
(14.2905 4.3505 -9.04241e-20)
(14.3763 4.17414 -3.48983e-19)
(15.5309 9.11481 1.50575e-19)
(15.2961 8.92077 2.3688e-19)
(15.0814 8.70879 -2.55089e-21)
(14.8895 8.48223 2.15547e-20)
(14.7214 8.24384 2.83763e-19)
(14.576 7.99745 4.40153e-20)
(14.4529 7.74652 -3.53013e-21)
(14.3506 7.4943 1.85161e-19)
(14.2681 7.24385 -5.5685e-19)
(14.2045 6.99738 3.69671e-19)
(14.1587 6.75624 0)
(14.1291 6.52143 1.89281e-19)
(14.114 6.29363 -1.89217e-19)
(14.112 6.07327 3.7474e-19)
(14.1214 5.86062 1.95955e-21)
(14.1411 5.6557 -3.71422e-19)
(14.1699 5.45831 0)
(14.2065 5.26803 -1.83399e-19)
(14.2499 5.0846 -3.67209e-19)
(14.299 4.90753 -3.42813e-21)
(14.3525 4.73684 -9.10124e-19)
(14.4101 4.57329 0)
(14.4731 4.41654 -3.51565e-19)
(14.5413 4.25736 0)
(15.7906 8.78639 -2.98114e-19)
(15.5677 8.60696 -1.55797e-21)
(15.3631 8.41213 -1.64487e-19)
(15.1805 8.20483 -1.88768e-19)
(15.0207 7.98627 -3.24307e-19)
(14.8797 7.75961 -8.89796e-20)
(14.759 7.52899 -2.69282e-19)
(14.6558 7.29683 1.85036e-19)
(14.5696 7.06664 -1.80336e-19)
(14.5013 6.84036 0)
(14.4498 6.6188 0)
(14.4134 6.40281 1.8154e-19)
(14.3908 6.19297 -3.67079e-19)
(14.38 5.98971 3.63625e-19)
(14.3799 5.79362 1.80525e-19)
(14.3895 5.60473 -3.63795e-19)
(14.4079 5.42269 3.61318e-19)
(14.4337 5.2471 1.81989e-19)
(14.4655 5.07788 1.35325e-21)
(14.5025 4.91415 1.78878e-19)
(14.5423 4.75653 3.14084e-19)
(14.5852 4.60631 -1.31019e-19)
(14.6338 4.46319 3.50615e-19)
(14.6881 4.31573 -8.31185e-22)
(15.9958 8.51754 -1.55993e-19)
(15.782 8.34838 2.31553e-19)
(15.5835 8.16672 -1.61175e-19)
(15.4072 7.97388 2.48415e-19)
(15.2563 7.77162 1.70773e-19)
(15.1194 7.55799 0)
(15.0024 7.34357 2.62758e-19)
(14.8991 7.12656 8.74774e-20)
(14.8103 6.91187 -2.69511e-21)
(14.7396 6.70205 1.77583e-19)
(14.6851 6.49631 1.80019e-19)
(14.6449 6.29537 1.78932e-19)
(14.6179 6.09996 2.91405e-21)
(14.6013 5.91025 -7.12978e-19)
(14.5946 5.72789 -4.65964e-21)
(14.5974 5.55248 3.53689e-19)
(14.6087 5.38347 1.75545e-19)
(14.6269 5.22036 1.76511e-19)
(14.6504 5.06334 -1.75526e-19)
(14.6785 4.91057 -1.74155e-19)
(14.7071 4.76478 0)
(14.7375 4.62649 2.17599e-19)
(14.7756 4.49567 -2.13238e-19)
(14.8187 4.35677 -3.39484e-19)
(16.1545 8.2972 -1.45797e-19)
(15.9499 8.13341 -1.53098e-19)
(15.7519 7.96344 -1.52853e-19)
(15.5759 7.78099 0)
(15.4375 7.59972 -1.65697e-19)
(15.3016 7.39188 -2.11559e-19)
(15.1899 7.19381 -1.34297e-19)
(15.0894 6.98777 8.95429e-20)
(15.0009 6.78262 9.11887e-20)
(14.9314 6.58614 -5.57086e-22)
(14.8774 6.39258 1.80876e-19)
(14.836 6.20263 -3.57081e-19)
(14.8073 6.01853 0)
(14.7867 5.83833 1.76107e-19)
(14.7753 5.6674 -5.30907e-19)
(14.7734 5.50276 0)
(14.7798 5.3445 -1.79869e-19)
(14.7916 5.19112 1.76083e-19)
(14.8081 5.04384 -1.71887e-19)
(14.8295 4.89826 1.70904e-19)
(14.8494 4.7655 0)
(14.8718 4.63801 -1.26722e-19)
(14.9034 4.51824 2.19288e-19)
(14.9368 4.38026 -2.48486e-19)
(0.39665 -2.26448 1.45321e-19)
(0.0364086 -2.24943 -8.90333e-21)
(-0.269309 -2.24203 0)
(-0.522267 -2.23892 0)
(-0.724489 -2.23875 -9.72164e-20)
(-0.878162 -2.24049 0)
(-0.985556 -2.24313 0)
(-1.04897 -2.2457 0)
(-1.07068 -2.2472 -5.36154e-20)
(-1.05291 -2.24661 0)
(-0.997733 -2.24281 5.9784e-20)
(-0.906962 -2.23454 -6.21894e-20)
(-0.781962 -2.22035 3.28495e-20)
(-0.623292 -2.19839 -3.40929e-20)
(-0.430108 -2.16625 3.60312e-20)
(-0.199065 -2.12044 -2.9269e-19)
(0.0769633 -2.05681 3.32206e-19)
(0.412052 -1.97003 -2.20023e-20)
(0.832877 -1.85315 -6.9764e-20)
(1.38493 -1.6989 2.30993e-20)
(2.14956 -1.50055 -2.08192e-19)
(3.28803 -1.24857 7.83558e-19)
(5.13708 -0.942637 -6.34833e-19)
(8.45452 -0.75109 0)
(0.354977 -2.29275 -1.60224e-19)
(0.0226589 -2.28468 -8.19542e-21)
(-0.261228 -2.27987 -1.85342e-19)
(-0.499821 -2.27509 -9.65661e-20)
(-0.695088 -2.27027 2.87146e-19)
(-0.84836 -2.26472 -2.96119e-19)
(-0.960662 -2.25755 2.06211e-19)
(-1.03264 -2.24775 0)
(-1.06452 -2.23416 -5.55216e-20)
(-1.05605 -2.21543 4.40493e-19)
(-1.00633 -2.18988 -5.13405e-19)
(-0.913592 -2.15547 5.67514e-20)
(-0.774807 -2.10976 -5.83894e-20)
(-0.58505 -2.04981 2.78623e-19)
(-0.33674 -1.97228 -2.55781e-19)
(-0.0188982 -1.87358 3.00306e-19)
(0.383721 -1.75009 -3.06696e-19)
(0.895056 -1.59826 -3.32606e-21)
(1.55351 -1.41519 5.8857e-20)
(2.41938 -1.20122 0)
(3.58708 -0.964829 0)
(5.20189 -0.733334 4.23775e-21)
(7.47296 -0.571098 0)
(10.635 -0.60174 -7.89335e-19)
(0.304813 -2.30974 -4.06018e-21)
(0.00476792 -2.29851 1.73624e-19)
(-0.256464 -2.28811 2.53904e-19)
(-0.478088 -2.27699 2.26609e-20)
(-0.660321 -2.26431 2.01343e-19)
(-0.803399 -2.24891 5.28239e-21)
(-0.90723 -2.22946 0)
(-0.971239 -2.20457 -5.45672e-20)
(-0.994231 -2.17265 5.27783e-20)
(-0.974274 -2.13195 -1.62699e-19)
(-0.908485 -2.08054 2.27169e-19)
(-0.79278 -2.01623 -2.30133e-19)
(-0.621621 -1.93678 4.73329e-19)
(-0.387704 -1.83994 -1.79911e-19)
(-0.0815231 -1.72389 -3.00796e-20)
(0.310521 -1.58681 -1.59851e-19)
(0.808471 -1.42713 1.3294e-19)
(1.44121 -1.24425 3.40331e-20)
(2.24921 -1.0402 -1.16468e-19)
(3.28935 -0.822325 4.18929e-20)
(4.63986 -0.60829 0)
(6.39959 -0.434429 -2.74237e-20)
(8.67648 -0.36543 0)
(11.5257 -0.497384 3.93762e-20)
(0.276859 -2.3163 8.39671e-20)
(0.00285736 -2.29571 -9.37041e-20)
(-0.236614 -2.27719 -6.98277e-20)
(-0.440303 -2.2579 -2.4864e-20)
(-0.607843 -2.23572 4.77198e-21)
(-0.738657 -2.2091 -3.07116e-19)
(-0.831771 -2.17656 3.14767e-19)
(-0.885586 -2.13663 -1.09203e-19)
(-0.897755 -2.0877 2.19574e-19)
(-0.865056 -2.02813 -2.81202e-19)
(-0.783275 -1.9562 0)
(-0.646971 -1.8702 0)
(-0.449478 -1.76866 -6.22109e-20)
(-0.182487 -1.6505 1.87925e-19)
(0.165451 -1.51458 -2.53726e-19)
(0.610131 -1.36011 0)
(1.17299 -1.18704 1.04723e-19)
(1.88308 -0.997129 -1.83985e-19)
(2.77885 -0.795626 1.18473e-19)
(3.91095 -0.59355 0)
(5.34297 -0.411706 0)
(7.14703 -0.285292 0)
(9.39127 -0.268523 6.95901e-20)
(12.0968 -0.430811 -6.58484e-19)
(0.265102 -2.30276 8.66361e-20)
(0.0131262 -2.2782 9.14272e-20)
(-0.205583 -2.25316 -1.00049e-19)
(-0.391352 -2.2265 -5.30131e-20)
(-0.543472 -2.19608 -1.53526e-19)
(-0.660677 -2.1602 1.0828e-19)
(-0.741357 -2.11727 -1.87492e-21)
(-0.783263 -2.0658 5.70063e-20)
(-0.783328 -2.00434 -2.24691e-19)
(-0.737563 -1.93139 1.62782e-21)
(-0.64103 -1.84553 1.25286e-21)
(-0.487754 -1.74561 2.41977e-19)
(-0.270508 -1.63078 -2.51447e-19)
(0.0201142 -1.50041 3.1989e-19)
(0.396678 -1.35405 0)
(0.876095 -1.19166 0)
(1.48017 -1.01437 -3.85287e-20)
(2.23722 -0.825512 3.84144e-20)
(3.18401 -0.631867 -6.22169e-20)
(4.3663 -0.445807 -2.32369e-20)
(5.83838 -0.28828 -5.49449e-20)
(7.6597 -0.191997 0)
(9.88225 -0.203443 -6.76055e-20)
(12.5177 -0.377611 -8.09742e-20)
(0.259922 -2.27061 -8.79154e-20)
(0.0312497 -2.24707 9.52667e-20)
(-0.167142 -2.21946 1.23443e-19)
(-0.335483 -2.18764 1.80692e-19)
(-0.472672 -2.15106 0)
(-0.57666 -2.10834 -1.61138e-19)
(-0.645367 -2.05785 -5.63697e-20)
(-0.676151 -1.99819 5.76397e-20)
(-0.665448 -1.92814 0)
(-0.608702 -1.84638 5.74637e-20)
(-0.500593 -1.75176 -5.94012e-20)
(-0.334754 -1.64343 -1.24184e-19)
(-0.103549 -1.52087 1.89772e-19)
(0.203427 -1.3837 -1.31592e-19)
(0.599287 -1.23198 0)
(1.10164 -1.06642 0)
(1.73262 -0.888623 0)
(2.51966 -0.702843 7.98236e-20)
(3.4981 -0.516905 -9.15405e-20)
(4.71129 -0.343247 1.26619e-19)
(6.20795 -0.202059 1.40415e-19)
(8.0399 -0.124023 0)
(10.2502 -0.150978 0)
(12.8451 -0.330858 7.89145e-20)
(0.25571 -2.24204 4.59047e-20)
(0.0536584 -2.21474 -4.97742e-20)
(-0.124392 -2.18267 0)
(-0.276056 -2.14627 3.51034e-21)
(-0.399382 -2.10493 -1.1728e-21)
(-0.491128 -2.05739 1.64634e-19)
(-0.548845 -2.00165 -5.77444e-20)
(-0.569744 -1.93643 5.8266e-20)
(-0.549972 -1.86078 -6.72089e-22)
(-0.484387 -1.77358 -1.82399e-19)
(-0.367409 -1.6738 6.34098e-20)
(-0.192222 -1.56071 6.4876e-20)
(0.0490132 -1.43381 0)
(0.367583 -1.29289 -1.38973e-19)
(0.776422 -1.13839 1.40883e-19)
(1.29431 -0.971994 -9.13202e-22)
(1.94392 -0.795099 1.60903e-21)
(2.75086 -0.612287 -8.40933e-20)
(3.75013 -0.432943 9.06618e-20)
(4.98511 -0.269046 -8.71489e-20)
(6.50025 -0.138566 -2.99612e-19)
(8.34189 -0.0711098 -6.67152e-20)
(10.5465 -0.106939 0)
(13.117 -0.290667 3.30454e-19)
(0.264492 -2.21835 -1.42747e-21)
(0.0823865 -2.18101 -5.12167e-20)
(-0.0781653 -2.14484 0)
(-0.214726 -2.10454 -2.44146e-20)
(-0.326186 -2.0595 2.64528e-20)
(-0.407169 -2.00878 6.75805e-22)
(-0.455038 -1.94962 -1.71465e-19)
(-0.46736 -1.88064 1.17419e-19)
(-0.440523 -1.80141 0)
(-0.368196 -1.71116 6.02808e-20)
(-0.245158 -1.60877 -2.52289e-19)
(-0.0629564 -1.49356 1.3176e-19)
(0.18489 -1.36474 6.79703e-20)
(0.51191 -1.22252 -7.11413e-20)
(0.928355 -1.06637 1.44187e-19)
(1.45546 -0.900416 -2.01828e-21)
(2.11838 -0.725374 7.97492e-20)
(2.93816 -0.544295 -8.60582e-20)
(3.94879 -0.369793 0)
(5.20047 -0.214763 0)
(6.73101 -0.0916629 5.45509e-20)
(8.57921 -0.0286918 3.18789e-19)
(10.7765 -0.0675219 -1.3875e-19)
(13.3271 -0.253016 0)
(0.281441 -2.1832 -9.76259e-20)
(0.115679 -2.14463 5.0733e-20)
(-0.0294008 -2.1074 0)
(-0.152279 -2.06389 -5.3394e-20)
(-0.254987 -2.01571 0)
(-0.327469 -1.96297 5.65082e-20)
(-0.366932 -1.90161 -4.19076e-22)
(-0.37169 -1.82987 -5.93736e-20)
(-0.338899 -1.74804 1.20976e-19)
(-0.261093 -1.65634 -6.32568e-20)
(-0.132858 -1.55284 0)
(0.0563032 -1.43778 -6.44054e-20)
(0.311013 -1.30823 -6.65587e-20)
(0.649999 -1.16879 7.05674e-20)
(1.07479 -1.01212 -3.92574e-22)
(1.60788 -0.845606 0)
(2.28814 -0.6753 8.0822e-20)
(3.12103 -0.497976 0)
(4.13578 -0.324586 0)
(5.40007 -0.178508 1.05123e-19)
(6.95365 -0.0578759 0)
(8.82741 0.0066884 0)
(11.0248 -0.0328062 0)
(13.5569 -0.225222 0)
(0.289682 -2.1525 0)
(0.141695 -2.10842 -7.00085e-20)
(0.0145031 -2.0706 2.65548e-20)
(-0.0890075 -2.02411 -1.39481e-20)
(-0.182825 -1.97374 -5.85351e-20)
(-0.245654 -1.92004 -3.12265e-22)
(-0.278461 -1.85756 5.81355e-20)
(-0.280448 -1.7852 -5.77129e-20)
(-0.250895 -1.6989 -5.9725e-20)
(-0.170979 -1.60937 6.00367e-20)
(-0.054161 -1.50071 -6.40085e-20)
(0.137732 -1.39265 6.79912e-20)
(0.370255 -1.25475 0)
(0.70811 -1.12328 0)
(1.1263 -0.970399 -6.92368e-20)
(1.64805 -0.791138 -3.59523e-20)
(2.31853 -0.616732 1.26547e-19)
(3.16547 -0.462765 2.13865e-20)
(4.18314 -0.269633 7.52988e-20)
(5.48511 -0.139159 -8.21886e-21)
(7.03956 -0.0288555 1.37323e-20)
(8.86643 0.0528703 6.83706e-20)
(11.0217 0.0509374 2.0065e-19)
(13.5594 -0.145096 1.6756e-20)
(14.6006 -1.4594 -7.4827e-20)
(18.1932 -2.33451 -2.71995e-18)
(19.5965 -2.66884 4.81813e-18)
(20.3054 -2.7878 -2.07682e-18)
(20.7988 -2.85432 6.00271e-20)
(21.1604 -2.89458 -5.81281e-20)
(21.4277 -2.91579 -3.28415e-18)
(21.6219 -2.92234 2.89768e-18)
(21.7564 -2.91741 -2.96876e-18)
(21.8409 -2.90313 2.74924e-18)
(21.8838 -2.88129 8.49051e-20)
(21.8937 -2.85343 -2.573e-18)
(21.8782 -2.8211 2.41739e-18)
(21.8435 -2.7854 -1.50293e-19)
(21.7943 -2.74733 0)
(21.7342 -2.70748 -2.12114e-18)
(21.6659 -2.66638 2.1676e-18)
(21.5914 -2.62428 -3.02118e-21)
(21.5124 -2.58146 0)
(21.43 -2.53803 0)
(21.345 -2.49419 5.23152e-19)
(21.2585 -2.44971 0)
(21.1711 -2.40321 -1.53673e-18)
(21.0818 -2.36814 1.47936e-18)
(14.5037 -1.09619 9.03639e-19)
(18.2202 -1.93723 0)
(20.0789 -2.38903 0)
(20.7988 -2.52036 2.03472e-18)
(21.2317 -2.58753 -1.85609e-18)
(21.5313 -2.63194 1.71715e-18)
(21.737 -2.66011 -1.56296e-18)
(21.8714 -2.67537 9.45041e-20)
(21.9501 -2.68004 9.10231e-20)
(21.9855 -2.67605 2.78488e-18)
(21.9881 -2.66507 -5.44407e-18)
(21.9667 -2.64866 5.09023e-18)
(21.9279 -2.62804 -2.43456e-18)
(21.8765 -2.60421 -2.42566e-18)
(21.8162 -2.57788 2.45991e-18)
(21.7494 -2.54963 -2.173e-18)
(21.6778 -2.51983 -4.78974e-20)
(21.6028 -2.48877 3.88298e-18)
(21.5252 -2.45666 -2.17095e-18)
(21.4458 -2.42366 -2.71598e-19)
(21.3651 -2.38997 0)
(21.2835 -2.35524 -5.33533e-19)
(21.2015 -2.31914 5.28604e-19)
(21.1184 -2.28997 0)
(14.8362 -0.935983 0)
(18.2347 -1.65667 -1.95594e-18)
(20.3327 -2.17487 2.04216e-18)
(21.093 -2.33521 0)
(21.473 -2.39837 0)
(21.7205 -2.43891 0)
(21.8794 -2.46565 0)
(21.9728 -2.48171 -1.55938e-18)
(22.0172 -2.48926 -1.26779e-19)
(22.0258 -2.49005 2.81011e-18)
(22.0089 -2.48543 -9.97012e-19)
(21.9739 -2.47665 1.64215e-19)
(21.9263 -2.46448 2.55545e-18)
(21.8698 -2.4496 -4.91961e-18)
(21.8072 -2.43245 4.65678e-18)
(21.7401 -2.4134 -2.62704e-18)
(21.6701 -2.39272 0)
(21.5979 -2.3706 -8.68687e-19)
(21.5241 -2.34724 1.40376e-18)
(21.4494 -2.32276 1.69253e-18)
(21.3739 -2.29731 -1.10419e-18)
(21.2979 -2.27065 1.67104e-18)
(21.2219 -2.24264 -1.64246e-18)
(21.1452 -2.2179 0)
(15.1942 -0.833685 1.41692e-18)
(18.3479 -1.46799 -6.92458e-20)
(20.5108 -2.00139 -9.72794e-19)
(21.3101 -2.18855 0)
(21.6432 -2.24968 1.17281e-19)
(21.8436 -2.28797 0)
(21.9621 -2.31392 0)
(22.0224 -2.33069 9.88392e-20)
(22.0415 -2.34029 0)
(22.032 -2.34429 0)
(22.003 -2.34389 2.54814e-21)
(21.9606 -2.34002 -1.65803e-19)
(21.9092 -2.3333 1.30802e-18)
(21.8514 -2.32418 -1.24903e-18)
(21.7893 -2.31302 0)
(21.7242 -2.30011 1.50812e-19)
(21.6571 -2.28565 0)
(21.5886 -2.26981 0)
(21.5191 -2.25273 -2.91128e-19)
(21.449 -2.23451 -1.45529e-18)
(21.3785 -2.21525 -1.8791e-20)
(21.3078 -2.19481 8.50405e-19)
(21.2371 -2.17313 0)
(21.166 -2.15301 8.52271e-19)
(15.4957 -0.761091 -2.63399e-21)
(18.4936 -1.34256 1.07112e-19)
(20.6423 -1.86611 -1.09606e-18)
(21.4648 -2.06975 8.3709e-19)
(21.7598 -2.12939 -1.99095e-18)
(21.9215 -2.16597 1.84349e-18)
(22.0082 -2.19145 -2.10225e-19)
(22.0436 -2.20891 1.01931e-19)
(22.0446 -2.22014 1.53855e-18)
(22.0226 -2.22651 -1.26377e-18)
(21.9856 -2.22907 -1.75339e-19)
(21.9386 -2.22857 1.71862e-19)
(21.885 -2.22553 0)
(21.827 -2.22033 0)
(21.766 -2.21328 1.27694e-18)
(21.7031 -2.20463 -2.48591e-18)
(21.6391 -2.19454 1.06069e-18)
(21.5743 -2.18319 1.37157e-18)
(21.509 -2.17069 -2.39917e-18)
(21.4435 -2.15714 -1.83916e-20)
(21.378 -2.14261 2.79316e-19)
(21.3125 -2.127 1.77342e-18)
(21.2471 -2.1103 -5.87259e-19)
(21.1812 -2.09436 -9.02478e-22)
(15.7462 -0.70266 9.09721e-20)
(18.6376 -1.25009 0)
(20.7429 -1.75699 -1.21938e-19)
(21.5701 -1.96974 1.19479e-19)
(21.8331 -2.02933 0)
(21.9635 -2.06515 -1.22542e-18)
(22.0257 -2.09065 1.04242e-18)
(22.0432 -2.10883 -2.00035e-19)
(22.0319 -2.12133 1.95254e-19)
(22.0019 -2.12945 1.32178e-18)
(21.9601 -2.1341 2.08297e-19)
(21.9106 -2.13597 -2.79436e-18)
(21.8562 -2.13552 1.17742e-18)
(21.7988 -2.13311 -1.33868e-18)
(21.7394 -2.12902 1.28918e-18)
(21.679 -2.12345 0)
(21.6179 -2.11657 1.56946e-19)
(21.5567 -2.10853 9.43179e-19)
(21.4954 -2.09948 -1.36803e-19)
(21.4344 -2.08949 -1.2205e-18)
(21.3736 -2.07861 4.0335e-21)
(21.3132 -2.0667 -6.12388e-19)
(21.2531 -2.05373 9.15009e-19)
(21.1928 -2.04136 -6.48338e-22)
(15.9658 -0.655179 -7.32997e-19)
(18.7769 -1.17911 4.09758e-19)
(20.8285 -1.66917 2.31226e-19)
(21.6435 -1.88567 -2.42907e-19)
(21.8775 -1.94574 0)
(21.9825 -1.98142 -6.79129e-19)
(22.0261 -2.00731 1.05862e-18)
(22.0309 -2.02617 -1.03238e-18)
(22.0111 -2.03962 -2.10234e-19)
(21.976 -2.04892 -1.36837e-20)
(21.9313 -2.05502 5.4665e-19)
(21.8807 -2.05853 1.92291e-21)
(21.8264 -2.05992 1.04974e-18)
(21.7699 -2.05953 -8.45431e-19)
(21.7124 -2.05758 -6.71448e-19)
(21.6543 -2.05423 6.50448e-19)
(21.5962 -2.04968 6.5104e-19)
(21.5381 -2.04412 -3.15376e-19)
(21.4805 -2.03769 1.58545e-19)
(21.4235 -2.03046 1.58445e-19)
(21.367 -2.02246 9.51472e-19)
(21.3113 -2.01354 -9.44403e-19)
(21.256 -2.00384 3.1873e-19)
(21.2006 -1.99594 -6.38227e-19)
(16.1375 -0.610793 -1.83757e-19)
(18.8871 -1.11387 -2.08996e-19)
(20.8884 -1.58778 2.33588e-19)
(21.6874 -1.80842 2.37679e-19)
(21.9008 -1.87341 2.35783e-19)
(21.9871 -1.91142 0)
(22.0175 -1.9383 3.1005e-21)
(22.0133 -1.95768 2.0558e-19)
(21.9878 -1.97157 0)
(21.9491 -1.9815 -7.79088e-19)
(21.9026 -1.98852 -2.0057e-19)
(21.8514 -1.99317 3.58418e-19)
(21.7973 -1.99584 3.60536e-19)
(21.742 -1.99693 -5.16552e-19)
(21.6863 -1.99654 8.57368e-19)
(21.6305 -1.99476 -6.66151e-19)
(21.5749 -1.9919 0)
(21.5197 -1.98824 6.61079e-19)
(21.4654 -1.98389 -8.113e-19)
(21.4119 -1.97886 4.91704e-19)
(21.3593 -1.97319 -4.83439e-19)
(21.3079 -1.96666 0)
(21.2568 -1.95926 -6.56355e-19)
(21.2057 -1.95409 3.34728e-19)
(16.3415 -0.584544 3.56449e-19)
(19.0412 -1.07655 2.02527e-19)
(20.966 -1.53307 -6.93423e-19)
(21.7262 -1.75392 4.74289e-19)
(21.9118 -1.81993 -2.32308e-19)
(21.9837 -1.8565 0)
(22.0046 -1.8823 -4.32488e-19)
(21.9943 -1.90082 0)
(21.9646 -1.91426 -2.0264e-19)
(21.9233 -1.92424 -7.87941e-19)
(21.8752 -1.9318 -1.37221e-20)
(21.8239 -1.93724 9.17972e-19)
(21.7703 -1.94087 9.07526e-19)
(21.716 -1.94329 -7.02464e-19)
(21.6623 -1.94422 -1.73165e-19)
(21.6085 -1.94349 0)
(21.5546 -1.94181 8.50433e-19)
(21.5016 -1.9396 -1.0025e-18)
(21.4498 -1.93694 -6.72247e-19)
(21.3994 -1.93366 6.62745e-19)
(21.3499 -1.92983 4.16955e-22)
(21.3024 -1.92491 -3.36818e-19)
(21.2551 -1.91885 3.35549e-19)
(21.2081 -1.91578 0)
(16.3328 -0.498866 -1.754e-19)
(19.0027 -0.956379 4.08429e-19)
(20.9282 -1.4181 -6.73741e-19)
(21.6891 -1.67003 2.45805e-19)
(21.9031 -1.7653 -2.37537e-19)
(21.9743 -1.81005 2.27269e-19)
(21.9904 -1.83566 -2.19628e-21)
(21.9758 -1.85314 -2.12977e-19)
(21.9425 -1.86532 8.12967e-19)
(21.8986 -1.87488 -7.99571e-19)
(21.8493 -1.88308 3.74462e-19)
(21.7982 -1.88933 7.49357e-19)
(21.744 -1.89347 0)
(21.6902 -1.89709 0)
(21.639 -1.89909 1.77104e-19)
(21.5862 -1.89837 0)
(21.5346 -1.89748 8.65249e-22)
(21.4841 -1.8967 1.73143e-19)
(21.4353 -1.89567 -1.74124e-19)
(21.3886 -1.89363 1.69125e-19)
(21.3423 -1.89107 4.44811e-22)
(21.3011 -1.8878 0)
(21.2559 -1.88199 5.25735e-19)
(21.2164 -1.88215 -7.1197e-19)
(0.649689 2.21073 -3.95108e-19)
(2.7 2.57637 -5.79718e-18)
(5.13196 3.55591 0)
(7.52081 4.83098 0)
(9.67522 6.1055 -4.57664e-20)
(11.6404 7.33613 1.18826e-18)
(13.4576 8.51125 -1.03948e-18)
(15.1286 9.59122 -7.89626e-19)
(16.639 10.5386 1.58611e-19)
(17.9735 11.3261 1.10871e-18)
(19.1195 11.9368 -4.93637e-19)
(20.0722 12.3621 -5.51492e-20)
(20.8348 12.6022 -5.06101e-20)
(21.4205 12.6667 0)
(21.8516 12.5751 0)
(22.1573 12.3538 1.48861e-19)
(22.3694 12.0332 -1.30369e-19)
(22.5192 11.6454 -1.83139e-19)
(22.6325 11.2191 6.87223e-20)
(22.7278 10.7768 -7.07612e-20)
(22.8155 10.3334 1.28456e-19)
(22.8995 9.89751 7.44337e-20)
(22.9803 9.47139 -5.20395e-20)
(23.0572 9.06023 4.99676e-20)
(-11.9786 1.73696 -1.26775e-17)
(-10.3609 1.74174 -1.87123e-19)
(-8.23135 1.86344 5.29328e-20)
(-5.89388 2.21089 1.31579e-19)
(-3.1684 2.71752 1.60148e-19)
(-0.181072 3.38642 1.86633e-20)
(2.93936 4.19892 2.11934e-20)
(6.07856 5.13131 1.20398e-18)
(9.10627 6.15255 -1.17403e-19)
(11.9295 7.21293 -6.82709e-19)
(14.4791 8.25176 -5.76651e-20)