# Forces     
# CofR       : (0.000000e+00 0.000000e+00 0.000000e+00)
# Time       forces(pressure viscous porous) moment(pressure viscous porous)
5.000000e+00	((-1.498578e+02 -4.117309e+02 1.233516e-17) (3.108155e-01 -1.028652e-01 -2.463382e-19) (0.000000e+00 0.000000e+00 0.000000e+00)) ((2.058654e+01 -7.492891e+00 -1.240447e+02) (5.143261e-03 1.554078e-02 2.811389e-03) (0.000000e+00 0.000000e+00 0.000000e+00))
1.000000e+01	((-3.001865e+01 -8.247553e+01 4.291684e-18) (2.442067e-01 -1.565411e-01 -1.200664e-19) (0.000000e+00 0.000000e+00 0.000000e+00)) ((4.123777e+00 -1.500933e+00 -4.020508e+01) (7.827054e-03 1.221033e-02 -1.822019e-02) (0.000000e+00 0.000000e+00 0.000000e+00))
1.500000e+01	((1.888853e+01 5.189579e+01 -1.096043e-18) (2.125738e-01 -1.020798e-01 4.402872e-20) (0.000000e+00 0.000000e+00 0.000000e+00)) ((-2.594790e+00 9.444265e-01 1.183867e+01) (5.103989e-03 1.062869e-02 -6.984173e-03) (0.000000e+00 0.000000e+00 0.000000e+00))
2.000000e+01	((7.313139e+00 2.009266e+01 2.044526e-18) (1.857907e-01 -7.200499e-02 -6.626408e-20) (0.000000e+00 0.000000e+00 0.000000e+00)) ((-1.004633e+00 3.656570e-01 1.687929e+00) (3.600250e-03 9.289535e-03 -1.444493e-03) (0.000000e+00 0.000000e+00 0.000000e+00))
2.500000e+01	((8.314613e+00 2.284420e+01 1.798995e-18) (1.631286e-01 -5.944979e-02 -4.408741e-20) (0.000000e+00 0.000000e+00 0.000000e+00)) ((-1.142210e+00 4.157306e-01 -1.851255e+00) (2.972490e-03 8.156429e-03 -3.126315e-04) (0.000000e+00 0.000000e+00 0.000000e+00))
3.000000e+01	((1.358392e+01 3.732149e+01 1.755257e-18) (1.412185e-01 -5.085251e-02 -4.162713e-20) (0.000000e+00 0.000000e+00 0.000000e+00)) ((-1.866075e+00 6.791959e-01 2.789778e+00) (2.542625e-03 7.060927e-03 -5.402295e-05) (0.000000e+00 0.000000e+00 0.000000e+00))
3.500000e+01	((1.275836e+01 3.505329e+01 1.814993e-18) (1.198085e-01 -4.322002e-02 -7.500503e-20) (0.000000e+00 0.000000e+00 0.000000e+00)) ((-1.752664e+00 6.379179e-01 2.796809e+00) (2.161001e-03 5.990426e-03 1.942336e-05) (0.000000e+00 0.000000e+00 0.000000e+00))
4.000000e+01	((1.353441e+01 3.718547e+01 1.892804e-18) (9.976764e-02 -3.613524e-02 -8.829078e-20) (0.000000e+00 0.000000e+00 0.000000e+00)) ((-1.859274e+00 6.767205e-01 2.030963e+00) (1.806762e-03 4.988382e-03 -2.044620e-05) (0.000000e+00 0.000000e+00 0.000000e+00))
4.500000e+01	((1.463893e+01 4.022013e+01 1.994994e-18) (8.067574e-02 -2.915371e-02 -1.256172e-19) (0.000000e+00 0.000000e+00 0.000000e+00)) ((-2.011006e+00 7.319467e-01 2.768794e+00) (1.457686e-03 4.033787e-03 -3.595100e-05) (0.000000e+00 0.000000e+00 0.000000e+00))
5.000000e+01	((1.458499e+01 4.007193e+01 1.625887e-18) (6.350204e-02 -2.291510e-02 -9.591930e-20) (0.000000e+00 0.000000e+00 0.000000e+00)) ((-2.003596e+00 7.292496e-01 2.467626e+00) (1.145755e-03 3.175102e-03 -3.399898e-05) (0.000000e+00 0.000000e+00 0.000000e+00))
5.500000e+01	((1.528204e+01 4.198705e+01 1.119617e-18) (4.805236e-02 -1.724946e-02 -3.527222e-20) (0.000000e+00 0.000000e+00 0.000000e+00)) ((-2.099352e+00 7.641019e-01 2.572923e+00) (8.624728e-04 2.402618e-03 -5.140228e-05) (0.000000e+00 0.000000e+00 0.000000e+00))
6.000000e+01	((1.534584e+01 4.216236e+01 8.073836e-19) (3.393892e-02 -1.205276e-02 2.361093e-20) (0.000000e+00 0.000000e+00 0.000000e+00)) ((-2.108118e+00 7.672922e-01 2.524423e+00) (6.026381e-04 1.696946e-03 -6.898865e-05) (0.000000e+00 0.000000e+00 0.000000e+00))
6.500000e+01	((1.560735e+01 4.288084e+01 2.660634e-19) (2.169746e-02 -7.615796e-03 3.300399e-20) (0.000000e+00 0.000000e+00 0.000000e+00)) ((-2.144042e+00 7.803676e-01 2.622034e+00) (3.807898e-04 1.084873e-03 -8.675480e-05) (0.000000e+00 0.000000e+00 0.000000e+00))
7.000000e+01	((1.579368e+01 4.339278e+01 -2.533636e-19) (1.139446e-02 -3.881468e-03 4.544858e-20) (0.000000e+00 0.000000e+00 0.000000e+00)) ((-2.169639e+00 7.896840e-01 2.737384e+00) (1.940734e-04 5.697231e-04 -1.033266e-04) (0.000000e+00 0.000000e+00 0.000000e+00))
7.500000e+01	((1.597424e+01 4.388886e+01 -9.153050e-19) (3.129066e-03 -9.171674e-04 6.999362e-20) (0.000000e+00 0.000000e+00 0.000000e+00)) ((-2.194443e+00 7.987119e-01 2.956365e+00) (4.585837e-05 1.564533e-04 -1.142583e-04) (0.000000e+00 0.000000e+00 0.000000e+00))
8.000000e+01	((1.618526e+01 4.446863e+01 -1.372600e-18) (-3.544341e-03 1.477804e-03 9.211255e-20) (0.000000e+00 0.000000e+00 0.000000e+00)) ((-2.223431e+00 8.092629e-01 3.280697e+00) (-7.389021e-05 -1.772171e-04 -1.145355e-04) (0.000000e+00 0.000000e+00 0.000000e+00))
8.500000e+01	((1.637095e+01 4.497882e+01 -1.624037e-18) (-8.601566e-03 3.301538e-03 1.073927e-19) (0.000000e+00 0.000000e+00 0.000000e+00)) ((-2.248941e+00 8.185477e-01 3.690922e+00) (-1.650769e-04 -4.300783e-04 -1.199032e-04) (0.000000e+00 0.000000e+00 0.000000e+00))
9.000000e+01	((1.665046e+01 4.574676e+01 -1.726996e-18) (-1.253115e-02 4.727303e-03 1.184179e-19) (0.000000e+00 0.000000e+00 0.000000e+00)) ((-2.287338e+00 8.325231e-01 4.284830e+00) (-2.363651e-04 -6.265577e-04 -1.241604e-04) (0.000000e+00 0.000000e+00 0.000000e+00))
9.500000e+01	((1.693954e+01 4.654101e+01 -1.911620e-18) (-1.573975e-02 5.888880e-03 1.271963e-19) (0.000000e+00 0.000000e+00 0.000000e+00)) ((-2.327050e+00 8.469771e-01 4.987835e+00) (-2.944440e-04 -7.869877e-04 -1.271117e-04) (0.000000e+00 0.000000e+00 0.000000e+00))
1.000000e+02	((1.731886e+01 4.758316e+01 -2.177378e-18) (-1.830559e-02 6.813092e-03 1.338898e-19) (0.000000e+00 0.000000e+00 0.000000e+00)) ((-2.379158e+00 8.659428e-01 5.811452e+00) (-3.406546e-04 -9.152797e-04 -1.315485e-04) (0.000000e+00 0.000000e+00 0.000000e+00))
1.050000e+02	((1.769004e+01 4.860298e+01 -2.500141e-18) (-2.031366e-02 7.540177e-03 1.355400e-19) (0.000000e+00 0.000000e+00 0.000000e+00)) ((-2.430149e+00 8.845020e-01 6.716934e+00) (-3.770088e-04 -1.015683e-03 -1.370755e-04) (0.000000e+00 0.000000e+00 0.000000e+00))
1.100000e+02	((1.804828e+01 4.958723e+01 -2.837874e-18) (-2.172196e-02 8.050241e-03 1.354685e-19) (0.000000e+00 0.000000e+00 0.000000e+00)) ((-2.479362e+00 9.024139e-01 7.724691e+00) (-4.025120e-04 -1.086098e-03 -1.454500e-04) (0.000000e+00 0.000000e+00 0.000000e+00))
1.150000e+02	((1.832768e+01 5.035489e+01 -2.932898e-18) (-2.238125e-02 8.307604e-03 1.244554e-19) (0.000000e+00 0.000000e+00 0.000000e+00)) ((-2.517744e+00 9.163841e-01 8.612390e+00) (-4.153802e-04 -1.119063e-03 -1.467176e-04) (0.000000e+00 0.000000e+00 0.000000e+00))
1.200000e+02	((1.840968e+01 5.058019e+01 -2.908231e-18) (-2.196244e-02 8.147852e-03 1.105457e-19) (0.000000e+00 0.000000e+00 0.000000e+00)) ((-2.529009e+00 9.204842e-01 9.388140e+00) (-4.073926e-04 -1.098122e-03 -1.514097e-04) (0.000000e+00 0.000000e+00 0.000000e+00))
1.250000e+02	((1.837697e+01 5.049032e+01 -3.008719e-18) (-2.002553e-02 7.459746e-03 9.997655e-20) (0.000000e+00 0.000000e+00 0.000000e+00)) ((-2.524516e+00 9.188487e-01 1.006599e+01) (-3.729873e-04 -1.001277e-03 -1.488457e-04) (0.000000e+00 0.000000e+00 0.000000e+00))
1.300000e+02	((1.801476e+01 4.949515e+01 -2.719812e-18) (-1.629689e-02 6.101708e-03 8.190451e-20) (0.000000e+00 0.000000e+00 0.000000e+00)) ((-2.474757e+00 9.007381e-01 1.039524e+01) (-3.050854e-04 -8.148443e-04 -1.410007e-04) (0.000000e+00 0.000000e+00 0.000000e+00))
1.350000e+02	((1.738439e+01 4.776322e+01 -2.477247e-18) (-1.013627e-02 3.879076e-03 6.562953e-20) (0.000000e+00 0.000000e+00 0.000000e+00)) ((-2.388161e+00 8.692196e-01 1.045919e+01) (-1.939538e-04 -5.068134e-04 -1.302378e-04) (0.000000e+00 0.000000e+00 0.000000e+00))
1.400000e+02	((1.632562e+01 4.485427e+01 -2.266502e-18) (-1.690457e-03 8.001546e-04 5.525219e-20) (0.000000e+00 0.000000e+00 0.000000e+00)) ((-2.242713e+00 8.162810e-01 1.011548e+01) (-4.000773e-05 -8.452284e-05 -1.237786e-04) (0.000000e+00 0.000000e+00 0.000000e+00))
1.450000e+02	((1.498490e+01 4.117067e+01 -1.895730e-18) (9.021000e-03 -3.092909e-03 3.872616e-20) (0.000000e+00 0.000000e+00 0.000000e+00)) ((-2.058533e+00 7.492450e-01 9.421205e+00) (1.546455e-04 4.510500e-04 -1.211764e-04) (0.000000e+00 0.000000e+00 0.000000e+00))
1.500000e+02	((1.336265e+01 3.671359e+01 -1.772346e-18) (2.149853e-02 -7.629622e-03 3.540638e-20) (0.000000e+00 0.000000e+00 0.000000e+00)) ((-1.835679e+00 6.681327e-01 8.457489e+00) (3.814811e-04 1.074926e-03 -1.151523e-04) (0.000000e+00 0.000000e+00 0.000000e+00))
1.550000e+02	((1.132095e+01 3.110405e+01 -1.466444e-18) (3.504597e-02 -1.255943e-02 2.333199e-20) (0.000000e+00 0.000000e+00 0.000000e+00)) ((-1.555202e+00 5.660475e-01 7.141528e+00) (6.279716e-04 1.752299e-03 -1.082306e-04) (0.000000e+00 0.000000e+00 0.000000e+00))
1.600000e+02	((9.139594e+00 2.511082e+01 -1.226102e-18) (4.905014e-02 -1.765714e-02 1.404115e-20) (0.000000e+00 0.000000e+00 0.000000e+00)) ((-1.255541e+00 4.569797e-01 5.677545e+00) (8.828571e-04 2.452507e-03 -1.022120e-04) (0.000000e+00 0.000000e+00 0.000000e+00))
1.650000e+02	((7.009328e+00 1.925797e+01 -1.073947e-18) (6.258847e-02 -2.257572e-02 7.827842e-21) (0.000000e+00 0.000000e+00 0.000000e+00)) ((-9.628984e-01 3.504664e-01 4.216449e+00) (1.128786e-03 3.129424e-03 -1.016478e-04) (0.000000e+00 0.000000e+00 0.000000e+00))
1.700000e+02	((5.079699e+00 1.395636e+01 -1.014413e-18) (7.462511e-02 -2.698635e-02 7.252899e-21) (0.000000e+00 0.000000e+00 0.000000e+00)) ((-6.978179e-01 2.539850e-01 2.881550e+00) (1.349317e-03 3.731255e-03 -9.627108e-05) (0.000000e+00 0.000000e+00 0.000000e+00))
1.750000e+02	((3.457391e+00 9.499104e+00 -1.046418e-18) (8.433390e-02 -3.053760e-02 1.059830e-20) (0.000000e+00 0.000000e+00 0.000000e+00)) ((-4.749552e-01 1.728696e-01 1.780600e+00) (1.526880e-03 4.216695e-03 -9.178651e-05) (0.000000e+00 0.000000e+00 0.000000e+00))
1.800000e+02	((2.370121e+00 6.511855e+00 -1.000274e-18) (9.098190e-02 -3.299617e-02 1.213658e-20) (0.000000e+00 0.000000e+00 0.000000e+00)) ((-3.255928e-01 1.185061e-01 1.055824e+00) (1.649809e-03 4.549095e-03 -8.490762e-05) (0.000000e+00 0.000000e+00 0.000000e+00))
1.850000e+02	((1.790538e+00 4.919465e+00 -1.215648e-18) (9.449211e-02 -3.425667e-02 2.511262e-20) (0.000000e+00 0.000000e+00 0.000000e+00)) ((-2.459732e-01 8.952692e-02 7.294969e-01) (1.712834e-03 4.724605e-03 -8.090286e-05) (0.000000e+00 0.000000e+00 0.000000e+00))
1.900000e+02	((2.072148e+00 5.693179e+00 -1.368066e-18) (9.437588e-02 -3.413556e-02 3.447790e-20) (0.000000e+00 0.000000e+00 0.000000e+00)) ((-2.846590e-01 1.036074e-01 1.036762e+00) (1.706778e-03 4.718794e-03 -8.564717e-05) (0.000000e+00 0.000000e+00 0.000000e+00))
1.950000e+02	((3.041191e+00 8.355603e+00 -1.427279e-18) (9.196157e-02 -3.319561e-02 3.930363e-20) (0.000000e+00 0.000000e+00 0.000000e+00)) ((-4.177802e-01 1.520596e-01 1.920977e+00) (1.659780e-03 4.598079e-03 -8.608476e-05) (0.000000e+00 0.000000e+00 0.000000e+00))
2.000000e+02	((4.425656e+00 1.215939e+01 -1.318930e-18) (8.928948e-02 -3.217524e-02 4.569878e-20) (0.000000e+00 0.000000e+00 0.000000e+00)) ((-6.079694e-01 2.212828e-01 3.013418e+00) (1.608762e-03 4.464474e-03 -8.691165e-05) (0.000000e+00 0.000000e+00 0.000000e+00))
2.050000e+02	((5.371684e+00 1.475858e+01 -1.002248e-18) (8.892120e-02 -3.205368e-02 5.157181e-20) (0.000000e+00 0.000000e+00 0.000000e+00)) ((-7.379288e-01 2.685842e-01 3.526907e+00) (1.602684e-03 4.446060e-03 -1.152772e-04) (0.000000e+00 0.000000e+00 0.000000e+00))
2.100000e+02	((5.631216e+00 1.547163e+01 -2.880713e-19) (9.180513e-02 -3.309991e-02 1.333702e-20) (0.000000e+00 0.000000e+00 0.000000e+00)) ((-7.735816e-01 2.815608e-01 3.235382e+00) (1.654996e-03 4.590257e-03 -1.221277e-04) (0.000000e+00 0.000000e+00 0.000000e+00))
2.150000e+02	((5.388677e+00 1.480526e+01 8.845914e-20) (9.646708e-02 -3.479227e-02 -7.886201e-21) (0.000000e+00 0.000000e+00 0.000000e+00)) ((-7.402630e-01 2.694338e-01 2.520391e+00) (1.739613e-03 4.823354e-03 -1.016908e-04) (0.000000e+00 0.000000e+00 0.000000e+00))
2.200000e+02	((5.426665e+00 1.490963e+01 1.972371e-19) (1.009606e-01 -3.642745e-02 -1.765834e-20) (0.000000e+00 0.000000e+00 0.000000e+00)) ((-7.454815e-01 2.713332e-01 2.074788e+00) (1.821372e-03 5.048029e-03 -8.751789e-05) (0.000000e+00 0.000000e+00 0.000000e+00))
2.250000e+02	((5.369448e+00 1.475243e+01 3.529306e-19) (1.038284e-01 -3.751764e-02 -2.683794e-20) (0.000000e+00 0.000000e+00 0.000000e+00)) ((-7.376215e-01 2.684724e-01 1.585084e+00) (1.875882e-03 5.191418e-03 -7.586384e-05) (0.000000e+00 0.000000e+00 0.000000e+00))
2.300000e+02	((5.418079e+00 1.488604e+01 4.164463e-19) (1.048142e-01 -3.792555e-02 -3.075919e-20) (0.000000e+00 0.000000e+00 0.000000e+00)) ((-7.443021e-01 2.709039e-01 1.271923e+00) (1.896278e-03 5.240710e-03 -6.488362e-05) (0.000000e+00 0.000000e+00 0.000000e+00))
2.350000e+02	((5.585108e+00 1.534495e+01 4.238257e-19) (1.042069e-01 -3.773622e-02 -2.295405e-20) (0.000000e+00 0.000000e+00 0.000000e+00)) ((-7.672476e-01 2.792554e-01 1.052730e+00) (1.886811e-03 5.210346e-03 -6.679845e-05) (0.000000e+00 0.000000e+00 0.000000e+00))
2.400000e+02	((5.932744e+00 1.630007e+01 3.698455e-19) (1.016837e-01 -3.681745e-02 -1.919363e-20) (0.000000e+00 0.000000e+00 0.000000e+00)) ((-8.150037e-01 2.966372e-01 1.009092e+00) (1.840873e-03 5.084183e-03 -7.080531e-05) (0.000000e+00 0.000000e+00 0.000000e+00))
2.450000e+02	((6.388582e+00 1.755248e+01 2.654325e-19) (9.770595e-02 -3.534425e-02 -1.684232e-20) (0.000000e+00 0.000000e+00 0.000000e+00)) ((-8.776240e-01 3.194291e-01 1.034661e+00) (1.767213e-03 4.885297e-03 -8.151305e-05) (0.000000e+00 0.000000e+00 0.000000e+00))
2.500000e+02	((7.016856e+00 1.927865e+01 9.706837e-20) (9.244471e-02 -3.341597e-02 -1.007764e-20) (0.000000e+00 0.000000e+00 0.000000e+00)) ((-9.639324e-01 3.508428e-01 1.188700e+00) (1.670799e-03 4.622235e-03 -8.707175e-05) (0.000000e+00 0.000000e+00 0.000000e+00))
2.550000e+02	((7.669631e+00 2.107213e+01 -1.013129e-19) (8.648961e-02 -3.121985e-02 -2.411216e-21) (0.000000e+00 0.000000e+00 0.000000e+00)) ((-1.053607e+00 3.834815e-01 1.389412e+00) (1.560992e-03 4.324480e-03 -9.011308e-05) (0.000000e+00 0.000000e+00 0.000000e+00))
2.600000e+02	((8.309201e+00 2.282934e+01 -3.870080e-19) (8.021335e-02 -2.892077e-02 1.626347e-20) (0.000000e+00 0.000000e+00 0.000000e+00)) ((-1.141467e+00 4.154600e-01 1.646365e+00) (1.446038e-03 4.010667e-03 -8.903619e-05) (0.000000e+00 0.000000e+00 0.000000e+00))
2.650000e+02	((9.067756e+00 2.491345e+01 -5.943459e-19) (7.402993e-02 -2.664034e-02 3.186310e-20) (0.000000e+00 0.000000e+00 0.000000e+00)) ((-1.245673e+00 4.533878e-01 1.998682e+00) (1.332017e-03 3.701497e-03 -8.694974e-05) (0.000000e+00 0.000000e+00 0.000000e+00))
2.700000e+02	((9.731433e+00 2.673689e+01 -8.153347e-19) (6.830585e-02 -2.455507e-02 5.007512e-20) (0.000000e+00 0.000000e+00 0.000000e+00)) ((-1.336844e+00 4.865716e-01 2.348625e+00) (1.227754e-03 3.415293e-03 -8.451592e-05) (0.000000e+00 0.000000e+00 0.000000e+00))
2.750000e+02	((1.039717e+01 2.856600e+01 -9.019643e-19) (6.291648e-02 -2.258695e-02 5.717109e-20) (0.000000e+00 0.000000e+00 0.000000e+00)) ((-1.428300e+00 5.198587e-01 2.732196e+00) (1.129348e-03 3.145824e-03 -8.455794e-05) (0.000000e+00 0.000000e+00 0.000000e+00))
2.800000e+02	((1.110284e+01 3.050478e+01 -1.054548e-18) (5.795119e-02 -2.078462e-02 7.089479e-20) (0.000000e+00 0.000000e+00 0.000000e+00)) ((-1.525239e+00 5.551418e-01 3.186654e+00) (1.039231e-03 2.897559e-03 -8.419818e-05) (0.000000e+00 0.000000e+00 0.000000e+00))
2.850000e+02	((1.185681e+01 3.257632e+01 -1.106966e-18) (5.322167e-02 -1.905229e-02 8.100305e-20) (0.000000e+00 0.000000e+00 0.000000e+00)) ((-1.628816e+00 5.928406e-01 3.698329e+00) (9.526143e-04 2.661083e-03 -8.486103e-05) (0.000000e+00 0.000000e+00 0.000000e+00))
2.900000e+02	((1.245487e+01 3.421946e+01 -1.236257e-18) (4.864725e-02 -1.740495e-02 8.560534e-20) (0.000000e+00 0.000000e+00 0.000000e+00)) ((-1.710973e+00 6.227433e-01 4.165730e+00) (8.702473e-04 2.432362e-03 -8.373903e-05) (0.000000e+00 0.000000e+00 0.000000e+00))
2.950000e+02	((1.308967e+01 3.596356e+01 -1.318238e-18) (4.393806e-02 -1.570598e-02 8.406004e-20) (0.000000e+00 0.000000e+00 0.000000e+00)) ((-1.798178e+00 6.544834e-01 4.697725e+00) (7.852988e-04 2.196903e-03 -8.734998e-05) (0.000000e+00 0.000000e+00 0.000000e+00))
3.000000e+02	((1.372613e+01 3.771223e+01 -1.537663e-18) (3.932961e-02 -1.404664e-02 8.455377e-20) (0.000000e+00 0.000000e+00 0.000000e+00)) ((-1.885611e+00 6.863065e-01 5.282078e+00) (7.023320e-04 1.966480e-03 -9.390402e-05) (0.000000e+00 0.000000e+00 0.000000e+00))
3.050000e+02	((1.428406e+01 3.924511e+01 -1.656062e-18) (3.468633e-02 -1.237338e-02 8.046725e-20) (0.000000e+00 0.000000e+00 0.000000e+00)) ((-1.962256e+00 7.142028e-01 5.862390e+00) (6.186690e-04 1.734317e-03 -1.036941e-04) (0.000000e+00 0.000000e+00 0.000000e+00))
3.100000e+02	((1.469215e+01 4.036636e+01 -1.803426e-18) (3.034368e-02 -1.082377e-02 7.910289e-20) (0.000000e+00 0.000000e+00 0.000000e+00)) ((-2.018318e+00 7.346077e-01 6.362921e+00) (5.411886e-04 1.517184e-03 -1.160561e-04) (0.000000e+00 0.000000e+00 0.000000e+00))
3.150000e+02	((1.507706e+01 4.142388e+01 -1.907828e-18) (2.644397e-02 -9.418361e-03 7.626404e-20) (0.000000e+00 0.000000e+00 0.000000e+00)) ((-2.071194e+00 7.538530e-01 6.873714e+00) (4.709180e-04 1.322198e-03 -1.227187e-04) (0.000000e+00 0.000000e+00 0.000000e+00))
3.200000e+02	((1.533049e+01 4.212018e+01 -1.937090e-18) (2.329764e-02 -8.282406e-03 7.277766e-20) (0.000000e+00 0.000000e+00 0.000000e+00)) ((-2.106009e+00 7.665247e-01 7.329124e+00) (4.141203e-04 1.164882e-03 -1.243868e-04) (0.000000e+00 0.000000e+00 0.000000e+00))
3.250000e+02	((1.542545e+01 4.238106e+01 -1.898307e-18) (2.116039e-02 -7.506257e-03 6.635598e-20) (0.000000e+00 0.000000e+00 0.000000e+00)) ((-2.119053e+00 7.712724e-01 7.676699e+00) (3.753128e-04 1.058019e-03 -1.243645e-04) (0.000000e+00 0.000000e+00 0.000000e+00))
3.300000e+02	((1.537096e+01 4.223135e+01 -1.808960e-18) (2.033298e-02 -7.207668e-03 5.990228e-20) (0.000000e+00 0.000000e+00 0.000000e+00)) ((-2.111568e+00 7.685478e-01 7.917319e+00) (3.603834e-04 1.016649e-03 -1.220789e-04) (0.000000e+00 0.000000e+00 0.000000e+00))
3.350000e+02	((1.513716e+01 4.158899e+01 -1.750780e-18) (2.104466e-02 -7.460062e-03 5.358203e-20) (0.000000e+00 0.000000e+00 0.000000e+00)) ((-2.079450e+00 7.568579e-01 8.030125e+00) (3.730031e-04 1.052233e-03 -1.182254e-04) (0.000000e+00 0.000000e+00 0.000000e+00))
3.400000e+02	((1.471530e+01 4.042995e+01 -1.752358e-18) (2.332750e-02 -8.288493e-03 5.150184e-20) (0.000000e+00 0.000000e+00 0.000000e+00)) ((-2.021497e+00 7.357650e-01 7.996637e+00) (4.144246e-04 1.166375e-03 -1.114038e-04) (0.000000e+00 0.000000e+00 0.000000e+00))
3.450000e+02	((1.407898e+01 3.868166e+01 -1.684657e-18) (2.721267e-02 -9.693900e-03 4.612971e-20) (0.000000e+00 0.000000e+00 0.000000e+00)) ((-1.934083e+00 7.039488e-01 7.792489e+00) (4.846950e-04 1.360634e-03 -1.068946e-04) (0.000000e+00 0.000000e+00 0.000000e+00))
3.500000e+02	((1.319941e+01 3.626508e+01 -1.497904e-18) (3.257905e-02 -1.164180e-02 3.773763e-20) (0.000000e+00 0.000000e+00 0.000000e+00)) ((-1.813254e+00 6.599706e-01 7.394574e+00) (5.820898e-04 1.628952e-03 -9.852170e-05) (0.000000e+00 0.000000e+00 0.000000e+00))
3.550000e+02	((1.218933e+01 3.348990e+01 -1.427148e-18) (3.925987e-02 -1.407275e-02 3.429320e-20) (0.000000e+00 0.000000e+00 0.000000e+00)) ((-1.674495e+00 6.094665e-01 6.857618e+00) (7.036376e-04 1.962993e-03 -1.027540e-04) (0.000000e+00 0.000000e+00 0.000000e+00))
3.600000e+02	((1.102931e+01 3.030278e+01 -1.374923e-18) (4.697115e-02 -1.685861e-02 3.249988e-20) (0.000000e+00 0.000000e+00 0.000000e+00)) ((-1.515139e+00 5.514656e-01 6.178913e+00) (8.429303e-04 2.348557e-03 -8.696672e-05) (0.000000e+00 0.000000e+00 0.000000e+00))
3.650000e+02	((9.711521e+00 2.668218e+01 -1.214158e-18) (5.519512e-02 -1.985422e-02 2.662083e-20) (0.000000e+00 0.000000e+00 0.000000e+00)) ((-1.334109e+00 4.855760e-01 5.367074e+00) (9.927110e-04 2.759756e-03 -9.370419e-05) (0.000000e+00 0.000000e+00 0.000000e+00))
3.700000e+02	((8.366764e+00 2.298749e+01 -1.085893e-18) (6.355290e-02 -2.289698e-02 2.246369e-20) (0.000000e+00 0.000000e+00 0.000000e+00)) ((-1.149375e+00 4.183382e-01 4.511460e+00) (1.144849e-03 3.177645e-03 -9.102565e-05) (0.000000e+00 0.000000e+00 0.000000e+00))
3.750000e+02	((7.145765e+00 1.963283e+01 -1.007952e-18) (7.135605e-02 -2.575992e-02 1.972863e-20) (0.000000e+00 0.000000e+00 0.000000e+00)) ((-9.816413e-01 3.572883e-01 3.728709e+00) (1.287996e-03 3.567802e-03 -9.578074e-05) (0.000000e+00 0.000000e+00 0.000000e+00))
3.800000e+02	((6.157994e+00 1.691895e+01 -9.765148e-19) (7.807095e-02 -2.821295e-02 2.071694e-20) (0.000000e+00 0.000000e+00 0.000000e+00)) ((-8.459474e-01 3.078997e-01 3.108483e+00) (1.410647e-03 3.903548e-03 -9.116170e-05) (0.000000e+00 0.000000e+00 0.000000e+00))
3.850000e+02	((5.407610e+00 1.485729e+01 -9.856895e-19) (8.336607e-02 -3.015066e-02 2.622863e-20) (0.000000e+00 0.000000e+00 0.000000e+00)) ((-7.428643e-01 2.703805e-01 2.675142e+00) (1.507533e-03 4.168304e-03 -8.708725e-05) (0.000000e+00 0.000000e+00 0.000000e+00))
3.900000e+02	((5.074663e+00 1.394252e+01 -9.318167e-19) (8.706312e-02 -3.149907e-02 3.204665e-20) (0.000000e+00 0.000000e+00 0.000000e+00)) ((-6.971260e-01 2.537332e-01 2.521104e+00) (1.574954e-03 4.353156e-03 -7.964451e-05) (0.000000e+00 0.000000e+00 0.000000e+00))
3.950000e+02	((4.953703e+00 1.361018e+01 -9.375192e-19) (8.936660e-02 -3.233993e-02 4.245114e-20) (0.000000e+00 0.000000e+00 0.000000e+00)) ((-6.805092e-01 2.476851e-01 2.517373e+00) (1.616997e-03 4.468330e-03 -7.387647e-05) (0.000000e+00 0.000000e+00 0.000000e+00))
4.000000e+02	((5.102719e+00 1.401960e+01 -8.896399e-19) (9.084235e-02 -3.287012e-02 4.021134e-20) (0.000000e+00 0.000000e+00 0.000000e+00)) ((-7.009801e-01 2.551359e-01 2.640496e+00) (1.643506e-03 4.542117e-03 -7.015714e-05) (0.000000e+00 0.000000e+00 0.000000e+00))
4.050000e+02	((5.224522e+00 1.435425e+01 -7.834350e-19) (9.212909e-02 -3.333728e-02 4.450150e-20) (0.000000e+00 0.000000e+00 0.000000e+00)) ((-7.177126e-01 2.612261e-01 2.660981e+00) (1.666864e-03 4.606455e-03 -6.794561e-05) (0.000000e+00 0.000000e+00 0.000000e+00))
4.100000e+02	((5.368010e+00 1.474848e+01 -6.839898e-19) (9.365028e-02 -3.388991e-02 4.705898e-20) (0.000000e+00 0.000000e+00 0.000000e+00)) ((-7.374241e-01 2.684005e-01 2.602667e+00) (1.694496e-03 4.682514e-03 -6.709923e-05) (0.000000e+00 0.000000e+00 0.000000e+00))
4.150000e+02	((5.479079e+00 1.505364e+01 -3.400945e-19) (9.518441e-02 -3.444418e-02 3.002917e-20) (0.000000e+00 0.000000e+00 0.000000e+00)) ((-7.526820e-01 2.739539e-01 2.437159e+00) (1.722209e-03 4.759220e-03 -6.799825e-05) (0.000000e+00 0.000000e+00 0.000000e+00))
4.200000e+02	((5.552344e+00 1.525493e+01 -2.342238e-19) (9.678857e-02 -3.501603e-02 1.074555e-20) (0.000000e+00 0.000000e+00 0.000000e+00)) ((-7.627467e-01 2.776172e-01 2.258221e+00) (1.750802e-03 4.839429e-03 -6.898068e-05) (0.000000e+00 0.000000e+00 0.000000e+00))
4.250000e+02	((5.725404e+00 1.573041e+01 -1.216517e-19) (9.763380e-02 -3.533138e-02 -2.631208e-21) (0.000000e+00 0.000000e+00 0.000000e+00)) ((-7.865206e-01 2.862702e-01 2.126265e+00) (1.766569e-03 4.881690e-03 -6.727976e-05) (0.000000e+00 0.000000e+00 0.000000e+00))
4.300000e+02	((5.931458e+00 1.629654e+01 -6.737434e-20) (9.769512e-02 -3.536046e-02 -2.675618e-21) (0.000000e+00 0.000000e+00 0.000000e+00)) ((-8.148271e-01 2.965729e-01 1.989040e+00) (1.768023e-03 4.884756e-03 -6.592316e-05) (0.000000e+00 0.000000e+00 0.000000e+00))
4.350000e+02	((6.228570e+00 1.711285e+01 -4.947997e-20) (9.685450e-02 -3.504644e-02 -3.663629e-21) (0.000000e+00 0.000000e+00 0.000000e+00)) ((-8.556424e-01 3.114285e-01 1.947814e+00) (1.752322e-03 4.842725e-03 -6.796815e-05) (0.000000e+00 0.000000e+00 0.000000e+00))
4.400000e+02	((6.612035e+00 1.816641e+01 -1.162629e-19) (9.504198e-02 -3.438015e-02 2.159629e-21) (0.000000e+00 0.000000e+00 0.000000e+00)) ((-9.083206e-01 3.306018e-01 1.972993e+00) (1.719008e-03 4.752099e-03 -6.927302e-05) (0.000000e+00 0.000000e+00 0.000000e+00))
4.450000e+02	((7.054827e+00 1.938297e+01 -1.144701e-19) (9.241823e-02 -3.341219e-02 4.772184e-21) (0.000000e+00 0.000000e+00 0.000000e+00)) ((-9.691486e-01 3.527413e-01 2.060082e+00) (1.670609e-03 4.620912e-03 -7.272692e-05) (0.000000e+00 0.000000e+00 0.000000e+00))
4.500000e+02	((7.627324e+00 2.095589e+01 -2.241901e-19) (8.907236e-02 -3.217540e-02 1.225141e-20) (0.000000e+00 0.000000e+00 0.000000e+00)) ((-1.047795e+00 3.813662e-01 2.235415e+00) (1.608770e-03 4.453618e-03 -7.621154e-05) (0.000000e+00 0.000000e+00 0.000000e+00))
4.550000e+02	((8.201302e+00 2.253289e+01 -3.417213e-19) (8.523734e-02 -3.076836e-02 2.063575e-20) (0.000000e+00 0.000000e+00 0.000000e+00)) ((-1.126644e+00 4.100651e-01 2.446225e+00) (1.538418e-03 4.261867e-03 -7.773739e-05) (0.000000e+00 0.000000e+00 0.000000e+00))
4.600000e+02	((8.781014e+00 2.412563e+01 -4.683585e-19) (8.114396e-02 -2.926692e-02 3.000500e-20) (0.000000e+00 0.000000e+00 0.000000e+00)) ((-1.206282e+00 4.390507e-01 2.699303e+00) (1.463346e-03 4.057198e-03 -8.007682e-05) (0.000000e+00 0.000000e+00 0.000000e+00))
4.650000e+02	((9.391832e+00 2.580384e+01 -6.014732e-19) (7.694292e-02 -2.773153e-02 4.120982e-20) (0.000000e+00 0.000000e+00 0.000000e+00)) ((-1.290192e+00 4.695916e-01 3.001012e+00) (1.386577e-03 3.847146e-03 -8.283831e-05) (0.000000e+00 0.000000e+00 0.000000e+00))
4.700000e+02	((1.001020e+01 2.750280e+01 -7.369501e-19) (7.273745e-02 -2.619140e-02 4.712152e-20) (0.000000e+00 0.000000e+00 0.000000e+00)) ((-1.375140e+00 5.005101e-01 3.340947e+00) (1.309570e-03 3.636873e-03 -8.627430e-05) (0.000000e+00 0.000000e+00 0.000000e+00))
4.750000e+02	((1.061799e+01 2.917267e+01 -8.595154e-19) (6.850995e-02 -2.465343e-02 5.332082e-20) (0.000000e+00 0.000000e+00 0.000000e+00)) ((-1.458634e+00 5.308993e-01 3.712931e+00) (1.232671e-03 3.425498e-03 -8.878959e-05) (0.000000e+00 0.000000e+00 0.000000e+00))
4.800000e+02	((1.123216e+01 3.086010e+01 -9.716418e-19) (6.427088e-02 -2.310396e-02 5.806469e-20) (0.000000e+00 0.000000e+00 0.000000e+00)) ((-1.543005e+00 5.616080e-01 4.127747e+00) (1.155198e-03 3.213544e-03 -9.406418e-05) (0.000000e+00 0.000000e+00 0.000000e+00))
4.850000e+02	((1.173202e+01 3.223344e+01 -1.040252e-18) (6.007893e-02 -2.159198e-02 5.953632e-20) (0.000000e+00 0.000000e+00 0.000000e+00)) ((-1.611672e+00 5.866008e-01 4.499114e+00) (1.079599e-03 3.003947e-03 -9.658892e-05) (0.000000e+00 0.000000e+00 0.000000e+00))
4.900000e+02	((1.226705e+01 3.370343e+01 -1.202602e-18) (5.590917e-02 -2.008709e-02 6.261118e-20) (0.000000e+00 0.000000e+00 0.000000e+00)) ((-1.685172e+00 6.133524e-01 4.948990e+00) (1.004354e-03 2.795459e-03 -1.006490e-04) (0.000000e+00 0.000000e+00 0.000000e+00))
4.950000e+02	((1.280047e+01 3.516899e+01 -1.366891e-18) (5.200820e-02 -1.867968e-02 6.549044e-20) (0.000000e+00 0.000000e+00 0.000000e+00)) ((-1.758450e+00 6.400234e-01 5.427897e+00) (9.339841e-04 2.600410e-03 -1.046912e-04) (0.000000e+00 0.000000e+00 0.000000e+00))
5.000000e+02	((1.324034e+01 3.637753e+01 -1.429478e-18) (4.836025e-02 -1.735811e-02 6.310832e-20) (0.000000e+00 0.000000e+00 0.000000e+00)) ((-1.818876e+00 6.620170e-01 5.879754e+00) (8.679055e-04 2.418012e-03 -1.080886e-04) (0.000000e+00 0.000000e+00 0.000000e+00))
5.050000e+02	((1.354852e+01 3.722426e+01 -1.517086e-18) (4.522176e-02 -1.623232e-02 6.251252e-20) (0.000000e+00 0.000000e+00 0.000000e+00)) ((-1.861213e+00 6.774262e-01 6.262204e+00) (8.116158e-04 2.261088e-03 -1.105221e-04) (0.000000e+00 0.000000e+00 0.000000e+00))
5.100000e+02	((1.381988e+01 3.796981e+01 -1.571004e-18) (4.270580e-02 -1.531917e-02 6.007350e-20) (0.000000e+00 0.000000e+00 0.000000e+00)) ((-1.898491e+00 6.909941e-01 6.629410e+00) (7.659584e-04 2.135290e-03 -1.120341e-04) (0.000000e+00 0.000000e+00 0.000000e+00))
5.150000e+02	((1.392574e+01 3.826066e+01 -1.556329e-18) (4.095743e-02 -1.468972e-02 5.628018e-20) (0.000000e+00 0.000000e+00 0.000000e+00)) ((-1.913033e+00 6.962871e-01 6.895279e+00) (7.344862e-04 2.047871e-03 -1.097555e-04) (0.000000e+00 0.000000e+00 0.000000e+00))
5.200000e+02	((1.388916e+01 3.816014e+01 -1.495123e-18) (4.014414e-02 -1.439283e-02 5.043530e-20) (0.000000e+00 0.000000e+00 0.000000e+00)) ((-1.908007e+00 6.944579e-01 7.044030e+00) (7.196415e-04 2.007207e-03 -1.082287e-04) (0.000000e+00 0.000000e+00 0.000000e+00))
5.250000e+02	((1.369696e+01 3.763207e+01 -1.467086e-18) (4.039518e-02 -1.448835e-02 4.775172e-20) (0.000000e+00 0.000000e+00 0.000000e+00)) ((-1.881603e+00 6.848478e-01 7.073086e+00) (7.244177e-04 2.019759e-03 -1.053220e-04) (0.000000e+00 0.000000e+00 0.000000e+00))
5.300000e+02	((1.332583e+01 3.661242e+01 -1.390143e-18) (4.179150e-02 -1.499043e-02 4.236067e-20) (0.000000e+00 0.000000e+00 0.000000e+00)) ((-1.830621e+00 6.662917e-01 6.971010e+00) (7.495216e-04 2.089575e-03 -1.031481e-04) (0.000000e+00 0.000000e+00 0.000000e+00))
5.350000e+02	((1.280435e+01 3.517966e+01 -1.366893e-18) (4.434496e-02 -1.591971e-02 4.067461e-20) (0.000000e+00 0.000000e+00 0.000000e+00)) ((-1.758983e+00 6.402175e-01 6.751486e+00) (7.959856e-04 2.217248e-03 -9.868642e-05) (0.000000e+00 0.000000e+00 0.000000e+00))
5.400000e+02	((1.209700e+01 3.323624e+01 -1.245444e-18) (4.792726e-02 -1.721702e-02 3.435433e-20) (0.000000e+00 0.000000e+00 0.000000e+00)) ((-1.661812e+00 6.048502e-01 6.393550e+00) (8.608511e-04 2.396363e-03 -9.591196e-05) (0.000000e+00 0.000000e+00 0.000000e+00))
5.450000e+02	((1.131209e+01 3.107971e+01 -1.218461e-18) (5.243464e-02 -1.885378e-02 3.353437e-20) (0.000000e+00 0.000000e+00 0.000000e+00)) ((-1.553985e+00 5.656045e-01 5.967935e+00) (9.426889e-04 2.621732e-03 -9.180290e-05) (0.000000e+00 0.000000e+00 0.000000e+00))
5.500000e+02	((1.041775e+01 2.862253e+01 -1.098460e-18) (5.764131e-02 -2.074133e-02 2.793839e-20) (0.000000e+00 0.000000e+00 0.000000e+00)) ((-1.431127e+00 5.208876e-01 5.451629e+00) (1.037066e-03 2.882065e-03 -9.190884e-05) (0.000000e+00 0.000000e+00 0.000000e+00))
5.550000e+02	((9.487340e+00 2.606625e+01 -1.103911e-18) (6.324285e-02 -2.278627e-02 2.905211e-20) (0.000000e+00 0.000000e+00 0.000000e+00)) ((-1.303312e+00 4.743670e-01 4.910592e+00) (1.139314e-03 3.162143e-03 -9.321095e-05) (0.000000e+00 0.000000e+00 0.000000e+00))