/*--------------------------------*- C++ -*----------------------------------*\
| =========                 |                                                 |
| \\      /  F ield         | OpenFOAM: The Open Source CFD Toolbox           |
|  \\    /   O peration     | Version:  2.3.0                                 |
|   \\  /    A nd           | Web:      www.OpenFOAM.org                      |
|    \\/     M anipulation  |                                                 |
\*---------------------------------------------------------------------------*/
FoamFile
{
    version     2.0;
    format      ascii;
    class       volScalarField;
    location    "9000";
    object      p;
}
// * * * * * * * * * * * * * * * * * * * * * * * * * * * * * * * * * * * * * //

dimensions      [0 2 -2 0 0 0 0];

internalField   nonuniform List<scalar> 
14201
(
-0.000175374
-1.75555
-3.67735
-5.50711
-7.20883
-8.74926
-10.1019
-11.2453
-12.1623
-12.8473
-13.277
-13.4298
-13.247
-12.6506
-11.4731
-9.49634
-6.46937
-2.17599
3.6652
11.8665
23.1749
35.2294
43.9308
62.7212
10.8626
10.2772
9.76749
9.47303
9.37717
9.48963
9.83662
10.4583
11.4233
12.8247
14.7837
17.4272
20.9161
25.3893
31.0037
37.9388
46.3374
56.3761
68.1919
81.9279
97.647
115.319
135.033
156.488
19.8169
20.3332
20.7765
21.4955
22.484
23.7678
25.3671
27.3051
29.6095
32.3031
35.4282
39.0239
43.1471
47.8479
53.1891
59.2354
66.0171
73.5798
81.9337
91.0391
100.819
111.164
121.95
132.982
28.0289
28.8689
29.7941
31.0394
32.5484
34.3379
36.4251
38.8411
41.6229
44.7975
48.4179
52.5151
57.1322
62.3056
68.0638
74.4261
81.4019
88.9752
97.111
105.733
114.735
123.967
133.233
142.321
34.15
35.7116
37.0769
38.6795
40.5056
42.5771
44.9069
47.52
50.4315
53.6645
57.2478
61.207
65.5594
70.3356
75.5453
81.1993
87.2994
93.8247
100.748
108.002
115.508
123.161
130.829
138.376
40.1157
41.648
43.1303
44.8582
46.7992
48.9674
51.372
54.0375
56.9688
60.1896
63.7222
67.5923
71.806
76.3858
81.3306
86.6515
92.3351
98.3637
104.703
111.289
118.062
124.93
131.792
138.535
44.9839
46.5571
48.1133
49.886
51.8533
54.0271
56.4158
59.0341
61.8961
65.0023
68.39
72.0746
76.064
80.378
84.9909
89.9445
95.2081
100.761
106.59
112.622
118.812
125.083
131.354
137.531
49.0227
50.657
52.2424
54.0284
55.9998
58.1638
60.5152
63.0394
65.7781
68.7324
71.9717
75.4884
79.2858
83.4195
87.7792
92.4672
97.3944
102.551
107.98
113.585
119.354
125.185
131.015
136.782
52.4627
54.1217
55.6761
57.3721
59.2506
61.3421
63.6588
66.1711
68.8684
71.6553
74.7287
78.083
81.75
85.7126
89.7956
94.2816
98.9519
103.906
109.049
114.337
119.763
125.229
130.791
136.397
56.1667
57.4834
58.6472
59.8935
61.3672
63.0936
65.1745
67.8587
71.2735
74.1477
76.5289
80.2224
83.3289
87.6786
90.5837
94.8219
99.8976
104.525
110.281
115.383
120.432
125.653
131.234
137.03
126.39
158.456
177.846
192.439
204.506
214.318
222.135
228.239
232.86
236.206
238.445
239.712
240.131
239.815
238.865
237.38
235.453
233.175
230.629
227.888
225.006
222.019
219.069
216.348
176.268
191.637
203.855
213.676
221.443
227.368
231.667
234.557
236.25
236.95
236.848
236.116
234.911
233.365
231.584
229.647
227.611
225.509
223.357
221.16
218.908
216.586
214.322
212.556
143.928
154.54
164.504
173.605
181.748
188.903
195.084
200.326
204.689
208.241
211.053
213.197
214.742
215.756
216.295
216.416
216.172
215.61
214.775
213.707
212.436
210.976
209.501
208.562
151.061
159.379
167.182
174.349
180.804
186.506
191.458
195.675
199.2
202.086
204.388
206.167
207.485
208.399
208.96
209.215
209.204
208.962
208.516
207.891
207.094
206.123
205.147
204.726
145.724
152.836
159.627
165.988
171.847
177.149
181.885
186.047
189.657
192.742
195.335
197.476
199.206
200.562
201.582
202.3
202.748
202.954
202.947
202.748
202.371
201.82
201.227
201.111
145.091
151.421
157.466
163.142
168.396
173.185
177.491
181.314
184.665
187.567
190.046
192.133
193.864
195.269
196.381
197.225
197.834
198.228
198.436
198.473
198.353
198.089
197.755
197.562
143.552
149.364
154.923
160.152
165.015
169.479
173.512
177.123
180.318
183.123
185.549
187.624
189.379
190.843
192.035
192.981
193.712
194.243
194.611
194.821
194.889
194.832
194.686
194.584
142.437
147.881
153.09
157.96
162.506
166.715
170.532
173.957
177.01
179.726
182.08
184.112
185.855
187.338
188.558
189.542
190.34
190.955
191.431
191.739
191.916
191.986
192.004
192.18
141.749
146.795
151.712
156.341
160.672
164.705
168.314
171.599
174.534
177.165
179.39
181.349
183.08
184.584
185.781
186.72
187.572
188.263
188.796
189.103
189.314
189.457
189.624
190.114
141.977
146.35
150.913
155.422
159.925
163.828
167.014
170.074
172.903
175.488
177.422
179.224
180.933
182.413
183.457
184.216
185.116
185.532
186.189
186.563
186.886
187.142
187.435
188.135
71.4556
71.3918
71.1977
70.9605
70.6977
70.4151
70.1173
69.8081
69.4908
69.1686
68.8446
68.5222
68.2045
67.8945
67.5959
67.3135
67.0545
66.8328
66.6723
66.6052
66.663
66.889
67.4891
69.3568
72.5427
72.2781
71.9696
71.6635
71.3642
71.0747
70.798
70.5352
70.2855
70.0478
69.8207
69.6039
69.3981
69.2055
69.0314
68.8848
68.7809
68.7435
68.8134
69.0656
69.6297
70.707
72.4822
74.8319
73.7831
73.3746
73.1148
72.8586
72.6038
72.3551
72.1144
71.8822
71.658
71.4416
71.2334
71.0354
70.8518
70.6886
70.5555
70.4668
70.4439
70.5245
70.7682
71.2562
72.0961
73.4141
75.2755
77.5431
74.4569
74.3743
74.177
73.9672
73.7508
73.5315
73.3145
73.1038
72.9023
72.7115
72.5328
72.3698
72.2279
72.1146
72.0408
72.0223
72.0852
72.273
72.6415
73.2592
74.2046
75.5452
77.2755
79.2917
75.6208
75.3575
75.1589
74.9696
74.7776
74.5843
74.3927
74.2069
74.0306
73.8668
73.7173
73.5859
73.4795
73.4074
73.3816
73.4186
73.5473
73.8099
74.2568
74.9455
75.9366
77.2745
78.9379
80.8314
76.2942
76.2051
76.0405
75.8778
75.7135
75.5469
75.3799
75.2171
75.0627
74.9227
74.7984
74.6911
74.6105
74.5673
74.5743
74.6494
74.8221
75.1313
75.6222
76.345
77.3497
78.669
80.2903
82.1256
77.1191
77.0008
76.8505
76.71
76.5674
76.4241
76.2777
76.1341
75.996
75.8761
75.777
75.687
75.6229
75.5976
75.6271
75.7299
75.9355
76.2813
76.8057
77.5576
78.5776
79.8942
81.4959
83.3056
77.9095
77.6667
77.5729
77.4609
77.3338
77.2138
77.0858
76.9624
76.8291
76.7234
76.6594
76.5837
76.5296
76.5116
76.5541
76.6722
76.8907
77.2515
77.777
78.5285
79.5225
80.774
82.2814
84.0301
78.3679
78.3343
78.2607
78.1743
78.0563
77.9584
77.8369
77.7107
77.5529
77.4592
77.4794
77.4073
77.3322
77.2887
77.3368
77.4882
77.7462
78.1708
78.7498
79.5998
80.6856
81.9907
83.546
85.3536
78.1914
78.3209
78.3771
78.4919
78.5278
78.5974
78.6637
78.5834
78.1319
77.9381
78.3422
78.421
78.3343
78.1094
77.932
77.8447
77.8256
78.0102
78.2089
78.8499
79.9041
80.6382
81.1483
82.3204
74.2098
76.6105
78.5034
80.2473
81.9119
83.4701
84.9208
86.2706
87.5327
88.7242
89.8651
90.9752
92.0749
93.1794
94.2974
95.4328
96.5859
97.7543
98.9344
100.123
101.318
102.511
103.694
104.99
77.5565
78.8176
79.7774
80.8075
81.949
83.1666
84.4362
85.7347
87.0428
88.3468
89.6356
90.9015
92.1397
93.3489
94.5292
95.6839
96.8162
97.9302
99.0296
100.119
101.202
102.271
103.331
104.495
79.8263
81.4317
82.4577
83.3879
84.3541
85.3682
86.4224
87.5055
88.6071
89.7175
90.8289
91.9344
93.0287
94.108
95.1701
96.2143
97.2409
98.2511
99.2461
100.229
101.203
102.161
103.109
104.152
81.3506
83.0477
84.105
85.04
85.9899
86.9622
87.9489
88.9414
89.9333
90.9201
91.899
92.8682
93.8275
94.7767
95.7157
96.6456
97.5665
98.4793
99.3845
100.283
101.177
102.059
102.931
103.874
82.7691
84.3994
85.4114
86.2974
87.1932
88.1084
89.0343
89.9621
90.8858
91.8017
92.708
93.6034
94.4875
95.3606
96.223
97.0754
97.9185
98.7535
99.5811
100.403
101.221
102.03
102.833
103.685
84.0088
85.6105
86.6271
87.4835
88.3308
89.1889
90.0528
90.9168
91.7763
92.6284
93.4715
94.3042
95.1261
95.9369
96.7362
97.5241
98.3015
99.0695
99.8292
100.581
101.327
102.066
102.8
103.572
85.1663
86.7572
87.7696
88.5863
89.3832
90.1857
90.9928
91.7994
92.6017
93.3967
94.1824
94.9582
95.7234
96.4779
97.2209
97.9512
98.6699
99.3793
100.079
100.77
101.453
102.128
102.798
103.495
85.971
87.7108
88.7681
89.5474
90.2908
91.0446
91.8017
92.5603
93.3161
94.0648
94.8036
95.5329
96.2527
96.9626
97.66
98.3402
99.0076
99.6684
100.319
100.954
101.583
102.203
102.82
103.46
87.409
89.3132
89.9766
90.4808
91.1053
91.7758
92.4889
93.2096
93.9295
94.6418
95.341
96.0323
96.716
97.3924
98.0551
98.6894
99.3125
99.9377
100.549
101.134
101.712
102.283
102.854
103.452
85.9731
90.0505
90.4844
91.074
91.6628
92.3913
93.084
93.775
94.4678
95.1507
95.81
96.4722
97.1331
97.7951
98.4348
99.0059
99.5811
100.197
100.779
101.283
101.819
102.37
102.938
103.54
-249.163
-233.623
-216.847
-203.105
-188.751
-173.17
-157.614
-142.518
-127.885
-113.791
-100.442
-87.9915
-76.6083
-66.376
-57.3141
-49.3917
-42.525
-36.559
-31.3134
-26.6283
-22.3647
-18.4102
-14.67
-11.4607
-147.614
-147.258
-145.597
-143.475
-141.758
-140.214
-138.055
-134.914
-130.74
-125.534
-119.291
-112.057
-103.977
-95.2781
-86.2569
-77.2171
-68.4384
-60.1323
-52.4144
-45.3159
-38.7983
-32.8059
-27.2413
-22.5895
-159.006
-158.856
-158.911
-158.691
-157.734
-155.909
-153.383
-150.284
-146.486
-141.831
-136.275
-129.856
-122.599
-114.592
-105.97
-96.9284
-87.7079
-78.5612
-69.6987
-61.2645
-53.3335
-45.9324
-38.9531
-32.9264
-146.156
-146.056
-145.808
-145.437
-144.938
-144.275
-143.387
-142.188
-140.682
-138.805
-136.34
-133.08
-128.841
-123.521
-117.1
-109.673
-101.442
-92.6785
-83.6889
-74.7472
-66.0579
-57.7716
-49.8602
-43.0423
-145.455
-145.423
-145.39
-145.306
-145.132
-144.824
-144.313
-143.523
-142.378
-140.836
-138.841
-136.285
-133.051
-129.007
-124.032
-118.046
-111.066
-103.216
-94.7245
-85.8778
-76.9494
-68.1967
-59.6698
-52.272
-141.296
-141.263
-141.194
-141.078
-140.906
-140.661
-140.318
-139.845
-139.198
-138.317
-137.132
-135.554
-133.456
-130.696
-127.122
-122.596
-117.03
-110.418
-102.871
-94.6044
-85.8936
-77.0495
-68.1635
-60.3753
-139.084
-139.062
-139.03
-138.971
-138.874
-138.723
-138.499
-138.173
-137.708
-137.061
-136.176
-134.985
-133.402
-131.309
-128.574
-125.052
-120.602
-115.131
-108.627
-101.188
-93.0168
-84.4122
-75.4728
-67.5006
-136.445
-136.428
-136.396
-136.342
-136.259
-136.137
-135.964
-135.721
-135.385
-134.923
-134.293
-133.442
-132.294
-130.754
-128.699
-125.985
-122.463
-117.995
-112.496
-105.969
-98.519
-90.3924
-81.6745
-73.573
-134.166
-134.153
-134.132
-134.093
-134.034
-133.944
-133.814
-133.631
-133.373
-133.017
-132.528
-131.863
-130.967
-129.765
-128.156
-126.014
-123.195
-119.544
-114.928
-109.28
-102.614
-95.0981
-86.7842
-78.6783
-131.861
-131.851
-131.832
-131.801
-131.752
-131.68
-131.576
-131.43
-131.228
-130.948
-130.565
-130.043
-129.338
-128.388
-127.112
-125.402
-123.127
-120.136
-116.274
-111.425
-105.537
-98.7015
-90.9466
-83.1989
-129.633
-129.624
-129.61
-129.586
-129.547
-129.491
-129.408
-129.292
-129.129
-128.903
-128.593
-128.17
-127.595
-126.821
-125.78
-124.384
-122.519
-120.045
-116.806
-112.655
-107.494
-101.343
-94.1937
-87.005
-127.406
-127.4
-127.389
-127.37
-127.34
-127.294
-127.228
-127.133
-127.001
-126.817
-126.563
-126.214
-125.741
-125.1
-124.238
-123.079
-121.527
-119.457
-116.724
-113.169
-108.655
-103.14
-96.5325
-89.8041
-125.2
-125.195
-125.187
-125.172
-125.148
-125.111
-125.058
-124.98
-124.871
-124.719
-124.507
-124.216
-123.819
-123.279
-122.552
-121.575
-120.264
-118.512
-116.185
-113.128
-109.179
-104.245
-98.1463
-91.7917
-122.994
-122.99
-122.984
-122.972
-122.953
-122.924
-122.88
-122.816
-122.726
-122.599
-122.422
-122.176
-121.838
-121.379
-120.759
-119.924
-118.804
-117.304
-115.305
-112.664
-109.214
-104.833
-99.2971
-93.4359
-120.79
-120.787
-120.783
-120.774
-120.759
-120.735
-120.699
-120.646
-120.571
-120.464
-120.314
-120.104
-119.815
-119.42
-118.885
-118.164
-117.196
-115.899
-114.169
-111.876
-108.862
-104.992
-100.032
-94.6576
-118.586
-118.582
-118.579
-118.572
-118.56
-118.541
-118.512
-118.468
-118.405
-118.315
-118.187
-118.007
-117.758
-117.415
-116.949
-116.321
-115.476
-114.346
-112.836
-110.832
-108.19
-104.773
-100.356
-95.4664
-116.374
-116.373
-116.371
-116.367
-116.358
-116.343
-116.32
-116.284
-116.231
-116.155
-116.046
-115.891
-115.674
-115.375
-114.966
-114.413
-113.671
-112.677
-111.35
-109.588
-107.262
-104.24
-100.316
-96.0204
-114.17
-114.168
-114.167
-114.165
-114.158
-114.147
-114.128
-114.098
-114.053
-113.988
-113.895
-113.761
-113.571
-113.308
-112.948
-112.459
-111.802
-110.922
-109.748
-108.191
-106.134
-103.459
-99.9718
-96.3566
-111.967
-111.965
-111.965
-111.964
-111.96
-111.951
-111.936
-111.911
-111.874
-111.819
-111.738
-111.622
-111.456
-111.224
-110.904
-110.469
-109.884
-109.099
-108.053
-106.664
-104.826
-102.424
-99.249
-95.9594
-109.767
-109.766
-109.767
-109.766
-109.764
-109.758
-109.746
-109.726
-109.695
-109.648
-109.579
-109.478
-109.333
-109.128
-108.844
-108.456
-107.932
-107.23
-106.292
-105.049
-103.405
-101.255
-98.3959
-95.6629
-107.568
-107.568
-107.569
-107.57
-107.57
-107.566
-107.558
-107.543
-107.518
-107.479
-107.42
-107.333
-107.206
-107.025
-106.772
-106.424
-105.953
-105.321
-104.475
-103.351
-101.862
-99.9067
-97.2899
-94.661
-105.372
-105.372
-105.375
-105.377
-105.379
-105.378
-105.373
-105.362
-105.342
-105.311
-105.262
-105.188
-105.077
-104.917
-104.692
-104.381
-103.957
-103.386
-102.622
-101.606
-100.259
-98.4888
-96.1065
-94.1361
-103.178
-103.178
-103.181
-103.185
-103.188
-103.189
-103.188
-103.181
-103.167
-103.142
-103.102
-103.04
-102.945
-102.805
-102.604
-102.325
-101.941
-101.423
-100.725
-99.793
-98.5469
-96.8888
-94.6149
-92.4734
-100.98
-100.98
-100.984
-100.99
-100.994
-100.998
-101
-100.997
-100.988
-100.97
-100.939
-100.887
-100.806
-100.684
-100.506
-100.256
-99.9091
-99.4372
-98.8001
-97.9461
-96.803
-95.2736
-93.1521
-91.3521
-98.7762
-98.7772
-98.7821
-98.7885
-98.7952
-98.8012
-98.8056
-98.8067
-98.8027
-98.7909
-98.7674
-98.7262
-98.6583
-98.5525
-98.3953
-98.1701
-97.8553
-97.4235
-96.837
-96.0452
-94.9783
-93.5541
-91.581
-89.2067
-96.5652
-96.5664
-96.5721
-96.5796
-96.5879
-96.5961
-96.6033
-96.6081
-96.6087
-96.6026
-96.5864
-96.5546
-96.4987
-96.408
-96.2695
-96.0676
-95.7821
-95.3873
-94.8488
-94.1203
-93.1372
-91.8182
-90.0438
-88.6855
-94.3438
-94.3454
-94.352
-94.3609
-94.3708
-94.3811
-94.391
-94.3991
-94.4038
-94.4031
-94.3937
-94.3703
-94.3253
-94.2482
-94.1266
-93.9457
-93.6863
-93.3242
-92.8272
-92.1521
-91.2391
-90.0083
-88.3109
-86.5562
-92.1146
-92.1166
-92.1237
-92.1336
-92.1448
-92.1568
-92.1689
-92.1799
-92.1883
-92.1922
-92.1886
-92.1728
-92.1375
-92.0727
-91.9665
-91.8044
-91.5685
-91.2357
-90.7762
-90.1486
-89.2971
-88.1476
-86.5639
-84.7146
-89.8771
-89.8792
-89.8869
-89.8976
-89.91
-89.9235
-89.9375
-89.951
-89.9626
-89.9704
-89.9719
-89.9628
-89.936
-89.8822
-89.7896
-89.6445
-89.4301
-89.1242
-88.6992
-88.1164
-87.3251
-86.2594
-84.8147
-83.054
-87.633
-87.6353
-87.6435
-87.655
-87.6683
-87.6832
-87.6988
-87.7144
-87.7286
-87.74
-87.7458
-87.7423
-87.7231
-87.679
-87.5987
-87.4691
-87.2738
-86.9925
-86.5993
-86.0581
-85.3222
-84.3323
-83.0041
-81.3272
-85.3851
-85.3876
-85.3962
-85.4084
-85.4226
-85.4385
-85.4556
-85.4729
-85.4895
-85.5036
-85.5132
-85.5147
-85.5021
-85.4666
-85.3974
-85.2818
-85.1044
-84.8459
-84.4824
-83.981
-83.2997
-82.3825
-81.1522
-79.6846
-83.1363
-83.1389
-83.1479
-83.1606
-83.1755
-83.1923
-83.2106
-83.2295
-83.248
-83.2647
-83.2777
-83.2835
-83.2766
-83.249
-83.1901
-83.0875
-82.9267
-82.6894
-82.3536
-81.8889
-81.257
-80.41
-79.275
-77.8203
-80.8892
-80.8919
-80.9012
-80.9144
-80.9299
-80.9476
-80.9669
-80.9872
-81.0074
-81.0264
-81.0421
-81.0518
-81.0502
-81.0295
-80.9797
-80.8888
-80.7429
-80.5248
-80.2131
-79.7789
-79.1837
-78.3806
-77.314
-75.8887
-78.6455
-78.6483
-78.658
-78.6717
-78.6879
-78.7064
-78.7268
-78.7484
-78.7704
-78.7915
-78.81
-78.8233
-78.8266
-78.8125
-78.7714
-78.6917
-78.5602
-78.3607
-78.0733
-77.6721
-77.1231
-76.3862
-75.4114
-74.1775
-76.4074
-76.4104
-76.4204
-76.4346
-76.4515
-76.4709
-76.4923
-76.5154
-76.5391
-76.5624
-76.5837
-76.6006
-76.6087
-76.601
-76.5683
-76.4995
-76.3819
-76.2003
-75.9364
-75.5663
-75.0594
-74.3776
-73.4881
-72.5127
-74.1752
-74.1783
-74.1887
-74.2034
-74.221
-74.2413
-74.2639
-74.2884
-74.314
-74.3396
-74.3638
-74.3843
-74.3972
-74.3959
-74.3714
-74.313
-74.2085
-74.0434
-73.7999
-73.4555
-72.9804
-72.3365
-71.474
-70.3603
-71.9492
-71.9525
-71.9632
-71.9785
-71.9968
-72.018
-72.0419
-72.0679
-72.0954
-72.1234
-72.1506
-72.1749
-72.1926
-72.1977
-72.1814
-72.1335
-72.0422
-71.8936
-71.671
-71.3537
-70.9145
-70.3139
-69.4989
-68.6435
-69.7293
-69.7326
-69.7438
-69.7595
-69.7785
-69.8006
-69.8256
-69.8531
-69.8824
-69.9127
-69.9427
-69.9706
-69.9929
-70.0039
-69.9953
-69.9568
-69.8768
-69.7419
-69.5353
-69.2354
-68.8122
-68.2255
-67.4252
-66.3377
-67.5154
-67.5189
-67.5304
-67.5466
-67.5663
-67.5892
-67.6153
-67.644
-67.675
-67.7073
-67.74
-67.7711
-67.7977
-67.8143
-67.8128
-67.7833
-67.7147
-67.5935
-67.4038
-67.1256
-66.7323
-66.1889
-65.4373
-64.4746
-65.3086
-65.3122
-65.3239
-65.3405
-65.3607
-65.3843
-65.4112
-65.4411
-65.4735
-65.5076
-65.5424
-65.5764
-65.6065
-65.6277
-65.6323
-65.6104
-65.5509
-65.4407
-65.264
-65.0003
-64.6225
-64.0966
-63.3464
-62.05
-63.1095
-63.1132
-63.1251
-63.1422
-63.1628
-63.1871
-63.2147
-63.2456
-63.2792
-63.3148
-63.3516
-63.388
-63.4213
-63.4468
-63.4569
-63.4423
-63.3919
-63.2932
-63.1313
-62.8878
-62.5375
-62.0489
-61.3907
-60.7325
-60.92
-60.9238
-60.936
-60.9533
-60.9744
-60.9992
-61.0275
-61.0592
-61.0939
-61.1309
-61.1693
-61.2079
-61.244
-61.2732
-61.2884
-61.2801
-61.2376
-61.1489
-60.9995
-60.7714
-60.4426
-60.0003
-59.4299
-58.3531
-58.7416
-58.7453
-58.7578
-58.7754
-58.7968
-58.822
-58.8511
-58.8836
-58.9193
-58.9577
-58.9978
-59.0385
-59.0775
-59.1106
-59.131
-59.1298
-59.0966
-59.02
-58.8869
-58.6832
-58.3923
-57.9982
-57.4844
-57.0827
-56.575
-56.5788
-56.5914
-56.6092
-56.631
-56.6567
-56.6862
-56.7195
-56.7561
-56.7956
-56.8372
-56.8798
-56.9212
-56.9575
-56.9823
-56.9866
-56.96
-56.891
-56.7661
-56.5684
-56.2745
-55.8512
-55.2401
-54.3174
-54.4217
-54.4256
-54.4384
-54.4564
-54.4785
-54.5045
-54.5346
-54.5685
-54.6059
-54.6465
-54.6895
-54.734
-54.7778
-54.8173
-54.8464
-54.8566
-54.8377
-54.7784
-54.6657
-54.4849
-54.2162
-53.8258
-53.2556
-52.7249
-52.283
-52.2869
-52.2998
-52.318
-52.3403
-52.3666
-52.397
-52.4314
-52.4696
-52.5111
-52.5553
-52.6011
-52.6469
-52.6892
-52.722
-52.7372
-52.7245
-52.6729
-52.5694
-52.3984
-52.1415
-51.7845
-51.278
-50.1528
-50.1599
-50.1639
-50.1769
-50.1952
-50.2177
-50.2443
-50.2751
-50.31
-50.3488
-50.3912
-50.4365
-50.4839
-50.5317
-50.5768
-50.6137
-50.6343
-50.6288
-50.5868
-50.4964
-50.3445
-50.1149
-49.7904
-49.3662
-49.1315
-48.0543
-48.0582
-48.0713
-48.0897
-48.1122
-48.139
-48.1699
-48.2051
-48.2443
-48.2873
-48.3334
-48.3819
-48.4312
-48.4784
-48.5182
-48.5429
-48.5428
-48.5069
-48.423
-48.2764
-48.0464
-47.711
-47.2529
-46.5248
-45.9676
-45.9714
-45.9844
-46.0028
-46.0253
-46.052
-46.0831
-46.1184
-46.1579
-46.2013
-46.2481
-46.2975
-46.3481
-46.3973
-46.4401
-46.469
-46.4745
-46.4461
-46.372
-46.2392
-46.0304
-45.7214
-45.2814
-44.8072
-43.8995
-43.9036
-43.9167
-43.9352
-43.9577
-43.9845
-44.0157
-44.0511
-44.0907
-44.1344
-44.1816
-44.2317
-44.2833
-44.3341
-44.3793
-44.4117
-44.4221
-44.4001
-44.334
-44.2111
-44.0146
-43.718
-43.283
-42.7843
-41.8545
-41.8583
-41.8714
-41.8898
-41.9122
-41.9389
-41.9699
-42.0053
-42.0449
-42.0886
-42.136
-42.1865
-42.2388
-42.2907
-42.3379
-42.3734
-42.3882
-42.3719
-42.3131
-42.1986
-42.0122
-41.7337
-41.315
-40.5619
-39.8319
-39.8358
-39.8488
-39.8671
-39.8895
-39.916
-39.9469
-39.9822
-40.0218
-40.0655
-40.1131
-40.1639
-40.2169
-40.2701
-40.3193
-40.3579
-40.3773
-40.3678
-40.3188
-40.2186
-40.0526
-39.8038
-39.4707
-39.2106
-37.8344
-37.8381
-37.8508
-37.8688
-37.8909
-37.9173
-37.9479
-37.983
-38.0223
-38.0661
-38.1136
-38.1646
-38.2181
-38.272
-38.3227
-38.3641
-38.3877
-38.3836
-38.3413
-38.249
-38.0921
-37.8537
-37.5137
-36.9944
-35.8589
-35.8627
-35.8756
-35.8936
-35.9157
-35.942
-35.9727
-36.0077
-36.0472
-36.091
-36.1387
-36.1899
-36.2438
-36.2988
-36.3512
-36.3949
-36.4222
-36.4237
-36.3888
-36.3067
-36.1638
-35.9454
-35.6299
-35.1505
-33.9089
-33.9128
-33.9257
-33.9438
-33.9657
-33.9919
-34.0225
-34.0576
-34.0971
-34.1408
-34.1886
-34.2402
-34.2946
-34.3503
-34.4039
-34.45
-34.4809
-34.4872
-34.4589
-34.3855
-34.2537
-34.0479
-33.7474
-33.314
-31.9844
-31.9883
-32.0011
-32.0191
-32.041
-32.067
-32.0975
-32.1325
-32.1719
-32.2156
-32.2635
-32.3154
-32.3704
-32.4268
-32.482
-32.5305
-32.5647
-32.5759
-32.5546
-32.4902
-32.3709
-32.1825
-31.9024
-31.5003
-30.0847
-30.0885
-30.1012
-30.119
-30.1408
-30.1668
-30.1972
-30.232
-30.2714
-30.3152
-30.3633
-30.4155
-30.471
-30.5283
-30.5848
-30.6355
-30.673
-30.6889
-30.6738
-30.6175
-30.5086
-30.3308
-30.0533
-29.6582
-28.209
-28.2126
-28.2251
-28.2427
-28.2644
-28.2903
-28.3206
-28.3554
-28.3948
-28.4388
-28.4872
-28.5397
-28.5957
-28.6539
-28.7119
-28.7648
-28.806
-28.8265
-28.8171
-28.7685
-28.6693
-28.5019
-28.229
-27.8574
-26.3553
-26.3591
-26.3717
-26.3894
-26.4111
-26.437
-26.4673
-26.5021
-26.5417
-26.5858
-26.6344
-26.6872
-26.7438
-26.8031
-26.8623
-26.9173
-26.9611
-26.9855
-26.9813
-26.9389
-26.8462
-26.6854
-26.425
-26.061
-24.5259
-24.5297
-24.5424
-24.5601
-24.5817
-24.6074
-24.6377
-24.6726
-24.712
-24.756
-24.8047
-24.8579
-24.9148
-24.9746
-25.035
-25.0918
-25.1384
-25.1669
-25.1681
-25.1322
-25.0478
-24.9014
-24.6726
-24.3223
-22.7206
-22.7244
-22.737
-22.7544
-22.7759
-22.8016
-22.8316
-22.8662
-22.9054
-22.9494
-22.998
-23.0511
-23.1082
-23.1684
-23.2295
-23.2876
-23.3364
-23.3678
-23.373
-23.3417
-23.2623
-23.12
-22.8944
-22.5194
-20.9393
-20.943
-20.9555
-20.9727
-20.994
-21.0194
-21.0492
-21.0835
-21.1224
-21.1662
-21.2146
-21.2676
-21.3247
-21.3852
-21.447
-21.5064
-21.5574
-21.5924
-21.6028
-21.5796
-21.513
-21.3878
-21.1778
-20.9394
-19.1819
-19.1854
-19.1977
-19.2148
-19.2357
-19.2609
-19.2904
-19.3244
-19.363
-19.4065
-19.4548
-19.5076
-19.5646
-19.625
-19.6872
-19.7475
-19.8004
-19.8379
-19.8518
-19.8328
-19.7701
-19.6514
-19.4615
-19.1438
-17.447
-17.4506
-17.4629
-17.48
-17.5008
-17.5259
-17.5552
-17.5891
-17.6277
-17.671
-17.7191
-17.7717
-17.8288
-17.8895
-17.9521
-18.0133
-18.0678
-18.1082
-18.1265
-18.1142
-18.062
-17.9607
-17.7988
-17.5245
-15.7364
-15.74
-15.7524
-15.7694
-15.7902
-15.8151
-15.8444
-15.8781
-15.9165
-15.9596
-16.0075
-16.0601
-16.1171
-16.1779
-16.2409
-16.303
-16.3591
-16.4024
-16.4249
-16.4184
-16.3744
-16.2842
-16.136
-15.8796
-14.0498
-14.0533
-14.0656
-14.0824
-14.1032
-14.1279
-14.157
-14.1906
-14.2288
-14.2718
-14.3196
-14.3722
-14.4292
-14.4901
-14.5535
-14.6165
-14.674
-14.7195
-14.7453
-14.7432
-14.7041
-14.6162
-14.4664
-14.2446
-12.3863
-12.3898
-12.4019
-12.4186
-12.4391
-12.4637
-12.4926
-12.5261
-12.5641
-12.6071
-12.6548
-12.7075
-12.7647
-12.8259
-12.8899
-12.954
-13.0135
-13.0617
-13.0918
-13.0964
-13.0681
-12.9967
-12.8639
-12.722
-10.745
-10.7482
-10.7603
-10.7767
-10.797
-10.8215
-10.8502
-10.8835
-10.9215
-10.9644
-11.0122
-11.0647
-11.1219
-11.1834
-11.2479
-11.3126
-11.373
-11.4228
-11.4543
-11.4593
-11.4283
-11.3497
-11.2091
-10.9271
-9.12349
-9.12707
-9.13927
-9.15588
-9.17611
-9.20049
-9.22921
-9.26255
-9.30058
-9.34333
-9.39103
-9.44366
-9.50114
-9.56295
-9.6279
-9.69355
-9.75559
-9.80779
-9.8429
-9.85384
-9.83293
-9.76982
-9.64586
-9.49732
-7.52683
-7.53007
-7.54212
-7.55842
-7.57848
-7.60245
-7.63089
-7.66384
-7.70145
-7.74382
-7.79126
-7.8437
-7.90093
-7.96255
-8.0275
-8.09345
-8.15601
-8.20908
-8.24511
-8.2552
-8.22955
-8.15555
-8.01508
-7.71157
-5.95224
-5.9554
-5.96725
-5.98329
-6.00307
-6.02678
-6.05475
-6.08724
-6.12437
-6.16638
-6.21333
-6.26537
-6.32233
-6.38381
-6.44885
-6.5153
-6.57904
-6.6342
-6.67387
-6.69044
-6.67683
-6.62214
-6.50385
-6.38059
-4.4015
-4.4045
-4.41602
-4.43171
-4.45107
-4.47432
-4.50176
-4.53358
-4.57004
-4.61141
-4.65777
-4.70906
-4.76527
-4.82613
-4.89072
-4.95701
-5.02108
-5.07692
-5.11714
-5.13336
-5.11616
-5.05417
-4.92772
-4.63381
-2.87371
-2.87669
-2.8882
-2.90362
-2.92262
-2.94549
-2.9724
-3.00365
-3.03954
-3.0802
-3.12575
-3.17624
-3.23175
-3.292
-3.35606
-3.42202
-3.48649
-3.54368
-3.58661
-3.60789
-3.59959
-3.55193
-3.4457
-3.25913
-1.37143
-1.37447
-1.38577
-1.401
-1.41952
-1.44187
-1.46834
-1.499
-1.53408
-1.57377
-1.61837
-1.66799
-1.72258
-1.78184
-1.84512
-1.91073
-1.9753
-2.03352
-2.07885
-2.10396
-2.10162
-2.06189
-1.96431
-1.79979
0.105385
0.102444
0.0913342
0.0764728
0.0582354
0.0364515
0.0105758
-0.0194641
-0.0537708
-0.09263
-0.136371
-0.185074
-0.238645
-0.296981
-0.359429
-0.424438
-0.488854
-0.547839
-0.595104
-0.623346
-0.625741
-0.592438
-0.505408
-0.344057
1.55748
1.55454
1.54365
1.52903
1.51106
1.48958
1.46423
1.43479
1.4011
1.36289
1.32
1.27218
1.21947
1.16205
1.1004
1.03591
0.971516
0.911654
0.861992
0.829037
0.818805
0.838
0.899323
1.02777
2.98599
2.98313
2.97237
2.95798
2.94029
2.91902
2.89397
2.86494
2.83168
2.79389
2.75145
2.70431
2.65235
2.59561
2.53458
2.47054
2.40605
2.34546
2.29419
2.25805
2.24258
2.25381
2.30357
2.41556
4.39367
4.39072
4.37988
4.36545
4.3478
4.32652
4.30151
4.27252
4.2393
4.20168
4.15951
4.11268
4.061
4.00459
3.94398
3.8803
3.81603
3.75518
3.70288
3.66454
3.64587
3.65374
3.70228
3.82534
5.78118
5.77821
5.76726
5.75271
5.73494
5.71364
5.68847
5.65934
5.62603
5.58842
5.5462
5.49924
5.44751
5.39117
5.33059
5.26683
5.20228
5.1406
5.08656
5.04528
5.02095
5.01936
5.05718
5.1224
7.15099
7.14801
7.137
7.12243
7.10448
7.08298
7.05765
7.02827
6.99471
6.95671
6.91416
6.86691
6.81493
6.75827
6.69739
6.63343
6.56871
6.50686
6.45269
6.41181
6.38907
6.38966
6.41953
6.51677
8.50522
8.50226
8.49122
8.47656
8.45849
8.4368
8.41121
8.38156
8.34763
8.30918
8.26616
8.21837
8.16574
8.10849
8.04695
7.9822
7.91661
7.85371
7.7981
7.7548
7.72778
7.72278
7.75467
7.76318
9.84526
9.84242
9.83134
9.81668
9.79861
9.77679
9.75106
9.7212
9.687
9.64818
9.60465
9.55645
9.50345
9.44573
9.38377
9.31872
9.25294
9.19062
9.13756
9.10076
9.08932
9.11831
9.21738
9.44271
11.172
11.1692
11.158
11.1433
11.1252
11.1033
11.0775
11.0475
11.013
10.974
10.9303
10.8818
10.8283
10.7701
10.7077
10.6421
10.5758
10.513
10.4594
10.4218
10.4086
10.431
10.5113
10.6856
12.4834
12.4805
12.4694
12.4547
12.4367
12.415
12.3892
12.3593
12.3251
12.2862
12.2425
12.194
12.1405
12.0823
12.0197
11.9538
11.8871
11.8235
11.7689
11.7305
11.7157
11.7348
11.8056
11.9453
13.778
13.7752
13.7641
13.7497
13.7319
13.7104
13.6851
13.6555
13.6216
13.583
13.5397
13.4914
13.4381
13.38
13.3174
13.2514
13.1843
13.1198
13.0638
13.0229
13.0043
13.0163
13.0715
13.1926
15.0542
15.0515
15.0407
15.0265
15.0091
14.988
14.9631
14.9341
14.9007
14.8627
14.8199
14.7721
14.7193
14.6617
14.5994
14.5333
14.4657
14.4004
14.3428
14.2992
14.2765
14.2826
14.3303
14.4309
16.3108
16.3082
16.2977
16.2839
16.2669
16.2463
16.2219
16.1935
16.1607
16.1233
16.0812
16.0342
15.9821
15.9248
15.8628
15.7971
15.7292
15.6629
15.6032
15.5562
15.5279
15.5242
15.5557
15.6516
17.548
17.5451
17.5347
17.521
17.5044
17.4843
17.4604
17.4325
17.4003
17.3637
17.3224
17.2761
17.2248
17.1684
17.1072
17.042
16.9743
16.9077
16.8473
16.7989
16.7701
16.7691
16.8071
16.9148
18.7619
18.7591
18.7489
18.7357
18.7195
18.6999
18.6767
18.6495
18.6181
18.5825
18.5421
18.4967
18.4463
18.3908
18.3304
18.2656
18.198
18.1306
18.0677
18.0148
17.9767
17.9583
17.9708
18.005
19.9543
19.9515
19.9415
19.9287
19.9128
19.8937
19.8711
19.8446
19.8141
19.7793
19.7398
19.6955
19.6461
19.5917
19.5323
19.4684
19.4016
19.3345
19.2714
19.2182
19.1806
19.1621
19.1731
19.3784
21.1246
21.1217
21.1121
21.0996
21.0841
21.0655
21.0434
21.0176
20.9879
20.9538
20.9152
20.8719
20.8236
20.7702
20.7117
20.6487
20.5822
20.5148
20.4503
20.3931
20.348
20.3208
20.3085
20.1821
22.2745
22.2715
22.262
22.2497
22.2346
22.2163
22.1946
22.1694
22.1401
22.1067
22.0689
22.0265
21.9791
21.9266
21.8692
21.8073
21.7418
21.6751
21.6108
21.5533
21.5069
21.4708
21.445
21.5977
23.404
23.4008
23.3914
23.3793
23.3645
23.3465
23.3251
23.3002
23.2715
23.2388
23.2017
23.1599
23.1132
23.0617
23.0052
22.9441
22.8793
22.813
22.7483
22.689
22.638
22.5982
22.5827
22.58
24.5146
24.5112
24.502
24.4901
24.4754
24.4577
24.4367
24.4122
24.3839
24.3516
24.315
24.2738
24.2279
24.1771
24.1214
24.0612
23.9974
23.932
23.8683
23.8105
23.7622
23.7301
23.7387
23.8039
25.6076
25.6041
25.5951
25.5834
25.5689
25.5514
25.5306
25.5064
25.4785
25.4466
25.4105
25.3699
25.3246
25.2745
25.2196
25.1602
25.0975
25.0334
24.9713
24.9163
24.8742
24.8521
24.8607
24.9613
26.6842
26.6806
26.6717
26.6602
26.6459
26.6286
26.6081
26.5842
26.5566
26.525
26.4892
26.4491
26.4044
26.3549
26.3007
26.242
26.1797
26.116
26.0541
25.9983
25.9533
25.9231
25.9117
25.9503
27.7455
27.7418
27.733
27.7215
27.7074
27.6902
27.6699
27.6462
27.6188
27.5875
27.5522
27.5125
27.4682
27.4191
27.3655
27.3074
27.2459
27.1828
27.1213
27.0653
27.0192
26.988
26.9833
27.0241
28.7913
28.7874
28.7787
28.7673
28.7533
28.7364
28.7163
28.6928
28.6657
28.6349
28.5999
28.5606
28.5167
28.4682
28.4151
28.3576
28.2966
28.2339
28.1727
28.1173
28.0721
28.0423
28.0401
28.1097
29.8221
29.8182
29.8096
29.7984
29.7845
29.7678
29.7479
29.7247
29.698
29.6674
29.6328
29.5939
29.5506
29.5026
29.4499
29.3929
29.3325
29.2704
29.2098
29.1552
29.1118
29.0856
29.0835
29.1493
30.8382
30.8342
30.8257
30.8147
30.801
30.7845
30.7649
30.742
30.7157
30.6854
30.6512
30.6128
30.5698
30.5223
30.4702
30.4137
30.3536
30.2915
30.2303
30.174
30.1267
30.0941
30.0863
30.1033
31.8399
31.8359
31.8276
31.8167
31.8033
31.787
31.7676
31.745
31.7189
31.689
31.6552
31.6172
31.5748
31.5277
31.476
31.42
31.3602
31.2985
31.2375
31.181
31.1334
31.101
31.0905
31.0788
32.8279
32.8239
32.8156
32.8048
32.7916
32.7754
32.7563
32.7339
32.708
32.6785
32.645
32.6074
32.5654
32.5188
32.4676
32.412
32.3527
32.2913
32.2305
32.1737
32.1249
32.0889
32.0777
32.1337
33.8019
33.7978
33.7896
33.7789
33.7658
33.7499
33.7309
33.7088
33.6832
33.6541
33.621
33.5837
33.5421
33.496
33.4453
33.3902
33.3314
33.2703
33.2095
33.1529
33.1043
33.0699
33.0644
33.1015
34.7624
34.7583
34.7501
34.7396
34.7265
34.7108
34.692
34.6701
34.6449
34.616
34.5833
34.5464
34.5052
34.4596
34.4093
34.3548
34.2965
34.2358
34.1753
34.1187
34.0703
34.0352
34.025
34.0824
35.7098
35.7057
35.6977