/*--------------------------------*- C++ -*----------------------------------*\
| =========                 |                                                 |
| \\      /  F ield         | OpenFOAM: The Open Source CFD Toolbox           |
|  \\    /   O peration     | Version:  2.3.0                                 |
|   \\  /    A nd           | Web:      www.OpenFOAM.org                      |
|    \\/     M anipulation  |                                                 |
\*---------------------------------------------------------------------------*/
FoamFile
{
    version     2.0;
    format      ascii;
    class       surfaceScalarField;
    location    "9000";
    object      phi;
}
// * * * * * * * * * * * * * * * * * * * * * * * * * * * * * * * * * * * * * //

dimensions      [0 3 -1 0 0 0 0];

internalField   nonuniform List<scalar> 
28212
(
-0.00937679
-0.0132071
0.0146807
0.00790321
-0.0106638
-0.012107
0.013394
-0.0117811
-0.0110995
0.0122169
-0.012748
-0.010172
0.0111388
-0.0135782
-0.00931959
0.0101498
-0.0142893
-0.00853502
0.00924617
-0.0148931
-0.00781306
0.00841687
-0.0153993
-0.00714943
0.00765564
-0.015817
-0.00653731
0.00695498
-0.0161471
-0.00597436
0.0063044
-0.0163916
-0.00545207
0.00569661
-0.0165466
-0.00496961
0.00512465
-0.0166109
-0.00452036
0.00458465
-0.0165804
-0.00410064
0.00407009
-0.016457
-0.00370849
0.00358514
-0.0162439
-0.00333648
0.00312334
-0.0159438
-0.00298925
0.00268915
-0.0155684
-0.00265703
0.00228166
-0.0151248
-0.00234587
0.00190228
-0.0146262
-0.00204847
0.00154989
-0.014082
-0.00176821
0.001224
-0.0134979
-0.00150495
0.000920832
-0.0129031
-0.00125927
0.000664489
-0.00103293
-0.0124187
0.000548473
-0.00839578
-0.011923
0.00711164
-0.00950539
-0.0109974
-0.010456
-0.0101489
-0.0112595
-0.00936853
-0.0119316
-0.00864751
-0.0124821
-0.0079845
-0.0129233
-0.0073719
-0.0132655
-0.00680717
-0.0135179
-0.0062849
-0.013691
-0.00580128
-0.0137902
-0.00535286
-0.0138218
-0.00493809
-0.0137925
-0.00454959
-0.0137031
-0.00419008
-0.0135577
-0.00385392
-0.013356
-0.0035381
-0.0130989
-0.00324635
-0.0127829
-0.0029731
-0.0124111
-0.00271769
-0.0119769
-0.00248261
-0.0114789
-0.00226619
-0.0109158
-0.00206811
-0.0102842
-0.00189084
-0.00173422
-0.00958292
-0.00751529
-0.0108037
0.00639597
-0.00847852
-0.0100342
-0.00929655
-0.00933083
-0.00998468
-0.00868041
-0.0105499
-0.00808224
-0.0110063
-0.00752814
-0.0113601
-0.00701814
-0.0116215
-0.00654571
-0.0117986
-0.00610784
-0.011896
-0.00570386
-0.0119224
-0.00532641
-0.0118847
-0.00497581
-0.0117843
-0.00464998
-0.0116294
-0.00434496
-0.0114233
-0.00406004
-0.0111687
-0.00379271
-0.0108714
-0.00354369
-0.0105349
-0.00330953
-0.0101613
-0.00309133
-0.00975449
-0.00288943
-0.00931781
-0.00270287
-0.00885363
-0.00253229
-0.00836535
-0.00237913
-0.00224179
-0.00785777
-0.00672511
-0.00981456
0.00573598
-0.00756507
-0.00919419
-0.00827772
-0.00861819
-0.00887038
-0.00808774
-0.00935437
-0.00759825
-0.00973768
-0.00714484
-0.0100308
-0.00672499
-0.010241
-0.00633557
-0.010376
-0.00597281
-0.0104417
-0.00563815
-0.0104443
-0.00532379
-0.0103885
-0.0050317
-0.0102808
-0.00475763
-0.0101248
-0.00450096
-0.00992466
-0.00426017
-0.00968239
-0.00403498
-0.00940485
-0.00382123
-0.00909187
-0.00362252
-0.00874798
-0.00343522
-0.00837609
-0.00326131
-0.00797919
-0.00309977
-0.00756083
-0.00295065
-0.0071231
-0.00281686
-0.00269498
-0.00666991
-0.00602235
-0.00894929
0.00515708
-0.00676174
-0.0084548
-0.00738425
-0.00799568
-0.00790039
-0.00757161
-0.00831916
-0.00717948
-0.00864902
-0.00681498
-0.00889663
-0.00647738
-0.00907134
-0.00616086
-0.00917627
-0.00586788
-0.00922165
-0.00559276
-0.00920889
-0.00533655
-0.0091469
-0.00509368
-0.00903591
-0.00486863
-0.00888372
-0.00465316
-0.00869239
-0.0044515
-0.00846664
-0.00426072
-0.00820786
-0.00408002
-0.00792124
-0.00390913
-0.00760922
-0.00374724
-0.00727349
-0.00359705
-0.00691695
-0.00345631
-0.0065423
-0.0033253
-0.00615464
-0.00320452
-0.00309619
-0.00575342
-0.00539091
-0.00818331
0.00462492
-0.00604828
-0.00779742
-0.00659821
-0.00744574
-0.00705298
-0.00711684
-0.00742039
-0.00681206
-0.00770719
-0.00652818
-0.00792153
-0.00626305
-0.00806923
-0.00601315
-0.00815681
-0.00578031
-0.00818887
-0.00556069
-0.00817195
-0.00535348
-0.00810793
-0.0051577
-0.00800395
-0.00497261
-0.00786062
-0.00479648
-0.00768383
-0.00462829
-0.00747585
-0.0044687
-0.0072398
-0.00431607
-0.00697908
-0.00416985
-0.00669461
-0.0040317
-0.00638961
-0.00390205
-0.00606859
-0.00377733
-0.00573178
-0.00366211
-0.00538051
-0.00355579
-0.00345835
-0.00501835
-0.0048379
-0.00749609
0.00415069
-0.00541818
-0.00721714
-0.00590761
-0.00695632
-0.00630989
-0.00671456
-0.00663391
-0.00648804
-0.00688655
-0.00627554
-0.00707465
-0.00607495
-0.00720157
-0.00588623
-0.00727589
-0.00570599
-0.00730016
-0.00553643
-0.00728073
-0.0053729
-0.00721902
-0.00521942
-0.00712137
-0.00507026
-0.00698957
-0.00492828
-0.00682738
-0.00479048
-0.00663765
-0.00465843
-0.00642344
-0.00453027
-0.00618586
-0.00440743
-0.00592803
-0.00428954
-0.00565371
-0.00417637
-0.00536138
-0.00406966
-0.00505602
-0.00396747
-0.00473977
-0.00387204
-0.00378466
-0.00441346
-0.00434193
-0.00688505
0.00373088
-0.0048614
-0.00669767
-0.00529692
-0.0065208
-0.00565629
-0.00635519
-0.00594563
-0.0061987
-0.00616952
-0.00605165
-0.00633466
-0.00590981
-0.00644681
-0.00577409
-0.00650929
-0.00564351
-0.00652922
-0.0055165
-0.0065087
-0.00539342
-0.00645179
-0.00527633
-0.00636153
-0.00516051
-0.00624057
-0.00504924
-0.00609242
-0.00493863
-0.00591975
-0.0048311
-0.00572421
-0.00472582
-0.00550853
-0.00462311
-0.005275
-0.00452307
-0.00502537
-0.004426
-0.00476204
-0.00433299
-0.00448643
-0.00424308
-0.00419802
-0.00416044
-0.00408135
-0.00390133
-0.00390298
-0.00633811
0.00335604
-0.00436761
-0.00623305
-0.00475731
-0.00613109
-0.00507885
-0.00603365
-0.00533729
-0.00594026
-0.00553791
-0.00585103
-0.00568513
-0.00576258
-0.00578391
-0.00567531
-0.00583886
-0.00558856
-0.00585443
-0.00550093
-0.00583412
-0.00541373
-0.00578189
-0.00532856
-0.00569859
-0.00524382
-0.00558771
-0.00516013
-0.00545311
-0.00507323
-0.0052952
-0.00498901
-0.00511762
-0.00490339
-0.00492318
-0.00481754
-0.00471197
-0.00473428
-0.00448492
-0.00465305
-0.00424604
-0.00457188
-0.00399508
-0.00449404
-0.00373534
-0.00442019
-0.00435047
-0.00346621
-0.00351128
0.00302246
-0.00584928
-0.00392871
-0.00581562
-0.00427875
-0.00578105
-0.00456682
-0.00574558
-0.00479891
-0.00570816
-0.00497939
-0.00567055
-0.00511119
-0.00563078
-0.00519994
-0.00558656
-0.00524767
-0.00554083
-0.00525949
-0.00548911
-0.00524173
-0.00543149
-0.00519133
-0.00537895
-0.00511747
-0.00531769
-0.00501457
-0.00526303
-0.00489293
-0.00519487
-0.00475086
-0.00513108
-0.00458745
-0.0050668
-0.00441167
-0.00499333
-0.00421849
-0.00492745
-0.00401414
-0.0048574
-0.0037972
-0.00478882
-0.0035694
-0.00472184
-0.00333404
-0.00465554
-0.00308898
-0.00459554
-0.0110736
-0.000918513
-0.000426505
-0.0100144
-0.000938762
-0.000120491
-0.00907836
-0.000991458
5.54378e-05
-0.00822081
-0.00107022
0.000212671
-0.0074235
-0.00116756
0.000370252
-0.0066759
-0.00128513
0.00053753
-0.00597399
-0.00142053
0.000718617
-0.00531714
-0.00157443
0.000917585
-0.00470407
-0.00174954
0.00113648
-0.00413776
-0.00194416
0.00137785
-0.00362121
-0.00216105
0.00164449
-0.00315787
-0.00240095
0.00193761
-0.00275133
-0.00266587
0.00225933
-0.00240706
-0.00295707
0.0026128
-0.00212854
-0.00327831
0.00299979
-0.00192156
-0.00363075
0.00342376
-0.00179036
-0.00401881
0.0038876
-0.0017412
-0.0044452
0.00439604
-0.00178015
-0.00491454
0.0049535
-0.0019141
-0.00543087
0.00556482
-0.00215205
-0.00599928
0.00623723
-0.00250393
-0.00662483
0.00697671
-0.00298118
-0.00731333
0.00779058
-0.00807454
0.00868638
-0.00359302
-0.0088384
-0.00166303
-0.00810806
-0.0016691
-0.00740492
-0.0016946
-0.00673687
-0.00173827
-0.00610329
-0.00180115
-0.00550781
-0.00188061
-0.00494914
-0.0019792
-0.00442827
-0.0020953
-0.00394753
-0.00223029
-0.00350646
-0.00238523
-0.00310778
-0.00255972
-0.00275334
-0.0027554
-0.00244494
-0.00297427
-0.0021844
-0.0032176
-0.00197713
-0.00348558
-0.00182626
-0.00378162
-0.00173645
-0.00410862
-0.0017135
-0.00446816
-0.00176505
-0.00486299
-0.00189884
-0.00529708
-0.00212364
-0.00577448
-0.00244962
-0.00629885
-0.00288718
-0.00687577
-0.00751094
-0.00345078
-0.00734097
-0.00217984
-0.00682257
-0.0021875
-0.006309
-0.00220816
-0.00580524
-0.00224203
-0.00531664
-0.00228975
-0.00484435
-0.0023529
-0.00439317
-0.00243038
-0.00396443
-0.00252404
-0.00356153
-0.00263319
-0.003187
-0.00275976
-0.00284389
-0.00290284
-0.00253585
-0.00306344
-0.00226516
-0.00324496
-0.00203793
-0.00344483
-0.00185675
-0.00366677
-0.001726
-0.00391237
-0.00165219
-0.00418243
-0.00164052
-0.00447982
-0.00169697
-0.00480655
-0.00182804
-0.00516601
-0.00204136
-0.00556115
-0.00234591
-0.0059943
-0.00275119
-0.00647049
-0.00699536
-0.00326677
-0.00621322
-0.00263653
-0.00576269
-0.00263803
-0.00532214
-0.00264871
-0.00489394
-0.00267023
-0.00448052
-0.00270317
-0.00408238
-0.00275105
-0.00370378
-0.00280898
-0.00334588
-0.00288194
-0.00300984
-0.00296923
-0.0027005
-0.0030691
-0.002419
-0.00318434
-0.00216753
-0.0033149
-0.00195097
-0.00346153
-0.00177125
-0.00362455
-0.00163173
-0.00380629
-0.00153791
-0.00400618
-0.00149387
-0.00422647
-0.00150374
-0.00446995
-0.00157339
-0.00473691
-0.00170928
-0.00503012
-0.00191884
-0.00535159
-0.00220849
-0.00570466
-0.00258711
-0.00609188
-0.00651776
-0.00306471
-0.00535128
-0.00303867
-0.00495821
-0.00303109
-0.0045754
-0.00303152
-0.00420393
-0.0030417
-0.00384614
-0.00306096
-0.00350393
-0.00309325
-0.00317736
-0.00313555
-0.00286946
-0.00318984
-0.00258308
-0.00325561
-0.002319
-0.00333317
-0.00208039
-0.00342295
-0.00186857
-0.00352672
-0.00168856
-0.00364154
-0.00154098
-0.00377213
-0.00143129
-0.00391597
-0.00136154
-0.00407593
-0.00133663
-0.00425138
-0.00136073
-0.00444586
-0.00143948
-0.00465816
-0.00157764
-0.00489196
-0.00178129
-0.00514794
-0.00205711
-0.00542883
-0.00241333
-0.00573566
-0.00607278
-0.00285831
-0.00465701
-0.00340001
-0.00430547
-0.00338264
-0.00396506
-0.00337193
-0.00363575
-0.00337101
-0.00331883
-0.00337789
-0.00301751
-0.00339456
-0.002731
-0.00342207
-0.00246273
-0.0034581
-0.00221432
-0.00350402
-0.00198637
-0.00356112
-0.00178113
-0.0036282
-0.00160234
-0.00370551
-0.00145068
-0.0037932
-0.00133033
-0.00389248
-0.00124318
-0.00400312
-0.0011934
-0.00412572
-0.00118356
-0.00426121
-0.00121953
-0.00440989
-0.00130375
-0.00457393
-0.00144224
-0.00475347
-0.00163929
-0.00495089
-0.00190248
-0.00516564
-0.00223649
-0.00540165
-0.00566035
-0.00264892
-0.00408635
-0.00372713
-0.00376939
-0.00369959
-0.0034632
-0.00367813
-0.00316949
-0.00366472
-0.00288682
-0.00366055
-0.00261888
-0.00366251
-0.00236559
-0.00367535
-0.00212889
-0.0036948
-0.00190934
-0.00372357
-0.00170997
-0.00376048
-0.00153225
-0.00380592
-0.00137816
-0.00385959
-0.00124884
-0.00392253
-0.00114877
-0.00399255
-0.00107907
-0.00407282
-0.00104397
-0.00416082
-0.00104563
-0.00425956
-0.00108788
-0.00436764
-0.00117476
-0.00448705
-0.00131044
-0.00461779
-0.00150059
-0.00476074
-0.00174929
-0.00491694
-0.00206248
-0.00508846
-0.00527567
-0.00244717
-0.00360572
-0.00402274
-0.00331929
-0.00398603
-0.00304364
-0.00395377
-0.00277865
-0.00392971
-0.00252641
-0.00391279
-0.00228548
-0.00390344
-0.00205954
-0.00390129
-0.00184866
-0.00390568
-0.00165493
-0.0039173
-0.0014791
-0.00393632
-0.00132304
-0.00396198
-0.00118831
-0.00399432
-0.00107865
-0.00403219
-0.000993373
-0.00407783
-0.000938294
-0.0041279
-0.000913092
-0.00418602
-0.000922316
-0.00425033
-0.000968541
-0.00432141
-0.00105536
-0.00440024
-0.00118689
-0.00448625
-0.00136769
-0.00457994
-0.00160197
-0.00468266
-0.00189525
-0.00479519
-0.00491845
-0.00225247
-0.00319592
-0.00429303
-0.00293709
-0.00424486
-0.00268758
-0.00420328
-0.00244894
-0.00416834
-0.0022204
-0.00414133
-0.00200461
-0.00411923
-0.00180253
-0.00410338
-0.00161418
-0.00409403
-0.00144087
-0.00409061
-0.00128448
-0.00409271
-0.00114676
-0.0040997
-0.00102954
-0.00411154
-0.000933527
-0.0041282
-0.000862279
-0.00414907
-0.000816588
-0.00417359
-0.000799582
-0.00420302
-0.000813657
-0.00423626
-0.000861333
-0.00427374
-0.000946612
-0.00431496
-0.00107309
-0.00435977
-0.00124389
-0.00440914
-0.00146338
-0.00446317
-0.00173587
-0.0045227
-0.00458728
-0.00206703
-0.00284427
-0.00453774
-0.00260935
-0.00447978
-0.00238402
-0.00442861
-0.00216816
-0.0043842
-0.00196317
-0.00434633
-0.00176755
-0.00431485
-0.00158512
-0.0042858
-0.00141674
-0.00426241
-0.00126273
-0.00424462
-0.00112283
-0.0042326
-0.00100044
-0.00422209
-0.000896621
-0.00421536
-0.000812778
-0.00421205
-0.000751674
-0.00421018
-0.000714673
-0.00421059
-0.000702944
-0.00421475
-0.000717326
-0.00422188
-0.000767409
-0.00422365
-0.000850054
-0.00423231
-0.000968955
-0.00424087
-0.00112941
-0.00424868
-0.00133352
-0.00425906
-0.00158595
-0.00427027
-0.00428231
-0.00189092
0.00099405
0.00345576
-0.00377774
-0.000672077
0.00122099
0.00293674
-0.00316368
0.00137633
0.00249805
-0.00265339
0.00147636
0.00212699
-0.00222702
0.00153398
0.00181265
-0.00187026
0.00155941
0.00154597
-0.00157141
0.00156127
0.00131979
-0.00132165
0.00154633
0.00112793
-0.00111299
0.00151972
0.000965464
-0.000938844
0.00148572
0.000827872
-0.000793879
0.00144719
0.000711865
-0.00067333
0.00140654
0.000613951
-0.000573305
0.00136492
0.000531986
-0.000490367
0.00132298
0.000463822
-0.000421877
0.00128068
0.000407865
-0.000365569
0.00123617
0.000363765
-0.000319251
0.00118692
0.000330859
-0.000281612
0.001128
0.000310432
-0.000251515
0.00105139
0.000305594
-0.000228975
0.000943534
0.000321983
-0.000214131
0.000782557
0.000370575
-0.000209598
0.000531914
0.000471194
-0.000220551
0.000125187
0.000663355
-0.000256628
0.00102769
-0.000583484
-0.000319014
0.000925488
0.00316358
-0.000633305
0.00113713
0.00272509
0.00128581
0.00234937
0.00138486
0.00202793
0.00144499
0.00175253
0.00147498
0.00151599
0.00148201
0.00131276
0.00147174
0.00113819
0.0014489
0.000988311
0.00141746
0.000859313
0.00137987
0.000749453
0.00133802
0.000655805
0.00129312
0.000576885
0.0012449
0.000512039
0.00119255
0.000460211
0.0011337
0.000422615
0.00106382
0.000400745
0.000976149
0.000398101
0.000861189
0.000420554
0.000705965
0.000477207
0.00049309
0.00058345
0.000200194
0.000764092
-0.000190756
0.0010543
0.0014953
-0.000658362
0.000854878
0.00290399
-0.000595284
0.00104898
0.00253099
0.00118747
0.00221088
0.00128148
0.00193393
0.00133981
0.00169419
0.00136994
0.00148586
0.00137809
0.00130461
0.00136939
0.00114689
0.00134798
0.00100972
0.00131645
0.000890843
0.00127783
0.000788073
0.00123344
0.000700194
0.00118368
0.00062665
0.00112852
0.000567195
0.0010666
0.000522127
0.000995237
0.000493983
0.000910409
0.000485573
0.000806327
0.000502183
0.000675725
0.000551155
0.000508904
0.000644029
0.000294765
0.000797588
2.38263e-05
0.00103503
-0.000308911
0.00138704
0.00187437
-0.00068798
0.000780319
0.00265992
-0.000536247
0.000959822
0.00235148
0.00108897
0.00208173
0.00117744
0.00184547
0.00123336
0.00163827
0.00126302
0.0014562
0.00127157
0.00129606
0.00126347
0.001155
0.00124207
0.00103111
0.00121077
0.000922148
0.00117101
0.00082783
0.00112437
0.000746833
0.00107153
0.000679495
0.00101238
0.000626336
0.000945512
0.000589
0.000869195
0.0005703
0.000779821
0.000574947
0.000673325
0.00060868
0.000544053
0.000680427
0.000384771
0.00080331
0.000187637
0.000994722
-5.4888e-05
0.00127756
-0.00034635
0.0016785
0.00221557
-0.000687551
0.000712754
0.00244371
-0.000496552
0.000876192
0.00218805
0.000995188
0.00196273
0.0010777
0.00176295
0.00113037
0.0015856
0.00115855
0.00142802
0.00116709
0.00128751
0.00115937
0.00116272
0.00113911
0.00105137
0.00110814
0.000953124
0.00106892
0.000867048
0.00102234
0.000793415
0.000969062
0.000732771
0.000909044
0.000686355
0.000841594
0.000656449
0.000765008
0.000646886
0.000677096
0.000662858
0.000574329
0.000711447
0.000452039
0.000802717
0.000304664
0.000950684
0.000125384
0.001174
-9.29311e-05
0.00149587
-0.000355596
0.00194116
0.00252925
-0.000669272
0.000648255
0.00224543
-0.000449976
0.000797489
0.00203881
0.00090697
0.00185325
0.000983691
0.00168623
0.00103289
0.0015364
0.00105976
0.00140115
0.00106792
0.00127935
0.00106123
0.00116942
0.00104186
0.00107074
0.00101243
0.000982552
0.00097459
0.000904886
0.000929435
0.00083857
0.000877738
0.000784467
0.000819448
0.000744646
0.000753864
0.000722033
0.000679873
0.000720876
0.000595863
0.000746868
0.000498908
0.000808402
0.000385035
0.000916591
0.00024941
0.00108631
8.60952e-05
0.00133732
-0.000111417
0.00169338
-0.000352297
0.00218204
0.00281716
-0.000640212
0.000589772
0.00206788
-0.000412217
0.000725215
0.00190337
0.000825416
0.00175305
0.000895927
0.00161572
0.000941923
0.00149041
0.000967282
0.00137579
0.000975554
0.00127108
0.000969495
0.00117548
0.000951425
0.00108881
0.000923812
0.00101017
0.000888199
0.000940499
0.000845897
0.000880872
0.000796797
0.000833567
0.000741225
0.000800217
0.000678891
0.000784368
0.000608974
0.000790793
0.000529714
0.000826129
0.000439003
0.000899112
0.000333421
0.00102217
0.00020875
0.00121098
5.89745e-05
0.00148709
-0.000122627
0.00187499
-0.000342813
0.00240223
0.00308273
-0.00060838
0.000535581
0.0019089
-0.000376598
0.00065863
0.00178032
0.000750161
0.00166152
0.000815182
0.0015507
0.00085783
0.00144776
0.000881789
0.00135183
0.00088991
0.00126296
0.000884827
0.00118056
0.000868392
0.00110524
0.000842224
0.00103633
0.000809498
0.000973225
0.000769932
0.000920438
0.000724545
0.000878954
0.000672665
0.000852097
0.000614226
0.000842808
0.000548652
0.000856366
0.000474624
0.000900157
0.000390215
0.000983521
0.000292431
0.00111996
0.000177883
0.00132553
4.14359e-05
0.00162354
-0.000124505
0.00204093
-0.000327106
0.00260483
0.00332935
-0.000573728
0.000485773
0.00176389
-0.000340766
0.000597785
0.00166831
0.000681507
0.0015778
0.000741337
0.00149087
0.000780565
0.00140853
0.000802893
0.0013295
0.000810937
0.00125491
0.000806797
0.0011847
0.000791848
0.00112019
0.000767413
0.00106077
0.000736856
0.00100378
0.000700819
0.000956476
0.000658939
0.000920834
0.000611004
0.000900032
0.000556877
0.000896935
0.000496275
0.000916969
0.000427474
0.000968958
0.00034906
0.00106194
0.000257639
0.00121138
0.000151603
0.00143156
2.68023e-05
0.00174834
-0.000125949
0.00219368
-0.000313512
0.00279239
0.00355441
-0.000538566
0.000440182
-0.000312979
0.00163669
0.000541151
0.00156734
0.000617114
0.00150184
0.000672369
0.00143562
0.000709123
0.00137178
0.00073024
0.00130839
0.000737985
0.00124717
0.000735615
0.00118707
0.000721804
0.001134
0.000697872
0.0010847
0.000670474
0.00103118
0.000638056
0.000988894
0.000600499
0.00095839
0.000556533
0.000943998
0.000506234
0.000947234
0.00045001
0.000973193
0.00038598
0.00103299
0.000313748
0.00113417
0.000226538
0.00129859
0.00012582
0.00153228
1.32324e-05
0.00186093
-0.000124473
0.00233138
-0.000300344
0.00296827
-0.000523879
0.00377794
-0.000952276
0.001714
-0.00134521
-0.00149609
0.00225077
-0.00170695
-0.00207172
0.00257213
-0.0019965
-0.00264244
0.00283651
-0.00226579
-0.00319184
0.00309114
-0.00254175
-0.00370948
0.00334946
-0.00283182
-0.00419268
0.00362167
-0.00313847
-0.00462959
0.00390119
-0.00346428
-0.00501501
0.00419899
-0.00381357
-0.0053425
0.00451319
-0.0041857
-0.00560682
0.00484702
-0.00458269
-0.00580408
0.00520449
-0.00500723
-0.00592826
0.00558843
-0.00546426
-0.00597223
0.00599948
-0.00595551
-0.0059369
0.00644596
-0.00648129
-0.00581123
0.00692646
-0.00705214
-0.00558997
0.00744688
-0.00766814
-0.00526649
0.00801166
-0.00833514
-0.00483379
0.00862243
-0.00905512
-0.00428497
0.00928741
-0.00983622
-0.00360676
0.0100082
-0.0106864
-0.00279496
0.0107907
-0.0116025
-0.00183494
0.0116408
-0.0126008
0.012564
-0.0136834
-0.00071556
-0.00106824
0.00212388
-0.00156508
0.0027476
-0.00209892
0.00310596
-0.00261511
0.0033527
-0.00311069
0.00358673
-0.00357371
0.00381247
-0.00399659
0.00404456
-0.00437917
0.00428377
-0.00471163
0.00453145
-0.00499379
0.00479534
-0.00521859
0.00507183
-0.00538505
0.00537094
-0.00548306
0.00568644
-0.00551597
0.00603239
-0.00547211
0.00640211
-0.00535005
0.0068044
-0.00514475
0.00724157
-0.00484658
0.0077135
-0.00445026
0.00822611
-0.00394655
0.00878369
-0.00332803
0.0093897
-0.00258602
0.0100487
-0.00170907
0.0107638
0.0115411
-0.000686133
-0.0010899
0.0025258
-0.00154622
0.00320392
-0.00203122
0.00359097
-0.00250243
0.00382391
-0.00294803
0.00403233
-0.00336455
0.00422899
-0.00374355
0.00442355
-0.00408138
0.0046216
-0.00437773
0.0048278
-0.00462387
0.00504148
-0.00482081
0.00526877
-0.0049605
0.00551063
-0.00504848
0.00577442
-0.00507018
0.00605409
-0.00502862
0.00636055
-0.00491446
0.00669024
-0.0047238
0.00705091
-0.0044491
0.00743879
-0.00408726
0.00786427
-0.00362823
0.00832466
-0.00306313
0.00882459
-0.00238589
0.00937142
-0.00158582
0.00996373
0.0106086
-0.000653388
-0.00107209
0.00291034
-0.00149111
0.00362294
-0.00193031
0.00403017
-0.00235907
0.00425267
-0.0027603
0.00443356
-0.00313121
0.0045999
-0.00347035
0.0047627
-0.00377308
0.00492433
-0.00403468
0.00508939
-0.00425405
0.00526086
-0.00442945
0.00544417
-0.00455525
0.00563642
-0.00462774
0.00584692
-0.00464782
0.00607417
-0.00460751
0.00632025
-0.00450114
0.00658387
-0.00432713
0.00687689
-0.00407773
0.0071894
-0.00374511
0.00753166
-0.00332606
0.0079056
-0.00281474
0.00831328
-0.00219555
0.00875223
-0.00146665
0.00923483
0.009759
-0.000617036
-0.00102784
0.00326891
-0.00141106
0.00400616
-0.00181283
0.00443194
-0.00219993
0.00463976
-0.00256235
0.00479597
-0.00289813
0.00493568
-0.00320209
0.00506666
-0.00347185
0.00519409
-0.00370604
0.00532358
-0.00390069
0.00545551
-0.00405666
0.00560014
-0.00417001
0.00574977
-0.00423741
0.00591432
-0.00425289
0.00608965
-0.00421277
0.00628013
-0.00411707
0.00648818
-0.00395648
0.00671629
-0.00373086
0.00696378
-0.00343063
0.00723143
-0.0030498
0.00752477
-0.0025786
0.00784208
-0.00201965
0.00819328
-0.0013551
0.00857028
0.00898525
-0.000581348
-0.000970109
0.00359881
-0.00132626
0.0043623
-0.0016907
0.00479638
-0.00203855
0.00498762
-0.00236698
0.00512441
-0.00266651
0.00523521
-0.00293889
0.00533904
-0.00318209
0.0054373
-0.0033924
0.00553389
-0.00357043
0.00563354
-0.00371024
0.00573995
-0.00381058
0.00585011
-0.00386947
0.00597321
-0.00388297
0.00610315
-0.00384956
0.00624672
-0.00376124
0.00639986
-0.00361617
0.00657123
-0.00340851
0.00675612
-0.00313435
0.00695727
-0.00278809
0.00717851
-0.00236366
0.00741765
-0.00185122
0.00768084
-0.00124925
0.00796831
0.00827951
-0.000543509
-0.00091092
0.00390135
-0.00123474
0.00468613
-0.00156332
0.00512496
-0.00188226
0.00530656
-0.00217588
0.00541802
-0.0024489
0.00550823
-0.00269307
0.00558321
-0.00291303
0.00565726
-0.00310282
0.00572367
-0.00326087
0.0057916
-0.00338559
0.00586467
-0.00347938
0.0059439
-0.00353005
0.00602388
-0.00354434
0.00611743
-0.00351171
0.00621409
-0.00343287
0.00632102
-0.00330138
0.00643973
-0.00311176
0.0065665
-0.00286393
0.00670944
-0.00254993
0.00686451
-0.00216392
0.00703165
-0.00169818
0.0072151
-0.00114849
0.00741862
0.00763826
-0.00050724
-0.000853504
0.00418112
-0.00114768
0.0049803
-0.00144552
0.0054228
-0.00172976
0.00559079
-0.00199506
0.00568333
-0.0022404
0.00575357
-0.00246359
0.00580641
-0.00265883
0.0058525
-0.00283089
0.00589573
-0.00297588
0.00593659
-0.00309
0.00597879
-0.00317149
0.00602539
-0.00322065
0.00607304
-0.00322915
0.00612594
-0.00320172
0.00618666
-0.00312997
0.00624927
-0.00301028
0.00632004
-0.00284046
0.00639668
-0.00261457
0.00648354
-0.00232675
0.0065767
-0.00197539
0.00668028
-0.00155596
0.00679567
-0.0010568
0.00691946
0.0070533
-0.000471846
-0.000794546
0.0044371
-0.00105431
0.00524006
-0.00132406
0.00569255
-0.00158258
0.00584932
-0.00182748
0.00592822
-0.00204843
0.00597452
-0.0022496
0.00600758
-0.00242718
0.00603007
-0.00258175
0.0060503
-0.00271182
0.00606666
-0.00281557
0.00608253
-0.00289124
0.00610106
-0.00293454
0.00611634
-0.00294586
0.00613726
-0.00291711
0.0061579
-0.00285068
0.00618284
-0.00274245
0.00621181
-0.00259038
0.00624461
-0.0023844
0.00627757
-0.00212497
0.00631727
-0.00180755
0.00636286
-0.00142243
0.00641055
-0.000967265
0.00646429
0.00652454
-0.000438499
-0.000755021
0.00466825
-0.000969974
0.00545502
-0.00121531
0.00593788
-0.00145008
0.00608409
-0.00166936
0.00614751
-0.00186991
0.00617506
-0.00205098
0.00618866
-0.00221332
0.00619241
-0.00235503
0.00619201
-0.00247248
0.00618412
-0.0025662
0.00617625
-0.00263389
0.00616875
-0.00267367
0.00615612
-0.00268143
0.00614502
-0.0026575
0.00613397
-0.00260053
0.00612588
-0.00250178
0.00611306
-0.00235889
0.00610172
-0.00217451
0.00609319
-0.00193888
0.00608164
-0.00164762
0.0060716
-0.00129849
0.00606143
-0.000887665
0.00605347
0.00604133
-0.000404459
0.00145716
-0.000908685
0.00267557
-0.000553925
0.00383905
-0.00024265
0.00497854
8.45081e-05
0.00607188
0.000456553
0.00709309
0.000881063
0.0080128
0.00136195
0.00880867
0.00189328
0.00946357
0.00246844
0.00996733
0.00308138
0.0103154
0.00372203
0.0105128
0.00438722
0.0105698
0.00506763
0.0105055
0.00576093
0.0103429
0.00646705
0.0101077
0.00719012
0.00982542
0.00793796
0.00951772
0.00872457
0.00920098
0.00956291
0.00888459
0.0104662
0.00857627
0.0114471
0.00827619
0.0125169
0.00798599
0.0136842
0.014967
0.00769975
-9.67179e-05
-0.000811968
0.000186224
-0.000836868
0.000693696
-0.000750122
0.00136848
-0.00059028
0.00217658
-0.000351541
0.00309234
-3.46984e-05
0.00408753
0.000366758
0.00511934
0.000861475
0.00613775
0.00145002
0.00709397
0.00212517
0.00793842
0.00287758
0.0086375
0.00368814
0.00916426
0.00454088
0.00950889
0.00541629
0.00968071
0.00629523
0.00970003
0.00717079
0.00959375
0.00804425
0.00939934
0.00891898
0.00914926
0.00981299
0.00886789
0.0107475
0.00857458
0.0117405
0.00828001
0.0128115
0.00798968
0.0139746
0.0152484
0.00770829
-1.36438e-05
-0.000798324
-8.03706e-06
-0.000842475
5.62837e-05
-0.000814442
0.00020995
-0.000743947
0.00048886
-0.000630451
0.000918293
-0.000464131
0.00151426
-0.000229209
0.0022743
0.000101435
0.00317521
0.000549106
0.00417161
0.00112876
0.00520597
0.00184322
0.00621139
0.00268272
0.00712257
0.00362969
0.00788635
0.00465251
0.00846206
0.00571952
0.00883507
0.00679779
0.00901706
0.00786225
0.00903349
0.00890256
0.00892457
0.0099219
0.00873061
0.0109415
0.00848745
0.0119836
0.00822005
0.0130789
0.00794353
0.0142511
0.015529
0.00766289
-1.52549e-05
-0.000783069
9.12299e-06
-0.000866853
6.69978e-05
-0.000872317
0.000164634
-0.000841583
0.000310965
-0.000776782
0.000520256
-0.000673423
0.00081073
-0.000519683
0.00120984
-0.000297671
0.00174252
1.6418e-05
0.00242316
0.000448126
0.00324373
0.00102265
0.00416959
0.00175686
0.0051451
0.00265419
0.00609618
0.00370144
0.00694863
0.00486706
0.00763993
0.0061065
0.00813178
0.0073704
0.00841676
0.00861758
0.00851366
0.009825
0.00846557
0.0109896
0.00831401
0.0121352
0.00810123
0.0132917
0.00785606
0.0144963
0.0157843
0.00760076
1.00295e-05
-0.000793098
2.74266e-05
-0.00088425
5.89536e-05
-0.000903844
0.000109848
-0.000892477
0.000186931
-0.000853865
0.000298787
-0.00078528
0.000458586
-0.000679481
0.00068455
-0.000523635
0.00100006
-0.00029909
0.0014306
1.7583e-05
0.00199751
0.000455739
0.00270724
0.00104713
0.0035446
0.00181683
0.00446733
0.00277871
0.00540866
0.00392573
0.00628843
0.00522672
0.00703063
0.0066282
0.00758069
0.00806751
0.00791929
0.0094864
0.00805996
0.0108489
0.00804373
0.0121514
0.00791828
0.0134171
0.00772795
0.0146866
0.0160063
0.00750591
-4.63175e-07
-0.000792635
1.19535e-05
-0.000896666
3.77055e-05
-0.000929596
7.8474e-05
-0.000933245
0.000137553
-0.000912944
0.000219414
-0.00086714
0.000330967
-0.000791034
0.000482552
-0.000675221
0.00068889
-0.000505427
0.000967962
-0.000261489
0.00134255
8.11505e-05
0.00183684
0.000552842
0.00246572
0.00118794
0.00322671
0.00201773
0.00408972
0.00306272
0.00499531
0.00432113
0.0058622
0.00576132
0.00660832
0.00732139
0.00717063
0.00892409
0.00752088
0.0104987
0.00767242
0.0119999
0.00766483
0.0134247
0.00754909
0.0148023
0.0161841
0.00737134
4.6322e-06
-0.000797267
1.70317e-05
-0.000909066
3.70611e-05
-0.000949626
6.70117e-05
-0.000963196
0.000109456
-0.000955388
0.000167678
-0.000925362
0.000246213
-0.00086957
0.000352087
-0.000781095
0.000495187
-0.000648527
0.000689571
-0.000455873
0.000952068
-0.000181347
0.00130344
0.000201475
0.00176518
0.000726198
0.00235392
0.00142899
0.00307118
0.00234545
0.00389289
0.00349942
0.00476446
0.00488975
0.00560491
0.00648094
0.00632862
0.00820038
0.00686944
0.00995786
0.00720018
0.0116691
0.00733581
0.0132891
0.00731936
0.0148188
0.0162984
0.00720506
2.86339e-06
-0.00080013
1.19669e-05
-0.000918169
2.84543e-05
-0.000966113
5.27201e-05
-0.000987462
8.68674e-05
-0.000989536
0.000133224
-0.000971718
0.000194489
-0.000930834
0.000275474
-0.00086208
0.000383078
-0.000756131
0.000526815
-0.000599609
0.000719532
-0.000374063
0.000977201
-5.61944e-05
0.00131982
0.000383579
0.00176768
0.000981135
0.00233696
0.00177617
0.00302991
0.00280647
0.00382335
0.00409631
0.00466272
0.00564156
0.00546643
0.00739668
0.00614891
0.00927538
0.00664507
0.011173
0.00693382
0.0130003
0.00703679
0.0147158
0.0163325
0.00700269
3.31801e-06
-0.000803448
1.14122e-05
-0.000926263
2.49537e-05
-0.000979655
4.46859e-05
-0.00100719
7.19288e-05
-0.00101678
0.000108629
-0.00100842
0.000157202
-0.000979407
0.000220621
-0.000925499
0.00030391
-0.00083942
0.000414143
-0.000709842
0.000561347
-0.000521267
0.000757853
-0.000252701
0.00101959
0.00012184
0.00136525
0.000635479
0.00181411
0.00132731
0.00238061
0.00223997
0.00306474
0.00341219
0.0038408
0.0048655
0.00465017
0.00658731
0.00541005
0.0085155
0.00603475
0.0105483
0.00646812
0.012567
0.00669836
0.0144856
0.0162728
0.00675806
2.611e-06
-0.000806059
9.03149e-06
-0.000932683
2.02079e-05
-0.000990831
3.66355e-05
-0.00102362
5.91986e-05
-0.00103934
8.94182e-05
-0.00103864
0.000129088
-0.00101908
0.000180601
-0.000977012
0.000247551
-0.000906369
0.000335311
-0.000797602
0.000451347
-0.000637303
0.000605572
-0.000406926
0.000810685
-8.32719e-05
0.00108253
0.000363636
0.00143931
0.000970521
0.00189904
0.00178025
0.00247357
0.00283765
0.00315823
0.00418084
0.00392141
0.00582413
0.00469812
0.00773879
0.00540336
0.00984301
0.00595708