/*--------------------------------*- C++ -*----------------------------------*\
| =========                 |                                                 |
| \\      /  F ield         | OpenFOAM: The Open Source CFD Toolbox           |
|  \\    /   O peration     | Version:  2.3.0                                 |
|   \\  /    A nd           | Web:      www.OpenFOAM.org                      |
|    \\/     M anipulation  |                                                 |
\*---------------------------------------------------------------------------*/
FoamFile
{
    version     2.0;
    format      ascii;
    class       volVectorField;
    location    "10000";
    object      U;
}
// * * * * * * * * * * * * * * * * * * * * * * * * * * * * * * * * * * * * * //

dimensions      [0 1 -1 0 0 0 0];

internalField   nonuniform List<vector> 
121851
(
(7.43146 -5.92667 3.00879e-22)
(7.26448 -6.09512 0)
(7.08492 -6.25709 2.77717e-21)
(6.9044 -6.42143 -2.68135e-22)
(6.72312 -6.58848 -2.11532e-21)
(6.54078 -6.7579 -6.92667e-22)
(6.35697 -6.9296 -3.47679e-23)
(6.17157 -7.10367 0)
(5.98444 -7.28019 0)
(5.79582 -7.4593 -6.97294e-22)
(5.6054 -7.64112 2.20188e-21)
(5.41276 -7.82585 -1.51662e-21)
(5.21795 -8.01369 2.93328e-21)
(5.02063 -8.20485 -3.6673e-21)
(4.82092 -8.3996 8.4455e-21)
(4.61827 -8.59816 -6.13234e-21)
(4.41268 -8.80082 0)
(4.20376 -9.00818 -1.75313e-21)
(3.99088 -9.22048 0)
(3.77389 -9.43831 -5.98087e-22)
(3.55238 -9.66229 2.82875e-22)
(3.32556 -9.89315 0)
(3.09325 -10.1312 0)
(2.85538 -10.3772 -2.77203e-21)
(2.6101 -10.6327 0)
(2.35652 -10.8988 3.90809e-20)
(2.09475 -11.1765 -4.27167e-20)
(1.82272 -11.4673 -6.13203e-20)
(1.54005 -11.7725 5.54681e-20)
(1.2463 -12.0949 0)
(0.937776 -12.4373 2.53472e-21)
(0.613682 -12.8009 0)
(0.275446 -13.1904 -4.02034e-21)
(-0.0799665 -13.6106 -1.77743e-19)
(-0.456061 -14.0656 1.86862e-19)
(-0.85182 -14.561 -8.00884e-21)
(-1.26143 -15.1068 -3.31981e-19)
(-1.69423 -15.7083 3.65195e-19)
(-2.13526 -16.3808 0)
(-2.58637 -17.1367 0)
(-3.01883 -17.9917 -4.88631e-20)
(-3.35642 -18.9999 0)
(-3.71599 -19.8261 1.82448e-18)
(7.6337 -6.11782 0)
(7.49237 -6.2781 0)
(7.34015 -6.43152 3.64915e-21)
(7.18761 -6.58723 -3.68582e-21)
(7.03495 -6.74583 0)
(6.88187 -6.90706 7.21451e-22)
(6.72826 -7.07085 0)
(6.57372 -7.23722 0)
(6.41838 -7.40631 0)
(6.26253 -7.57835 6.87745e-22)
(6.10584 -7.75349 8.00802e-22)
(5.94815 -7.93188 1.01937e-21)
(5.78935 -8.11385 -1.02615e-21)
(5.62975 -8.29965 1.76951e-21)
(5.469 -8.48961 0)
(5.30696 -8.68405 4.32478e-21)
(5.14368 -8.88334 -4.74313e-21)
(4.97928 -9.08799 7.4787e-21)
(4.81331 -9.29842 -1.02279e-20)
(4.64569 -9.51514 1.22342e-20)
(4.47676 -9.73898 -1.03911e-20)
(4.30623 -9.97051 5.79611e-21)
(4.13431 -10.2106 2.8572e-21)
(3.96044 -10.4602 -7.3122e-21)
(3.78487 -10.7207 1.0394e-20)
(3.60758 -10.9927 2.47498e-20)
(3.42954 -11.278 -6.60129e-20)
(3.24998 -11.5784 4.26882e-20)
(3.06974 -11.8954 7.41034e-21)
(2.8892 -12.2313 8.77022e-21)
(2.70976 -12.5892 0)
(2.5324 -12.9712 -1.23976e-20)
(2.35821 -13.381 1.13034e-19)
(2.18942 -13.8225 -1.02512e-19)
(2.03084 -14.2994 1.90292e-19)
(1.88507 -14.816 2.68072e-20)
(1.75746 -15.3776 -1.90677e-19)
(1.65641 -15.9883 0)
(1.59005 -16.6511 2.25257e-20)
(1.57305 -17.3694 2.71897e-20)
(1.61794 -18.1379 3.64031e-20)
(1.75427 -18.9522 -6.99891e-19)
(2.03001 -19.7623 6.39296e-19)
(7.82087 -6.27861 0)
(7.70007 -6.43549 0)
(7.56924 -6.58483 0)
(7.43825 -6.73602 0)
(7.30715 -6.89004 4.79497e-21)
(7.17584 -7.04685 8.61061e-21)
(7.04413 -7.20645 -3.80199e-21)
(6.912 -7.36888 0)
(6.77949 -7.53428 0)
(6.64681 -7.70292 4.24531e-21)
(6.51393 -7.87501 -8.74716e-21)
(6.38056 -8.0507 1.41196e-22)
(6.24689 -8.23027 1.5901e-21)
(6.11304 -8.41407 -5.02053e-21)
(5.97878 -8.60235 0)
(5.84414 -8.7955 -8.93648e-21)
(5.70938 -8.9938 1.02045e-20)
(5.57443 -9.19765 -2.06598e-20)
(5.43939 -9.40789 2.32072e-21)
(5.3041 -9.62472 -4.58743e-21)
(5.1692 -9.84868 -1.09913e-21)
(5.03473 -10.0807 1.22964e-20)
(4.9002 -10.3214 -1.08281e-20)
(4.76679 -10.5717 0)
(4.63425 -10.8322 0)
(4.5038 -11.1039 1.03265e-20)
(4.37475 -11.3883 -6.73862e-21)
(4.24928 -11.6868 0)
(4.12775 -12.0002 -7.2043e-21)
(4.01189 -12.3299 -8.49424e-21)
(3.90282 -12.6783 -1.1959e-20)
(3.80298 -13.0467 2.58055e-20)
(3.71597 -13.4366 -6.59015e-20)
(3.64399 -13.8503 5.28126e-20)
(3.59121 -14.2894 -1.10816e-19)
(3.56422 -14.7558 -1.06854e-20)
(3.56747 -15.25 8.43849e-20)
(3.6111 -15.7721 3.55347e-20)
(3.70211 -16.3214 -6.1929e-20)
(3.85226 -16.8943 -2.27519e-19)
(4.07318 -17.4846 3.27694e-20)
(4.37407 -18.0833 3.12728e-19)
(4.76866 -18.6809 -2.76866e-19)
(8.0027 -6.42275 -1.24271e-22)
(7.89554 -6.56885 0)
(7.78209 -6.71031 -6.45902e-21)
(7.66924 -6.85411 0)
(7.55696 -7.00089 1.77002e-21)
(7.4446 -7.15061 7.52648e-21)
(7.33199 -7.3031 -3.26013e-21)
(7.21919 -7.45844 -5.79912e-21)
(7.10639 -7.61679 0)
(6.99371 -7.77835 0)
(6.88117 -7.9434 6.56378e-21)
(6.76864 -8.11213 -3.73834e-21)
(6.65623 -8.28479 0)
(6.54403 -8.46172 -1.09159e-21)
(6.43199 -8.64326 8.3072e-21)
(6.32046 -8.82966 -1.33565e-20)
(6.20942 -9.02143 4.15351e-21)
(6.09874 -9.21877 1.0323e-20)
(5.98879 -9.42231 1.16755e-20)
(5.88004 -9.63251 -1.19489e-20)
(5.77237 -9.84993 0)
(5.66592 -10.0754 8.38324e-21)
(5.56158 -10.3092 -1.37286e-21)
(5.45949 -10.5522 2.01646e-20)
(5.36012 -10.8054 -3.95267e-21)
(5.2638 -11.0694 -3.61072e-20)
(5.17175 -11.3455 6.66092e-21)
(5.08427 -11.6344 3.37198e-20)
(5.00382 -11.937 -4.49076e-20)
(4.93061 -12.2544 4.44982e-20)
(4.8675 -12.5882 -3.50002e-20)
(4.81581 -12.939 -1.36172e-20)
(4.77877 -13.3076 -1.67855e-20)
(4.75977 -13.6955 0)
(4.76243 -14.1022 0)
(4.79092 -14.528 2.58522e-20)
(4.85162 -14.9724 0)
(4.94862 -15.4339 -3.38606e-20)
(5.09042 -15.9085 -3.91826e-22)
(5.28299 -16.3912 -1.9212e-19)
(5.53254 -16.875 -7.17821e-20)
(5.84384 -17.35 1.09975e-19)
(6.2169 -17.8059 -6.6708e-20)
(8.16463 -6.54108 -8.28391e-21)
(8.07314 -6.68028 6.83218e-21)
(7.97544 -6.81433 5.64967e-21)
(7.8784 -6.95058 -1.1142e-20)
(7.78196 -7.0899 -6.43666e-21)
(7.68539 -7.2325 -6.51242e-21)
(7.58827 -7.37808 -8.44459e-23)
(7.49103 -7.52639 1.17653e-20)
(7.39388 -7.6777 3.58886e-21)
(7.29708 -7.83225 -7.93963e-21)
(7.20042 -7.99039 -8.49927e-21)
(7.10394 -8.15232 8.54839e-21)
(7.00787 -8.31824 4.31353e-21)
(6.91231 -8.48837 -1.49646e-20)
(6.81722 -8.66315 9.96498e-21)
(6.72284 -8.84281 -6.29336e-21)
(6.62926 -9.02778 1.13833e-20)
(6.53671 -9.21846 -5.73029e-21)
(6.4454 -9.41512 6.77286e-21)
(6.35535 -9.61833 -2.24458e-20)
(6.26714 -9.82855 8.71697e-21)
(6.18148 -10.0462 1.21213e-21)
(6.09824 -10.272 9.28185e-21)
(6.01803 -10.5068 0)
(5.94175 -10.7509 3.15593e-20)
(5.86987 -11.0053 -6.35284e-20)
(5.80305 -11.2709 4.6279e-20)
(5.74262 -11.5481 -4.58622e-20)
(5.6894 -11.8377 5.83155e-20)
(5.64529 -12.1408 -4.74497e-20)
(5.61193 -12.4578 6.29697e-20)
(5.59205 -12.7887 0)
(5.58772 -13.1344 7.00865e-20)
(5.60208 -13.4955 -7.43782e-20)
(5.63839 -13.8713 2.25559e-20)
(5.70051 -14.2613 -2.52941e-20)
(5.79205 -14.664 0)
(5.9191 -15.0765 1.40687e-19)
(6.08468 -15.4955 -1.08819e-19)
(6.29367 -15.9161 1.83073e-19)
(6.54921 -16.3312 -1.90713e-19)
(6.85292 -16.7329 5.67444e-20)
(7.20418 -17.1122 -1.96973e-19)
(8.32053 -6.64681 3.03841e-21)
(8.23771 -6.77549 8.3628e-21)
(8.15223 -6.90115 -6.37962e-22)
(8.06816 -7.02927 -6.69012e-22)
(7.98513 -7.16066 0)
(7.90175 -7.29607 0)
(7.81733 -7.43479 -4.09791e-21)
(7.73269 -7.57605 -1.34094e-20)
(7.64829 -7.72017 1.85724e-20)
(7.5643 -7.86751 0)
(7.48063 -8.0186 -5.34602e-21)
(7.39716 -8.17359 -1.08049e-20)
(7.31409 -8.33251 4.49094e-21)
(7.23176 -8.49558 -6.05909e-21)
(7.1502 -8.66341 -6.37769e-21)
(7.06938 -8.83633 -6.7507e-21)
(6.98925 -9.01431 -6.92353e-21)
(6.91075 -9.1978 1.4741e-20)
(6.8339 -9.38751 -9.0632e-22)
(6.75851 -9.58349 -7.31017e-22)
(6.68513 -9.78626 -1.88839e-20)
(6.61432 -9.99633 2.11085e-22)
(6.5471 -10.2141 0)
(6.48335 -10.4404 0)
(6.42356 -10.6758 -2.7938e-20)
(6.36887 -10.9208 2.89371e-20)
(6.32072 -11.1761 -1.61759e-20)
(6.27896 -11.4426 9.09304e-21)
(6.24499 -11.7206 -5.38415e-20)
(6.22044 -12.0109 -2.66515e-20)
(6.20717 -12.3134 3.87665e-20)
(6.207 -12.6278 -1.5549e-20)
(6.22305 -12.9547 3.46837e-20)
(6.2583 -13.2944 8.23953e-20)
(6.31493 -13.6462 -1.08547e-19)
(6.39613 -14.0087 1.06744e-19)
(6.50546 -14.3805 -1.11867e-19)
(6.64657 -14.7584 0)
(6.82312 -15.1393 3.75092e-20)
(7.03786 -15.5175 0)
(7.29269 -15.8882 0)
(7.58797 -16.244 0)
(7.92271 -16.5776 -5.8946e-20)
(8.45944 -6.74011 8.95862e-21)
(8.38689 -6.85826 4.75166e-21)
(8.31228 -6.97488 -4.79887e-21)
(8.23896 -7.09444 9.70987e-21)
(8.16749 -7.21733 0)
(8.09582 -7.34569 5.27561e-21)
(8.02171 -7.4782 0)
(7.94707 -7.61276 0)
(7.87277 -7.75011 -4.99984e-21)
(7.79929 -7.89033 5.7988e-21)
(7.72657 -8.03434 -6.42449e-22)
(7.65384 -8.1827 -4.48178e-22)
(7.58083 -8.33523 1.17719e-20)
(7.50897 -8.49141 6.02528e-21)
(7.43839 -8.65244 6.34087e-21)
(7.36843 -8.81862 -7.94586e-21)
(7.29894 -8.99018 1.52588e-20)
(7.23104 -9.16677 5.88174e-22)
(7.16558 -9.34958 -9.15391e-21)
(7.10157 -9.53904 9.61867e-21)
(7.0393 -9.73518 3.03595e-20)
(6.98005 -9.93801 6.0536e-22)
(6.92461 -10.148 -1.15915e-20)
(6.87305 -10.3667 0)
(6.82616 -10.5939 2.87769e-20)
(6.78436 -10.8301 -1.54151e-20)
(6.74906 -11.0756 1.82665e-20)
(6.72195 -11.3316 -3.90255e-20)
(6.70255 -11.5994 2.15083e-20)
(6.69153 -11.8791 -2.55973e-20)
(6.69184 -12.1694 8.35894e-20)
(6.70556 -12.47 -1.47321e-20)
(6.73538 -12.781 1.92254e-20)
(6.78447 -13.1026 -3.82944e-20)
(6.85557 -13.4344 -4.68018e-20)
(6.94915 -13.7764 -2.07041e-21)
(7.06841 -14.1251 -5.7657e-20)
(7.2179 -14.4776 -6.49339e-20)
(7.3991 -14.8307 1.12578e-19)
(7.61572 -15.1795 -7.92306e-20)
(7.86733 -15.5201 9.55027e-20)
(8.15385 -15.8463 1.09208e-19)
(8.475 -16.15 -5.24511e-20)
(8.58292 -6.81373 5.35838e-21)
(8.52168 -6.92721 0)
(8.45737 -7.0365 -5.51275e-21)
(8.39247 -7.14835 5.0762e-22)
(8.33136 -7.2617 5.53443e-21)
(8.27117 -7.38261 -5.22719e-21)
(8.20533 -7.51003 5.72725e-21)
(8.13823 -7.63861 -5.73985e-21)
(8.0712 -7.77039 0)
(8.00513 -7.90489 -5.75382e-21)
(7.9405 -8.04298 -3.58489e-22)
(7.87726 -8.18513 6.30651e-21)
(7.81219 -8.33233 7.17261e-21)
(7.74821 -8.48226 0)
(7.68588 -8.63738 -4.42499e-22)
(7.62535 -8.7973 -1.60356e-20)
(7.56405 -8.96319 1.1838e-22)
(7.50465 -9.13319 1.79911e-20)
(7.44791 -9.30916 -1.22271e-22)
(7.39306 -9.49292 -9.56482e-21)
(7.33993 -9.68336 6.04694e-22)
(7.28888 -9.88009 -1.12664e-20)
(7.24268 -10.083 0)
(7.20067 -10.2944 -2.8278e-20)
(7.16377 -10.5146 -8.83039e-22)
(7.13093 -10.7441 1.60181e-20)
(7.10473 -10.9809 0)
(7.08794 -11.2269 -8.64692e-22)
(7.08069 -11.4848 -2.28679e-20)
(7.08117 -11.755 0)
(7.0906 -12.0356 -2.7681e-20)
(7.11329 -12.3259 3.25587e-20)
(7.15188 -12.6249 2.50951e-21)
(7.20941 -12.932 -3.81743e-20)
(7.29074 -13.2475 -4.49219e-20)
(7.39339 -13.5735 1.00304e-19)
(7.51968 -13.9042 1.14719e-19)
(7.67529 -14.2371 2.26214e-21)
(7.85813 -14.5704 -7.10451e-20)
(8.07649 -14.8952 0)
(8.32562 -15.2136 0)
(8.60396 -15.5174 -9.87727e-20)
(8.9146 -15.7989 -2.19502e-19)
(8.69852 -6.88189 0)
(8.64149 -6.99109 -5.51448e-21)
(8.58754 -7.09379 1.73363e-20)
(8.52609 -7.19922 -1.18029e-20)
(8.47113 -7.30326 1.05307e-21)
(8.42439 -7.41524 5.62111e-21)
(8.3665 -7.53792 -5.8502e-21)
(8.30892 -7.65763 6.63776e-21)
(8.25263 -7.78054 0)
(8.19716 -7.90554 0)
(8.13859 -8.03601 0)
(8.08194 -8.17194 -3.24229e-22)
(8.02247 -8.31572 2.70449e-22)
(7.96801 -8.45796 0)
(7.91164 -8.60699 -7.22879e-22)
(7.85698 -8.76207 8.02416e-21)
(7.79986 -8.92509 0)
(7.7474 -9.08898 -1.91687e-20)
(7.70051 -9.2566 -1.0248e-20)
(7.65359 -9.43404 -1.08752e-20)
(7.60679 -9.62124 -2.34933e-20)
(7.56071 -9.81382 2.5268e-20)
(7.52307 -10.0091 -2.71419e-20)
(7.48738 -10.2145 2.95164e-20)
(7.46081 -10.4275 -3.18603e-20)
(7.43616 -10.652 -3.61333e-20)
(7.41545 -10.8817 -6.32491e-22)
(7.4037 -11.1174 -7.03205e-22)
(7.40487 -11.3661 2.34047e-20)
(7.4149 -11.6291 -5.11693e-20)
(7.434 -11.9016 3.03831e-20)
(7.46599 -12.1817 -3.17775e-20)
(7.51237 -12.4705 1.31281e-21)
(7.57552 -12.7636 -7.91686e-20)
(7.66532 -13.0625 -2.61566e-22)
(7.77047 -13.3778 -4.85452e-20)
(7.89744 -13.6972 -5.36272e-20)
(8.05992 -14.0185 4.56046e-21)
(8.23536 -14.3424 -6.6424e-20)
(8.45431 -14.6507 -7.21649e-20)
(8.69561 -14.9518 -1.71104e-19)
(8.9621 -15.2427 -9.98428e-20)
(9.26396 -15.5114 2.12995e-19)
(-1.89687 -17.7367 2.16806e-19)
(-1.08806 -13.9171 -2.79602e-18)
(-0.537017 -10.2483 3.31582e-19)
(0.0580213 -7.30143 4.23134e-18)
(0.399883 -5.08742 -4.82879e-18)
(0.39738 -3.62573 0)
(0.215886 -2.83688 0)
(-0.00730129 -2.49171 -2.9639e-19)
(-0.191867 -2.39637 5.41519e-19)
(-0.315665 -2.41666 2.46974e-19)
(-0.367555 -2.49074 4.55526e-19)
(-0.367632 -2.57763 4.19949e-19)
(-0.322287 -2.66525 1.5674e-18)
(-0.242437 -2.74906 -1.81096e-18)
(-0.134764 -2.82747 -6.68745e-19)
(-0.00462541 -2.90152 1.2465e-18)
(0.144215 -2.972 -2.92047e-19)
(0.308728 -3.03942 -1.36234e-18)
(0.489524 -3.10632 0)
(0.683514 -3.17219 0)
(0.889899 -3.23812 0)
(1.11062 -3.30579 4.30584e-19)
(1.34307 -3.37431 -8.27989e-19)
(1.58749 -3.44451 7.92653e-19)
(1.84394 -3.51704 -3.76974e-19)
(2.11416 -3.59246 -1.46092e-18)
(2.39502 -3.67033 3.53287e-19)
(2.68771 -3.75091 1.02422e-18)
(2.99046 -3.83362 -3.32335e-19)
(3.30571 -3.91995 3.24366e-19)
(3.63294 -4.0094 -3.16482e-19)
(3.97053 -4.10177 0)
(4.3189 -4.19677 0)
(4.67706 -4.29438 -4.18373e-21)
(5.04605 -4.39499 4.8717e-21)
(5.42517 -4.49856 -5.68351e-19)
(5.81267 -4.60405 -1.10918e-18)
(6.20874 -4.71182 1.63698e-18)
(6.61305 -4.82182 -1.06125e-18)
(7.02539 -4.93427 1.03427e-18)
(7.44381 -5.04829 4.98541e-19)
(7.87378 -5.17305 0)
(8.27565 -5.25672 -9.15202e-19)
(2.46411 -20.3117 0)
(3.05643 -19.9411 -1.21867e-18)
(3.66544 -18.7904 1.22311e-18)
(4.17695 -17.1148 9.18598e-20)
(4.49116 -15.1903 -1.71425e-18)
(4.58262 -13.2454 1.93612e-18)
(4.51309 -11.4619 2.4721e-19)
(4.35196 -9.9333 0)
(4.15599 -8.69428 1.2611e-19)
(3.95894 -7.72727 1.27848e-19)
(3.78603 -6.99349 -2.76639e-19)
(3.64845 -6.44721 -1.33778e-18)
(3.55572 -6.04799 1.03136e-18)
(3.50199 -5.75378 1.23816e-18)
(3.49123 -5.54156 -7.13223e-19)
(3.51974 -5.38987 -2.24654e-19)
(3.57957 -5.28064 0)
(3.66786 -5.20376 8.37776e-19)
(3.78112 -5.15242 -8.03584e-19)
(3.91612 -5.12029 -3.8542e-19)
(4.07211 -5.10495 5.5357e-19)
(4.24293 -5.10107 -3.59703e-19)
(4.43061 -5.10868 0)
(4.63211 -5.12547 0)
(4.84541 -5.14992 9.68679e-19)
(5.07125 -5.18126 2.29683e-21)
(5.30862 -5.21915 3.06129e-19)
(5.55467 -5.26178 -8.97178e-19)
(5.81042 -5.30906 -2.92582e-19)
(6.07399 -5.36014 5.71784e-19)
(6.34811 -5.41627 2.79375e-19)
(6.62881 -5.47546 0)
(6.91683 -5.53747 2.70406e-19)
(7.212 -5.60245 -5.40651e-19)
(7.51384 -5.66985 5.31961e-19)
(7.82149 -5.73948 0)
(8.13437 -5.81043 5.15484e-19)
(8.4524 -5.883 5.00796e-19)
(8.77622 -5.95715 -2.855e-21)
(9.10553 -6.03277 4.864e-19)
(9.43959 -6.10937 -5.54716e-21)
(9.77762 -6.18939 -4.61188e-19)
(10.1304 -6.26059 8.91887e-19)
(5.23682 -19.2712 3.30178e-19)
(5.79882 -19.7021 0)
(6.40352 -19.8014 1.08072e-19)
(6.9775 -19.5001 5.73029e-19)
(7.46337 -18.8345 -1.31833e-18)
(7.82307 -17.8957 5.89628e-19)
(8.05069 -16.7879 -1.70187e-19)
(8.15812 -15.609 6.87394e-19)
(8.16972 -14.4417 -8.82987e-19)
(8.1107 -13.3391 -9.17982e-19)
(8.00898 -12.3395 5.54336e-19)
(7.88859 -11.4586 -1.79742e-19)
(7.76897 -10.6993 0)
(7.65739 -10.0515 5.45721e-19)
(7.56777 -9.50991 -8.92629e-19)
(7.50161 -9.0557 6.43202e-21)
(7.46341 -8.68017 0)
(7.45049 -8.36818 0)
(7.45974 -8.10758 0)
(7.49439 -7.8933 0)
(7.55154 -7.71618 1.5356e-19)
(7.62767 -7.57021 -3.0263e-19)
(7.72288 -7.4506 0)
(7.8341 -7.3523 0)
(7.95714 -7.27061 -5.63991e-19)
(8.09702 -7.20699 0)
(8.24928 -7.15677 0)
(8.41188 -7.11747 5.3545e-19)
(8.58542 -7.08893 -5.21959e-19)
(8.76763 -7.0686 -5.1837e-19)
(8.95964 -7.05648 2.52455e-19)
(9.15797 -7.04995 -2.3068e-21)
(9.36492 -7.05019 -2.49371e-19)
(9.57852 -7.0554 -4.89812e-19)
(9.7986 -7.06522 4.84706e-19)
(10.0247 -7.07884 4.7607e-19)
(10.2566 -7.09597 0)
(10.494 -7.11634 -2.95488e-21)
(10.7349 -7.13825 -4.66965e-19)
(10.9822 -7.16375 -3.27705e-21)
(11.2336 -7.19155 -4.52663e-19)
(11.4791 -7.21716 8.83093e-19)
(11.7674 -7.26559 0)
(6.654 -18.2379 0)
(7.15783 -18.6264 -8.31312e-20)
(7.7156 -18.916 2.90778e-19)
(8.29177 -19.0499 -9.31752e-19)
(8.84861 -18.9888 5.50505e-19)
(9.35246 -18.725 0)
(9.77854 -18.2772 1.22166e-19)
(10.1161 -17.6821 0)
(10.3621 -16.9841 -5.57941e-19)
(10.5237 -16.2285 4.23259e-19)
(10.6156 -15.4562 5.93523e-19)
(10.6518 -14.6973 -4.3203e-19)
(10.6501 -13.9762 -1.44366e-19)
(10.6229 -13.3047 1.52907e-19)
(10.5813 -12.6905 1.22703e-21)
(10.5384 -12.1385 1.49219e-19)
(10.4967 -11.643 0)
(10.4646 -11.2049 0)
(10.441 -10.8152 1.38201e-19)
(10.4314 -10.4737 -2.7665e-19)
(10.4373 -10.1741 2.71069e-19)
(10.4555 -9.90946 -3.95117e-21)
(10.489 -9.67814 3.24394e-21)
(10.5354 -9.474 0)
(10.5946 -9.29507 5.83375e-21)
(10.6667 -9.13834 0)
(10.7499 -9.00031 0)
(10.845 -8.87983 0)
(10.9483 -8.77303 2.41872e-19)
(11.0616 -8.68015 -2.34203e-19)
(11.1833 -8.59838 0)
(11.3133 -8.52723 -2.33497e-19)
(11.4502 -8.46493 -2.29548e-19)
(11.5942 -8.41049 2.27626e-19)
(11.7451 -8.36404 2.26041e-19)
(11.9018 -8.32314 -6.76991e-19)
(12.0651 -8.28872 -4.45955e-19)
(12.2331 -8.2586 1.38229e-22)
(12.4058 -8.23272 1.3157e-18)
(12.5841 -8.2118 -8.7312e-19)
(12.7681 -8.19607 0)
(12.9455 -8.17926 -8.49148e-19)
(13.1867 -8.21061 4.11052e-19)
(7.60173 -17.4636 2.69693e-19)
(8.04691 -17.7796 3.98529e-19)
(8.53351 -18.0459 -3.28582e-19)
(9.04882 -18.2391 2.88301e-19)
(9.57262 -18.336 -3.85561e-19)
(10.0837 -18.3186 -5.33043e-19)
(10.5604 -18.1796 3.19468e-19)
(10.9868 -17.924 0)
(11.3524 -17.5665 0)
(11.653 -17.1286 1.26775e-19)
(11.8906 -16.6334 6.30089e-21)
(12.0704 -16.1041 0)
(12.1999 -15.5608 2.58334e-19)
(12.29 -15.0206 1.32389e-19)
(12.3484 -14.4951 -1.32276e-19)
(12.3837 -13.9935 2.59484e-19)
(12.4046 -13.5219 -2.55992e-19)
(12.4154 -13.0818 4.81835e-21)
(12.4237 -12.6774 -1.26572e-19)
(12.4297 -12.3044 -2.48477e-19)
(12.4392 -11.964 0)
(12.4542 -11.6544 -2.4618e-19)
(12.4737 -11.3723 3.59458e-19)
(12.5006 -11.1158 2.36881e-19)
(12.5358 -10.8839 1.19846e-19)
(12.5784 -10.6736 2.28995e-19)
(12.6282 -10.4823 0)
(12.687 -10.3098 2.25925e-19)
(12.7517 -10.1521 -2.23177e-19)
(12.8237 -10.0091 2.22922e-19)
(12.9037 -9.87966 0)
(12.9885 -9.76071 4.33172e-19)
(13.0802 -9.65298 -4.30417e-19)
(13.1792 -9.55551 -2.14948e-19)
(13.2824 -9.46573 4.26346e-19)
(13.3911 -9.38348 0)
(13.5063 -9.30905 -2.10507e-19)
(13.6251 -9.2395 2.12773e-19)
(13.7492 -9.17597 -8.42517e-19)
(13.878 -9.11728 0)
(14.0142 -9.06453 2.98889e-21)
(14.1441 -9.00712 -1.44239e-21)
(14.3622 -9.02503 -7.78966e-19)
(8.29521 -16.8832 -6.50676e-20)
(8.70386 -17.1559 0)
(9.14407 -17.3877 3.23623e-19)
(9.60804 -17.5698 -3.28036e-19)
(10.0851 -17.6917 0)
(10.5619 -17.7434 9.8738e-20)
(11.0248 -17.7183 0)
(11.4608 -17.6132 -3.18947e-19)
(11.8591 -17.4312 -6.56761e-21)
(12.2128 -17.1801 4.48553e-19)
(12.5194 -16.8709 -4.53588e-19)
(12.7789 -16.5173 4.64955e-19)
(12.9937 -16.1335 -3.52694e-19)
(13.1681 -15.7313 -2.38103e-19)
(13.3083 -15.3226 1.98581e-21)
(13.4188 -14.9152 -2.38125e-19)
(13.5054 -14.5162 -2.23264e-21)
(13.5752 -14.1322 4.71865e-19)
(13.6314 -13.7657 0)
(13.6766 -13.4177 -3.43966e-19)
(13.7167 -13.0914 -6.13674e-22)
(13.7535 -12.7855 1.1299e-19)
(13.7889 -12.5002 -5.05197e-21)
(13.8253 -12.2353 0)
(13.8635 -11.9892 -2.17454e-19)
(13.9039 -11.7611 -2.19951e-19)
(13.9482 -11.5506 0)
(13.9961 -11.3556 -2.11241e-19)
(14.0473 -11.1748 0)
(14.1023 -11.0072 -2.07738e-19)
(14.1622 -10.8521 0)
(14.2262 -10.7082 -1.49315e-21)
(14.2942 -10.575 -5.07941e-24)
(14.3668 -10.4515 2.04779e-19)
(14.4428 -10.3358 -4.086e-19)
(14.5233 -10.2286 0)
(14.6075 -10.1277 4.08121e-19)
(14.6958 -10.0334 2.02802e-19)
(14.7874 -9.94476 2.0214e-19)
(14.882 -9.86087 3.81098e-23)
(14.98 -9.78168 3.67977e-21)
(15.0701 -9.69799 0)
(15.2067 -9.68025 3.90368e-19)
(8.82936 -16.427 1.91932e-19)
(9.21388 -16.6726 -1.32324e-19)
(9.62427 -16.8821 -1.46416e-19)
(10.0541 -17.0497 8.07152e-20)
(10.4965 -17.1711 0)
(10.9406 -17.2422 -1.77976e-19)
(11.3775 -17.2575 0)
(11.7982 -17.2158 1.00384e-19)
(12.1939 -17.1171 -2.07382e-19)
(12.5581 -16.9633 2.06754e-19)
(12.8879 -16.76 3.25065e-19)
(13.1816 -16.5157 -4.29152e-19)
(13.4394 -16.2393 0)
(13.6624 -15.9395 0)
(13.8527 -15.6244 2.24914e-19)
(14.0139 -15.3011 -1.07489e-19)
(14.1497 -14.9758 -2.21346e-19)
(14.2651 -14.6543 1.0974e-19)
(14.3632 -14.3393 1.10031e-19)
(14.4471 -14.0342 1.11827e-19)
(14.5195 -13.7409 0)
(14.5841 -13.4608 0)
(14.6431 -13.1948 -2.14444e-19)
(14.6985 -12.9426 2.08567e-19)
(14.7516 -12.7051 3.88216e-21)
(14.8023 -12.4817 -2.0549e-19)
(14.8521 -12.2715 1.02818e-19)
(14.9024 -12.0743 2.03358e-19)
(14.9533 -11.8895 4.01768e-19)
(15.0052 -11.7155 2.02112e-19)
(15.0594 -11.5521 -9.93885e-20)
(15.1164 -11.399 0)
(15.1745 -11.2555 -4.93795e-19)
(15.2342 -11.1203 9.83525e-20)
(15.297 -10.9934 1.96304e-19)
(15.3618 -10.8732 1.16667e-21)
(15.4295 -10.7591 -1.94691e-19)
(15.4995 -10.6517 -2.38177e-21)
(15.5723 -10.5504 -1.94288e-19)
(15.6463 -10.4537 0)
(15.7225 -10.363 1.95e-19)
(15.7971 -10.2728 -1.92225e-19)
(15.9034 -10.2275 -1.83599e-21)
(9.25657 -16.0545 1.15148e-19)
(9.62391 -16.2818 0)
(10.0143 -16.4745 -2.33743e-21)
(10.4219 -16.6299 1.46466e-19)
(10.84 -16.7489 0)
(11.2583 -16.8269 1.71491e-19)
(11.6697 -16.859 1.76058e-19)
(12.0699 -16.8488 -1.88483e-19)
(12.4488 -16.7941 -1.20416e-21)
(12.8055 -16.6931 1.95572e-19)
(13.138 -16.5497 1.9995e-19)
(13.4442 -16.3702 2.0736e-19)
(13.7212 -16.1618 -1.04437e-19)
(13.9677 -15.9313 3.1017e-19)
(14.1849 -15.6846 3.13157e-19)
(14.3757 -15.4257 -1.00102e-19)
(14.5434 -15.1585 2.0798e-19)
(14.6905 -14.8883 2.07374e-19)
(14.8195 -14.6192 1.02021e-19)
(14.9323 -14.3551 3.08527e-19)
(15.0316 -14.0976 0)
(15.1204 -13.8475 -2.02682e-19)
(15.201 -13.6058 2.0125e-19)
(15.2757 -13.3742 -4.02775e-19)
(15.3451 -13.1541 1.03168e-19)
(15.4079 -12.9448 1.01214e-19)
(15.4684 -12.7444 0)
(15.5255 -12.5557 -1.96689e-19)
(15.5817 -12.3755 -1.95083e-19)
(15.6378 -12.2035 9.49683e-20)
(15.6934 -12.0416 9.56013e-20)
(15.7509 -11.8893 0)
(15.8052 -11.7463 2.16426e-21)
(15.8611 -11.6091 0)
(15.9179 -11.4789 -9.58968e-20)
(15.9759 -11.3535 9.59904e-20)
(16.0364 -11.2341 1.90703e-19)
(16.0974 -11.1218 -2.07874e-21)
(16.1598 -11.0148 3.78895e-19)
(16.2232 -10.9138 0)
(16.2869 -10.8169 -1.87855e-19)
(16.3568 -10.7254 1.86781e-19)
(16.4084 -10.6277 0)
(9.59608 -15.7518 -2.29182e-19)
(9.94929 -15.9675 -1.2587e-19)
(10.3241 -16.151 0)
(10.7148 -16.296 0)
(11.1203 -16.4213 2.84497e-21)
(11.5182 -16.4966 -3.23714e-19)
(11.909 -16.5318 -3.3543e-19)
(12.3009 -16.5408 -1.77212e-19)
(12.6655 -16.4947 2.80205e-19)
(13.0151 -16.4185 -1.88773e-19)
(13.3489 -16.2972 -5.91277e-19)
(13.657 -16.1557 -9.88874e-20)
(13.9391 -15.9958 -1.98736e-19)
(14.1967 -15.8148 -1.00967e-19)
(14.4324 -15.6112 -4.98797e-19)
(14.641 -15.3916 1.06524e-19)
(14.8246 -15.1664 -4.13517e-19)
(14.9896 -14.9382 -4.12015e-19)
(15.1379 -14.7106 -4.07593e-19)
(15.2686 -14.4853 -2.99364e-19)
(15.3878 -14.2597 -1.45435e-19)
(15.4944 -14.0368 3.59308e-21)
(15.5913 -13.8225 -4.38887e-19)
(15.6829 -13.6079 1.90159e-19)
(15.7653 -13.4082 1.44541e-19)
(15.8328 -13.2193 -1.44438e-19)
(15.9033 -13.0362 -1.89749e-19)
(15.9688 -12.8562 -1.92902e-19)
(16.0291 -12.684 -9.53742e-20)
(16.0916 -12.5226 -4.78549e-19)
(16.1512 -12.3679 -2.77215e-19)
(16.2151 -12.2252 9.35359e-20)
(16.269 -12.083 9.55916e-20)
(16.3246 -11.9473 -9.28908e-20)
(16.3774 -11.819 -1.89301e-19)
(16.4307 -11.6959 -9.42529e-20)
(16.4874 -11.58 -1.88186e-19)
(16.5412 -11.4718 -4.66818e-19)
(16.5994 -11.3661 -1.86558e-19)
(16.6559 -11.2653 0)
(16.7111 -11.167 -1.88185e-19)
(16.7715 -11.0751 -9.85235e-22)
(16.8225 -10.965 1.74942e-19)
(23.3059 7.04794 5.77354e-19)
(23.3648 7.08955 -8.79846e-19)
(23.4217 7.13522 -3.01211e-19)
(23.4782 7.17986 9.12065e-19)
(23.5338 7.22394 0)
(23.5885 7.26745 0)
(23.6423 7.31043 -3.17051e-19)
(23.6952 7.35286 -1.60674e-19)
(23.7471 7.3947 6.55567e-19)
(23.798 7.43593 1.68954e-19)
(23.8477 7.47656 -6.74254e-19)
(23.8962 7.51654 3.4375e-19)
(23.9435 7.55584 -7.05227e-19)
(23.9893 7.59443 -3.3025e-21)
(24.0335 7.63227 1.80866e-19)
(24.0759 7.6693 7.57178e-19)
(24.1163 7.70543 0)
(24.1545 7.74058 -1.00645e-19)
(24.1901 7.77463 1.04283e-19)
(24.2226 7.80742 2.16425e-19)
(24.2516 7.83879 -1.01733e-18)
(24.2765 7.86852 1.05791e-18)
(24.2966 7.89635 -1.2295e-19)
(24.3109 7.92192 0)
(24.3184 7.94483 2.03868e-19)
(24.3176 7.96457 -1.00687e-18)
(24.3069 7.98051 2.35569e-18)
(24.2841 7.99185 4.03384e-21)
(24.2464 7.99761 -2.66489e-18)
(24.1905 7.99655 1.46748e-18)
(24.1123 7.98724 -1.47844e-18)
(24.007 7.96803 1.79438e-18)
(23.8694 7.93714 1.13954e-19)
(23.6936 7.89249 -6.15895e-20)
(23.4723 7.83152 -1.34221e-19)
(23.1963 7.75083 0)
(22.8526 7.64563 0)
(22.4223 7.50881 -9.09591e-20)
(21.8751 7.32908 2.08061e-19)
(21.1573 7.0856 0)
(20.1548 6.73692 -4.75695e-18)
(18.5591 6.14558 6.39502e-18)
(14.7355 4.82943 -4.9144e-18)
(23.3487 6.98932 2.98874e-19)
(23.4026 7.02747 3.0458e-19)
(23.4553 7.06814 -3.09196e-19)
(23.5075 7.10811 -9.42237e-19)
(23.5592 7.14757 4.75007e-19)
(23.6103 7.1866 -6.44643e-19)
(23.6607 7.22516 6.49282e-19)
(23.7105 7.26329 -1.64657e-19)
(23.7596 7.30095 -1.66845e-19)
(23.808 7.33816 -1.69258e-19)
(23.8557 7.3749 6.8988e-19)
(23.9027 7.41113 -8.74504e-19)
(23.9488 7.44686 -1.78493e-19)
(23.994 7.48207 0)
(24.0383 7.51674 -1.87494e-19)
(24.0815 7.55084 0)
(24.1235 7.58431 0)
(24.1641 7.6171 -1.02023e-19)
(24.2031 7.64915 -9.53443e-19)
(24.2402 7.68035 -2.23152e-19)
(24.2751 7.71058 -3.85297e-21)
(24.3074 7.73971 9.50478e-19)
(24.3365 7.76754 0)
(24.3617 7.79382 1.30465e-19)
(24.3823 7.81825 -2.61517e-22)
(24.3971 7.84041 -1.45053e-19)
(24.4049 7.85981 1.23065e-18)
(24.4038 7.87578 -2.60752e-18)
(24.3917 7.88748 1.38563e-18)
(24.3657 7.8938 1.57928e-18)
(24.3221 7.89335 -1.68575e-18)
(24.2561 7.88436 -1.06441e-19)
(24.162 7.86474 0)
(24.0328 7.83199 0)
(23.8604 7.78314 2.68578e-19)
(23.6343 7.71449 0)
(23.3406 7.62106 0)
(22.9595 7.49577 0)
(22.4599 7.32779 -1.00336e-19)
(21.7877 7.09726 -2.31132e-19)
(20.8271 6.767 0)
(19.2709 6.19469 2.54816e-18)
(15.8285 4.97581 1.41199e-20)
(23.3861 6.93671 3.04272e-19)
(23.4364 6.9712 -6.22751e-19)
(23.4857 7.00766 -1.58429e-19)
(23.5346 7.04356 1.60363e-19)
(23.5833 7.07906 -3.25369e-19)
(23.6315 7.11426 1.30969e-18)
(23.6792 7.1491 -4.95068e-19)
(23.7266 7.18359 1.67459e-19)
(23.7735 7.21772 1.69568e-19)
(23.82 7.25152 7.55648e-23)
(23.8659 7.28494 0)
(23.9114 7.31797 -7.11696e-19)
(23.9564 7.35064 9.04242e-19)
(24.0008 7.38288 -7.41709e-19)
(24.0445 7.41472 8.5137e-19)
(24.0876 7.44611 0)
(24.1299 7.47702 0)
(24.1713 7.5074 9.32145e-19)
(24.2116 7.53719 -8.53792e-19)
(24.2507 7.56633 1.1106e-19)
(24.2883 7.59473 0)
(24.3241 7.62227 0)
(24.3577 7.64881 0)
(24.3886 7.67414 -1.32066e-19)
(24.4162 7.69805 -3.34671e-22)
(24.4396 7.72021 -1.17208e-18)
(24.4577 7.74024 2.47332e-18)
(24.4693 7.7576 5.59011e-21)
(24.4724 7.77164 -1.39188e-18)
(24.4647 7.78147 -1.39883e-18)
(24.4428 7.78591 1.58924e-18)
(24.4026 7.78341 -1.71287e-18)
(24.3384 7.77197 1.83441e-18)
(24.243 7.74905 0)
(24.1076 7.7116 2.01418e-18)
(23.9208 7.65575 -2.32396e-18)
(23.668 7.57652 -1.43354e-18)
(23.3287 7.4669 1.22373e-18)
(22.8716 7.31645 -1.56371e-18)
(22.2432 7.10538 4.35511e-19)
(21.3277 6.79734 1.78767e-18)
(19.8138 6.2608 2.46975e-18)
(16.5992 5.1038 -3.26963e-18)
(23.4195 6.88861 3.08715e-19)
(23.4669 6.9192 0)
(23.5132 6.9522 3.23191e-19)
(23.5593 6.98469 -3.2704e-19)
(23.6052 7.01686 1.31309e-22)
(23.6509 7.04881 -5.00831e-19)
(23.6964 7.08051 1.67772e-19)
(23.7416 7.11191 -3.41107e-19)
(23.7865 7.14309 5.15783e-19)
(23.8312 7.17403 -5.25107e-19)
(23.8756 7.2047 5.30192e-19)
(23.9196 7.23514 -7.22169e-19)
(23.9634 7.26527 6.41623e-19)
(24.0069 7.29512 -9.38372e-20)
(24.0499 7.32464 -8.66938e-19)
(24.0926 7.35384 9.54224e-20)
(24.1348 7.38272 -3.2752e-21)
(24.1763 7.41118 -3.37227e-21)
(24.2172 7.43919 7.57222e-19)
(24.2573 7.4667 -1.12323e-19)
(24.2963 7.49364 -1.05384e-18)
(24.3341 7.51991 9.72859e-19)
(24.3703 7.54538 1.02083e-18)
(24.4045 7.56989 -1.06534e-18)
(24.4362 7.59324 9.83474e-19)
(24.4647 7.61516 -1.32644e-18)
(24.4892 7.63533 -1.55807e-19)
(24.5086 7.65332 1.65008e-19)
(24.5213 7.66857 1.75234e-19)
(24.5253 7.68035 -1.87052e-19)
(24.5178 7.68767 -7.99819e-19)
(24.4951 7.68921 8.52874e-19)
(24.4521 7.68318 9.19322e-19)
(24.3819 7.66718 -9.84823e-19)
(24.2755 7.63821 0)
(24.1212 7.59238 0)
(23.9039 7.52466 1.56935e-19)
(23.6023 7.42801 1.71813e-18)
(23.185 7.29213 -3.03171e-18)
(22.5988 7.09762 1.26911e-18)
(21.7294 6.80631 2.42337e-19)
(20.2618 6.3002 0)
(17.1996 5.20121 3.66699e-19)
(23.4489 6.84502 1.5878e-19)
(23.4936 6.87158 0)
(23.5368 6.90135 -1.64686e-19)
(23.5802 6.93081 3.33017e-19)
(23.6235 6.96005 -3.36143e-19)
(23.6667 6.98918 3.39618e-19)
(23.7098 7.01811 -3.41444e-19)
(23.7527 7.04683 1.7291e-19)
(23.7957 7.07539 1.75487e-19)
(23.8386 7.10386 -1.76518e-19)
(23.8814 7.13221 1.7986e-19)
(23.924 7.1604 0)
(23.9665 7.18839 9.31923e-20)
(24.0089 7.21616 -1.91143e-19)
(24.0512 7.2437 3.8922e-19)
(24.0933 7.27108 -1.00153e-19)
(24.1352 7.29825 1.0291e-19)
(24.1767 7.32515 0)
(24.2179 7.35172 4.40638e-19)
(24.2586 7.37789 -3.40829e-19)
(24.2987 7.40366 5.93241e-19)
(24.338 7.42894 -4.92749e-19)
(24.3762 7.45365 -1.28831e-19)
(24.4129 7.47762 0)
(24.4479 7.50065 0)
(24.4804 7.52254 2.98404e-19)
(24.5098 7.54299 1.57573e-19)
(24.5351 7.56161 -6.67824e-19)
(24.555 7.57795 5.28234e-19)
(24.5679 7.59136 -5.65085e-19)
(24.5712 7.60098 1.96634e-19)
(24.5618 7.60566 -2.17417e-19)
(24.5351 7.60379 9.14677e-19)
(24.4846 7.59318 0)
(24.4017 7.5709 -7.96212e-19)
(24.2746 7.53313 1.13956e-18)
(24.0878 7.47474 0)
(23.8195 7.38863 -5.05026e-19)
(23.4377 7.26449 0)
(22.8895 7.08368 -1.84626e-18)
(22.0618 6.80583 1.84509e-18)
(20.6391 6.32232 0)
(17.6895 5.27633 -6.7276e-19)
(23.4747 6.80371 -4.9037e-19)
(23.5167 6.82785 1.65713e-19)
(23.5572 6.85488 0)
(23.5981 6.88167 -5.08532e-19)
(23.6389 6.90839 6.82198e-19)
(23.6798 6.93507 1.72117e-19)
(23.7206 6.9617 3.47755e-19)
(23.7615 6.98805 -3.49933e-19)
(23.8026 7.01431 0)
(23.8439 7.04061 -1.79534e-19)
(23.8853 7.06704 -4.55971e-19)
(23.9265 7.09337 2.77228e-19)