/*--------------------------------*- C++ -*----------------------------------*\
| =========                 |                                                 |
| \\      /  F ield         | OpenFOAM: The Open Source CFD Toolbox           |
|  \\    /   O peration     | Version:  2.3.0                                 |
|   \\  /    A nd           | Web:      www.OpenFOAM.org                      |
|    \\/     M anipulation  |                                                 |
\*---------------------------------------------------------------------------*/
FoamFile
{
    version     2.0;
    format      ascii;
    class       volScalarField;
    location    "2000";
    object      nut;
}
// * * * * * * * * * * * * * * * * * * * * * * * * * * * * * * * * * * * * * //

dimensions      [0 2 -1 0 0 0 0];

internalField   nonuniform List<scalar> 
6692
(
0.0526495
0.0477806
0.0439384
0.0402543
0.0367558
0.0335147
0.0305197
0.0277587
0.0252251
0.022914
0.0208661
0.0194495
0.0605843
0.0565168
0.0529744
0.0499929
0.0475701
0.0456856
0.0443026
0.0433735
0.0428457
0.042665
0.0427791
0.0431347
0.0676866
0.0647961
0.0623273
0.0602891
0.0586673
0.0574352
0.05656
0.0560023
0.055722
0.0556778
0.0558322
0.0561477
0.0735749
0.0714906
0.0697246
0.0682764
0.0671288
0.0662589
0.0656421
0.0652521
0.0650641
0.0650531
0.0651965
0.0654725
0.0784463
0.0769077
0.0756013
0.0745259
0.073669
0.073015
0.0725476
0.0722519
0.0721122
0.0721153
0.0722473
0.0724951
0.0824833
0.0813168
0.0803187
0.0794881
0.0788187
0.0783017
0.0779282
0.0776892
0.0775774
0.0775851
0.0777054
0.0779302
0.0858413
0.0849332
0.0841473
0.083484
0.0829408
0.0825158
0.0822054
0.0820052
0.0819113
0.0819205
0.0820303
0.0822367
0.0886447
0.0879255
0.0872898
0.0867458
0.0862913
0.0859294
0.085664
0.0854928
0.0854128
0.0854222
0.0855224
0.0857134
0.0910022
0.0904269
0.0898949
0.0894412
0.0890541
0.0887328
0.0884994
0.0883523
0.0882869
0.0882962
0.0883863
0.0885637
0.0930089
0.0925468
0.0920717
0.0916904
0.0913692
0.0910631
0.0908506
0.0907218
0.0906785
0.0906877
0.0907639
0.0909288
0.0211591
0.0248801
0.0274188
0.030102
0.0332748
0.0370542
0.0414374
0.0463766
0.0518056
0.0576477
0.063819
0.070276
0.0436541
0.0443898
0.0454641
0.0469314
0.0488391
0.0512221
0.0540962
0.0574578
0.0612812
0.0655234
0.070132
0.0750902
0.0565877
0.057186
0.0580111
0.0590942
0.0604655
0.0621531
0.0641791
0.0665579
0.0692938
0.0723796
0.0757999
0.0795662
0.0658611
0.0663819
0.0670729
0.0679521
0.0690371
0.0703449
0.0718913
0.0736889
0.0757463
0.0780687
0.0806577
0.0835395
0.0728465
0.0733132
0.0739167
0.0746672
0.0755737
0.076645
0.0778895
0.0793153
0.0809291
0.0827372
0.0847468
0.0869868
0.078252
0.0786776
0.0792192
0.0798811
0.0806671
0.0815804
0.0826239
0.0838003
0.0851129
0.0865653
0.0881641
0.0899432
0.0825349
0.0829283
0.0834235
0.0840209
0.0847208
0.0855222
0.086424
0.0874252
0.0885253
0.0897245
0.0910252
0.0924486
0.0859919
0.0863595
0.0868185
0.0873671
0.0880029
0.0887221
0.0895201
0.0903925
0.0913378
0.0923521
0.0934374
0.0946061
0.0888258
0.0891721
0.0896014
0.0901116
0.0906992
0.091356
0.0920757
0.0928486
0.0936783
0.0945517
0.0954758
0.0964569
0.0911753
0.0915037
0.0919085
0.0923879
0.0929377
0.0935398
0.0941979
0.0948864
0.0956309
0.0963934
0.0971953
0.0980315
0.0695563
0.0605472
0.0526976
0.0455019
0.0388411
0.032894
0.0280031
0.0241351
0.0207214
0.0173427
0.0137981
0.0098291
0.0756219
0.0691615
0.0640269
0.0591356
0.054218
0.0492703
0.0442959
0.0393116
0.0342955
0.029163
0.0237948
0.0180573
0.0826464
0.078435
0.0741646
0.0696412
0.0648711
0.059875
0.0546616
0.0492062
0.0434707
0.0374056
0.0309531
0.0240539
0.0896906
0.0859534
0.0819068
0.0774945
0.0727281
0.0676179
0.0621611
0.0563321
0.0500912
0.043389
0.0361723
0.0283875
0.0954015
0.091893
0.087983
0.0836472
0.0788832
0.0736872
0.0680413
0.0619141
0.0552632
0.0480369
0.0401779
0.0316285
0.100001
0.0966647
0.0928846
0.0886365
0.083901
0.0786566
0.0728712
0.0665053
0.0595094
0.0518269
0.043396
0.0341588
0.103726
0.10055
0.0969085
0.0927648
0.0880838
0.0828255
0.0769442
0.0703883
0.0630999
0.0550162
0.0460711
0.0362115
0.106747
0.103729
0.100233
0.0962078
0.091601
0.0863595
0.0804202
0.0737183
0.066186
0.0577523
0.0483485
0.037928
0.109179
0.106315
0.102969
0.0990713
0.094548
0.0893489
0.0833878
0.076584
0.0688548
0.0601191
0.0503058
0.0393772
0.111129
0.10839
0.10519
0.101434
0.09698
0.0918375
0.0858927
0.0790401
0.0711605
0.0621633
0.0519749
0.0405398
0.00534087
0.00203568
0.00187495
0.00252269
0.0034031
0.00471028
0.00647338
0.00869725
0.011454
0.0148183
0.0188723
0.023708
0.0116647
0.0052154
0.00266454
0.00332681
0.00445944
0.0059322
0.00779885
0.010056
0.0127617
0.015978
0.0197782
0.0242467
0.0164661
0.0084029
0.00383409
0.00427375
0.00561934
0.00724449
0.009197
0.0114734
0.0141177
0.0171831
0.0207349
0.0248525
0.0198414
0.0108195
0.00510886
0.0052817
0.00679349
0.00855579
0.0105766
0.0128608
0.0154428
0.0183667
0.0216834
0.0254369
0.0222541
0.0125409
0.00629523
0.00630368
0.00794993
0.00982135
0.0118955
0.0141801
0.0167014
0.0194932
0.0225949
0.0260581
0.0240496
0.0137963
0.0073436
0.00730479
0.00905917
0.0110178
0.0131337
0.0154139
0.0178776
0.0205496
0.0234608
0.026654
0.0254473
0.0147575
0.00826469
0.00826135
0.0101041
0.0121331
0.0142821
0.0165556
0.018966
0.02153
0.0242688
0.0272065
0.0265794
0.0155337
0.00908481
0.00916145
0.0110778
0.013164
0.0153396
0.0176049
0.0199658
0.0224314
0.0250121
0.0277192
0.0275132
0.0162014
0.00983346
0.00998207
0.0119587
0.0140976
0.0163014
0.0185612
0.0208784
0.0232552
0.0256925
0.02819
0.0280797
0.0164045
0.0103729
0.0108225
0.0129185
0.0151207
0.0173066
0.0195315
0.0217923
0.0240833
0.026391
0.0287229
0.000815079
0.00278931
0.00621975
0.0101351
0.0142366
0.0185518
0.0230534
0.0276941
0.0324172
0.0371465
0.0418398
0.0469142
0.000632033
0.00163847
0.00412009
0.00759706
0.0112346
0.0150331
0.0190534
0.0233711
0.0279636
0.0327603
0.0376747
0.0427861
0.000352721
0.00100083
0.00256095
0.00504349
0.0086963
0.0133135
0.0178075
0.0222036
0.0265788
0.0309925
0.0355014
0.0402088
0.000375447
0.00079002
0.00201941
0.00399233
0.00696052
0.0112663
0.0162104
0.0212105
0.0261099
0.0307498
0.0350838
0.0392981
0.000339171
0.000696559
0.00174965
0.00344251
0.00597268
0.00963125
0.0146399
0.0199845
0.0253851
0.030632
0.0354141
0.039602
0.000337397
0.000637505
0.00158256
0.00309951
0.00537219
0.00866008
0.0133024
0.0187598
0.0244697
0.0302178
0.0356657
0.0403473
0.000335362
0.000611816
0.00148379
0.00288936
0.00499214
0.00802335
0.0123105
0.017723
0.023589
0.0296517
0.0356331
0.0410106
0.000342816
0.000612035
0.00142732
0.0027656
0.00476203
0.00762655
0.0116673
0.0169538
0.0228796
0.0291285
0.0354644
0.0414586
0.000352972
0.000622934
0.00140177
0.00270535
0.00464392
0.00741133
0.0112988
0.0164804
0.0224448
0.0288267
0.035406
0.041856
0.000364711
0.000633097
0.0013948
0.00268467
0.00459795
0.00731812
0.0111246
0.0162561
0.0222931
0.0288251
0.0356191
0.0424011
0.000376808
0.000641053
0.00139795
0.00268563
0.00459179
0.00729388
0.0110634
0.0161848
0.0223366
0.0290604
0.0360888
0.0431722
0.000388669
0.000646502
0.00140549
0.00269611
0.00460351
0.00730167
0.0110566
0.0161826
0.0224712
0.0294176
0.0366999
0.044054
0.000399855
0.000649994
0.001414
0.00270884
0.00461983
0.00731854
0.0110673
0.0161974
0.0226246
0.0298141
0.0373826
0.0450505
0.000410155
0.00065211
0.00142158
0.00271975
0.00463329
0.00733152
0.0110733
0.0161968
0.0227391
0.0301669
0.0380266
0.0459817
0.000419474
0.000653678
0.00142736
0.00272714
0.00464104
0.00733595
0.0110673
0.0161744
0.022797
0.0304437
0.0385998
0.0468968
0.000427875
0.000655282
0.00143097
0.00273052
0.00464221
0.00733016
0.011046
0.0161265
0.0227879
0.0306126
0.0390398
0.047647
0.000435516
0.000657259
0.00143291
0.00273104
0.00463901
0.00731819
0.0110166
0.0160667
0.0227354
0.0306929
0.0393548
0.0482479
0.000442545
0.000659628
0.00143359
0.00272969
0.00463335
0.00730316
0.0109835
0.0160026
0.022661
0.0307142
0.0395767
0.0487417
0.000449171
0.000662064
0.00143395
0.00272827
0.00462836
0.00729047
0.0109558
0.0159483
0.0225923
0.0307249
0.0397757
0.049215
0.000455458
0.000664471
0.00143397
0.00272665
0.00462374
0.00727989
0.0109341
0.0159067
0.0225382
0.0307369
0.0399514
0.0496327
0.00046148
0.000666673
0.00143397
0.00272506
0.00461927
0.00727005
0.010915
0.0158728
0.0224982
0.0307643
0.0401406
0.050056
0.00046726
0.000668658
0.00143413
0.00272384
0.00461531
0.00726093
0.0108972
0.0158414
0.0224606
0.0307914
0.0403302
0.0504829
0.000472813
0.000670408
0.00143458
0.00272316
0.00461204
0.00725247
0.0108796
0.015809
0.0224161
0.0307967
0.0404824
0.0508515
0.000478135
0.000672051
0.00143526
0.00272309
0.00460983
0.00724564
0.0108642
0.015779
0.0223709
0.0307879
0.0406062
0.0512017
0.000483288
0.00067351
0.00143631
0.00272376
0.00460883
0.00724067
0.0108516
0.0157527
0.0223281
0.0307692
0.0406942
0.0514578
0.000488215
0.000674892
0.00143759
0.00272511
0.0046091
0.00723794
0.0108426
0.0157324
0.0222934
0.0307556
0.0407817
0.0517118
0.000492938
0.000676046
0.00143926
0.00272731
0.0046108
0.00723744
0.0108371
0.0157176
0.0222668
0.0307503
0.0408788
0.0519914
0.000497476
0.00067708
0.00144119
0.00273015
0.00461371
0.00723894
0.0108348
0.0157071
0.0222452
0.0307458
0.0409722
0.0522721
0.000501864
0.000677839
0.00144348
0.00273373
0.00461789
0.00724273
0.0108359
0.0157014
0.0222287
0.0307399
0.0410477
0.0525192
0.000506046
0.000678579
0.00144589
0.00273781
0.00462314
0.00724837
0.0108402
0.0157013
0.0222201
0.0307391
0.0411092
0.0526931
0.000510053
0.00067909
0.00144865
0.00274258
0.00462954
0.00725603
0.010848
0.0157069
0.0222212
0.030752
0.0411887
0.0528997
0.000513842
0.000679523
0.00145173
0.00274806
0.00463718
0.00726578
0.0108594
0.0157185
0.0222318
0.0307786
0.041285
0.053132
0.000517463
0.00067963
0.00145554
0.00275475
0.00464632
0.00727748
0.0108738
0.0157346
0.0222487
0.030813
0.0413929
0.0533834
0.000520969
0.000679439
0.00146027
0.00276274
0.00465709
0.0072912
0.0108909
0.0157552
0.0222731
0.0308541
0.0414911
0.053551
0.000524327
0.000678851
0.0014662
0.00277268
0.0046703
0.00730752
0.0109101
0.0157779
0.0223025
0.0309133
0.0416429
0.0538467
0.000527492
0.000678111
0.00147333
0.0027849
0.0046869
0.00732773
0.0109325
0.0158011
0.0223273
0.0309616
0.0417912
0.0541389
0.000530438
0.000677087
0.00148164
0.00279953
0.00470747
0.00735374
0.0109618
0.0158294
0.0223492
0.0309886
0.0419145
0.0545194
0.000533067
0.000675892
0.00149076
0.00281603
0.00473167
0.00738599
0.011001
0.0158708
0.0223826
0.0310035
0.0419416
0.0546046
0.000535414
0.000674276
0.00150084
0.00283424
0.0047588
0.00742328
0.011049
0.015928
0.0224434
0.0310644
0.0420346
0.0547917
0.000537522
0.000672129
0.00151157
0.00285374
0.00478825
0.00746466
0.0111036
0.0159961
0.0225239
0.0311619
0.0421986
0.0550653
0.000539363
0.000669558
0.00152297
0.00287442
0.00481965
0.00750897
0.0111626
0.0160705
0.0226129
0.0312707
0.0423869
0.0554315
0.00054091
0.000666988
0.00153463
0.00289562
0.00485208
0.00755506
0.0112244
0.016149
0.0227066
0.0313797
0.042558
0.0557521
0.000542189
0.000664801
0.00154654
0.00291717
0.00488502
0.00760208
0.011288
0.0162305
0.022805
0.0314931
0.0427256
0.0560546
0.000543286
0.000663732
0.00155852
0.00293874
0.00491789
0.00764896
0.0113517
0.0163133
0.0229071
0.0316134
0.0428993
0.0563767
0.000544299
0.000664357
0.00157087
0.0029605
0.00495045
0.00769467
0.0114132
0.0163931
0.0230065
0.0317326
0.0430665
0.05666
0.00054513
0.000666806
0.00158345
0.00298247
0.00498286
0.00773946
0.0114721
0.0164673
0.0230974
0.0318428
0.0432327
0.0569898
0.000545654
0.000670737
0.00159651
0.0030052
0.00501589
0.00778404
0.0115288
0.0165357
0.0231752
0.0319274
0.0433512
0.057303
0.000545605
0.000675658
0.00161012
0.0030289
0.0050501
0.00782962
0.0115855
0.0166015
0.0232446
0.0319886
0.0433956
0.0574082
0.000545095
0.000681073
0.00162469
0.00305419
0.00508657
0.00787799
0.0116452
0.0166698
0.0233161
0.0320539
0.0434567
0.0575922
0.000544197
0.000686932
0.00163992
0.00308089
0.00512579
0.00793036
0.01171
0.0167436
0.0233914
0.0321177
0.0434993
0.0577174
0.000542882
0.000693347
0.00165656
0.00310995
0.00516849
0.00798789
0.0117819
0.0168261
0.0234757
0.0321881
0.0435366
0.0577935
0.000541121
0.000700102
0.00167412
0.00314084
0.0052146
0.00805125
0.0118624
0.0169205
0.0235747
0.0322743
0.0435889
0.0578787
0.000538823
0.000707254
0.00169266
0.00317346
0.00526367
0.00811974
0.0119515
0.0170281
0.0236925
0.0323827
0.0436561
0.0579612
0.000535941
0.000714663
0.00171192
0.00320726
0.00531482
0.00819182
0.012047
0.0171473
0.0238306
0.0325222
0.0437488
0.0579187
0.000532501
0.000722682
0.00173232
0.0032429
0.00536843
0.00826682
0.0121468
0.0172739
0.0239846
0.0327024
0.0439582
0.0582481
0.000528497
0.000730991
0.00175357
0.00328022
0.0054246
0.00834467
0.0122491
0.0174022
0.024138
0.0328783
0.0441535
0.0585215
0.000523954
0.000740317
0.00177686
0.00332023
0.00548413
0.00842676
0.0123554
0.0175322
0.024288
0.0330389
0.0443093
0.0586868
0.000518827
0.000750539
0.00180211
0.00336348
0.00554846
0.00851516
0.012469
0.01767
0.024444
0.0331996
0.0444499
0.0587823
0.000513023
0.000761935
0.00182985
0.00341066
0.00561844
0.00861123
0.0125925
0.0178192
0.024612
0.0333718
0.044603
0.0589106
0.000506471
0.000774644
0.00186043
0.00346244
0.00569525
0.00871636
0.0127272
0.0179811
0.0247937
0.0335565
0.044755
0.0589653
0.000499142
0.000788962
0.00189452
0.00352033
0.00578089
0.00883281
0.0128757
0.0181589
0.0249928
0.033762
0.0449419
0.0591032
0.000491043
0.000805303
0.00193302
0.00358541
0.00587735
0.00896379
0.013042
0.0183565
0.0252106
0.0339807
0.0451338
0.0592401
0.000482056
0.000824032
0.00197665
0.0036591
0.00598701
0.00911354
0.0132324
0.0185824
0.0254576
0.0342206
0.0453226
0.0593437
0.000472006
0.000845402
0.00202597
0.0037425
0.00611167
0.00928496
0.013452
0.0188461
0.0257507
0.0345101
0.0455417
0.0593289
0.000460539
0.000869759
0.00208165
0.00383654
0.00625246
0.0094792
0.0137025
0.01915
0.0260958
0.0348728
0.0458908
0.0596688
0.000447089
0.000897452
0.00214443
0.00394233
0.00641071
0.00969726
0.0139836
0.0194904
0.0264822
0.0352759
0.0462516
0.0598499
0.000430709
0.000929064
0.00221535
0.00406177
0.00658886
0.00994149
0.0142971
0.0198681
0.0269094
0.0357252
0.046686
0.0602612
0.000409553
0.000965032
0.00229599
0.00419746
0.00679109
0.0102172
0.014648
0.0202866
0.0273733
0.0361927
0.0470894
0.0604926
0.000379853
0.00100681
0.00239
0.00435491
0.00702442
0.010534
0.0150488
0.0207607
0.0278929
0.0367071
0.0475175
0.0607186
0.000336099
0.00105699
0.00250381
0.0045454
0.00730346
0.0109096
0.0155199
0.0213138
0.0284948
0.0372986
0.0480073
0.0609767
0.000271577
0.00111953
0.0026485
0.00478938
0.00765791
0.0113798
0.0161014
0.0219872
0.02922
0.0380098
0.0486067
0.0613216
0.000249857
0.00121142
0.00283749
0.00510937
0.00812966
0.0120109
0.0168779
0.0228707
0.0301508
0.0389145
0.0493849
0.0618424
0.000249571
0.00133173
0.00308874
0.00554439
0.00878008
0.0128909
0.0179753
0.0241353
0.0314858
0.0401793
0.0504547
0.0626357
0.000285478
0.00153369
0.0035396
0.0063027
0.00987005
0.0143231
0.0197223
0.0261206
0.0335755
0.0421734
0.0520895
0.0636659
0.000395525
0.00227292
0.0049819
0.00842911
0.0126017
0.017529
0.0232716
0.0298738
0.0373328
0.0456614
0.0549917
0.0656844
0.000851098
0.00382838
0.00777184
0.0124498
0.0177881
0.0236535
0.0299719
0.0366751
0.0436978
0.0509536
0.0583789
0.065942
0.000398509
0.00221412
0.00504423
0.00875254
0.0133007
0.0186376
0.0246995
0.0314027
0.0386419
0.0462924
0.0542263
0.0623303
0.000450473
0.0018378
0.00420757
0.00732869
0.011257
0.0160157
0.0216016
0.0279752
0.0350573
0.0427293
0.050844
0.0592577
0.000545056
0.00156164
0.00359948
0.00632872
0.00983032
0.0141581
0.019345
0.0253898
0.032247
0.0398204
0.0479667
0.0565126
0.000585609
0.00134894
0.00315174
0.0055994
0.00878281
0.0127709
0.0176192
0.0233551
0.0299638
0.0373768
0.0454656
0.0540481
0.000606245
0.00120586
0.00283539
0.00507044
0.00800316
0.0117119
0.0162675
0.0217183
0.0280758
0.0352992
0.043284
0.0518705
0.000614952
0.00110219
0.00259587
0.00466334
0.0073929
0.0108687
0.0151718
0.0203662
0.0264841
0.0335086
0.0413596
0.0498912
0.000619934
0.00102076
0.00240359
0.00433461
0.00689604
0.0101753
0.0142601
0.0192259
0.0251215
0.0319517
0.0396624
0.0481429
0.000623623
0.000954684
0.00224497
0.00406244
0.00648195
0.00959307
0.0134877
0.0182498
0.0239414
0.0305858
0.0381511
0.0465407
0.000626582
0.000900171
0.00211278
0.00383259
0.00613053
0.00909587
0.0128234
0.0174031
0.0229074
0.0293741
0.0367884
0.0450627
0.000629044
0.000854687
0.00200137
0.00363501
0.00582728
0.00866482
0.0122441
0.0166597
0.0219914
0.0282893
0.035553
0.0437123
0.000631296
0.000816219
0.00190541
0.00346276
0.00556209
0.00828643
0.0117332
0.016
0.0211729
0.0273119
0.0344308
0.042482
0.00063342
0.000783153
0.00182142
0.0033109
0.00532772
0.00795095
0.0112784
0.01541
0.0204369
0.0264276
0.0334106
0.041363
0.000635405
0.000754371
0.00174707
0.00317575
0.0051187
0.007651
0.0108705
0.0148786
0.0197706
0.0256224
0.0324728
0.0403035
0.000637238
0.000729164
0.00168064
0.00305436
0.00493083
0.00738081
0.0105019
0.0143968
0.019164
0.024885
0.0316072
0.0393226
0.000639345
0.000710574
0.00162112
0.00294551
0.00476092
0.00713597
0.0101672
0.013958
0.0186099
0.0242104
0.0308195
0.0384628
0.000642877
0.000705697
0.0015677
0.00284781
0.00460641
0.00691284
0.00986148
0.0135563
0.0181008
0.0235866
0.0300758
0.037562
0.000647733
0.000710556
0.00151963
0.00275924
0.00446513
0.0067084
0.00958087
0.0131867
0.0176309
0.0230088
0.0293909
0.0368122
0.000653008
0.000718272
0.00147618
0.00267834
0.00433535
0.00652032
0.00932222
0.0128451
0.0171951
0.0224697
0.0287403
0.0360157
0.00065806
0.000725601
0.00143672
0.00260402
0.00421555
0.00634649
0.00908278
0.0125281
0.0167893
0.0219655
0.0281324
0.0353256
0.000662677
0.000731745
0.0014007
0.00253542
0.00410456
0.00618522
0.00886025
0.0122328
0.0164103
0.0214941
0.0275668
0.0346796
0.000666846
0.000736679
0.00136766
0.00247188
0.00400134
0.00603505
0.00865275
0.011957
0.0160559
0.0210538
0.0270407
0.0340835
0.000670629
0.000740677
0.00133722
0.00241275
0.0039049
0.0058948
0.00845881
0.0116991
0.0157244
0.0206419
0.0265465
0.0335048
0.000674103
0.000743847
0.00130923
0.0023578
0.00381548
0.00576352
0.00827707
0.0114572
0.0154134
0.0202547
0.0260784
0.0329483
0.000677275
0.000746536
0.00128484
0.00230679
0.00373242
0.00564043
0.00810651
0.0112301
0.0151209
0.0198892
0.0256331
0.0324147
0.000680357
0.0007498
0.00126925
0.00225953
0.00365483
0.00552477
0.00794607
0.0110162
0.0148447
0.0195422
0.0252065
0.0318971
0.000683579
0.000754847
0.00126584
0.00221595
0.00358214
0.00541588
0.00779478
0.0108142
0.0145834
0.0192132
0.0248046
0.0314379
0.000686998
0.00076176
0.00127074
0.00217584
0.00351386
0.00531317
0.00765194
0.0106232
0.0143358
0.0189018
0.0244251
0.03099
0.000690532
0.000769686
0.00127881
0.0021388
0.00344954
0.00521608
0.00751683
0.0104424
0.0141014
0.0186064
0.0240625
0.0305489
0.000694069
0.000777783
0.00128703
0.00210449
0.00338895
0.00512412
0.0073887
0.0102708
0.0138786
0.0183244
0.0237129
0.0301174
0.000697531
0.000785423
0.00129417
0.00207248
0.00333172
0.00503703
0.00726715
0.0101077
0.0136664
0.0180557
0.0233832
0.029744
0.000700932
0.000792486
0.00129995
0.00204251
0.00327749
0.00495421
0.0071515
0.00995245
0.0134642
0.0177997
0.0230682
0.0293591
0.000704213
0.000798705
0.00130428
0.00201426
0.00322604
0.00487533
0.00704138
0.00980457
0.0132715
0.0175553
0.0227652
0.0289841
0.000707253
0.000804202
0.00130733
0.00198759
0.00317733
0.00480088
0.00693649
0.00966352
0.0130872
0.0173201
0.0224678
0.0285989
0.000710136
0.000809061
0.00130926
0.00196236
0.00313118
0.00473041
0.00683642
0.00952874
0.012911
0.0170958
0.0221944
0.0283253
0.000712887
0.000813427
0.0013103
0.00193858
0.00308756
0.00466348
0.00674083
0.00939984
0.0127423
0.0168807
0.0219255
0.0279598
0.000715552
0.000817361
0.00131062
0.0019162
0.00304624
0.00459992
0.0066496
0.00927655
0.0125811
0.0166764
0.0216801
0.0277322
0.000718224
0.000821082
0.00131049
0.00189555
0.00300698
0.00453928
0.00656235
0.0091587
0.0124273
0.016482
0.0214416
0.0274079
0.000720879
0.000824463
0.0013102
0.00187769
0.00296974
0.00448144
0.00647898
0.00904613
0.0122803
0.0162959
0.0212114
0.0271366
0.000723418
0.000827731
0.00131044
0.0018649
0.00293457
0.00442628
0.00639937
0.00893856
0.0121398
0.0161176
0.0209888
0.026855
0.000725955
0.000831124
0.00131213
0.00185894
0.00290153
0.00437366
0.00632323
0.00883574
0.0120055
0.0159459
0.0207708
0.0265731
0.000728548
0.000834923
0.00131587
0.00185938
0.00287081
0.00432356
0.0062505
0.00873763
0.0118771
0.0157824
0.0205746
0.0264056
0.000731259
0.000839213
0.00132161
0.00186411
0.00284232
0.00427591
0.00618096
0.00864363
0.0117546
0.015628
0.0203908
0.0261819
0.000734164
0.000844103
0.00132897
0.00187107
0.00281576
0.00423035
0.00611429
0.00855361
0.0116375
0.0154809
0.0202106
0.02594
0.000737204
0.000849229
0.0013372
0.00187873
0.00279093
0.00418688
0.00605068
0.00846777
0.0115256
0.0153396
0.0200326
0.0257022
0.000740181
0.000854412
0.00134576
0.00188632
0.00276763
0.00414542
0.00598994
0.00838554
0.0114184
0.0152027
0.0198552
0.025459
0.000743193
0.000859787
0.00135445
0.00189346
0.00274574
0.00410621
0.00593244
0.00830689
0.0113155
0.01507
0.0196846
0.0252578
0.000746313
0.000864898
0.00136267
0.00189988
0.00272528
0.00406901
0.00587771
0.00823181
0.0112167
0.0149419
0.0195206
0.0250506
0.000749554
0.000869963
0.00137048
0.00190564
0.00270607
0.00403379
0.0058257
0.00815984
0.0111219
0.0148186
0.0193621
0.0248473
0.000752837
0.000874787
0.00137781
0.00191069
0.00268796
0.00400039
0.00577615
0.00809091
0.0110306
0.0146997
0.0192082
0.0246471
0.00075609
0.000879398
0.00138464
0.00191508
0.00267091
0.00396877
0.00572921
0.00802519
0.0109429
0.014585
0.0190605
0.0244685
0.000759344
0.00088373
0.00139093
0.00191885
0.00265483
0.00393877
0.00568438
0.00796222
0.0108588
0.0144751
0.0189202
0.0242996
0.000762625
0.000887945
0.00139688
0.0019222
0.00263978
0.00391053
0.00564185
0.00790202
0.0107783
0.01437
0.018787
0.0241371
0.00076606
0.000892055
0.00140236
0.00192501
0.00262583
0.00388394
0.00560142
0.00784478
0.0107017
0.01427
0.0186604
0.0239811
0.000769656
0.000896095
0.00140752
0.00192757
0.00261298
0.00385875
0.00556302
0.00779025
0.0106289
0.0141751
0.0185403
0.0238312
0.000773357
0.000899993
0.00141239
0.00192992
0.0026015
0.00383507
0.00552673
0.00773855
0.0105598
0.0140854
0.0184257
0.0236839
0.000777107
0.000903823
0.00141708
0.00193228
0.00259178
0.00381299
0.00549282
0.00769002
0.0104945
0.0140005
0.0183182
0.0235596
0.000780948
0.00090754
0.00142163
0.00193486
0.00258439
0.00379249
0.00546093
0.00764435
0.0104334
0.013921
0.0182185
0.0234412
0.00078492
0.000911333
0.00142634
0.0019381
0.00257991
0.00377388
0.0054314
0.00760168
0.0103762
0.013847
0.0181253
0.0233214
0.000789171
0.000915246
0.00143117
0.00194205
0.00257855
0.0037571
0.0054041
0.00756238
0.0103237
0.0137784
0.0180376
0.0232102
0.000793728
0.000919336
0.00143634
0.00194711
0.00258025
0.00374232
0.00537931
0.00752635
0.0102755
0.0137162
0.0179625
0.0231499
0.00079856
0.000923555
0.00144196
0.00195328
0.00258443
0.00372958
0.00535711
0.00749388
0.0102321
0.0136603
0.0178915
0.0230315
0.000803633
0.000927975
0.00144808
0.00196046
0.00259054
0.00371905
0.00533801
0.00746566
0.010194
0.0136118
0.0178366
0.0230234
0.000809021
0.000932543
0.00145465
0.00196849
0.00259807
0.00371077
0.00532191
0.00744185
0.0101618
0.0135712
0.0177865
0.0229113
0.000814795
0.000937416
0.00146179
0.00197733
0.00260662
0.00370508
0.0053094
0.00742285
0.0101359
0.0135382
0.0177445
0.0228755
0.00082115
0.00094259
0.00146928
0.00198661
0.00261603
0.00370213
0.00530076
0.00740938
0.010117
0.0135135
0.0177117
0.0228193
0.00082817
0.000948077
0.00147714
0.0019964
0.00262605
0.00370205
0.0052965
0.00740188
0.010106
0.0134983
0.0176894
0.0227863
0.000835902
0.000953816
0.00148534
0.00200652
0.00263669
0.00370541
0.00529748
0.00740145
0.0101038
0.0134939
0.017679
0.0227611
0.000844389
0.000959751
0.00149382
0.00201695
0.002648
0.00371286
0.00530478
0.00740937
0.0101119
0.0135016
0.0176842
0.0227754
0.000853939
0.000966132
0.00150269
0.0020278
0.00266027
0.00372537
0.00531957
0.00742736
0.0101328
0.0135248
0.0177093
0.0228037
0.000865
0.000972826
0.0015119
0.00203907
0.00267367
0.00374428
0.0053439
0.00745777
0.0101692
0.0135668
0.0177551
0.0228409
0.000878253
0.000981475
0.00152303
0.00205196
0.0026899
0.0037736
0.00538249
0.00750619
0.010227
0.0136331
0.0178302
0.0229414
0.000892338
0.000983981
0.00152938
0.00206157
0.00270491
0.0038079
0.00543172
0.0075709
0.0103069
0.0137267
0.0179324
0.023002
0.000948161
0.00103062
0.00156461
0.00209708
0.00275399
0.00390017
0.00554581
0.00770239
0.0104514
0.0138785
0.0180864
0.0231961
0.000404692
0.000832231
0.00149702
0.00202907
0.00268109
0.00384906
0.00551414
0.00769589
0.010477
0.0139457
0.0181982
0.0232911
0.123529
0.136299
0.126368
0.145348
0.0496071
0.101992
0.137486
0.135514
0.0461973
0.0481982
0.154408
0.139502
0.117684
0.13751
0.121915
0.0538186
0.106853
0.142626
0.122886
0.0836065
0.13967
0.137458
0.120174
0.104166
0.0960333
0.0378719
0.065091
0.143672
0.132648
0.115703
0.121272
0.130622
0.0555335
0.0790818
0.127079
0.13931
0.129911
0.154187
0.0571538
0.109082
0.117228
0.132865
0.0889839
0.0587046
0.121753
0.111402
0.136483
0.137552
0.138428
0.135599
0.133356
0.110451
0.157044
0.0759713
0.137658
0.130431
0.175149
0.140149
0.134144
0.154623
0.129815
0.107725
0.108027
0.115732
0.149601
0.0585577
0.126229
0.181226
0.211691
0.109759
0.146144
0.121619
0.138172
0.139267
0.0454381
0.124533
0.126042
0.112719
0.0860389
0.132046
0.0648912
0.104928
0.139902
0.146186
0.0672681
0.138739
0.135478
0.136807
0.133901
0.0988861
0.0751226
0.135001
0.136827
0.138616
0.106365
0.13827
0.068278
0.0630079
0.138364
0.114713
0.110123
0.138325
0.0387974
0.131346
0.0827619
0.115754
0.107738
0.0768699
0.109252
0.105676
0.135802
0.115518
0.127513
0.135286
0.122525
0.110246
0.140078
0.137958
0.132829
0.0472103
0.117564
0.135121
0.125311
0.134898
0.146105
0.0661069
0.160107
0.0762565
0.137935
0.067191
0.0889559
0.0798578
0.0855306
0.138409
0.0923902
0.134911
0.0852923
0.138783
0.131791
0.124446
0.14004
0.153518
0.132462
0.121043
0.0991699
0.112424
0.0724082
0.086408
0.0955022
0.111118
0.0975608
0.140134
0.114189
0.139246
0.152192
0.035231
0.0974536
0.131931
0.101292
0.136906
0.133548
0.0968331
0.137197
0.138166
0.0927961
0.14469
0.0376171
0.140089
0.132691
0.142346
0.139406
0.139723
0.132462
0.139254
0.136608
0.131284
0.133789
0.138188
0.131335
0.121743
0.139587
0.052944
0.119116
0.0549499
0.108255
0.142047
0.094524
0.135998
0.0899791
0.130726
0.117605
0.0543093
0.356898
0.0999609
0.028501
0.140148
0.129522
0.109536
0.135691
0.0940087
0.10389
0.0642726
0.135714
0.0834176
0.0979003
0.126553
0.112778
0.0787786
0.0968282
0.290475
0.124693
0.140163
0.202942
0.13972
0.130978
0.0836436
0.0565612
0.0501739
0.113261
0.124551
0.100694
0.140127
0.0444482
0.0787766
0.11777
0.139043
0.139308
0.0802769
0.133523
0.0964875
0.0586107
0.106887
0.0931058
0.0550674
0.138897
0.134632
0.139391
0.0194929
0.078134
0.134262
0.0836036
0.127844
0.0933874
0.13373
0.100108
0.136986
0.0824443
0.122068
0.0631334
0.0514018
0.111798
0.0711907
0.0526966
0.103176
0.139739
0.0615213
0.0718171
0.123295
0.136485
0.139015
0.134182
0.243706
0.132008
0.137812
0.136831
0.0439703
0.125042
0.125855
0.123906
0.125328
0.131745
0.102517
0.0588915
0.0613678
0.0295468
0.0874391
0.136153
0.134195
0.101417
0.136789
0.135152
0.0507965
0.139341
0.116482
0.139786
0.11626
0.139735
0.105516
0.12138
0.0812312
0.362684
0.140083
0.139974
0.0985697
0.148752
0.0920702
0.140088
0.0424973
0.112221
0.109389
0.139103
0.0827966
0.0917463
0.0725975
0.0914009
0.134335
0.128096
0.135378
0.120417
0.140049
0.388707
0.134208
0.0419419
0.132146
0.129227
0.154538
0.115357
0.158558
0.115221
0.132779
0.232939
0.120825
0.086409
0.137856
0.0988626
0.132309
0.121592
0.0938489
0.127202
0.125953
0.114304
0.151958
0.120399
0.138254
0.123477
0.120821
0.0708468
0.138185
0.131839
0.0962973
0.129925
0.0983961
0.0581361
0.0575822
0.0948648
0.146004
0.137024
0.137731
0.0625524
0.114403
0.0986566
0.0834591
0.116132
0.329874
0.0753788
0.139966
0.09607
0.103779
0.140168
0.14015
0.0337369
0.0689362
0.140102
0.103297
0.106533
0.140155
0.124312
0.138415
0.130604
0.0820788
0.139682
0.133867
0.114116
0.139215
0.132264
0.114852
0.137728
0.133583
0.145759
0.0900922
0.134935
0.106568
0.0670377
0.108172
0.13223
0.123424
0.125217
0.0771894
0.136071
0.136402
0.100705
0.0593813
0.0358762
0.0535793
0.13918
0.0596732
0.138408
0.125888
0.140101
0.0493549
0.0838512
0.0617891
0.138374
0.124532
0.136138
0.149268
0.128993
0.0663884
0.0924603
0.13932
0.125004
0.123935
0.111268
0.127434
0.121788
0.0379794
0.127093
0.0773333
0.0359152
0.158431
0.0785292
0.124096
0.106959
0.127548
0.104009
0.137185
0.116885
0.0913927
0.0442804
0.0954696
0.0409996
0.120883
0.130993
0.119187
0.108053
0.112415
0.139687
0.12404
0.0899759
0.140336
0.134988
0.15464
0.130571
0.137433
0.107021
0.133463
0.0465734
0.151699
0.043005
0.102143
0.157729
0.155188
0.094239
0.0439658
0.13745
0.134442
0.133898
0.0750762
0.103648
0.0450493
0.139374
0.0867246
0.139931
0.128554
0.0985473
0.116818
0.131137
0.100641
0.107739
0.0843588
0.138091
0.140165
0.140083
0.0915475
0.118196
0.0955688
0.05967
0.104017
0.132829
0.0713645
0.151267
0.132482
0.140002
0.180505
0.113417
0.0752341
0.0517249
0.139192
0.0680312
0.0906626
0.116432
0.0878615
0.220627
0.136735
0.132351
0.1319
0.138589
0.0568216
0.104841
0.136074
0.11913
0.0919649
0.115253
0.139724
0.138591
0.0668501
0.137299
0.0474358
0.0665128
0.052876
0.1399
0.0284774
0.033228
0.129869
0.0720835
0.258993
0.0330448
0.119181
0.191683
0.03001
0.133688
0.104983
0.138104
0.130859
0.0701062
0.208486
0.0321258
0.0425379
0.137327
0.110848
0.140153
0.137202
0.0871039
0.0757459
0.0829554
0.12199
0.0372606
0.158879
0.0287048
0.127751
0.134761
0.137062
0.0284626
0.136383
0.0877666
0.131462
0.162987
0.137218
0.118407
0.150303
0.140129
0.0659168
0.127992
0.084302
0.171076
0.13988
0.13729
0.119679
0.111314
0.11765
0.133601
0.119353
0.228281
0.132892
0.181447
0.137925
0.111207
0.0862331
0.140068
0.117937
0.110208
0.112143
0.0437636
0.118716
0.137851
0.135504
0.131204