/*--------------------------------*- C++ -*----------------------------------*\
| =========                 |                                                 |
| \\      /  F ield         | OpenFOAM: The Open Source CFD Toolbox           |
|  \\    /   O peration     | Version:  2.3.0                                 |
|   \\  /    A nd           | Web:      www.OpenFOAM.org                      |
|    \\/     M anipulation  |                                                 |
\*---------------------------------------------------------------------------*/
FoamFile
{
    version     2.0;
    format      ascii;
    class       volScalarField;
    location    "5000";
    object      nut;
}
// * * * * * * * * * * * * * * * * * * * * * * * * * * * * * * * * * * * * * //

dimensions      [0 2 -1 0 0 0 0];

internalField   nonuniform List<scalar> 
38977
(
0.0620925
0.0604216
0.058761
0.0571068
0.055459
0.053818
0.0521845
0.0505595
0.0489441
0.047339
0.045745
0.0441633
0.0425946
0.0410401
0.0395007
0.0379768
0.0364694
0.0349797
0.0335085
0.0320567
0.0306255
0.0292166
0.0278317
0.0264727
0.0251427
0.0238455
0.0225861
0.0213686
0.0201953
0.0190708
0.0180051
0.0170077
0.0160849
0.0152105
0.0143458
0.0134734
0.0125896
0.01169
0.0107647
0.00979269
0.00873813
0.00758099
0.00654071
0.0635981
0.0621387
0.0606824
0.0592298
0.0577824
0.0563405
0.0549048
0.053476
0.0520545
0.0506407
0.0492353
0.0478388
0.0464521
0.0450758
0.0437103
0.0423567
0.0410149
0.0396858
0.0383704
0.0370692
0.0357828
0.0345127
0.0332591
0.0320246
0.030809
0.0296145
0.0284435
0.0272986
0.0261816
0.0250955
0.0240444
0.0230338
0.0220691
0.0211573
0.0203032
0.0195148
0.018805
0.0181869
0.0176759
0.0172879
0.0170399
0.0169469
0.017024
0.0649801
0.0636979
0.0624124
0.0611285
0.0598482
0.0585719
0.0573002
0.0560334
0.0547716
0.0535151
0.0522642
0.0510195
0.0497815
0.0485504
0.0473267
0.0461113
0.0449048
0.0437073
0.04252
0.0413425
0.040177
0.0390242
0.0378849
0.0367608
0.0356534
0.034564
0.0334961
0.0324512
0.031433
0.0304453
0.0294911
0.0285765
0.0277084
0.0268924
0.0261371
0.025452
0.0248469
0.0243345
0.0239261
0.023632
0.0234637
0.0234278
0.0235274
0.0662603
0.0651155
0.0639719
0.0628303
0.0616907
0.0605538
0.0594195
0.0582883
0.0571599
0.0560346
0.054912
0.053793
0.0526778
0.0515667
0.0504601
0.0493585
0.0482626
0.0471732
0.0460903
0.0450151
0.0439483
0.0428914
0.0418455
0.0408115
0.0397918
0.0387882
0.0378028
0.0368395
0.0359007
0.0349909
0.0341144
0.0332759
0.0324815
0.031739
0.0310551
0.0304391
0.0299
0.0294474
0.0290916
0.0288416
0.0287047
0.0286861
0.0287871
0.0674182
0.0663973
0.0653766
0.0643561
0.063336
0.0623169
0.0612985
0.0602812
0.0592648
0.0582491
0.0572341
0.0562199
0.0552067
0.0541951
0.0531853
0.0521778
0.0511732
0.0501722
0.0491755
0.0481837
0.0471983
0.0462198
0.0452498
0.0442893
0.0433404
0.0424057
0.0414871
0.0405878
0.0397116
0.0388628
0.0380451
0.0372644
0.0365259
0.0358362
0.0352035
0.0346345
0.0341388
0.0337254
0.0334019
0.033177
0.0330571
0.0330458
0.0331454
0.0684676
0.0675553
0.0666412
0.0657246
0.0648059
0.0638866
0.0629664
0.0620452
0.0611229
0.0601995
0.0592747
0.0583483
0.0574205
0.0564917
0.0555626
0.0546333
0.0537043
0.0527765
0.0518507
0.0509279
0.0500092
0.0490953
0.0481876
0.0472874
0.0463964
0.0455177
0.0446532
0.0438057
0.042979
0.0421778
0.0414063
0.0406695
0.0399737
0.0393248
0.0387289
0.0381943
0.0377292
0.0373421
0.0370403
0.0368316
0.0367213
0.0367131
0.0368103
0.0694172
0.0686013
0.0677802
0.0669527
0.0661199
0.065285
0.0644485
0.0636089
0.0627657
0.0619202
0.0610716
0.0602193
0.0593634
0.0585041
0.0576424
0.0567787
0.0559129
0.0550458
0.0541787
0.0533129
0.0524496
0.0515893
0.0507332
0.0498828
0.04904
0.0482071
0.0473867
0.0465816
0.0457953
0.0450317
0.0442963
0.0435944
0.0429318
0.0423146
0.041748
0.0412393
0.040797
0.0404283
0.0401415
0.0399441
0.0398405
0.0398338
0.0399274
0.0702812
0.0695466
0.0688059
0.0680567
0.0672953
0.0665311
0.0657661
0.064997
0.0642196
0.0634398
0.0626557
0.0618669
0.0610721
0.060271
0.0594659
0.0586574
0.0578452
0.0570292
0.0562105
0.0553917
0.0545742
0.0537591
0.0529463
0.052137
0.0513347
0.0505404
0.0497567
0.0489864
0.0482333
0.0475007
0.0467941
0.0461192
0.0454835
0.0448923
0.0443499
0.0438624
0.0434367
0.0430812
0.0428061
0.0426176
0.0425196
0.0425138
0.0426037
0.0710557
0.0703912
0.0697184
0.0690446
0.0683428
0.0676354
0.0669253
0.0662192
0.0654961
0.0647715
0.0640402
0.0633047
0.0625632
0.0618112
0.0610525
0.0602899
0.0595218
0.0587505
0.0579717
0.0571898
0.0564092
0.055632
0.054858
0.0540836
0.0533141
0.0525527
0.0518
0.05106
0.0503359
0.0496307
0.0489498
0.0482968
0.0476825
0.0471147
0.0465954
0.0461272
0.0457186
0.045372
0.0451065
0.0449276
0.044838
0.0448317
0.0449221
0.00730888
0.00922632
0.0104105
0.0115575
0.0127724
0.0140604
0.0154068
0.0167965
0.0182184
0.0196639
0.0211274
0.0226053
0.0240944
0.0255935
0.0271005
0.0286152
0.0301365
0.0316638
0.0331966
0.034735
0.0362783
0.0378261
0.0393786
0.0409354
0.0424962
0.0440606
0.0456288
0.0471999
0.0487739
0.0503507
0.0519296
0.0535103
0.0550923
0.0566752
0.0582588
0.0598424
0.0614253
0.0630069
0.0645865
0.0661635
0.0677369
0.069306
0.0708669
0.0172781
0.0177117
0.0183151
0.0190733
0.0199658
0.020971
0.0220675
0.0232368
0.024463
0.0257343
0.0270399
0.0283714
0.0297242
0.0310923
0.0324726
0.0338622
0.0352592
0.0366615
0.0380679
0.0394774
0.0408894
0.042303
0.0437181
0.0451344
0.046551
0.0479681
0.0493854
0.0508025
0.0522194
0.0536361
0.0550521
0.0564676
0.0578821
0.0592957
0.0607083
0.0621196
0.0635291
0.0649365
0.0663416
0.0677439
0.0691427
0.0705378
0.0719252
0.0237608
0.024131
0.0246403
0.0252796
0.0260367
0.0268974
0.0278465
0.0288698
0.0299546
0.0310894
0.0322635
0.0334691
0.034699
0.0359483
0.0372119
0.0384859
0.0397678
0.0410554
0.0423465
0.0436399
0.0449344
0.0462288
0.0475227
0.0488156
0.0501067
0.0513959
0.052683
0.0539676
0.0552499
0.0565297
0.0578069
0.0590813
0.0603532
0.0616226
0.0628894
0.0641536
0.0654151
0.0666735
0.0679288
0.0691807
0.0704291
0.0716736
0.0729108
0.0290069
0.0293466
0.0298071
0.0303819
0.0310618
0.0318367
0.0326946
0.0336236
0.0346122
0.0356499
0.0367281
0.0378386
0.0389737
0.0401286
0.0412986
0.0424789
0.0436668
0.0448598
0.0460551
0.0472516
0.0484477
0.049642
0.0508342
0.0520234
0.0532091
0.054391
0.0555685
0.0567417
0.0579104
0.0590747
0.0602346
0.0613899
0.0625411
0.0636882
0.0648313
0.0659706
0.0671057
0.0682369
0.0693636
0.0704862
0.0716045
0.0727183
0.073825
0.0333552
0.0336753
0.0341048
0.0346389
0.0352698
0.0359884
0.0367846
0.0376478
0.0385679
0.0395353
0.0405415
0.0415792
0.042641
0.0437217
0.0448169
0.0459218
0.0470335
0.0481486
0.0492647
0.0503808
0.0514955
0.0526072
0.0537147
0.0548175
0.055915
0.057007
0.0580929
0.0591724
0.0602457
0.0613129
0.0623739
0.0634288
0.064478
0.0655216
0.06656
0.067593
0.0686205
0.0696424
0.070659
0.0716702
0.0726761
0.0736767
0.0746725
0.0370115
0.0373171
0.037725
0.0382309
0.0388277
0.0395064
0.0402577
0.0410728
0.0419424
0.0428568
0.0438077
0.0447883
0.0457923
0.0468148
0.04785
0.0488939
0.0499429
0.0509938
0.052045
0.053095
0.0541425
0.0551855
0.0562226
0.0572533
0.0582771
0.0592937
0.0603028
0.061304
0.0622972
0.0632826
0.06426
0.0652299
0.066193
0.0671493
0.0680988
0.0690414
0.0699769
0.0709053
0.071827
0.0727422
0.0736507
0.0745528
0.0754507
0.0401211
0.0404151
0.0408072
0.0412921
0.041863
0.0425116
0.0432296
0.0440083
0.0448388
0.0457118
0.0466189
0.0475542
0.0485123
0.049488
0.050475
0.0514688
0.0524654
0.0534621
0.0544592
0.0554559
0.0564477
0.0574327
0.0584108
0.0593813
0.0603434
0.0612969
0.0622414
0.0631766
0.064102
0.0650178
0.0659245
0.0668226
0.0677128
0.0685955
0.0694694
0.0703348
0.0711914
0.0720394
0.0728794
0.0737115
0.0745356
0.0753514
0.0761609
0.0427885
0.0430725
0.0434529
0.0439224
0.044473
0.0450972
0.0457887
0.0465395
0.0473409
0.0481801
0.0490508
0.049949
0.0508709
0.0518095
0.0527559
0.0537084
0.0546593
0.0556084
0.0565616
0.0575176
0.0584616
0.0593968
0.0603254
0.0612451
0.0621551
0.0630553
0.0639457
0.0648247
0.0656922
0.0665488
0.0673951
0.0682324
0.0690614
0.0698826
0.0706905
0.0714908
0.0722792
0.0730573
0.0738271
0.0745876
0.0753389
0.076079
0.0768117
0.0450938
0.0453699
0.045742
0.0461994
0.0467318
0.047335
0.0480041
0.0487344
0.0495154
0.0503212
0.0511593
0.0520288
0.0529268
0.0538369
0.0547413
0.0556583
0.0565651
0.0574744
0.0583964
0.0593245
0.0602159
0.0611091
0.061998
0.0628744
0.0637401
0.0645951
0.065441
0.0662712
0.0670893
0.067896
0.0686916
0.0694788
0.0702578
0.0710318
0.0717756
0.0725232
0.0732503
0.07397
0.0746809
0.0753809
0.0760709
0.0767439
0.0774121
0.0503961
0.0484534
0.0464908
0.0445115
0.0425213
0.040526
0.0385324
0.0365474
0.0345789
0.0326348
0.0307237
0.028854
0.0270342
0.0252714
0.0235721
0.021941
0.0203809
0.0188931
0.0174777
0.0161335
0.0148588
0.0136515
0.012509
0.0114291
0.0104091
0.00944681
0.00853979
0.0076859
0.00688314
0.00612966
0.00542359
0.00476362
0.00414829
0.00357651
0.00304747
0.0025605
0.00211539
0.00171188
0.00135015
0.0010295
0.000751465
0.000556945
0.000396655
0.05045
0.0486715
0.0468704
0.045053
0.0432238
0.0413872
0.0395479
0.0377111
0.0358823
0.0340672
0.0322723
0.030504
0.0287689
0.0270735
0.0254235
0.0238242
0.0222796
0.0207925
0.0193646
0.0179966
0.0166883
0.0154392
0.0142479
0.0131131
0.0120334
0.0110071
0.0100327
0.00910884
0.00823421
0.0074075
0.00662773
0.00589404
0.00520563
0.00456195
0.00396276
0.00340798
0.00289672
0.00242584
0.00199477
0.00161161
0.001306
0.00103185
0.000750937
0.050523
0.0488892
0.0472389
0.0455732
0.0438948
0.042207
0.0405131
0.0388164
0.0371212
0.0354316
0.033752
0.0320872
0.0304424
0.0288225
0.0272326
0.0256775
0.0241611
0.0226874
0.021259
0.0198781
0.0185462
0.0172638
0.0160313
0.0148487
0.0137155
0.0126313
0.0115955
0.0106075
0.00966679
0.00877284
0.00792554
0.00712472
0.00636988
0.00566035
0.00499409
0.00436729
0.00377455
0.00321531
0.00270888
0.00228326
0.0018933
0.0015098
0.00108528
0.0505838
0.0490929
0.0475811
0.0460526
0.0445101
0.0429561
0.0413928
0.039823
0.0382494
0.036675
0.035103
0.0335372
0.0319811
0.0304387
0.028914
0.0274112
0.0259339
0.0244859
0.0230704
0.0216905
0.0203485
0.0190464
0.0177855
0.016567
0.0153917
0.0142602
0.0131728
0.0121301
0.0111321
0.0101791
0.00927095
0.00840715
0.0075863
0.00680624
0.00606282
0.00535034
0.00466398
0.00401989
0.00343705
0.00294167
0.00246232
0.00196718
0.00140853
0.0506603
0.0492879
0.0478984
0.0464922
0.0450709
0.0436359
0.0421891
0.0407324
0.0392675
0.0377968
0.0363229
0.034848
0.0333753
0.0319076
0.0304482
0.0290004
0.0275675
0.0261529
0.0247598
0.0233916
0.0220512
0.0207413
0.0194641
0.0182216
0.0170155
0.0158472
0.0147177
0.0136281
0.0125792
0.0115714
0.0106045
0.0096776
0.00878865
0.0079345
0.00711003
0.00630943
0.0055337
0.00481512
0.00418008
0.00359302
0.00301411
0.00240606
0.0017208
0.0507328
0.0494714
0.0481914
0.0468941
0.0455803
0.0442512
0.0429076
0.0415508
0.0401824
0.0388041
0.0374176
0.0360251
0.0346286
0.0332304
0.0318331
0.0304393
0.0290518
0.0276733
0.0263073
0.024957
0.0236257
0.0223164
0.0210318
0.0197744
0.0185465
0.0173497
0.0161858
0.0150561
0.0139618
0.0129034
0.0118811
0.0108935
0.00993842
0.00901181
0.0081082
0.00722296
0.00636827
0.00557723
0.00488181
0.00421313
0.00353996
0.00282426
0.00201971
0.0508049
0.0496429
0.0484607
0.04726
0.0460419
0.0448065
0.0435542
0.0422857
0.0410023
0.0397055
0.0383965
0.0370774
0.0357499
0.0344152
0.0330753
0.0317326
0.0303889
0.0290467
0.0277092
0.0263794
0.0250608
0.023757
0.0224711
0.0212054
0.0199626
0.0187445
0.017553
0.0163891
0.0152548
0.014151
0.0130781
0.0120348
0.011018
0.0100235
0.00904568
0.00808149
0.00715651
0.00629871
0.00553892
0.00479515
0.0040357
0.00322024
0.00230354
0.0508803
0.0498039
0.0487071
0.0475914
0.0464585
0.0453071
0.0441352
0.0429447
0.0417358
0.0405106
0.0392697
0.0380148
0.0367497
0.0354733
0.034186
0.0328905
0.0315885
0.0302809
0.0289711
0.0276626
0.0263585
0.0250629
0.0237794
0.0225099
0.0212577
0.020025
0.018812
0.0176191
0.0164491
0.0153047
0.014187
0.0130935
0.0120213
0.0109646
0.00991857
0.00888338
0.00789631
0.00697855
0.00615611
0.00534148
0.00450225
0.00359456
0.00257055
0.0509521
0.0499544
0.0489308
0.0478874
0.0468313
0.0457587
0.0446571
0.0435352
0.0423915
0.0412288
0.040048
0.0388461
0.0376376
0.0364165
0.0351777
0.0339259
0.0326643
0.0313877
0.0301024
0.0288153
0.0275268
0.02624
0.0249624
0.0236914
0.0224338
0.0211938
0.0199673
0.0187486
0.0175447
0.0163625
0.0152058
0.0140686
0.0129483
0.0118361
0.010727
0.00963251
0.00859185
0.00762601
0.00673904
0.00585565
0.00494666
0.00396221
0.0028544
0.000378526
0.000523548
0.000756216
0.00097822
0.00118897
0.00138952
0.00158139
0.00176619
0.00194524
0.00212049
0.00229378
0.00246721
0.00264356
0.0028265
0.00302142
0.00323561
0.00347923
0.00376124
0.00408228
0.00443915
0.00482823
0.00524704
0.00569449
0.00617021
0.00667416
0.00720666
0.0077682
0.00835933
0.00898065
0.00963272
0.010316
0.0110312
0.011779
0.0125606
0.0133767
0.0142285
0.015117
0.0160433
0.0170085
0.0180134
0.0190588
0.0201451
0.0212721
0.000572692
0.000698413
0.000930827
0.00116165
0.00138093
0.00158896
0.00178746
0.00197845
0.00216409
0.00234691
0.00252999
0.00271676
0.0029118
0.00312089
0.00335102
0.00361047
0.00390731
0.00424065
0.00460552
0.00499848
0.00541723
0.00586078
0.00632866
0.00682053
0.00733662
0.00787736
0.00844281
0.00903359
0.00964985
0.0102921
0.0109607
0.0116564
0.0123797
0.0131316
0.0139129
0.0147243
0.0155668
0.0164411
0.0173482
0.0182888
0.0192633
0.0202723
0.0213165
0.000773301
0.000854976
0.00108575
0.001325
0.00155298
0.00176881
0.00197467
0.00217335
0.00236806
0.00256255
0.00276124
0.00296923
0.00319235
0.0034371
0.00370977
0.00401706
0.00436154
0.004736
0.00513563
0.00555818
0.00600209
0.00646687
0.0069523
0.00745804
0.00798451
0.0085318
0.00909998
0.00968915
0.0102995
0.0109316
0.0115856
0.012262
0.0129615
0.0136846
0.0144321
0.0152045
0.0160024
0.0168266
0.0176777
0.0185562
0.0194629
0.0203983
0.0213626
0.000969024
0.000993358
0.00122005
0.00146647
0.00170249
0.00192611
0.00214009
0.0023482
0.0025549
0.00276536
0.00298538
0.00322089
0.00347774
0.00376119
0.0040763
0.00442785
0.00481072
0.0052175
0.00564512
0.00609169
0.00655655
0.00703907
0.00753904
0.00805646
0.00859115
0.00914335
0.00971285
0.0102995
0.0109037
0.0115253
0.0121651
0.0128233
0.0135003
0.0141965
0.0149124
0.0156486
0.0164053
0.0171832
0.0179828
0.0188047
0.0196498
0.0205205
0.0214235
0.00115604
0.00111613
0.0013368
0.00158947
0.00183288
0.0020643
0.00228725
0.00250665
0.00272836
0.0029588
0.00320425
0.00347071
0.00376273
0.00408404
0.00443842
0.00482703
0.00524065
0.00567401
0.00612479
0.00659179
0.00707433
0.00757193
0.00808424
0.00861116
0.00915253
0.00970804
0.0102777
0.0108614
0.011459
0.0120709
0.0126973
0.0133384
0.0139944
0.0146658
0.0153526
0.0160553
0.0167744
0.0175099
0.0182626
0.0190331
0.0198223
0.0206318
0.0214619
0.00133344
0.00122593
0.00143871
0.00169682
0.00194733
0.00218682
0.00241971
0.00265233
0.00289165
0.00314476
0.00341794
0.00371593
0.00404179
0.00439782
0.00478761
0.00520634
0.00564552
0.00610141
0.00657209
0.00705644
0.00755422
0.00806479
0.00858769
0.00912268
0.00966931
0.0102272
0.0107963
0.0113767
0.0119682
0.0125707
0.0131844
0.0138096
0.0144462
0.0150945
0.0157547
0.0164269
0.0171114
0.0178085
0.0185187
0.0192423
0.0199801
0.020732
0.0214967
0.00150062
0.00132437
0.00152789
0.00179099
0.0020486
0.0022967
0.00254066
0.00278803
0.0030468
0.00332395
0.00362509
0.00395339
0.00431045
0.0046979
0.00511836
0.00556242
0.00602333
0.00649838
0.00698643
0.00748635
0.00799744
0.0085193
0.00905122
0.00959287
0.0101438
0.0107035
0.0112719
0.011849
0.0124344
0.0130281
0.0136298
0.0142402
0.0148591
0.0154863
0.016122
0.0167662
0.0174193
0.0180814
0.0187528
0.0194335
0.0201238
0.0208236
0.0215324
0.00165421
0.00141432
0.0016101
0.00187674
0.00214014
0.00239625
0.00265173
0.00291491
0.00319366
0.00349495
0.00382314
0.00417962
0.00456516
0.0049819
0.00542845
0.00589369
0.00637298
0.00686501
0.00736882
0.00788312
0.00840644
0.00893837
0.00947825
0.0100256
0.01058
0.011141
0.011709
0.0122836
0.0128632
0.0134474
0.0140376
0.0146344
0.0152373
0.015845
0.0164574
0.0170758
0.0177007
0.0183307
0.0189666
0.0196079
0.0202546
0.020906
0.0215618
0.00182544
0.00149107
0.00166257
0.00193689
0.0022126
0.00248361
0.0027553
0.00303457
0.00333571
0.0036645
0.0040186
0.00440172
0.00481705
0.00526188
0.00572485
0.0062006
0.00669338
0.00720695
0.00773182
0.00826026
0.00879357
0.00933379
0.00987983
0.0104317
0.010988
0.01155
0.0121212
0.0126956
0.0132645
0.0138327
0.0144119
0.0149985
0.0155887
0.0161755
0.0167627
0.0173575
0.0179592
0.0185584
0.0191621
0.0197663
0.0203739
0.0209793
0.0215913
0.000364475
0.00136075
0.00281405
0.00424979
0.00560844
0.0068905
0.00810335
0.00925479
0.0103528
0.0114069
0.0124307
0.0134439
0.0144663
0.015508
0.0165687
0.0176371
0.0187092
0.0198554
0.0211081
0.0224451
0.023845
0.0252928
0.02678
0.0283013
0.0298518
0.0314283
0.0330281
0.0346489
0.0362894
0.0379477
0.0396225
0.0413129
0.0430174
0.0447349
0.0464645
0.0482047
0.0499548
0.0517136
0.0534799
0.0552529
0.0570325
0.0588197
0.0606201
0.000289309
0.000992239
0.00223191
0.00340962
0.00450203
0.00555126
0.0065811
0.00759682
0.00860038
0.00959346
0.0105787
0.0115609
0.0125466
0.0135424
0.0145527
0.0155796
0.0166295
0.0177237
0.0188804
0.0200956
0.0213503
0.0226518
0.024067
0.025572
0.0271402
0.0287567
0.0304116
0.0320973
0.033809
0.0355429
0.0372956
0.0390651
0.0408495
0.0426468
0.0444556
0.0462744
0.0481021
0.0499372
0.0517788
0.053626
0.0554784
0.0573368
0.0592026
0.000174292
0.000671075
0.00153981
0.00265729
0.00392934
0.00509691
0.00616232
0.00715557
0.00809874
0.00900834
0.00989759
0.0107776
0.0116581
0.0125479
0.0134551
0.0143873
0.0153526
0.0163601
0.0174189
0.0185334
0.0197027
0.0209306
0.0222295
0.0235879
0.0250014
0.0265328
0.0281566
0.0298452
0.0315823
0.0333562
0.0351588
0.0369846
0.0388291
0.0406891
0.0425621
0.0444459
0.0463383
0.048238
0.0501437
0.0520541
0.0539688
0.0558873
0.0578091
0.000187643
0.000574272
0.00131295
0.00226215
0.00342242
0.00465335
0.00581835
0.00690301
0.00791427
0.0088615
0.00975525
0.0106075
0.0114312
0.0122401
0.0130481
0.0138688
0.0147155
0.0156003
0.0165341
0.0175259
0.0185821
0.0197071
0.0209025
0.0221658
0.023496
0.0249013
0.0263696
0.0279382
0.0296166
0.0313727
0.0331844
0.0350367
0.0369193
0.0388251
0.0407487
0.0426863
0.0446345
0.046591
0.0485539
0.0505216
0.0524929
0.0544665
0.0564407
0.000169309
0.000512815
0.00117532
0.00202128
0.00305312
0.00425132
0.00547106
0.0066327
0.00772404
0.0087479
0.00970846
0.0106104
0.0114604
0.0122675
0.0130438
0.0138034
0.0145627
0.0153383
0.0161472
0.0170045
0.0179239
0.0189153
0.0199845
0.0211342
0.0223642
0.023672
0.0250532
0.0265116
0.0280418
0.029674
0.0314216
0.0332509
0.0351371
0.0370641
0.0390205
0.0409982
0.0429916
0.0449964
0.0470097
0.0490287
0.0510513
0.0530757
0.0550993
0.000168087
0.000478506
0.00109567
0.00187875
0.00283101
0.00395088
0.00517085
0.00637855
0.00753195
0.00862306
0.00965219
0.0106208
0.0115307
0.0123851
0.0131894
0.0139524
0.0146862
0.0154063
0.0161307
0.0168789
0.0176702
0.0185223
0.0194494
0.0204614
0.0215636
0.0227566
0.0240379
0.0254032
0.0268466
0.0283694
0.0299691
0.0316912
0.0335231
0.0354319
0.0373936
0.0393923
0.0414167
0.0434594
0.0455143
0.0475779
0.0496465
0.0517176
0.0537883
0.000163631
0.000452605
0.00103632
0.00177479
0.00267024
0.00372329
0.00491285
0.00614313
0.00734429
0.00849235
0.00958214
0.0106132
0.0115858
0.0125002
0.0133578
0.0141618
0.0149182
0.0156368
0.0163315
0.0170197
0.0177218
0.0184597
0.0192544
0.0201244
0.0210834
0.02214
0.023297
0.0245525
0.0259011
0.0273363
0.0288519
0.0304526
0.032145
0.0339719
0.0358961
0.0378863
0.0399213
0.0419869
0.044073
0.0461729
0.0482812
0.050394
0.0525084
0.000162411
0.000435501
0.000994639
0.00170078
0.0025549
0.00355769
0.00470431
0.00593474
0.00716767
0.00836233
0.00950498
0.0105922
0.0116227
0.0125959
0.0135111
0.0143687
0.0151704
0.0159207
0.0166276
0.0173033
0.0179641
0.0186307
0.0193261
0.0200739
0.0208957
0.0218091
0.0228257
0.0239506
0.0251831
0.026518
0.0279475
0.0294642
0.0310635
0.0327516
0.0345722
0.036508
0.0385229
0.0405905
0.042693
0.0448186
0.0469587
0.0491071
0.0512578
0.00016104
0.000421856
0.000961765
0.00164296
0.0024652
0.00342893
0.00453421
0.00575043
0.00700184
0.00823407
0.00942315
0.0105609
0.0116445
0.0126725
0.0136435
0.0145563
0.0154104
0.0162068
0.016949
0.017644
0.0183027
0.0189408
0.0195784
0.0202394
0.0209491
0.0217318
0.0226079
0.0235919
0.024691
0.0259059
0.0272313
0.0286587
0.0301789
0.031785
0.0334835
0.0353004
0.0372484
0.0392869
0.0413851
0.043522
0.0456839
0.0478617
0.0500507
0.000160302
0.000411176
0.000936064
0.00159753
0.00239462
0.00332738
0.0043974
0.00559093
0.00684886
0.00810937
0.00933846
0.0105218
0.0116541
0.0127329
0.0137563
0.0147223
0.0156293
0.0164764
0.0172642
0.0179956
0.018677
0.0193185
0.0199353
0.0205478
0.0211801
0.021859
0.0226107
0.023458
0.0244176
0.0254984
0.0267022
0.0280235
0.0294538
0.0309824
0.0326018
0.0343126
0.0361358
0.0381007
0.0401644
0.0422928
0.0444628
0.0466597
0.0488737
0.000159672
0.00040235
0.000915012
0.00156045
0.00233697
0.00324452
0.00428494
0.00545317
0.00670837
0.00798871
0.00925163
0.0104761
0.0116532
0.0127793
0.0138517
0.0148681
0.0158264
0.0167245
0.0175612
0.0183369
0.0190544
0.0197195
0.0203423
0.0209383
0.0215277
0.0221355
0.0227895
0.0235176
0.0243442
0.0252878
0.0263586
0.0275584
0.0288825
0.0303211
0.031863
0.0334984
0.0352253
0.037065
0.0390527
0.0411443
0.0433038
0.0455072
0.0477402
0.00015925
0.000395048
0.000897501
0.00152968
0.00228915
0.00317568
0.00419126
0.0053348
0.00658064
0.00787307
0.00916368
0.0104247
0.0116432
0.0128133
0.0139318
0.0149958
0.016003
0.0169507
0.0178365
0.0186593
0.0194194
0.0201195
0.0207656
0.0213682
0.0219428
0.0225105
0.0230969
0.0237312
0.0244424
0.0252563
0.0261923
0.0272614
0.0284653
0.0297989
0.0312515
0.0328108
0.0344657
0.0362135
0.0380787
0.0400953
0.0422181
0.0444095
0.046643
0.000158873
0.000388849
0.000882701
0.00150361
0.00224867
0.00311747
0.00411184
0.0052327
0.00646509
0.00776297
0.0090754
0.0103687
0.0116251
0.0128364
0.0139981
0.0151072
0.0161608
0.0171561
0.01809
0.0189603
0.0197657
0.0205065
0.0211859
0.0218104
0.0223908
0.0229435
0.0234903
0.0240583
0.0246777
0.0253786
0.0261876
0.0271246
0.0282004
0.0294164
0.0307662
0.0322384
0.0338194
0.0354976
0.0372717
0.0391705
0.041222
0.0433791
0.0456053
0.000158541
0.000383512
0.000869983
0.00148116
0.00221388
0.00306747
0.00404358
0.00514403
0.00636104
0.00765886
0.00898757
0.0103087
0.0115998
0.0128495
0.0140521
0.0152038
0.0163015
0.0173421
0.0183225
0.0192394
0.0200907
0.0208751
0.0215934
0.022249
0.0228491
0.0234055
0.0239357
0.024463
0.0250157
0.0256252
0.0263224
0.0271345
0.028081
0.0291719
0.0304075
0.0317802
0.0332773
0.0348845
0.0365903
0.0383955
0.0403361
0.0424269
0.0446171
0.0001582
0.000378845
0.000858855
0.00146156
0.00218345
0.00302382
0.00398398
0.00506625
0.00626711
0.00756081
0.00890079
0.0102454
0.011568
0.0128536
0.0140947
0.0152868
0.0164265
0.0175105
0.0185354
0.0194977
0.0203942
0.021223
0.0219829
0.0226752
0.0233039
0.0238772
0.0244083
0.0249162
0.0254257
0.0259666
0.0265715
0.0272721
0.0280952
0.0290597
0.0301739
0.0314366
0.0328384
0.0343655
0.0360031
0.0377404
0.0395815
0.0415711
0.0437041
0.000157785
0.000374663
0.000848948
0.00144418
0.00215656
0.0029852
0.00393129
0.00499733
0.00618244
0.0074687
0.00881554
0.0101797
0.0115303
0.0128492
0.0141266
0.0153573
0.016537
0.0176624
0.01873
0.0197361
0.020677
0.0215499
0.0223525
0.0230844
0.0237473
0.0243463
0.024891
0.025396
0.0258822
0.0263762
0.0269096
0.0275161
0.0282275
0.02907
0.0300609
0.0312063
0.0325029
0.0339397
0.0355015
0.0371732
0.0389451
0.0408285
0.042879
0.000157318
0.000370913
0.000840095
0.00142865
0.0021325
0.00295066
0.00388424
0.00493574
0.00610584
0.00738272
0.00873233
0.010112
0.0114875
0.0128372
0.014149
0.0154161
0.0166341
0.0177992
0.0189077
0.0199559
0.0209398
0.021856
0.0227015
0.0234743
0.0241747
0.0248053
0.0253724
0.0258869
0.0263657
0.0268317
0.0273137
0.027845
0.0284598
0.0291901
0.0300606
0.031086
0.0322702
0.0336071
0.0350837
0.036684
0.0383928
0.0402034
0.0421403
0.000156785
0.000367513
0.000832061
0.00141461
0.0021108
0.00291946
0.00384175
0.00488015
0.00603615
0.00730248
0.0086517
0.0100432
0.0114403
0.0128183
0.0141624
0.0154643
0.0167188
0.0179218
0.0190696
0.0201584
0.0211839
0.0221423
0.02303
0.0238443
0.0245839
0.0252495
0.025845
0.0263782
0.0268619
0.0273154
0.0277638
0.0282384
0.0287737
0.0294048
0.0301625
0.0310695
0.0321376
0.0333673
0.0347499
0.0362705
0.0379121
0.0396598
0.0415094
0.000156149
0.000364387
0.000824726
0.00140174
0.00209099
0.00289108
0.00380306
0.00482948
0.0059724
0.00722762
0.0085739
0.00997366
0.0113894
0.012793
0.0141674
0.0155024
0.0167918
0.0180313
0.0192168
0.0203444
0.0214101
0.0224096
0.0233388
0.0241943
0.0249738
0.0256766
0.0263045
0.0268626
0.0273606
0.0278137
0.0282438
0.0286786
0.0291514
0.0296984
0.0303544
0.0311485
0.0321005
0.0332186
0.0344999
0.0359326
0.0375001
0.0391847
0.0409733
0.000155424
0.00036149
0.000817999
0.00138997
0.00207276
0.00286504
0.00376764
0.00478306
0.00591371
0.00715768
0.00849898
0.00990407
0.0113352
0.0127621
0.0141648
0.0155311
0.016854
0.0181283
0.0193502
0.0205153
0.0216197
0.0226589
0.0236284
0.0245246
0.0253442
0.0260853
0.026748
0.0273355
0.0278546
0.028317
0.028741
0.0291508
0.0295772
0.0300555
0.0306228
0.0313128
0.0321525
0.0331577
0.0343326
0.0356703
0.0371565
0.0387732
0.0405044
0.00015466
0.000358828
0.000811695
0.00137903
0.00205588
0.00284088
0.0037349
0.00474015
0.00585935
0.0070922
0.00842705
0.00983483
0.0112785
0.0127262
0.014155
0.0155511
0.0169059
0.0182139
0.0194706
0.0206719
0.0218137
0.0228912
0.0239001
0.024836
0.0256953
0.0264751
0.0271743
0.0277941
0.0283391
0.0288181
0.0292458
0.029643
0.0300373
0.0304621
0.0309545
0.0315515
0.0322855
0.0331797
0.0342457
0.0354829
0.0368811
0.0384242
0.040096
0.000153832
0.000356349
0.000805857
0.00136883
0.00204017
0.00281844
0.00370443
0.00470024
0.00580874
0.00703077
0.00835811
0.00976629
0.0112199
0.0126857
0.0141388
0.0155629
0.0169483
0.0182885
0.0195788
0.020815
0.0219927
0.0231074
0.0241544
0.0251293
0.0260277
0.0268461
0.0275824
0.0282364
0.0288108
0.0293118
0.029751
0.0301458
0.0305204
0.0309054
0.031337
0.0318532
0.0324905
0.0332784
0.0342356
0.035369
0.0366737
0.0381366
0.0397408
0.000152957
0.000354027
0.000800398
0.00135928
0.00202545
0.00279745
0.00367595
0.00466292
0.00576145
0.00697298
0.00829212
0.00969874
0.0111598
0.0126414
0.0141165
0.0155671
0.0169816
0.0183528
0.0196756
0.0209453
0.0221578
0.0233084
0.0243924
0.0254051
0.0263418
0.0271985
0.0279723
0.0286617
0.0292678
0.0297948
0.0302514
0.030652
0.0310173
0.031375
0.0317588
0.0322069
0.032758
0.0334464
0.0342978
0.0353261
0.0365333
0.0379112
0.0394494
0.000152002
0.000351819
0.000795231
0.00135021
0.00201153
0.00277764
0.00364907
0.00462778
0.00571681
0.00691831
0.00822887
0.00963233
0.0110986
0.0125936
0.0140889
0.0155642
0.0170064
0.0184073
0.0197614
0.0210636
0.0223096
0.0234951
0.0246149
0.0256643
0.0266384
0.0275329
0.028344
0.0290695
0.0297088
0.0302646
0.0307432
0.0311561
0.0315209
0.0318617
0.03221
0.0326024
0.0330784
0.0336759
0.0344263
0.0353506
0.0364574
0.0377438
0.0391969
0.000150954
0.000349675
0.000790258
0.00134154
0.00199821
0.00275878
0.00362353
0.00459446
0.00567452
0.0068663
0.00816814
0.00956715
0.0110365
0.0125428
0.0140561
0.0155546
0.0170232
0.0184527
0.0198368
0.0211704
0.0224489
0.023668
0.0248226
0.0259077
0.0269184
0.0278499
0.028698
0.0294596
0.0301332
0.0307199
0.0312238
0.0316541
0.0320253
0.0323584
0.0326818
0.0330302
0.0334426
0.0339588
0.0346149
0.0354381
0.0364437
0.0376342
0.0389995
0.000149834
0.000347613
0.000785489
0.00133327
0.00198555
0.00274077
0.00359924
0.00456281
0.00563439
0.0068168
0.00810969
0.00950338
0.010974
0.0124895
0.0140189
0.0155387
0.0170325
0.0184893
0.0199024
0.0212663
0.0225763
0.0238279
0.0250162
0.026136
0.0271823
0.02815
0.0290346
0.0298323
0.0305407
0.0311595
0.0316913
0.032143
0.0325263
0.0328593
0.0331673
0.0334823
0.0338421
0.0342872
0.0348568
0.0355835
0.036489
0.0375819
0.0388569
0.000148646
0.000345624
0.000780909
0.00132534
0.0019734
0.00272348
0.00357594
0.00453258
0.00559612
0.00676959
0.00805362
0.009441
0.0109113
0.012434
0.0139777
0.0155173
0.0170346
0.0185177
0.0199587
0.0213519
0.0226924
0.0239755
0.0251964
0.0263499
0.0274309
0.028434
0.0293545
0.0301879
0.0309312
0.031583
0.0321446
0.0326207
0.0330206
0.0333598
0.0336604
0.0339516
0.0342692
0.0346535
0.0351453
0.0357816
0.0365901
0.0375862
0.0387733
0.000147379
0.000343682
0.000776489
0.00131766
0.00196172
0.00270688
0.00355352
0.00450352
0.00555945
0.00672434
0.00799959
0.00938015
0.0108487
0.0123768
0.013933
0.0154906
0.0170301
0.0185383
0.0200062
0.0214277
0.0227977
0.0241114
0.0253639
0.0265501
0.0276648
0.0287025
0.029658
0.0305268
0.0313049
0.0319903
0.0325828
0.0330855
0.0335058
0.0338564
0.0341564
0.0344322
0.0347172
0.0350505
0.0354737
0.0360267
0.0367424
0.0376427
0.0387362
0.000146016
0.000341775
0.00077223
0.00131029
0.00195042
0.00269093
0.00353206
0.00447564
0.0055242
0.00668081
0.00794745
0.00932072
0.0107865
0.0123182
0.013885
0.0154591
0.0170195
0.0185515
0.0200453
0.0214941
0.0228927
0.024236
0.0255192
0.0267372
0.0278846
0.028956
0.0299459
0.0308494
0.0316622
0.0323813
0.0330056
0.0335367
0.0339801
0.0343462
0.0346514
0.0349191
0.0351802
0.0354718
0.0358355
0.036313
0.0369413
0.0377477
0.0387461
0.000144599
0.000339885
0.000768057
0.00130314
0.00193949
0.00267544
0.00351131
0.00444872
0.00549022
0.00663889
0.00789711
0.0092629
0.0107246
0.0122586
0.0138343
0.0154232
0.0170031
0.0185578
0.0200764
0.0215517
0.0229779
0.02435
0.0256629
0.0269118
0.0280911
0.0291953
0.0302188
0.0311565
0.0320035
0.0327563
0.0334128
0.0339736
0.0344422
0.0348272
0.0351423
0.0354082
0.035653
0.0359116
0.0362247
0.0366348
0.0371819
0.0378983
0.0388037
0.000143161
0.000338097
0.000764049
0.00129619
0.0019289
0.00266049
0.00349123
0.00442266
0.00545735
0.00659838
0.00784839
0.00920654
0.0106635
0.0121981
0.0137812
0.0153834
0.0169813
0.0185575
0.0201
0.0216008
0.0230538
0.0244536
0.0257955
0.0270743
0.0282846
0.0294208
0.0304772
0.0314483