/*--------------------------------*- C++ -*----------------------------------*\
| =========                 |                                                 |
| \\      /  F ield         | OpenFOAM: The Open Source CFD Toolbox           |
|  \\    /   O peration     | Version:  2.3.0                                 |
|   \\  /    A nd           | Web:      www.OpenFOAM.org                      |
|    \\/     M anipulation  |                                                 |
\*---------------------------------------------------------------------------*/
FoamFile
{
    version     2.0;
    format      ascii;
    class       volScalarField;
    location    "6000";
    object      nuTilda;
}
// * * * * * * * * * * * * * * * * * * * * * * * * * * * * * * * * * * * * * //

dimensions      [0 2 -1 0 0 0 0];

internalField   nonuniform List<scalar> 
14757
(
0.0561449
0.0529532
0.0498345
0.0468061
0.0438814
0.0410736
0.0383996
0.0358794
0.0335331
0.0313766
0.029431
0.0277156
0.026207
0.0247629
0.0233336
0.0219303
0.0205628
0.0192322
0.0179332
0.0166537
0.0153708
0.0140583
0.012715
0.0115866
0.0597616
0.0571169
0.0545462
0.052058
0.0496584
0.0473518
0.0451427
0.043036
0.0410364
0.0391486
0.0373783
0.0357319
0.0342145
0.032827
0.0315717
0.0304546
0.0294828
0.0286654
0.0280088
0.0275175
0.027196
0.0270439
0.0270621
0.0272466
0.0630133
0.0608077
0.0586724
0.056612
0.0546293
0.052728
0.0509105
0.0491802
0.0475411
0.0459957
0.0445488
0.0432042
0.0419668
0.0408413
0.0398327
0.0389464
0.038188
0.0375628
0.0370748
0.0367258
0.0365182
0.0364502
0.0365171
0.0367111
0.0659205
0.0640727
0.0622878
0.0605671
0.0589128
0.0573264
0.05581
0.0543661
0.0529978
0.0517074
0.0504988
0.0493756
0.0483421
0.0474023
0.0465615
0.0458239
0.0451946
0.0446783
0.0442782
0.0439967
0.0438351
0.0437936
0.0438684
0.0440552
0.0685125
0.0669526
0.0654487
0.0639987
0.0626023
0.061261
0.0599762
0.0587499
0.0575851
0.0564839
0.0554498
0.0544863
0.0535976
0.052788
0.0520615
0.0514236
0.0508791
0.0504318
0.0500863
0.0498449
0.04971
0.049682
0.0497592
0.0499389
0.0708052
0.0694852
0.0682093
0.0669751
0.0657828
0.0646332
0.0635277
0.062469
0.0614594
0.0605012
0.059598
0.058753
0.0579706
0.0572551
0.0566109
0.0560432
0.055557
0.0551571
0.0548478
0.0546324
0.0545138
0.0544935
0.0545707
0.0547437
0.0728373
0.0717121
0.0706199
0.0695595
0.06853
0.0675318
0.0665671
0.0656385
0.0647494
0.0639017
0.0630988
0.062344
0.0616419
0.0609969
0.0604137
0.059898
0.0594548
0.0590885
0.0588045
0.058607
0.0584995
0.0584837
0.0585601
0.0587276
0.0746371
0.0736714
0.0727274
0.0718075
0.0709094
0.0700331
0.0691799
0.0683534
0.0675587
0.0667981
0.0660743
0.0653899
0.06475
0.0641601
0.0636237
0.0631474
0.0627371
0.0623966
0.0621305
0.0619455
0.0618454
0.0618326
0.0619079
0.062071
0.0762302
0.075399
0.0745724
0.0737666
0.0729771
0.0722
0.0714384
0.0706905
0.06997
0.0692791
0.0686195
0.0679921
0.0674
0.0668561
0.0663567
0.0659104
0.065525
0.0652082
0.0649535
0.0647774
0.0646817
0.06467
0.0647447
0.0649048
0.0776582
0.0769381
0.0761896
0.0754754
0.0747799
0.0740812
0.0734034
0.0727104
0.0720447
0.0714072
0.0707983
0.0702255
0.069668
0.0691708
0.0686997
0.0682791
0.0679039
0.0676186
0.0673698
0.0672011
0.0671065
0.0670933
0.0671666
0.0673259
0.0125691
0.0148835
0.0163872
0.0178263
0.0193868
0.0211163
0.0230148
0.025067
0.0272566
0.0295695
0.031994
0.0345209
0.0371422
0.039852
0.0426436
0.0455111
0.0484483
0.0514486
0.0545051
0.0576101
0.0607558
0.0639339
0.0671358
0.0703685
0.0275802
0.0280747
0.0287559
0.0296276
0.0306872
0.031927
0.0333366
0.0349035
0.0366128
0.0384516
0.0404078
0.0424692
0.0446256
0.0468682
0.049189
0.0515807
0.0540372
0.0565523
0.0591201
0.0617352
0.0643916
0.0670836
0.0698059
0.0725689
0.0370205
0.0374556
0.0380348
0.0387615
0.0396344
0.0406491
0.0418009
0.0430814
0.0444813
0.0459912
0.0476029
0.0493073
0.0510958
0.0529617
0.0548977
0.0568978
0.0589569
0.0610698
0.0632316
0.0654383
0.0676849
0.0699676
0.072283
0.0746442
0.0443463
0.0447481
0.045271
0.0459162
0.0466826
0.0475662
0.0485628
0.0496658
0.0508674
0.0521606
0.0535382
0.0549926
0.0565174
0.058107
0.0597554
0.0614575
0.063209
0.0650059
0.0668442
0.068721
0.0706331
0.0725774
0.0745513
0.0765629
0.0502163
0.0505948
0.0510802
0.0516722
0.0523691
0.0531665
0.0540592
0.055041
0.0561054
0.0572461
0.0584565
0.0597297
0.0610608
0.0624443
0.0638754
0.0653499
0.0668635
0.0684129
0.0699953
0.0716081
0.0732496
0.0749178
0.0766112
0.0783363
0.0550097
0.0553701
0.0558278
0.0563816
0.0570286
0.057764
0.0585819
0.0594761
0.0604404
0.0614688
0.0625549
0.0636931
0.0648784
0.066106
0.0673715
0.0686707
0.0699996
0.071355
0.0727346
0.0741366
0.0755596
0.0770029
0.0784661
0.0799568
0.0589841
0.05933
0.0597664
0.0602913
0.0609009
0.0615896
0.0623509
0.0631784
0.0640661
0.0650081
0.0659987
0.0670328
0.0681057
0.0692131
0.0703503
0.071513
0.0726964
0.073898
0.0751154
0.0763475
0.0775936
0.0788529
0.0801256
0.0814187
0.0623198
0.0626539
0.0630728
0.0635749
0.0641559
0.0648091
0.0655265
0.0663007
0.0671267
0.0679997
0.0689154
0.0698669
0.070851
0.071864
0.072901
0.0739558
0.0750236
0.0761014
0.0771875
0.0782817
0.0793834
0.0804915
0.0816058
0.0827309
0.065147
0.0654717
0.0658753
0.0663583
0.0669182
0.0675446
0.0682276
0.0689564
0.0697307
0.0705474
0.0714052
0.072287
0.0731992
0.0741387
0.0750978
0.076066
0.0770401
0.0780161
0.0789944
0.079976
0.08096
0.0819431
0.0829265
0.0839093
0.0675597
0.0678783
0.0682657
0.068732
0.0692777
0.069879
0.0705328
0.071223
0.0719589
0.0727293
0.07355
0.0743589
0.0752144
0.0761003
0.0770011
0.0778957
0.0787965
0.079684
0.080573
0.0814644
0.082356
0.0832329
0.0841132
0.0849682
0.0691959
0.0630421
0.0574315
0.0523369
0.0477194
0.0435163
0.0396672
0.0361222
0.0328394
0.0297851
0.0269341
0.0242659
0.0217678
0.0194325
0.0172531
0.0152222
0.0133344
0.0115993
0.0100585
0.00880408
0.00771722
0.00659119
0.0053356
0.00383783
0.0703064
0.0648117
0.0598308
0.0553273
0.0512498
0.0475392
0.0441448
0.0410241
0.0381407
0.0354655
0.0329732
0.0306414
0.0284566
0.0264306
0.0245876
0.0228958
0.0212706
0.0196433
0.0179717
0.0162363
0.0144147
0.0124663
0.0103384
0.0079613
0.0714249
0.0665971
0.0622217
0.0582754
0.0547066
0.0514693
0.0485244
0.0458391
0.0433844
0.0411371
0.0390836
0.0371991
0.0354066
0.0336416
0.0318722
0.0300778
0.0282378
0.0263265
0.0243164
0.0221766
0.0198752
0.0173783
0.0146482
0.0116488
0.0726152
0.0683758
0.0645552
0.0611101
0.058001
0.0551946
0.0526639
0.0503847
0.0483395
0.046497
0.0447559
0.0430408
0.0413111
0.0395395
0.037706
0.0357927
0.0337802
0.0316479
0.0293724
0.0269242
0.0242722
0.0213815
0.0182191
0.0147536
0.073784
0.0701097
0.066785
0.0637818
0.0610765
0.0586482
0.0564798
0.0545586
0.0528383
0.0511989
0.0495668
0.0479006
0.0461743
0.0443689
0.0424669
0.040451
0.0383019
0.0359991
0.0335169
0.0308268
0.0278977
0.0246955
0.0211853
0.0173342
0.0749947
0.071792
0.0688891
0.0662653
0.063906
0.0617999
0.0599396
0.0582948
0.0567409
0.0551949
0.053612
0.0519637
0.0502294
0.048391
0.0464313
0.0443323
0.042074
0.0396333
0.0369842
0.0340974
0.0309401
0.0274774
0.0236716
0.0194891
0.0761797
0.0733902
0.0708498
0.0685492
0.0664821
0.0646456
0.0630351
0.0615494
0.0600865
0.0585937
0.0570388
0.0553989
0.0536552
0.0517887
0.0497822
0.0476158
0.0452675
0.042714
0.0399269
0.0368748
0.0335242
0.0298373
0.0257753
0.0213008
0.0773371
0.0748938
0.0726609
0.0706334
0.0688114
0.0671974
0.065755
0.0643647
0.0629601
0.0615031
0.0599675
0.0583332
0.0565809
0.0546913
0.0526458
0.0504232
0.048001
0.0453536
0.0424502
0.0392574
0.0357405
0.0318588
0.0275705
0.0228361
0.0784376
0.0762932
0.0743223
0.0725252
0.0709095
0.069469
0.0681309
0.0668027
0.0654394
0.06401
0.0624902
0.0608606
0.0591019
0.057192
0.055113
0.0528425
0.050358
0.0476335
0.0446346
0.0413191
0.0376602
0.0336068
0.0291148
0.0241438
0.0794814
0.0775876
0.0758395
0.0742314
0.0728011
0.0714787
0.0702104
0.0689211
0.0675874
0.0661809
0.0646758
0.0630522
0.0612927
0.0593619
0.0572528
0.0549382
0.0523984
0.0496115
0.046549
0.0431163
0.0393382
0.0351353
0.0304578
0.0252617
0.00208549
0.000985005
0.00110059
0.00140285
0.00168829
0.00197008
0.00226147
0.00258241
0.00296321
0.00344611
0.00405797
0.00477669
0.00559708
0.0065216
0.00755558
0.00870617
0.00998077
0.0113866
0.0129323
0.0146279
0.0164839
0.0185119
0.0207231
0.0231205
0.00525315
0.00261311
0.00153867
0.00169813
0.00199586
0.00230881
0.00265401
0.00305605
0.00353937
0.0041245
0.00481992
0.00560274
0.0064719
0.0074308
0.00848445
0.00963816
0.0108972
0.0122682
0.0137584
0.0153765
0.0171313
0.0190322
0.0210879
0.0233071
0.00831333
0.00473795
0.00229551
0.00199671
0.0023034
0.0026716
0.0030948
0.00359066
0.00417001
0.00484177
0.00560512
0.00644199
0.00735287
0.00834062
0.00940884
0.0105613
0.0118021
0.0131368
0.0145714
0.0161131
0.017769
0.0195463
0.0214523
0.0234949
0.0109214
0.00674014
0.00326324
0.00232219
0.0026141
0.00305155
0.00355936
0.00414259
0.00480309
0.00555041
0.00637037
0.00725297
0.00819875
0.00920977
0.010288
0.0114362
0.0126576
0.0139568
0.0153383
0.0168077
0.0183706
0.0200325
0.0217976
0.0236664
0.0130847
0.00843708
0.0042498
0.00267983
0.00292949
0.00343979
0.00402848
0.00468942
0.00542095
0.00623072
0.00709915
0.00802078
0.00899609
0.0100258
0.011111
0.0122531
0.0134551
0.0147202
0.0160521
0.0174545
0.0189314
0.0204872
0.0221264
0.0238596
0.0148754
0.00983685
0.0051435
0.00305432
0.00324662
0.00382686
0.00448874
0.00521728
0.00601197
0.0068736
0.0077841
0.00873988
0.00974048
0.0107854
0.011875
0.0130106
0.0141938
0.0154269
0.0167125
0.0180531
0.0194516
0.0209118
0.0224387
0.0240406
0.0163658
0.0109888
0.00591147
0.00342556
0.0035601
0.00420384
0.00492992
0.0057168
0.00656932
0.0074759
0.00842346
0.00940896
0.0104309
0.0114883
0.012581
0.0137096
0.0148748
0.0160781
0.017321
0.0186053
0.019933
0.0213072
0.0227329
0.0242177
0.0176146
0.011942
0.00655798
0.00377821
0.00386665
0.00456662
0.00534917
0.00618873
0.00709072
0.00803631
0.00901638
0.0100278
0.0110682
0.0121362
0.013231
0.0143526
0.0155009
0.0166768
0.0178808
0.0191138
0.0203772
0.0216735
0.0230057
0.0243752
0.0186598
0.0127263
0.00710661
0.00411356
0.00415001
0.00489829
0.00573382
0.00662343
0.00756932
0.00855123
0.00956225
0.0105984
0.0116564
0.0127342
0.0138299
0.0149437
0.0160763
0.0172272
0.0183955
0.0195816
0.0207854
0.0220094
0.0232558
0.0245257
0.0195049
0.0132711
0.00738414
0.004321
0.00447381
0.00529557
0.00617195
0.00710295
0.00808427
0.00910006
0.010139
0.0111912
0.0122543
0.0133244
0.0143998
0.0154958
0.0166144
0.0177441
0.0188754
0.0200134
0.0211517
0.0223033
0.0234741
0.0246734
0.00049376
0.00167839
0.00347194
0.00553465
0.00758747
0.0096045
0.0115832
0.0135259
0.0154339
0.0173082
0.0191487
0.0209582
0.0227601
0.0246142
0.0265715
0.0286357
0.0307553
0.0331837
0.0359523
0.0389781
0.0421946
0.0455577
0.0490344
0.0525928
0.000372375
0.00103139
0.00240219
0.00413664
0.00584331
0.00751892
0.00919614
0.0108993
0.0126343
0.0143977
0.0161846
0.0179907
0.0198176
0.0216785
0.0235989
0.0256006
0.0276976
0.0299902
0.0325304
0.0352362
0.0383453
0.0417781
0.045425
0.0492077
0.000218869
0.000656329
0.00156067
0.00280694
0.00441914
0.00636221
0.00824906
0.0100445
0.0117738
0.0134618
0.015128
0.0167891
0.0184614
0.0201621
0.0219136
0.0237439
0.0256875
0.0277958
0.0301202
0.0326695
0.0355277
0.0386217
0.0421617
0.0460179
0.0002338
0.00054904
0.00129054
0.0023109
0.00364239
0.00532288
0.00727755
0.00923986
0.0111462
0.0129861
0.014756
0.0164572
0.0180997
0.0197026
0.0212957
0.0229191
0.0246233
0.0264668
0.0285125
0.0308143
0.0334196
0.0363226
0.0395836
0.0431862
0.000207948
0.000481334
0.00112384
0.00201362
0.00317042
0.00462592
0.00641659
0.00844401
0.0104845
0.0124758
0.014404
0.0162576
0.018025
0.0197003
0.0212915
0.0228257
0.024352
0.0259401
0.027675
0.029646
0.0319281
0.0345652
0.0375856
0.0409906
0.000203699
0.000441901
0.00102327
0.00182891
0.00287366
0.00418639
0.00580281
0.00774383
0.00983865
0.0119387
0.0139984
0.0159995
0.0179242
0.019752
0.0214661
0.0230627
0.0245616
0.0260143
0.027506
0.0291486
0.03106
0.0333391
0.0360452
0.0391829
0.00019517
0.000410766
0.000946682
0.00169252
0.00265802
0.00386897
0.00535779
0.00716084
0.0092414
0.0114122
0.0135761
0.0156989
0.0177611
0.0197409
0.0216126
0.023352
0.024947
0.0264115
0.0277989
0.0292096
0.0307821
0.0326658
0.0349819
0.0377918
0.000190969
0.000389215
0.000891832
0.0015926
0.00249866
0.00363351
0.00502725
0.00671534
0.00871872
0.0109124
0.0131519
0.015375
0.0175544
0.019668
0.0216891
0.0235868
0.0253317
0.0269069
0.0283241
0.0296433
0.0309838
0.0325143
0.0344137
0.0368218
0.000186898
0.000372138
0.000849204
0.00151303
0.00237255
0.00344803
0.00476733
0.00636389
0.00827215
0.0104485
0.012737
0.0150418
0.0173213
0.0195507
0.0217044
0.0237507
0.025654
0.027381
0.0289122
0.0302628
0.0315066
0.0327898
0.0343161
0.0363049
0.000183947
0.000358524
0.000815069
0.00144904
0.00227105
0.00329864
0.004558
0.00608076
0.00790294
0.0100298
0.0123389
0.0147067
0.0170714
0.0194019
0.0216725
0.0238527
0.0259057
0.0277915
0.0294733
0.0309331
0.0321965
0.0333611
0.0346119
0.0362045
0.00018145
0.000347151
0.000786546
0.00139575
0.00218679
0.00317489
0.00438487
0.00584678
0.00759582
0.00965799
0.0119628
0.0143751
0.0168116
0.0192308
0.0216049
0.0239048
0.0260947
0.0281324
0.0299734
0.0315796
0.0329397
0.0340991
0.0351947
0.0364737
0.000179575
0.00033781
0.000762553
0.00135088
0.00211584
0.00307072
0.00423917
0.00564993
0.00733695
0.0093334
0.0116133
0.0140518
0.016547
0.0190438
0.0215102
0.0239174
0.0262312
0.0284098
0.0304056
0.0321703
0.0336686
0.0349033
0.0359545
0.0370218
0.000178241
0.000330436
0.000742048
0.00131251
0.00205522
0.00298182
0.0041149
0.00548207
0.00711604
0.00905205
0.0112933
0.0137413
0.0162822
0.0188464
0.0213952
0.023899
0.0263248
0.0286326
0.0307742
0.0326965
0.0343502
0.0357083
0.0368006
0.0377626
0.00017753
0.00032525
0.000724449
0.00127951
0.0020031
0.00290539
0.00400804
0.00533767
0.00692593
0.00880825
0.0110042
0.0134474
0.0160214
0.0186434
0.021266
0.0238568
0.0263844
0.0288102
0.0310869
0.03316
0.0349727
0.0364788
0.0376696
0.0386221
0.000177397
0.000322159
0.000709277
0.00125097
0.00195805
0.00283929
0.00391556
0.00521266
0.00676127
0.00859633
0.0107459
0.0131731
0.0157687
0.0184393
0.0211276
0.0237976
0.0264176
0.0289512
0.0313525
0.0335672
0.035535
0.037198
0.0385207
0.0395288
0.000177697
0.000320598
0.000696205
0.00122625
0.00191902
0.00278199
0.00383535
0.00510416
0.00661819
0.00841172
0.0105171
0.0129207
0.0155278
0.0182381
0.020985
0.0237271
0.0264318
0.0290639
0.0315799
0.0339263
0.0360418
0.037862
0.0393329
0.0404404
0.00017829
0.00031996
0.000684964
0.00120484
0.00188516
0.00273227
0.00376567
0.00500981
0.00649366
0.00825071
0.0103154
0.012691
0.0153012
0.0180435
0.0208424
0.0236505
0.0264331
0.0291559
0.0317775
0.0342461
0.0365006
0.0384733
0.0400985
0.041334
0.000179052
0.00031981
0.000675256
0.00118622
0.00185569
0.00268902
0.00370501
0.00492755
0.00638501
0.00811004
0.0101379
0.0124837
0.0150904
0.0178577
0.0207029
0.0235716
0.0264265
0.0292335
0.0319526
0.0345346
0.036919
0.039037
0.0408159
0.0421941
0.000179913
0.00031996
0.000666916
0.0011701
0.00183008
0.00265128
0.00365205
0.00485566
0.00628992
0.00798678
0.00998175
0.0122976
0.0148959
0.0176823
0.0205684
0.0234932
0.0264157
0.0293012
0.0321114
0.0347986
0.0373044
0.0395597
0.041488
0.043015
0.000180838
0.000320282
0.000659837
0.00115627
0.00180773
0.00261825
0.00360561
0.00479263
0.00620637
0.00787835
0.00984391
0.0121309
0.0147173
0.0175175
0.0204397
0.0234167
0.0264029
0.0293625
0.032258
0.0350438
0.0376632
0.0400482
0.0421206
0.0437995
0.000181812
0.000320678
0.000653819
0.00114451
0.00178809
0.00258921
0.00356473
0.00473699
0.00613266
0.00778254
0.00972178
0.0119816
0.0145535
0.017363
0.0203171
0.0233425
0.026389
0.0294187
0.0323949
0.0352735
0.0379997
0.0405068
0.0427162
0.0445409
0.000182812
0.000321097
0.000648593
0.00113424
0.00177088
0.00256363
0.00352871
0.00468789
0.00606739
0.00769757
0.00961314
0.0118475
0.0144033
0.0172182
0.0202
0.0232704
0.026374
0.0294706
0.0325233
0.0354894
0.038316
0.0409376
0.0432753
0.0452383
0.000183812
0.000321509
0.000643993
0.00112517
0.00175566
0.002541
0.00349674
0.00464432
0.00600938
0.00762188
0.00951617
0.0117269
0.0142655
0.0170824
0.020088
0.0231998
0.0263576
0.0295179
0.0326432
0.0356919
0.0386126
0.0413411
0.0437983
0.0458882
0.000184801
0.000321913
0.000639952
0.00111718
0.00174221
0.00252093
0.00346834
0.00460551
0.00595768
0.00755434
0.00942939
0.0116183
0.0141394
0.0169554
0.0199812
0.0231312
0.0263401
0.0295612
0.0327559
0.0358832
0.0388934
0.041724
0.0442983
0.0465264
0.00018577
0.000322291
0.000636373
0.00111006
0.0017302
0.00250302
0.003443
0.00457085
0.00591144
0.00749384
0.00935155
0.0115205
0.0140242
0.0168369
0.0198796
0.0230647
0.0263222
0.0296016
0.0328628
0.0360653
0.0391607
0.0420885
0.0447742
0.0471286
0.000186722
0.000322642
0.000633218
0.00110373
0.00171946
0.002487
0.00342033
0.00453981
0.00586997
0.0074395
0.00928152
0.0114322
0.0139189
0.0167266
0.0197834
0.0230008
0.0263045
0.02964
0.0329653
0.0362399
0.0394167
0.0424369
0.0452276
0.0477002
0.000187634
0.000322951
0.000630376
0.00109802
0.00170977
0.00247256
0.00339989
0.00451181
0.00583254
0.00739044
0.00921822
0.0113521
0.0138226
0.0166239
0.0196925
0.0229396
0.0262874
0.0296772
0.0330646
0.0364088
0.0396637
0.042772
0.0456625
0.0482479
0.000188506
0.000323213
0.000627777
0.0010928
0.00170093
0.00245938
0.0033812
0.00448623
0.00579842
0.00734575
0.00916053
0.011279
0.0137339
0.0165279
0.0196059
0.0228808
0.0262708
0.0297134
0.0331615
0.0365735
0.039904
0.0430974
0.0460839
0.0487777
0.000189326
0.000323421
0.000625373
0.00108798
0.00169275
0.0024472
0.00336396
0.00446265
0.00576693
0.00730451
0.00910735
0.0112115
0.0136516
0.0164373
0.0195228
0.0228232
0.0262538
0.029748
0.0332556
0.0367342
0.0401389
0.0434151
0.0464949
0.0492942
0.000190106
0.000323564
0.000623119
0.00108346
0.00168508
0.00243578
0.00334785
0.00444061
0.00573752
0.00726601
0.00905775
0.0111486
0.0135743
0.0163508
0.0194416
0.0227653
0.0262348
0.0297793
0.0333456
0.0368899
0.0403675
0.0437254
0.0468971
0.0498001
0.000190836
0.000323661
0.00062099
0.00107919
0.00167783
0.00242498
0.0033326
0.00441977
0.00570973
0.00722963
0.00901087
0.0110891
0.0135009
0.0162674
0.0193612
0.0227056
0.0262118
0.029805
0.0334287
0.0370374
0.0405864
0.0440238
0.0472848
0.0502882
0.000191494
0.000323703
0.000618914
0.00107505
0.00167083
0.00241459
0.00331794
0.0043998
0.00568315
0.0071949
0.00896613
0.0110322
0.0134305
0.0161862
0.0192808
0.0226431
0.0261835
0.0298234
0.0335026
0.0371737
0.0407918
0.0443056
0.0476522
0.0507539
0.000192095
0.000323694
0.000616865
0.00107098
0.00166401
0.00240449
0.0033037
0.00438042
0.00565744
0.0071614
0.00892304
0.0109775
0.0133626
0.0161068
0.0192
0.0225774
0.0261492
0.0298335
0.0335663
0.0372979
0.0409826
0.0445695
0.0479963
0.0511836
0.000192632
0.000323636
0.000614823
0.00106696
0.00165726
0.00239451
0.00328971
0.00436144
0.0056323
0.00712869
0.00888113
0.0109244
0.0132966
0.0160289
0.0191188
0.0225085
0.0261091
0.0298356
0.0336201
0.0374103
0.0411595
0.0448169
0.0483207
0.0515924
0.00019311
0.000323536
0.000612786
0.00106296
0.00165056
0.00238462
0.00327586
0.00434267
0.00560748
0.0070965
0.00883996
0.0108725
0.013232
0.0159521
0.019037
0.0224364
0.0260633
0.0298298
0.0336644
0.0375117
0.0413239
0.0450503
0.0486296
0.0519849
0.000193529
0.000323399
0.000610748
0.00105896
0.00164388
0.00237477
0.00326206
0.00432398
0.00558281
0.00706454
0.00879918
0.0108211
0.0131682
0.0158758
0.0189542
0.0223609
0.0260116
0.0298161
0.0336993
0.037603
0.0414776
0.0452725
0.0489277
0.0523681
0.000193892
0.000323242
0.000608716
0.00105497
0.00163721
0.00236491
0.00324825
0.00430532
0.0055582
0.00703267
0.00875854
0.0107699
0.0131047
0.0157995
0.0188699
0.0222813
0.0259531
0.0297936
0.0337241
0.0376831
0.0416198
0.0454832
0.0492142
0.0527394
0.000194202
0.000323075
0.000606696
0.001051
0.0016306
0.00235513
0.00323451
0.00428669
0.0055336
0.00700084
0.00871797
0.0107188
0.0130412
0.0157227
0.0187835
0.0221969
0.0258867
0.0297607
0.0337366
0.03775
0.041748
0.0456797
0.0494863
0.0530954
0.000194466
0.000322909
0.000604704
0.0010471
0.00162407
0.00234547
0.00322094
0.00426827
0.00550922
0.00696921
0.00867757
0.0106679
0.0129778
0.0156457
0.0186954
0.0221077
0.0258122
0.0297163
0.0337351
0.0378007
0.0418584
0.0458567
0.0497378
0.0534305
0.000194691
0.000322754
0.000602751
0.00104327
0.00161769
0.00233601
0.00320764
0.00425019
0.00548528
0.0069381
0.00863778
0.0106176
0.0129152
0.0155691
0.0186064
0.022015
0.0257302
0.0296607
0.0337189
0.0378337
0.0419481
0.0460099
0.0499613
0.0537319
0.000194884
0.000322614
0.00060085
0.00103955
0.0016115
0.00232683
0.00319472
0.00423264
0.00546201
0.00690785
0.00859903
0.0105686
0.0128539
0.0154939
0.0185182
0.0219207
0.0256432
0.029596
0.0336897
0.0378501
0.0420176
0.0461386
0.0501551
0.0539959
0.000195054
0.000322492
0.000599013
0.00103597
0.00160553
0.00231801
0.00318232
0.00421578
0.00543966
0.00687879
0.00856179
0.0105215
0.0127949
0.0154213
0.0184322
0.0218271
0.0255541
0.0295259
0.0336515
0.037854
0.0420712
0.0462481
0.0503261
0.0542331
0.000195203
0.000322384
0.000597245
0.00103253
0.00159983
0.00230959
0.00317049
0.00419972
0.00541838
0.00685112
0.00852635
0.0104766
0.0127388
0.0153521
0.0183498
0.0217364
0.0254659
0.029454
0.0336088
0.0378508
0.0421156
0.0463475
0.0504892
0.0544748
0.000195335
0.000322285
0.000595553
0.00102925
0.0015944
0.00230158
0.00315928
0.00418452
0.00539826
0.00682498
0.00849291
0.0104343
0.0126858
0.0152869
0.0182719
0.0216499
0.0253807
0.0293831
0.0335649
0.0378442
0.0421543
0.046438
0.0506375
0.0546833
0.000195464
0.000322184
0.000593936
0.00102613
0.00158924
0.002294
0.00314868
0.00417018
0.00537932
0.00680042
0.0084615
0.0103947
0.0126362
0.0152257
0.0181989
0.0215683
0.0252997
0.0293152
0.0335226
0.0378379
0.0421922
0.0465271
0.0507855
0.0549036
0.000195585
0.000322087
0.000592387
0.00102314
0.00158434
0.00228681
0.00313865
0.00415664
0.00536147
0.00677733
0.00843204
0.0103575
0.0125899
0.0151686
0.0181306
0.0214918
0.0252234
0.0292512
0.0334832
0.0378334
0.0422311
0.0466164
0.0509311
0.0551077
0.00019568
0.000321984
0.000590883
0.00102027
0.00157965
0.00227996
0.00312912
0.00414381
0.00534461
0.00675556
0.00840434
0.0103226
0.0125464
0.0151152
0.0180666
0.0214199
0.0251515
0.029191
0.0334468
0.0378315
0.0422722
0.046708
0.0510817
0.0553298
0.000195767
0.000321861
0.000589432
0.00101751
0.00157515
0.00227339
0.00312
0.00413157
0.00532857
0.00673491
0.00837812
0.0102897
0.0125055
0.015065
0.0180065
0.0213523
0.0250836
0.0291342
0.033413
0.0378311
0.0423138
0.0467991
0.0512303
0.0555463
0.000195868
0.000321724
0.000588053
0.00101487
0.00157082
0.00226705
0.00311122
0.00411979
0.00531316
0.00671514
0.0083531
0.0102584
0.0124667
0.0150174
0.0179497
0.0212882
0.0250192
0.0290803
0.0333814
0.037832
0.0423553
0.0468876
0.0513715
0.0557466
0.000195956
0.000321563
0.00058671
0.0010123
0.00156659
0.00226091
0.00310268
0.00410836
0.00529823
0.00669599
0.00832892
0.0102282
0.0124294
0.0149719
0.0178953
0.0212269
0.0249575
0.0290288
0.0333518
0.0378345
0.0423978
0.046976
0.0515101
0.0559373
0.000196011
0.000321397
0.000585394
0.00100979
0.00156251
0.00225492
0.00309435
0.00409718
0.00528361
0.00667726
0.00830529
0.0101988
0.0123931
0.0149276
0.0178426
0.0211673
0.0248973
0.0289785
0.0333231
0.0378381
0.0424417
0.0470667
0.0516531
0.056138
0.000196055
0.000321203
0.000584127
0.00100737
0.00155854
0.00224908
0.00308621
0.00408622
0.00526925
0.00665881
0.00828198
0.0101697
0.0123573
0.0148839
0.0177904
0.0211082
0.0248371
0.0289277
0.0332937
0.0378409
0.0424854
0.0471578
0.0517974
0.0563424
0.000196116
0.000320989
0.000582946
0.00100509
0.00155472
0.00224342
0.00307829
0.00407549
0.00525514
0.00664065
0.00825891
0.0101409
0.0123216
0.0148404
0.0177383
0.0210486
0.0247756
0.0288744
0.0332611
0.0378402
0.0425258
0.0472462
0.0519401
0.0565458
0.000196164
0.000320773
0.000581826
0.00100292
0.00155106
0.00223795
0.00307062
0.00406506
0.00524132
0.00662278
0.00823617
0.0101122
0.0122861
0.0147969
0.0176859
0.0209881
0.0247118
0.0288174
0.0332232
0.0378333
0.0425595
0.0473282
0.052077
0.0567456
0.000196174
0.000320576
0.000580747
0.00100083
0.00154757
0.00223276
0.00306326
0.00405501
0.00522794
0.00660537
0.00821389
0.0100841
0.012251
0.0147536
0.0176334
0.0209267
0.0246458
0.0287559
0.0331787
0.0378178
0.0425829
0.0473981
0.0521986
0.0569212
0.000196163
0.000320388
0.000579704
0.000998821
0.00154426
0.00222779
0.00305619
0.00404534
0.00521508
0.00658859
0.00819232
0.0100567
0.0122167
0.0147111
0.0175815
0.0208654
0.0245785
0.0286911
0.0331283
0.037794
0.0425959
0.0474557
0.0523066
0.0570845
0.000196143
0.000320201
0.000578717
0.00099691
0.00154113
0.00222309
0.00304951
0.00403617
0.00520282
0.00657254
0.00817166
0.0100305
0.0121836
0.01467
0.017531
0.0208053
0.0245114
0.0286248
0.033074
0.0377637
0.0426001
0.0475025
0.0524029
0.0572374
0.000196137
0.00032003
0.000577841
0.000995197
0.00153822
0.00221871
0.00304327
0.00402757
0.00519129
0.0065574
0.0081521
0.0100056
0.0121522
0.0146306
0.0174827
0.0207475
0.0244463
0.0285591
0.0330184
0.0377298
0.0425982
0.0475409
0.0524885
0.057378
0.000196121
0.000319858
0.000577021
0.000993597
0.00153553
0.00221466
0.00303749
0.00401958
0.00518055
0.00654325
0.00813376
0.00998214
0.0121226
0.0145936
0.017437
0.0206926
0.024384
0.0284956
0.0329636
0.0376949
0.0425933
0.0475739
0.0525648
0.0574986
0.000196087
0.000319705
0.00057625
0.000992108
0.00153304
0.00221092
0.00303212
0.00401219
0.00517062
0.00653015
0.00811674
0.00996033
0.0120949
0.0145589
0.0173941
0.020641
0.0243253
0.0284353
0.0329113
0.0376615
0.042589
0.0476073
0.0526439
0.057635
0.000196038
0.000319547
0.000575537
0.000990743
0.00153077
0.00220749
0.00302719
0.00400538
0.00516145
0.00651807
0.00810107
0.0099402
0.0120694
0.0145268
0.0173542
0.0205929
0.0242703
0.0283786
0.0328618
0.0376299
0.0425851
0.0476393
0.0527182
0.0577552
0.000195999
0.000319371
0.000574885
0.000989492
0.00152868
0.00220433
0.00302268
0.00399915
0.00515307
0.006507
0.00808671
0.00992176
0.012046
0.0144973
0.0173176
0.0205485
0.0242193
0.0283258
0.0328156
0.0376005
0.0425822
0.0476708
0.0527903
0.0578732
0.000195964
0.000319223
0.000574305
0.000988377
0.0015268
0.00220146
0.00301857
0.00399347
0.00514541
0.00649688
0.00807355
0.00990488
0.0120245
0.0144703
0.017284
0.0205078
0.0241725
0.0282775
0.0327738
0.0375749
0.042582
0.0477036
0.0528619
0.0579883
0.000195907
0.00031906
0.000573764
0.000987344
0.00152506
0.00219885
0.00301483
0.00398827
0.0051384
0.0064876
0.00806148
0.00988942
0.0120049
0.0144456
0.0172534
0.0204706
0.02413
0.0282338
0.0327368
0.0375541
0.0425865
0.0477408
0.0529369
0.0581031
0.000195832
0.000318877
0.000573246
0.000986378
0.00152347
0.00219643
0.00301132
0.00398343
0.0051319
0.00647904
0.00805036
0.00987514
0.0119867
0.0144228
0.0172251
0.0204364
0.0240909
0.0281942
0.0327044
0.0375385
0.042597
0.0477855
0.0530236
0.058244
0.000195757
0.00031867
0.000572765
0.000985486
0.00152198
0.00219416
0.00300806
0.00397892
0.00512583
0.00647106
0.00804001
0.00986184
0.0119698
0.0144016
0.0171987
0.0204046
0.0240547
0.0281576
0.0326751
0.0375261
0.0426107
0.0478329
0.0531101
0.0583713
0.000195695
0.000318484
0.000572338
0.000984682
0.00152062
0.00219205
0.00300502
0.00397469
0.0051201
0.0064635
0.00803019
0.00984928
0.0119539
0.0143816
0.0171739
0.0203745
0.0240204
0.028123
0.0326479
0.0375157
0.0426261
0.0478816
0.0531973
0.0585001
0.000195615
0.000318301
0.000571935
0.000983915
0.00151932
0.00219006
0.00300214
0.00397067
0.00511465
0.00645627
0.0080208
0.00983727
0.0119387
0.0143624
0.0171502
0.0203458
0.0239876
0.02809
0.0326221
0.0375067
0.0426431
0.0479321
0.053287
0.0586326
0.000195504
0.000318085
0.000571551
0.000983197
0.0015181
0.00218817
0.00299937
0.00396679
0.00510939
0.00644925
0.0080117
0.00982559
0.0119239
0.0143439
0.0171272
0.0203179
0.0239556
0.0280577
0.0325969
0.0374984
0.0426614
0.047985
0.053381
0.0587743
0.000195366
0.000317851
0.000571165
0.000982494
0.00151693
0.00218634
0.00299666
0.00396299
0.00510424
0.0064424
0.00800272
0.00981411
0.0119093
0.0143256
0.0171045
0.0202903
0.0239238
0.0280252
0.0325711
0.0374893
0.0426788
0.0480374
0.0534749
0.058915
0.000195212
0.000317594
0.000570792
0.000981815
0.00151579
0.00218455
0.00299403
0.00395928
0.00509917
0.00643565
0.00799391
0.00980277
0.0118949
0.0143074
0.0170817
0.0202627
0.0238917
0.0279919
0.0325438
0.0374777
0.0426932
0.0480862
0.0535647
0.0590511
0.000195031
0.000317351
0.000570443
0.00098118
0.0015147
0.00218282
0.00299148
0.00395565
0.00509419
0.00642898
0.00798516
0.00979146
0.0118804
0.0142891
0.017059
0.0202348
0.0238591
0.0279574
0.0325143
0.0374631
0.0427036
0.0481298
0.0536473
0.0591749
0.000194824
0.000317058
0.000570084
0.000980538
0.00151362
0.00218113
0.00298897
0.00395209
0.00508929
0.0064224
0.00797648
0.00978023
0.0118661
0.0142709
0.0170361
0.0202067
0.0238259
0.0279218
0.0324829
0.0374456
0.0427103
0.0481697
0.0537267
0.0592987
0.000194598
0.000316751
0.000569695
0.000979867
0.00151253
0.00217942
0.00298644
0.00394854
0.00508444
0.00641588
0.00796788
0.00976905
0.0118517
0.0142526
0.0170132
0.0201783
0.023792
0.0278849
0.032449
0.0374247
0.0427131
0.0482057
0.0538039
0.0594259
0.000194353
0.000316406
0.000569286
0.00097917
0.0015114
0.00217767
0.00298389
0.00394495
0.00507955
0.00640938
0.00795936
0.00975797
0.0118375
0.0142345
0.0169903
0.0201499
0.0237578
0.0278467
0.0324127
0.0373995
0.0427098
0.0482338
0.0538704
0.0595334
0.000194106
0.00031607
0.000568869
0.000978451
0.00151023
0.00217588
0.00298128
0.00394132
0.00507462
0.00640284
0.00795083
0.00974696
0.0118234
0.0142166
0.0169677
0.0201217
0.0237238
0.0278082
0.0323748
0.037371
0.042701
0.048254
0.0539268
0.0596292
0.000193827
0.000315724
0.000568418
0.000977688
0.001509
0.00217399
0.00297857
0.00393757
0.00506958
0.00639618
0.00794218
0.00973587
0.0118093
0.0141988
0.0169454
0.020094
0.0236904
0.0277702
0.0323369
0.0373415
0.0426895
0.04827
0.0539788
0.0597314
0.000193503
0.000315329
0.000567922
0.000976851
0.00150767
0.002172
0.00297573
0.00393366
0.00506434
0.00638932
0.00793333
0.0097246
0.011795
0.0141809
0.0169231
0.0200666
0.0236574