/*--------------------------------*- C++ -*----------------------------------*\
| =========                 |                                                 |
| \\      /  F ield         | OpenFOAM: The Open Source CFD Toolbox           |
|  \\    /   O peration     | Version:  2.3.0                                 |
|   \\  /    A nd           | Web:      www.OpenFOAM.org                      |
|    \\/     M anipulation  |                                                 |
\*---------------------------------------------------------------------------*/
FoamFile
{
    version     2.0;
    format      ascii;
    class       volVectorField;
    location    "4000";
    object      U;
}
// * * * * * * * * * * * * * * * * * * * * * * * * * * * * * * * * * * * * * //

dimensions      [0 1 -1 0 0 0 0];

internalField   nonuniform List<vector> 
14769
(
(22.0103 9.85138 3.50858e-21)
(21.836 10.2509 -4.98772e-20)
(21.6574 10.6572 0)
(21.4684 11.0744 0)
(21.2677 11.5034 2.12238e-20)
(21.0527 11.9422 -2.26754e-20)
(20.8192 12.387 5.34637e-20)
(20.5611 12.8319 -1.51141e-20)
(20.2702 13.2696 -7.45967e-20)
(19.9362 13.6922 6.08132e-20)
(19.5475 14.0935 -9.68293e-20)
(19.0922 14.4686 2.65513e-20)
(18.5586 14.8148 4.65012e-20)
(17.9358 15.1317 -3.23171e-20)
(17.2138 15.4215 0)
(16.3839 15.6874 0)
(15.4383 15.9337 2.61094e-20)
(14.3723 16.1661 2.43871e-19)
(13.1805 16.3835 1.82682e-19)
(11.8566 16.5735 -3.87536e-19)
(10.399 16.7176 0)
(8.84489 16.8616 0)
(7.26413 17.1073 5.59222e-19)
(5.64731 17.2371 -5.26779e-19)
(21.6467 9.71048 -7.04482e-20)
(21.4573 10.0455 5.62862e-20)
(21.2603 10.3827 0)
(21.0488 10.7217 -2.50494e-19)
(20.8209 11.0645 9.42029e-20)
(20.5744 11.4116 2.43737e-19)
(20.3075 11.7632 -2.22648e-19)
(20.0182 12.1194 -2.869e-19)
(19.7045 12.4793 2.90873e-19)
(19.3639 12.8409 -5.69834e-20)
(18.9939 13.2009 -8.48227e-20)
(18.5919 13.5546 5.20964e-19)
(18.1556 13.8956 -5.18548e-19)
(17.6829 14.2164 -6.55225e-19)
(17.172 14.5081 7.16132e-19)
(16.6223 14.7605 -9.20893e-19)
(16.0338 14.9625 9.3194e-19)
(15.4084 15.102 -1.28653e-18)
(14.7492 15.1662 1.27155e-18)
(14.0614 15.1409 5.08696e-20)
(13.3557 15.0117 0)
(12.6477 14.7671 -6.41607e-20)
(11.947 14.4004 7.10073e-20)
(11.2464 13.9091 -2.90244e-20)
(21.3377 9.55212 -1.89703e-19)
(21.1439 9.83344 8.52149e-20)
(20.941 10.1152 9.42606e-20)
(20.7256 10.3947 6.57176e-20)
(20.4959 10.6724 4.50996e-19)
(20.2501 10.9473 -4.40204e-19)
(19.9866 11.2186 3.8509e-19)
(19.7034 11.4848 3.9174e-20)
(19.3981 11.7445 -5.67355e-19)
(19.0688 11.9959 5.60801e-20)
(18.7134 12.2369 6.25388e-20)
(18.3301 12.4645 -3.50866e-20)
(17.9177 12.6757 3.95961e-20)
(17.4752 12.8663 0)
(17.003 13.0321 9.95766e-19)
(16.5021 13.1681 -9.91715e-19)
(15.975 13.2687 6.87895e-19)
(15.4255 13.3283 -1.28844e-18)
(14.8594 13.3411 6.80601e-19)
(14.2845 13.3015 5.74368e-20)
(13.7113 13.2052 -9.0603e-19)
(13.1528 13.0491 2.01826e-18)
(12.6231 12.8321 -1.05239e-18)
(12.1379 12.5538 -1.14762e-18)
(21.0889 9.39136 1.14014e-19)
(20.8951 9.62443 -2.1072e-19)
(20.6942 9.85767 3.42758e-19)
(20.4833 10.0886 1.56012e-20)
(20.261 10.3165 -3.12024e-19)
(20.026 10.5405 3.37855e-19)
(19.7772 10.7594 -2.16064e-19)
(19.5137 10.9722 0)
(19.2342 11.1773 4.26428e-19)
(18.9378 11.3732 -7.36105e-19)
(18.6236 11.5576 3.84935e-19)
(18.2909 11.7281 0)
(17.9392 11.8818 0)
(17.5684 12.0154 5.49041e-19)
(17.1789 12.1252 -6.20432e-19)
(16.7719 12.2073 0)
(16.3493 12.2576 -7.97837e-20)
(15.914 12.272 0)
(15.4702 12.2466 -1.05734e-19)
(15.0232 12.1782 -1.05767e-18)
(14.5797 12.0648 1.08133e-18)
(14.1473 11.9057 -6.33153e-20)
(13.7344 11.7022 1.41022e-19)
(13.3496 11.4581 0)
(20.8801 9.21821 2.10909e-20)
(20.6933 9.41965 0)
(20.4996 9.61512 4.23212e-19)
(20.2976 9.80733 -3.54965e-19)
(20.0861 9.99552 1.51172e-19)
(19.8641 10.179 0)
(19.6303 10.3568 3.55613e-19)
(19.384 10.528 -3.56333e-19)
(19.1242 10.6914 1.0391e-19)
(18.85 10.8455 0)
(18.5607 10.9887 0)
(18.2561 11.119 -3.79683e-19)
(17.9359 11.2343 5.12894e-19)
(17.6004 11.332 0)
(17.2505 11.4093 7.26178e-19)
(16.8873 11.4632 -6.54253e-19)
(16.5128 11.4907 -7.60798e-19)
(16.1298 11.4887 7.71059e-19)
(15.7419 11.4545 9.99698e-19)
(15.3536 11.3859 -1.02123e-18)
(14.97 11.2815 9.08272e-19)
(14.5972 11.1413 -1.04248e-18)
(14.2412 10.9665 -1.53857e-21)
(13.908 10.7599 1.51235e-19)
(20.7046 9.06089 -1.42552e-19)
(20.5294 9.22986 0)
(20.3467 9.39414 -1.46421e-19)
(20.1561 9.55534 4.1551e-19)
(19.9576 9.71277 -7.76459e-19)
(19.7501 9.86567 3.56639e-19)
(19.533 10.0133 0)
(19.3055 10.1548 4.23829e-19)
(19.067 10.2889 -5.29806e-19)
(18.8166 10.4144 0)
(18.5536 10.5298 0)
(18.278 10.6335 -1.28896e-19)
(17.9894 10.7235 0)
(17.6882 10.7978 -4.8232e-19)
(17.3751 10.8541 -1.22718e-19)
(17.0513 10.89 -1.36148e-19)
(16.7184 10.903 1.66029e-18)
(16.3788 10.8906 -9.22834e-19)
(16.0353 10.8507 -1.13888e-19)
(15.6915 10.7817 4.99133e-19)
(15.3516 10.6826 -1.04282e-18)
(15.0201 10.5532 5.41278e-19)
(14.7018 10.3947 3.09874e-19)
(14.4011 10.2092 -7.6317e-19)
(20.5613 8.91408 2.31683e-19)
(20.3971 9.05577 -8.66953e-20)
(20.226 9.19507 -1.78246e-19)
(20.0471 9.33147 -8.79768e-21)
(19.861 9.46471 2.8533e-19)
(19.6671 9.59395 1.03642e-19)
(19.4647 9.71856 -4.33029e-19)
(19.253 9.8377 4.34057e-19)
(19.0314 9.95041 0)
(18.7997 10.0554 -1.28149e-19)
(18.557 10.1514 1.36056e-19)
(18.3028 10.2368 7.28996e-19)
(18.0372 10.31 -5.91266e-19)
(17.7602 10.3692 -1.59831e-19)
(17.4726 10.4125 1.76912e-19)
(17.1757 10.4377 9.26488e-20)
(16.8709 10.4428 4.16615e-19)
(16.5605 10.4255 1.31211e-19)
(16.2466 10.384 -3.36692e-19)
(15.9323 10.3171 -5.9614e-22)
(15.6215 10.2237 -1.32668e-19)
(15.3178 10.1037 0)
(15.0252 9.95785 1.49607e-19)
(14.7472 9.78769 0)
(20.4455 8.78055 1.37065e-21)
(20.291 8.89844 2.7263e-19)
(20.1309 9.01749 -8.72729e-20)
(19.9631 9.134 -1.01307e-19)
(19.7889 9.24816 -9.93781e-20)
(19.6075 9.35893 -1.04087e-19)
(19.4182 9.46585 0)
(19.2202 9.568 3.62782e-19)
(19.0129 9.66483 -2.43267e-19)
(18.7968 9.75484 1.28822e-19)
(18.5709 9.83667 4.9278e-21)
(18.3352 9.9088 -1.45752e-19)
(18.0892 9.9697 1.59941e-19)
(17.8327 10.018 -1.70406e-19)
(17.5658 10.0521 -1.78204e-19)
(17.2896 10.0702 0)
(17.0064 10.0703 3.21392e-19)
(16.7183 10.0501 -2.09042e-19)
(16.4272 10.0075 4.84079e-19)
(16.1346 9.94247 -6.17777e-19)
(15.8451 9.85392 1.33853e-19)
(15.5616 9.74117 5.80733e-19)
(15.2879 9.60482 -5.8662e-19)
(15.0271 9.4461 1.64317e-19)
(20.3481 8.65627 -1.93975e-19)
(20.2029 8.75555 1.96483e-19)
(20.0547 8.85921 2.1129e-19)
(19.8975 8.95994 1.09935e-19)
(19.7344 9.05909 -4.33928e-19)
(19.564 9.15521 4.51684e-19)
(19.3861 9.2483 -3.5047e-19)
(19.2005 9.33657 -4.9812e-19)
(19.0048 9.42078 2.53403e-19)
(18.8013 9.49975 1.42266e-19)
(18.5885 9.57203 -2.79678e-19)
(18.367 9.6357 -1.53035e-19)
(18.1376 9.68805 -1.60375e-19)
(17.8973 9.72817 3.44778e-19)
(17.6473 9.75435 3.76588e-19)
(17.3872 9.76687 -3.82428e-19)
(17.1201 9.76454 2.09522e-19)
(16.8481 9.74417 -2.21927e-19)
(16.5758 9.70017 2.38075e-19)
(16.2986 9.63628 2.52045e-19)
(16.0251 9.55147 2.73634e-19)
(15.7566 9.44467 -2.76863e-19)
(15.4972 9.31609 0)
(15.2493 9.16647 1.56786e-19)
(20.2521 8.54586 -2.95882e-22)
(20.121 8.6294 -2.16389e-19)
(19.9913 8.72098 1.12408e-19)
(19.8462 8.8077 -1.10481e-19)
(19.6938 8.89432 2.35302e-19)
(19.534 8.97777 -2.3482e-19)
(19.3653 9.06109 1.22517e-19)
(19.1953 9.13749 -1.3694e-19)
(19.0129 9.2091 2.6983e-19)
(18.8246 9.27653 -1.50017e-19)
(18.6266 9.33939 1.42785e-19)
(18.4147 9.39931 3.06042e-19)
(18.1912 9.44938 0)
(17.9554 9.48741 -1.7576e-19)
(17.7178 9.50737 1.89752e-19)
(17.4714 9.51291 -4.15029e-19)
(17.2186 9.50619 2.07239e-19)
(16.9596 9.49015 2.27875e-19)
(16.699 9.44755 1.14409e-20)
(16.4283 9.38433 -2.47171e-19)
(16.169 9.30162 0)
(15.9131 9.19891 -7.408e-21)
(15.6639 9.07681 2.94882e-19)
(15.4216 8.93507 3.20709e-19)
(4.00467 16.392 -4.18812e-20)
(3.94609 14.9478 -8.80154e-20)
(4.17854 13.6605 0)
(4.50966 12.5448 0)
(4.88462 11.5596 1.09703e-18)
(5.28127 10.6718 -5.22054e-19)
(5.69767 9.86923 -7.11626e-19)
(6.13175 9.14287 -1.48954e-19)
(6.57704 8.48344 1.22561e-19)
(7.02627 7.88374 -5.96733e-19)
(7.47276 7.33773 -4.26981e-20)
(7.91121 6.84043 0)
(8.33756 6.38745 -2.96777e-19)
(8.74913 5.97444 4.20341e-20)
(9.14461 5.59754 1.15255e-18)
(9.52382 5.25276 -1.12483e-18)
(9.88743 4.93626 5.5946e-19)
(10.2368 4.64413 -1.12591e-18)
(10.5734 4.37266 -1.04634e-18)
(10.899 4.11852 -1.05192e-18)
(11.2151 3.87886 9.76188e-19)
(11.5232 3.65189 0)
(11.8249 3.4366 -1.76282e-18)
(12.1201 3.22662 1.63397e-18)
(10.5574 13.3112 0)
(10.0158 12.6312 -9.44675e-20)
(9.62953 11.9365 0)
(9.37135 11.2549 9.77531e-19)
(9.21508 10.5984 -5.9523e-19)
(9.13993 9.97313 -9.17798e-19)
(9.12974 9.38238 9.00246e-19)
(9.17209 8.82774 1.32256e-19)
(9.25735 8.3097 -2.68138e-19)
(9.37732 7.82756 -2.71626e-19)
(9.52509 7.37984 5.41639e-19)
(9.69516 6.96424 0)
(9.8827 6.57801 -2.69902e-19)
(10.0838 6.21802 0)
(10.2953 5.88123 0)
(10.5148 5.56466 2.28107e-20)
(10.7401 5.26561 5.00157e-19)
(10.9693 4.98184 0)
(11.2012 4.71151 3.46136e-20)
(11.4344 4.4533 2.41645e-19)
(11.6681 4.20631 -1.1928e-18)
(11.9017 3.97052 0)
(12.1352 3.74501 2.59221e-20)
(12.3653 3.51993 -6.82108e-21)
(11.7091 12.2147 1.07732e-18)
(11.3441 11.8157 9.09687e-20)
(11.0438 11.3704 0)
(10.808 10.8971 0)
(10.6331 10.4105 1.0848e-19)
(10.514 9.92134 -3.21405e-19)
(10.445 9.43767 -2.33266e-19)
(10.4205 8.96509 2.16943e-19)
(10.4347 8.50771 0)
(10.4821 8.06798 0)
(10.5575 7.64763 0)
(10.6561 7.24726 0)
(10.7738 6.867 4.68945e-19)
(10.9067 6.50637 -1.40003e-18)
(11.0518 6.16476 4.69502e-19)
(11.2065 5.84116 4.83502e-19)
(11.3686 5.53449 -4.8051e-19)
(11.5366 5.24362 -2.32847e-19)
(11.709 4.96736 1.17293e-18)
(11.885 4.70446 -8.98455e-19)
(12.064 4.45388 0)
(12.2455 4.2152 -8.67146e-19)
(12.4294 3.98636 8.42974e-19)
(12.6134 3.75431 1.57034e-18)
(12.997 11.1771 -5.84289e-19)
(12.6777 10.8606 1.53988e-18)
(12.3957 10.5135 -1.44938e-18)
(12.1544 10.1444 1.13166e-18)
(11.9548 9.76159 -5.8058e-19)
(11.7963 9.372 -1.98476e-19)
(11.6767 8.98155 1.04537e-19)
(11.5932 8.59486 -1.09366e-19)
(11.5426 8.21563 -1.01938e-19)
(11.5214 7.84635 -1.0828e-19)
(11.5263 7.48891 0)
(11.5539 7.14436 0)
(11.6014 6.81333 0)
(11.6659 6.49586 4.51021e-19)
(11.7451 6.19175 0)
(11.837 5.9005 0)
(11.9397 5.62151 -6.57268e-19)
(12.0517 5.35408 1.10471e-19)
(12.1716 5.09746 1.2338e-19)
(12.2981 4.85093 9.74391e-19)
(12.4303 4.61394 -1.07136e-19)
(12.5677 4.38652 -1.24638e-18)
(12.7098 4.16726 1.21456e-18)
(12.8547 3.9436 7.66646e-19)
(13.6002 10.5243 1.59375e-19)
(13.3182 10.2603 -4.54136e-21)
(13.0645 9.97063 0)
(12.8422 9.66132 5.56354e-19)
(12.6528 9.33824 -7.53608e-19)
(12.4964 9.00671 5.85794e-19)
(12.372 8.67144 -2.98526e-19)
(12.2779 8.33647 1.00517e-19)
(12.2118 8.00497 5.17779e-19)
(12.1712 7.67934 1.06177e-19)
(12.1533 7.36149 -2.07859e-19)
(12.1555 7.05273 -4.14749e-19)
(12.1754 6.75391 -6.27678e-19)
(12.2107 6.46549 4.15473e-19)
(12.2596 6.18751 2.10893e-19)
(12.3202 5.91989 0)
(12.391 5.66233 8.45983e-19)
(12.4705 5.41443 1.05396e-19)
(12.5577 5.17571 -1.04913e-19)
(12.6515 4.94559 0)
(12.751 4.72367 4.07763e-19)
(12.8557 4.51023 8.19561e-19)
(12.9656 4.30401 -8.00668e-19)
(13.0789 4.09238 -7.62076e-19)
(14.1203 9.99885 5.03498e-19)
(13.8601 9.7648 -8.42569e-19)
(13.6229 9.50961 0)
(13.4113 9.23773 -3.26365e-21)
(13.2269 8.9538 1.91542e-19)
(13.0703 8.66208 1.96453e-19)
(12.9413 8.3663 -1.90675e-19)
(12.8386 8.06972 -3.15535e-21)
(12.7604 7.77511 -2.01399e-19)
(12.7048 7.48444 3.03113e-19)
(12.6693 7.19951 -2.99331e-19)
(12.6517 6.92174 4.09563e-19)
(12.6502 6.65206 6.18512e-19)
(12.6631 6.39088 -6.20017e-19)
(12.6887 6.13831 2.03968e-19)
(12.7253 5.89438 0)
(12.7718 5.65898 -6.17074e-19)
(12.8268 5.43176 3.05074e-19)
(12.8893 5.21235 3.06244e-19)
(12.9583 5.0002 -6.29791e-21)
(13.0328 4.79502 -6.03284e-19)
(13.1122 4.59739 1.97386e-19)
(13.1968 4.40611 0)
(13.2849 4.20845 7.27946e-19)
(14.4861 9.5951 0)
(14.2427 9.38135 -1.70681e-19)
(14.0189 9.14914 0)
(13.8172 8.9024 -1.8535e-19)
(13.6391 8.64515 0)
(13.4859 8.38109 9.71027e-20)
(13.3576 8.1131 1.00699e-19)
(13.2531 7.84396 0)
(13.171 7.576 3.9298e-19)
(13.1091 7.31095 2.93377e-19)
(13.065 7.05048 7.0043e-19)
(13.0367 6.79636 -8.00042e-19)
(13.0232 6.54943 2.00503e-19)
(13.023 6.30994 -3.93511e-19)
(13.0344 6.07796 -1.98432e-19)
(13.0559 5.85371 -3.93474e-19)
(13.0865 5.63722 -9.92266e-20)
(13.125 5.42818 4.90248e-19)
(13.1706 5.22617 -3.97659e-19)
(13.2221 5.03055 -3.88629e-19)
(13.2782 4.84111 0)
(13.3384 4.65896 0)
(13.4039 4.4828 0)
(13.4709 4.30274 -3.56736e-19)
(14.7814 9.26656 -1.51667e-19)
(14.551 9.06728 -1.64175e-19)
(14.337 8.85126 0)
(14.1424 8.62256 0)
(13.9683 8.38504 3.70302e-19)
(13.8176 8.14174 9.5886e-20)
(13.6907 7.89452 -4.65154e-20)
(13.5857 7.64615 -4.64789e-20)
(13.5019 7.39864 -5.72264e-20)
(13.4367 7.15331 1.40348e-19)
(13.3869 6.9119 -2.02557e-19)
(13.3507 6.67685 4.92516e-19)
(13.329 6.44868 0)
(13.3198 6.22708 6.81893e-21)
(13.3214 6.01215 -3.85724e-19)
(13.3318 5.80473 7.75867e-19)
(13.351 5.60469 9.68506e-20)
(13.3775 5.41174 -4.8507e-19)
(13.4109 5.22538 -6.01036e-21)
(13.4498 5.04464 3.91779e-19)
(13.4921 4.8694 -1.90301e-19)
(13.5372 4.70178 1.88671e-19)
(13.5896 4.53935 -2.77958e-21)
(13.6435 4.37551 7.13215e-19)
(15.0153 8.99737 1.63772e-19)
(14.7956 8.8096 -3.44485e-19)
(14.5895 8.604 6.9333e-19)
(14.4014 8.38934 3.58194e-19)
(14.23 8.16643 -2.76108e-19)
(14.0821 7.93938 2.78284e-19)
(13.9575 7.70792 0)
(13.8526 7.47566 3.77653e-19)
(13.7688 7.24381 -3.85073e-19)
(13.7029 7.01423 -3.38013e-19)
(13.6494 6.78752 -4.34227e-19)
(13.6069 6.56797 0)
(13.5805 6.35525 3.79568e-19)
(13.5655 6.14807 3.84364e-19)
(13.5607 5.94698 7.60559e-19)
(13.5625 5.75369 -3.81945e-19)
(13.574 5.56794 -3.74995e-19)
(13.5916 5.38883 0)
(13.6168 5.21634 0)
(13.647 5.04868 0)
(13.6796 4.88628 0)
(13.7118 4.73225 0)
(13.7549 4.58209 -4.58237e-21)
(13.796 4.43166 7.23659e-19)
(15.1917 8.77523 -3.23154e-19)
(14.9844 8.60307 1.71973e-19)
(14.7854 8.40181 -5.23839e-19)
(14.6059 8.20119 -3.68133e-19)
(14.4397 7.98572 0)
(14.2975 7.76911 -3.74406e-19)
(14.1768 7.54741 3.65862e-19)
(14.0698 7.32965 -3.59003e-19)
(13.987 7.11211 3.52621e-19)
(13.9237 6.89859 0)
(13.8682 6.68185 3.67746e-19)
(13.8202 6.47418 9.4524e-20)
(13.7944 6.27372 -4.78508e-19)
(13.7762 6.07676 0)
(13.7677 5.88696 -4.65766e-21)
(13.7616 5.70507 9.39385e-20)
(13.7694 5.53204 6.60136e-19)
(13.7799 5.36366 0)
(13.8005 5.20362 2.96034e-21)
(13.8257 5.04721 -2.91241e-21)
(13.8528 4.89793 0)
(13.8706 4.75515 0)
(13.9032 4.61043 -3.66208e-19)
(13.9377 4.46361 -3.65794e-21)
(-4.3435 -2.53185 3.51724e-21)
(-4.16185 -2.54516 2.93544e-19)
(-3.93309 -2.55996 0)
(-3.66582 -2.57317 -1.65705e-19)
(-3.36775 -2.58421 0)
(-3.04562 -2.59287 4.7158e-20)
(-2.70522 -2.59887 4.84703e-20)
(-2.3514 -2.60196 -2.05038e-19)
(-1.98816 -2.6019 -1.22987e-22)
(-1.61869 -2.59844 3.37153e-19)
(-1.24533 -2.59128 -1.2659e-19)
(-0.869788 -2.58005 6.19537e-20)
(-0.492846 -2.56393 -1.30426e-19)
(-0.114406 -2.54165 6.261e-20)
(0.266823 -2.51144 0)
(0.654283 -2.47082 7.6127e-20)
(1.05479 -2.41661 0)
(1.48158 -2.34484 -1.77068e-19)
(1.96 -2.25114 1.02019e-19)
(2.53869 -2.13122 2.35478e-20)
(3.30685 -1.98501 -3.46778e-19)
(4.4421 -1.82059 1.35463e-18)
(6.32936 -1.67626 -2.03114e-18)
(9.85828 -1.83383 1.15921e-18)
(-4.31544 -2.51797 -1.30219e-22)
(-4.13584 -2.52148 2.83427e-19)
(-3.91741 -2.52665 7.42928e-20)
(-3.66566 -2.53011 7.94256e-20)
(-3.38602 -2.53161 2.62137e-21)
(-3.08297 -2.53103 1.70632e-19)
(-2.76021 -2.52803 -9.05775e-20)
(-2.42063 -2.52215 6.14976e-22)
(-2.06631 -2.51275 9.57397e-20)
(-1.69838 -2.49898 9.91521e-20)
(-1.317 -2.47974 -9.65195e-23)
(-0.921221 -2.45364 3.80084e-22)
(-0.508276 -2.41899 0)
(-0.0736537 -2.37368 -5.65384e-20)
(0.389445 -2.31525 5.89358e-20)
(0.89165 -2.2408 -6.08542e-20)
(1.44901 -2.14744 -6.08551e-20)
(2.08695 -2.03281 3.22446e-20)
(2.84622 -1.89646 -1.22995e-19)
(3.79175 -1.74329 1.04019e-19)
(5.02643 -1.59012 -2.78953e-19)
(6.70985 -1.48105 4.85934e-20)
(9.07551 -1.5105 2.37597e-19)
(12.3913 -1.85523 2.17227e-19)
(-4.26366 -2.47209 0)
(-4.08045 -2.46414 0)
(-3.86293 -2.45955 -2.87435e-19)
(-3.61457 -2.45257 0)
(-3.33922 -2.4429 0)
(-3.03985 -2.43024 -2.03238e-19)
(-2.71864 -2.41395 4.16024e-20)
(-2.37699 -2.39324 0)
(-2.01541 -2.36718 8.84234e-20)
(-1.6335 -2.33469 1.29862e-22)
(-1.22963 -2.29448 -9.2942e-20)
(-0.800878 -2.24511 -1.41151e-19)
(-0.34272 -2.18508 4.89659e-20)
(0.151768 -2.11279 -1.967e-19)
(0.692451 -2.02674 5.05958e-20)
(1.29369 -1.92558 0)
(1.97607 -1.80876 1.01902e-19)
(2.76906 -1.67742 0)
(3.71473 -1.53653 1.2491e-19)
(4.87304 -1.39848 -7.93456e-20)
(6.32508 -1.28951 0)
(8.17449 -1.25842 0)
(10.5329 -1.38813 1.06191e-19)
(13.4525 -1.79514 -2.13765e-19)
(-4.19453 -2.40166 2.44412e-19)
(-4.00738 -2.3807 -6.32509e-20)
(-3.79072 -2.36479 2.03467e-19)
(-3.54553 -2.34563 0)
(-3.27416 -2.32315 0)
(-2.97802 -2.29713 7.35375e-20)
(-2.65792 -2.26697 -7.52779e-20)
(-2.31402 -2.23187 -3.92065e-20)
(-1.94556 -2.1909 4.13024e-20)
(-1.55093 -2.14316 -1.61682e-19)
(-1.12735 -2.08762 -8.30576e-20)
(-0.670532 -2.02312 1.71949e-19)
(-0.17447 -1.94845 8.62789e-20)
(0.369121 -1.86258 4.46477e-20)
(0.971571 -1.76485 -6.48998e-20)
(1.64827 -1.65542 2.26662e-20)
(2.42066 -1.53562 -8.96182e-20)
(3.3177 -1.40946 -4.2854e-20)
(4.37775 -1.2855 1.28864e-19)
(5.65145 -1.17973 -8.98104e-20)
(7.20153 -1.12005 0)
(9.09848 -1.15129 0)
(11.4031 -1.33874 0)
(14.1272 -1.76028 2.60356e-20)
(-4.10877 -2.31656 -1.17061e-19)
(-3.91867 -2.28547 1.21575e-19)
(-3.70209 -2.25962 -1.28901e-19)
(-3.45878 -2.2302 0)
(-3.18982 -2.19733 0)
(-2.8955 -2.16092 -7.00872e-20)
(-2.57536 -2.12033 2.4783e-21)
(-2.22867 -2.07476 3.60421e-20)
(-1.8539 -2.02341 -3.3952e-20)
(-1.44862 -1.96551 1.49501e-19)
(-1.00913 -1.90032 3.80763e-20)
(-0.530304 -1.82702 -7.6779e-20)
(-0.00532548 -1.74476 -8.01975e-20)
(0.574802 -1.65295 0)
(1.22192 -1.5516 4.13909e-20)
(1.95162 -1.44183 0)
(2.78477 -1.32653 2.22278e-20)
(3.74867 -1.21144 2.08106e-20)
(4.87804 -1.1068 0)
(6.21655 -1.0298 6.86496e-20)
(7.815 -1.0075 -1.02503e-19)
(9.7268 -1.0797 -3.0354e-20)
(11.9927 -1.29963 1.04482e-19)
(14.6128 -1.72574 -3.24124e-20)
(-4.01115 -2.22444 1.05681e-19)
(-3.81966 -2.18701 5.79517e-20)
(-3.60389 -2.15293 -2.89469e-20)
(-3.36295 -2.11534 2.96158e-20)
(-3.0969 -2.07447 9.84508e-22)
(-2.80509 -2.03039 -1.70694e-20)
(-2.48592 -1.98253 8.281e-20)
(-2.13787 -1.92987 6.52412e-20)
(-1.75892 -1.87159 1.35936e-19)
(-1.34628 -1.8072 -7.08662e-20)
(-0.895688 -1.73636 6.94075e-20)
(-0.4011 -1.65859 3.92036e-20)
(0.145104 -1.57332 -3.70207e-20)
(0.752281 -1.48015 0)
(1.43239 -1.37942 9.1866e-21)
(2.20075 -1.27276 2.70518e-20)
(3.07703 -1.16392 1.83813e-20)
(4.08678 -1.05955 1.91822e-20)
(5.26202 -0.970894 6.80553e-20)
(6.64164 -0.915585 -3.69338e-21)
(8.2695 -0.919402 -3.16254e-20)
(10.1891 -1.01808 4.08016e-20)
(12.4314 -1.25759 -2.80588e-20)
(14.988 -1.68623 2.14004e-20)
(-3.90655 -2.12957 -1.57141e-19)
(-3.71486 -2.0894 -5.36613e-20)
(-3.50085 -2.04943 2.80642e-20)
(-3.26293 -2.00609 -8.65745e-20)
(-3.00049 -1.95951 0)
(-2.71226 -1.91003 0)
(-2.39511 -1.85742 -1.52592e-20)
(-2.04705 -1.80027 -1.08681e-19)
(-1.66568 -1.73769 -6.48228e-20)
(-1.24812 -1.66905 0)
(-0.790213 -1.59459 -9.96857e-20)
(-0.285139 -1.51464 3.5195e-20)
(0.276006 -1.42892 0)
(0.902942 -1.337 0)
(1.60795 -1.23909 0)
(2.4055 -1.13688 -1.04573e-19)
(3.31405 -1.03466 -6.99058e-20)
(4.35747 -0.939589 -1.62625e-20)
(5.56514 -0.863051 -4.8592e-20)
(6.97182 -0.823387 -3.18106e-20)
(8.619 -0.845646 0)
(10.5437 -0.962029 0)
(12.7698 -1.21363 -2.26105e-20)
(15.2825 -1.64264 2.22247e-20)
(-3.79793 -2.04003 -4.982e-20)
(-3.60822 -1.99523 5.07545e-20)
(-3.39715 -1.95184 0)
(-3.16284 -1.9049 5.92082e-20)
(-2.90438 -1.85436 -7.6583e-21)
(-2.6211 -1.80084 8.67645e-22)
(-2.30708 -1.7453 0)
(-1.96004 -1.68561 1.71098e-20)
(-1.57724 -1.62072 -7.29941e-20)
(-1.15634 -1.54938 5.95261e-20)
(-0.694026 -1.47209 2.81108e-21)
(-0.182866 -1.39071 0)
(0.388161 -1.30573 1.58828e-20)
(1.02942 -1.21635 -1.64699e-20)
(1.75371 -1.1226 0)
(2.57407 -1.02539 6.73735e-20)
(3.50794 -0.929526 3.34324e-20)
(4.57818 -0.842261 6.21564e-20)
(5.81274 -0.774433 -2.82736e-20)
(7.23953 -0.745771 0)
(8.90485 -0.78257 4.69278e-20)
(10.8379 -0.912461 -1.14492e-20)
(13.0585 -1.17236 1.91769e-20)
(15.5431 -1.60142 3.11336e-21)
(-3.6924 -1.95662 0)
(-3.50348 -1.90809 0)
(-3.29586 -1.86194 -4.82385e-20)
(-3.06487 -1.81281 4.6574e-21)
(-2.81007 -1.76023 4.42943e-20)
(-2.53299 -1.70309 0)
(-2.22386 -1.64551 5.17369e-20)
(-1.87922 -1.58435 4.19919e-20)
(-1.49492 -1.51876 5.69545e-20)
(-1.0695 -1.44629 -4.40558e-20)
(-0.603323 -1.36692 1.31961e-19)
(-0.0908764 -1.28394 -2.64461e-22)
(0.484087 -1.19955 -2.9928e-20)
(1.13459 -1.11248 7.88733e-21)
(1.87493 -1.0232 7.77299e-21)
(2.71568 -0.930797 0)
(3.67091 -0.841453 0)
(4.76091 -0.764016 -6.07258e-20)
(6.00891 -0.703803 4.50168e-20)
(7.43389 -0.68355 5.80443e-20)
(9.10341 -0.728366 -4.54962e-20)
(11.0389 -0.867647 -1.77806e-20)
(13.2519 -1.1316 7.28345e-22)
(15.6984 -1.55231 1.22201e-20)
(-3.58364 -1.87972 6.47317e-20)
(-3.39772 -1.82865 -2.33164e-20)
(-3.19731 -1.78091 4.81732e-20)
(-2.97715 -1.72733 -1.03497e-19)
(-2.724 -1.67699 -4.32615e-20)
(-2.45106 -1.61556 0)
(-2.14137 -1.55729 -5.07066e-20)
(-1.80486 -1.49506 -1.30395e-20)
(-1.42751 -1.42882 2.71388e-20)
(-1.00271 -1.35515 4.06425e-20)
(-0.530734 -1.27351 -4.37567e-20)
(-0.00703495 -1.18908 -1.44713e-20)
(0.577239 -1.10897 0)
(1.22655 -1.02286 -7.06634e-21)
(1.97423 -0.937987 7.3514e-21)
(2.82374 -0.845938 0)
(3.79126 -0.755069 -3.49932e-21)
(4.91193 -0.680276 3.63637e-21)
(6.2398 -0.641477 0)
(7.69065 -0.656039 -2.71475e-20)
(9.433 -0.717449 1.96003e-20)
(11.3572 -0.869911 1.88708e-20)
(13.5958 -1.14648 -2.13009e-20)
(16.0574 -1.58154 0)
(16.512 -3.31795 0)
(20.1068 -4.59596 -4.25064e-19)
(21.4094 -5.04058 4.22404e-19)
(22.0669 -5.21656 -4.98153e-20)
(22.5092 -5.31527 0)
(22.8152 -5.37071 4.91089e-19)
(23.0248 -5.39461 -4.70251e-19)
(23.1611 -5.39477 1.92012e-20)
(23.2395 -5.37615 0)
(23.272 -5.34291 7.73154e-19)
(23.2695 -5.29834 -7.18119e-19)
(23.2411 -5.24525 0)
(23.1935 -5.18581 0)
(23.1316 -5.12159 0)
(23.0589 -5.05361 0)
(22.978 -4.98266 0)
(22.8907 -4.90919 1.1517e-19)
(22.7982 -4.83355 1.29265e-19)
(22.7016 -4.75598 -2.5305e-19)
(22.6014 -4.67653 0)
(22.4981 -4.59523 0)
(22.392 -4.51275 1.08203e-18)
(22.284 -4.42934 5.33297e-20)
(22.1765 -4.33555 -1.06498e-18)
(16.4573 -2.80188 -2.72828e-19)
(20.218 -4.08206 -6.13566e-21)
(21.9637 -4.70884 7.32007e-21)
(22.5975 -4.89034 4.89258e-21)
(22.9669 -4.98383 1.43594e-20)
(23.2033 -5.04005 5.02209e-19)
(23.3466 -5.06905 -4.7394e-19)
(23.4217 -5.07693 6.71274e-19)
(23.4465 -5.0683 1.06039e-19)
(23.4351 -5.04676 -7.02546e-19)
(23.3983 -5.01543 0)
(23.3439 -4.97651 0)
(23.277 -4.93173 8.61007e-19)
(23.2014 -4.88231 -7.09478e-19)
(23.1195 -4.82917 9.17086e-19)
(23.0329 -4.77288 -1.70801e-18)
(22.9427 -4.71389 6.72568e-19)
(22.8497 -4.65253 1.21409e-19)
(22.7542 -4.589 7.74729e-19)
(22.6567 -4.52336 -9.9332e-19)
(22.5573 -4.45572 1.07669e-18)
(22.4563 -4.38666 -1.04888e-18)
(22.3538 -4.31532 2.7257e-19)
(22.2502 -4.23281 0)
(16.8078 -2.59206 1.03198e-19)
(20.1963 -3.70601 2.35395e-20)
(22.2271 -4.4563 2.24152e-19)
(22.8953 -4.67266 5.95108e-20)
(23.2033 -4.75262 -2.62362e-19)
(23.3852 -4.7983 -3.29269e-19)
(23.4831 -4.82126 -7.02842e-21)
(23.5217 -4.82732 -5.05318e-19)
(23.519 -4.82051 1.47322e-18)
(23.4881 -4.80396 -6.83014e-19)
(23.4382 -4.77993 5.11537e-20)
(23.3752 -4.75001 8.16049e-19)
(23.3033 -4.71528 -8.24173e-19)
(23.2251 -4.67662 -1.02832e-18)
(23.1425 -4.63459 7.65204e-19)
(23.0567 -4.58966 -1.08393e-18)
(22.9685 -4.54213 1.92517e-18)
(22.8784 -4.49226 -1.85427e-18)
(22.7867 -4.44023 1.2431e-18)
(22.6938 -4.38613 0)
(22.5998 -4.33013 0)
(22.5045 -4.27289 0)
(22.4069 -4.21438 -2.83822e-19)
(22.3076 -4.14896 0)
(17.1917 -2.4792 -4.07118e-20)
(20.2763 -3.45927 0)
(22.3981 -4.24831 2.16829e-19)
(23.1245 -4.50822 -2.44978e-19)
(23.3792 -4.57773 3.75061e-19)
(23.5116 -4.61388 -3.07352e-19)
(23.5705 -4.63073 -4.23899e-20)
(23.5803 -4.63388 4.4003e-19)
(23.5575 -4.62694 -3.68663e-19)
(23.5135 -4.61246 5.13956e-20)
(23.4554 -4.59219 1.57573e-21)
(23.388 -4.56728 5.31774e-20)
(23.3141 -4.5385 3.47093e-19)
(23.2358 -4.5065 -4.3843e-19)
(23.1544 -4.47168 2.33422e-19)
(23.0709 -4.43438 -1.19963e-19)
(22.9856 -4.39485 1.22861e-19)
(22.8991 -4.35325 -4.14728e-22)
(22.8116 -4.30975 0)
(22.7231 -4.26446 -4.1142e-19)
(22.6339 -4.21751 5.32456e-19)
(22.5434 -4.16923 0)
(22.4505 -4.11918 -5.86025e-19)
(22.3554 -4.06384 5.78296e-19)
(17.5109 -2.40163 2.45132e-20)
(20.3985 -3.29525 -1.59701e-20)
(22.5098 -4.07603 2.78271e-19)
(23.2889 -4.37029 5.71775e-20)
(23.504 -4.43309 -3.36145e-19)
(23.5968 -4.46154 0)
(23.626 -4.47352 -3.92253e-19)
(23.6145 -4.47435 3.66066e-19)
(23.5772 -4.46706 0)
(23.5238 -4.45377 -4.89098e-19)
(23.46 -4.43582 3.60445e-19)
(23.3893 -4.41414 4.60829e-19)
(23.3143 -4.38931 -4.41823e-19)
(23.2363 -4.36185 -4.82331e-19)
(23.1564 -4.33208 2.2421e-19)
(23.0751 -4.30025 -3.81882e-19)
(22.993 -4.26656 1.00455e-18)
(22.9101 -4.23116 -2.3175e-19)
(22.8268 -4.19417 -6.47776e-19)
(22.7429 -4.1557 -6.91148e-19)
(22.6584 -4.11587 5.44854e-19)
(22.5729 -4.07478 -8.69514e-19)
(22.4857 -4.0321 5.75374e-19)
(22.3969 -3.98763 3.05857e-19)
(17.7772 -2.33658 -1.70105e-20)
(20.5289 -3.1736 -2.10255e-21)
(22.5909 -3.93132 0)
(23.4005 -4.24838 0)
(23.5852 -4.30811 -4.44252e-20)
(23.6469 -4.33079 3.91247e-19)
(23.654 -4.3393 -7.7557e-19)
(23.6275 -4.33851 -4.21565e-20)
(23.5805 -4.33106 4.01854e-19)
(23.521 -4.31865 5.5458e-20)
(23.4536 -4.30245 -4.65812e-19)
(23.3814 -4.28311 9.2047e-19)
(23.3061 -4.26122 -2.19843e-19)
(23.229 -4.23715 0)
(23.1508 -4.2112 1.22651e-19)
(23.072 -4.18353 5.18265e-19)
(22.993 -4.15432 -5.03434e-19)
(22.9138 -4.12373 2.64677e-19)
(22.8345 -4.09184 1.35507e-19)
(22.755 -4.0588 1.39087e-19)
(22.6751 -4.02477 0)
(22.5946 -3.98976 4.40624e-19)
(22.5132 -3.95363 -2.99813e-19)
(22.4308 -3.91791 0)
(17.9952 -2.27491 -2.35307e-21)
(20.6462 -3.07188 3.53786e-20)
(22.6507 -3.80442 3.2268e-20)
(23.4737 -4.13592 0)
(23.6375 -4.19734 2.36397e-19)
(23.6756 -4.21703 -2.30065e-19)
(23.6666 -4.22362 0)
(23.6294 -4.22199 0)
(23.5757 -4.21459 0)
(23.5121 -4.20298 -5.26201e-19)
(23.4425 -4.18811 3.30024e-19)
(23.3695 -4.1706 4.92508e-19)
(23.2944 -4.15093 -7.15963e-19)
(23.2184 -4.12949 0)
(23.142 -4.10647 5.22398e-19)
(23.0656 -4.082 -5.06381e-19)
(22.9894 -4.05625 -1.33362e-19)
(22.9135 -4.02936 -1.35494e-19)
(22.8379 -4.00143 1.39339e-19)
(22.7623 -3.97268 7.37806e-23)
(22.6865 -3.9433 0)
(22.6106 -3.91327 3.05446e-19)
(22.5346 -3.88246 6.68192e-21)
(22.4581 -3.85315 4.80538e-19)
(18.2027 -2.22241 5.86564e-21)
(20.7728 -2.99319 7.80639e-20)
(22.715 -3.70711 -3.03828e-20)
(23.5293 -4.04526 2.68611e-20)
(23.6726 -4.10505 -1.75936e-19)
(23.692 -4.12016 2.60269e-19)
(23.6706 -4.12437 -3.06077e-19)
(23.6254 -4.12163 -1.17652e-19)
(23.5665 -4.11406 3.32053e-19)
(23.4997 -4.10299 0)
(23.4287 -4.08912 2.39852e-19)
(23.3552 -4.07292 0)
(23.2804 -4.05492 3.82755e-19)
(23.2053 -4.03559 -5.12307e-19)
(23.1308 -4.01494 1.22963e-19)
(23.0567 -3.99293 -2.73203e-19)
(22.9832 -3.96988 1.23402e-19)
(22.9104 -3.94591 2.72489e-19)
(22.8381 -3.92109 -1.42324e-19)
(22.7658 -3.8957 -1.46042e-19)
(22.6937 -3.87006 -1.50063e-19)
(22.6219 -3.84418 -1.54336e-19)
(22.5511 -3.81774 0)
(22.4804 -3.79287 -1.64649e-19)
(18.3083 -2.15313 -6.88837e-22)
(20.8059 -2.88886 -2.70871e-20)
(22.7094 -3.58716 -4.04658e-20)
(23.5429 -3.94362 -1.05822e-19)
(23.6917 -4.01675 8.13154e-20)
(23.7011 -4.03326 2.16631e-19)
(23.6712 -4.03683 1.27548e-19)
(23.6202 -4.03366 -4.46273e-19)
(23.5575 -4.02627 1.08402e-19)
(23.4887 -4.01604 0)
(23.4171 -4.00324 -1.21745e-19)
(23.3433 -3.98803 0)
(23.2686 -3.9715 -1.29711e-19)
(23.1944 -3.95424 0)
(23.1218 -3.93567 1.33223e-19)
(23.0496 -3.91548 0)
(22.9781 -3.89451 0)
(22.9078 -3.87277 0)
(22.8378 -3.85006 -4.43593e-19)
(22.7682 -3.82711 2.93705e-19)
(22.6991 -3.80442 -3.12632e-19)
(22.6311 -3.78224 7.89581e-19)
(22.5657 -3.75971 -3.19895e-19)
(22.5006 -3.73873 1.68052e-19)
(18.6722 -2.19878 6.62201e-20)
(21.0926 -2.93242 -1.14267e-19)
(22.8663 -3.61836 7.58154e-20)
(23.6196 -3.94192 0)
(23.7177 -3.9715 9.7854e-20)
(23.7076 -3.96632 0)
(23.6681 -3.96329 -2.31503e-19)
(23.6102 -3.95775 -9.85941e-21)
(23.5426 -3.94981 0)
(23.4708 -3.94014 2.53247e-19)
(23.3984 -3.92763 -2.43127e-19)
(23.3239 -3.91232 -1.30084e-19)
(23.2483 -3.89686 1.30836e-19)
(23.1743 -3.88155 1.35172e-19)
(23.1048 -3.86445 1.42199e-19)
(23.0345 -3.84502 -2.75027e-19)
(22.9648 -3.82578 -1.45049e-19)
(22.8983 -3.806 1.52544e-19)
(22.8315 -3.78497 1.62567e-19)
(22.7648 -3.76442 -6.20462e-19)
(22.6985 -3.74443 3.10518e-19)
(22.6326 -3.7253 -1.5974e-19)
(22.5735 -3.70582 0)
(22.5119 -3.68827 -3.45391e-19)
(-0.0232995 1.78631 -5.22843e-19)
(0.945412 2.05624 -2.15975e-17)
(2.47039 2.781 2.73847e-19)
(4.11824 3.70506 4.35395e-18)
(5.79789 4.64351 0)
(7.50347 5.61867 -7.10066e-20)
(9.18517 6.64268 0)
(10.8397 7.6708 -4.8879e-20)
(12.4503 8.66546 8.15845e-20)
(13.9907 9.59089 0)
(15.4296 10.4164 -8.55294e-19)
(16.7391 11.1173 9.56824e-19)
(17.8969 11.6743 4.94453e-20)
(18.8885 12.0752 0)
(19.7105 12.3157 0)
(20.3695 12.4005 -3.35661e-19)
(20.8821 12.343 3.66336e-19)
(21.2719 12.1641 -1.73847e-19)
(21.5664 11.8899 -3.40762e-19)
(21.7927 11.5478 3.10482e-19)
(21.9742 11.1629 0)
(22.1286 10.7563 -1.71878e-19)
(22.2675 10.3428 4.99881e-20)
(22.4039 9.92129 0)
(-9.58353 2.32388 -3.72512e-19)
(-9.00023 2.25182 -5.28217e-19)
(-7.94339 2.19311 0)
(-6.67637 2.30003 -5.55665e-18)
(-5.18022 2.53753 8.40966e-18)
(-3.39489 2.88227 -3.10328e-18)
(-1.28946 3.32227 0)
(1.03885 3.87951 -2.28421e-18)
(3.52054 4.55725 1.85882e-18)
(6.07937 5.34715 -1.43367e-18)
(8.62416 6.22912 1.46128e-18)
(11.076 7.1644 -1.3915e-19)
(13.3659 8.10284 -1.15383e-19)
(15.4353 8.98913 8.77361e-19)
(17.2392 9.77107 -8.09479e-19)
(18.7496 10.4052 0)
(19.9593 10.8623 -6.97831e-19)
(20.8821 11.1306 1.14711e-18)
(21.5511 11.2164 -5.11613e-19)
(22.0135 11.1422 -1.2955e-19)
(22.322 10.9407 0)
(22.5265 10.6484 3.96519e-19)
(22.6686 10.3005 -2.07949e-19)
(22.782 9.90592 0)
(-4.52787 1.36792 5.36055e-19)