/*--------------------------------*- C++ -*----------------------------------*\
| =========                 |                                                 |
| \\      /  F ield         | OpenFOAM: The Open Source CFD Toolbox           |
|  \\    /   O peration     | Version:  2.3.0                                 |
|   \\  /    A nd           | Web:      www.OpenFOAM.org                      |
|    \\/     M anipulation  |                                                 |
\*---------------------------------------------------------------------------*/
FoamFile
{
    version     2.0;
    format      ascii;
    class       volScalarField;
    location    "2000";
    object      nut;
}
// * * * * * * * * * * * * * * * * * * * * * * * * * * * * * * * * * * * * * //

dimensions      [0 2 -1 0 0 0 0];

internalField   nonuniform List<scalar> 
38546
(
0.0721163
0.0704426
0.068756
0.0670629
0.0653648
0.063663
0.061959
0.0602535
0.0585475
0.0568423
0.0551388
0.0534379
0.0517405
0.0500472
0.0483588
0.046676
0.0449997
0.0433307
0.041669
0.040015
0.0383696
0.0367328
0.0351051
0.0334867
0.0318784
0.0302804
0.0286933
0.0271175
0.0255533
0.0240022
0.0224651
0.0209429
0.0194371
0.0179522
0.0164908
0.015057
0.0136587
0.0123044
0.011008
0.00978201
0.0086309
0.00748389
0.00577531
0.0730618
0.0715632
0.0700562
0.068544
0.0670273
0.0655065
0.0639821
0.0624551
0.0609258
0.0593949
0.0578629
0.0563305
0.0547979
0.0532656
0.051734
0.0502037
0.0486754
0.0471495
0.045626
0.0441054
0.0425881
0.0410744
0.039565
0.0380601
0.0365606
0.0350669
0.0335805
0.0321021
0.0306334
0.029177
0.0277349
0.0263095
0.0249062
0.0235311
0.0221895
0.0208911
0.0196478
0.0184719
0.0173798
0.0163878
0.0155155
0.014779
0.0141888
0.0739412
0.0726
0.0712506
0.0698961
0.0685365
0.067172
0.065803
0.0644297
0.0630525
0.0616717
0.0602876
0.0589006
0.0575105
0.0561177
0.0547225
0.0533255
0.0519269
0.0505269
0.049126
0.0477246
0.0463229
0.044922
0.0435219
0.0421233
0.0407272
0.0393344
0.0379465
0.0365651
0.0351927
0.0338317
0.0324851
0.0311569
0.0298527
0.0285781
0.0273404
0.0261496
0.0250151
0.0239484
0.0229632
0.0220716
0.0212862
0.0206173
0.0200738
0.0747583
0.0735571
0.0723463
0.0711288
0.0699053
0.068676
0.0674406
0.0661996
0.0649529
0.0637004
0.0624429
0.0611802
0.0599119
0.0586384
0.0573597
0.0560761
0.0547878
0.0534953
0.0521991
0.0508995
0.0495969
0.0482924
0.046986
0.0456786
0.0443711
0.0430651
0.0417619
0.0404633
0.0391717
0.0378905
0.0366227
0.0353727
0.0341459
0.0329478
0.0317861
0.0306693
0.0296062
0.028608
0.027686
0.0268493
0.0261079
0.025471
0.024944
0.0755237
0.0744405
0.0733493
0.0722508
0.0711454
0.0700325
0.0689123
0.0677847
0.0666495
0.0655072
0.0643576
0.0632007
0.0620365
0.0608646
0.0596847
0.0584973
0.0573025
0.0561007
0.0548929
0.0536794
0.0524605
0.0512373
0.05001
0.0487798
0.0475477
0.0463147
0.0450826
0.0438533
0.0426297
0.0414146
0.0402115
0.0390243
0.0378586
0.03672
0.035615
0.034552
0.0335396
0.0325884
0.031707
0.0309044
0.0301908
0.0295721
0.0290547
0.0762337
0.0752528
0.0742653
0.0732703
0.072267
0.0712549
0.0702341
0.0692038
0.0681645
0.0671159
0.0660581
0.0649914
0.063916
0.0628307
0.0617353
0.0606296
0.0595136
0.0583886
0.057255
0.0561134
0.0549646
0.0538097
0.0526489
0.051484
0.0503154
0.0491438
0.0479707
0.0467989
0.0456315
0.0444714
0.043322
0.0421866
0.0410701
0.0399781
0.0389174
0.0378951
0.0369203
0.0360021
0.0351489
0.0343703
0.0336748
0.0330684
0.032557
0.0768805
0.075995
0.0750995
0.0741949
0.0732802
0.0723557
0.071421
0.0704745
0.0695174
0.0685488
0.0675691
0.0665791
0.0655793
0.0645688
0.0635459
0.0625097
0.061461
0.0604007
0.0593297
0.0582482
0.0571577
0.0560596
0.0549549
0.0538452
0.0527305
0.0516113
0.0504881
0.0493639
0.0482425
0.0471283
0.0460242
0.0449329
0.0438573
0.0428034
0.0417777
0.0407877
0.0398412
0.0389474
0.0381152
0.0373537
0.0366712
0.0360742
0.0355671
0.0774755
0.0766734
0.0758582
0.0750325
0.0741951
0.0733459
0.0724876
0.0716117
0.0707267
0.0698263
0.0689136
0.0679876
0.0670517
0.0661061
0.0651475
0.0641709
0.0631795
0.062173
0.061156
0.0601259
0.0590828
0.0580318
0.056974
0.0559099
0.0548412
0.0537683
0.0526894
0.0516042
0.0505197
0.0494424
0.0483772
0.0473253
0.0462856
0.0452636
0.044266
0.0433031
0.042378
0.041502
0.0406851
0.0399363
0.0392641
0.0386757
0.0381721
0.0780266
0.0772944
0.0765468
0.0757884
0.0750202
0.0742323
0.073451
0.0726274
0.0718093
0.0709638
0.07011
0.0692357
0.0683504
0.0674569
0.0665592
0.0656349
0.0646975
0.0637335
0.0627619
0.0617797
0.0607723
0.0597577
0.0587382
0.0577088
0.0566756
0.0556433
0.0546074
0.053555
0.0524973
0.051447
0.0504125
0.0493994
0.0483968
0.0474045
0.0464289
0.0454897
0.0445821
0.0437217
0.0429174
0.0421784
0.0415139
0.040938
0.0404353
0.00492009
0.00535967
0.00601135
0.00669318
0.00737934
0.00806687
0.00875477
0.00944427
0.0101377
0.0108381
0.0115487
0.012273
0.0130143
0.0137742
0.0145563
0.0153619
0.0161918
0.0170475
0.0179281
0.0188341
0.0197642
0.0207158
0.0216868
0.0226731
0.0236751
0.0246998
0.0257628
0.0268688
0.0280154
0.0291975
0.0304136
0.0316632
0.0329452
0.0342567
0.0355957
0.0369608
0.038351
0.0397655
0.041203
0.0426629
0.044145
0.0456494
0.0471773
0.0137549
0.0134771
0.0133493
0.0133566
0.013488
0.0137267
0.0140606
0.0144753
0.014962
0.0155093
0.0161104
0.0167582
0.0174469
0.0181738
0.0189334
0.0197241
0.0205427
0.021388
0.0222585
0.0231518
0.0240672
0.0250035
0.0259583
0.0269323
0.0279251
0.0289383
0.0299732
0.0310297
0.0321074
0.0332063
0.0343249
0.0354642
0.0366233
0.0378017
0.0389991
0.0402152
0.0414496
0.0427022
0.0439723
0.0452596
0.046564
0.047887
0.0492354
0.0196519
0.0193486
0.0191618
0.0190916
0.0191306
0.0192732
0.0195076
0.0198266
0.0202188
0.0206772
0.0211921
0.0217589
0.0223705
0.0230218
0.0237087
0.0244284
0.0251775
0.025953
0.0267533
0.0275763
0.0284205
0.029284
0.0301669
0.0310667
0.0319839
0.0329179
0.0338685
0.0348351
0.0358173
0.0368148
0.0378273
0.0388546
0.0398967
0.0409531
0.0420239
0.0431088
0.0442081
0.0453211
0.0464476
0.0475871
0.0487392
0.0499032
0.051079
0.0245263
0.0242137
0.0240072
0.0239061
0.0239067
0.0240034
0.0241887
0.0244537
0.024791
0.0251925
0.0256517
0.0261619
0.0267165
0.027311
0.0279416
0.0286038
0.0292941
0.0300112
0.0307512
0.0315124
0.0322932
0.0330918
0.0339069
0.0347372
0.0355819
0.0364406
0.037312
0.0381961
0.0390917
0.0399991
0.0409179
0.0418478
0.0427886
0.0437404
0.0447029
0.0456762
0.0466603
0.0476544
0.0486585
0.0496718
0.0506937
0.0517226
0.0527556
0.0286381
0.0283205
0.0281028
0.0279847
0.0279629
0.0280322
0.0281852
0.0284154
0.0287155
0.0290782
0.0294975
0.0299658
0.0304783
0.03103
0.0316168
0.032234
0.0328791
0.033549
0.0342403
0.0349514
0.0356795
0.0364235
0.0371814
0.0379523
0.0387351
0.0395288
0.0403324
0.0411456
0.0419676
0.0427985
0.0436377
0.0444849
0.0453404
0.0462035
0.0470745
0.0479536
0.04884
0.0497332
0.050633
0.0515388
0.0524496
0.0533648
0.0542829
0.0321416
0.0318214
0.0315973
0.0314689
0.0314327
0.0314834
0.0316152
0.0318211
0.032094
0.0324286
0.0328175
0.0332543
0.0337344
0.034253
0.0348055
0.0353884
0.0359975
0.0366294
0.037281
0.0379503
0.0386351
0.0393329
0.0400433
0.0407642
0.0414947
0.0422333
0.0429795
0.0437331
0.0444932
0.0452595
0.0460318
0.0468096
0.0475927
0.0483814
0.0491759
0.049975
0.0507786
0.0515863
0.052397
0.0532109
0.0540269
0.054844
0.0556627
0.0351528
0.0348309
0.0346031
0.0344677
0.034422
0.0344604
0.0345767
0.0347638
0.0350163
0.035329
0.0356947
0.0361076
0.0365619
0.0370538
0.0375812
0.0381374
0.0387174
0.0393173
0.0399351
0.0405698
0.0412182
0.0418776
0.0425478
0.0432271
0.0439132
0.0446053
0.0453028
0.0460065
0.0467145
0.0474265
0.0481424
0.0488613
0.0495837
0.0503102
0.05104
0.0517716
0.0525046
0.053239
0.053974
0.0547091
0.0554431
0.0561755
0.0569072
0.0377584
0.037435
0.0372054
0.0370653
0.0370152
0.0370453
0.0371481
0.037319
0.0375544
0.0378525
0.0382007
0.0385921
0.0390248
0.0394978
0.0400089
0.0405425
0.0410961
0.0416677
0.0422563
0.0428645
0.0434815
0.0441074
0.0447452
0.0453894
0.0460371
0.0466886
0.0473447
0.0480093
0.0486714
0.0493376
0.0500065
0.0506754
0.0513462
0.0520217
0.052697
0.0533702
0.0540433
0.0547147
0.0553848
0.0560528
0.0567156
0.0573731
0.058028
0.0400245
0.0396981
0.0394725
0.0393256
0.0392817
0.0393024
0.0393905
0.0395451
0.0397675
0.040062
0.0403893
0.0407591
0.0411761
0.0416377
0.0421461
0.042646
0.0431775
0.0437219
0.0442856
0.0448782
0.0454588
0.0460593
0.0466753
0.0472849
0.047898
0.0485156
0.0491372
0.0497764
0.050387
0.0510244
0.0516516
0.0522761
0.0529053
0.0535437
0.0541679
0.0547912
0.0554161
0.0560329
0.056648
0.0572606
0.0578595
0.0584531
0.059044
0.0203917
0.0192817
0.0182163
0.0171936
0.0162125
0.0152719
0.0143707
0.0135079
0.0126822
0.0118928
0.0111386
0.0104189
0.0097326
0.00907915
0.00845768
0.00786765
0.00730876
0.00678072
0.00628396
0.00581966
0.00538989
0.00499843
0.00465167
0.0043533
0.00409376
0.00386179
0.00364906
0.00344994
0.00326054
0.00307756
0.00289862
0.00272109
0.00254281
0.00236169
0.00217559
0.00198236
0.00177989
0.00156632
0.00133986
0.00109834
0.000836783
0.00058871
0.000912833
0.0203646
0.0193372
0.0183482
0.0173955
0.0164782
0.0155951
0.0147454
0.0139281
0.0131423
0.0123873
0.0116623
0.0109665
0.010299
0.0096595
0.00904727
0.00846186
0.00790279
0.00736989
0.00686312
0.0063831
0.00593105
0.00550904
0.00512099
0.00477276
0.00446808
0.00419951
0.00395829
0.00373726
0.00353084
0.00333474
0.00314543
0.00295985
0.00277544
0.00258949
0.0023996
0.00220314
0.00199769
0.00178089
0.00155065
0.00130828
0.0011146
0.00148362
0.00279303
0.0203406
0.0193959
0.0184809
0.0175956
0.0167395
0.0159117
0.0151114
0.0143379
0.0135905
0.0128686
0.0121717
0.0114989
0.01085
0.0102244
0.00962158
0.00904117
0.008483
0.00794675
0.00743236
0.00694026
0.00647087
0.00602547
0.0056065
0.00521834
0.00486804
0.00455819
0.00428143
0.00403092
0.0038007
0.00358573
0.00338157
0.00318434
0.00299071
0.00279753
0.0026018
0.0024006
0.00219094
0.00197009
0.00173849
0.00153291
0.00170499
0.00299779
0.00488506
0.0203224
0.0194519
0.018605
0.0177817
0.0169818
0.0162048
0.01545
0.014717
0.0140053
0.0133141
0.0126433
0.0119924
0.011361
0.0107487
0.0101554
0.00958048
0.00902403
0.00848588
0.00796591
0.00746449
0.00698187
0.00651892
0.00607719
0.00565943
0.00527144
0.00492115
0.00460718
0.00432361
0.00406498
0.00382649
0.0036033
0.00339096
0.00318539
0.00298272
0.00277944
0.00257206
0.00235724
0.00213266
0.00190999
0.00183754
0.00264218
0.00463852
0.00684474
0.0203104
0.0195048
0.0187192
0.0179522
0.0172036
0.016473
0.0157597
0.0150637
0.0143845
0.0137217
0.0130752
0.0124445
0.0118294
0.0112299
0.0106457
0.0100766
0.00952262
0.00898365
0.00845968
0.00795099
0.007458
0.0069813
0.00652179
0.0060817
0.00566481
0.00527867
0.00492939
0.00461254
0.00432365
0.00405864
0.0038132
0.00358278
0.00336276
0.00314872
0.00293639
0.00272175
0.00250112
0.00227446
0.00208002
0.00226391
0.00373482
0.00616682
0.00860443
0.0202992
0.0195544
0.0188243
0.0181083
0.0174062
0.0167176
0.0160423
0.01538
0.0147306
0.0140939
0.0134695
0.0128575
0.0122577
0.0116701
0.0110945
0.0105311
0.00997972
0.00944061
0.00891382
0.00839947
0.00789811
0.00741018
0.00693647
0.00647861
0.00603937
0.0056243
0.00524251
0.00489424
0.0045754
0.00428289
0.00401334
0.00376262
0.00352608
0.00329896
0.00307636
0.00285363
0.00262698
0.00240065
0.00226081
0.00279096
0.00481639
0.00753451
0.0101649
0.0202923
0.019601
0.0189209
0.0182511
0.0175913
0.0169408
0.0163
0.0156685
0.0150464
0.0144335
0.0138295
0.0132347
0.012649
0.0120724
0.011505
0.0109471
0.0103987
0.00985968
0.00933062
0.00881162
0.00830322
0.00780598
0.00732046
0.00684794
0.00639056
0.00595256
0.00554216
0.00516526
0.0048183
0.00449892
0.00420479
0.00393264
0.00367826
0.00343673
0.0032027
0.00297113
0.00273833
0.00251563
0.00245812
0.00336691
0.0058132
0.00874616
0.011544
0.0202862
0.0196439
0.0190093
0.0183815
0.0177604
0.017145
0.0165352
0.0159323
0.0153355
0.0147444
0.0141592
0.0135805
0.0130079
0.0124413
0.0118814
0.0113289
0.0107837
0.0102453
0.0097139
0.0091903
0.0086758
0.00817074
0.00767532
0.00719029
0.00671735
0.0062598
0.00582495
0.00542234
0.00504961
0.00470459
0.00438633
0.0040928
0.0038199
0.00356302
0.00331727
0.00307683
0.00283769
0.0026217
0.00266842
0.00394393
0.00670933
0.0098182
0.0127622
0.020279
0.019682
0.0190891
0.0184988
0.0179162
0.0173339
0.0167499
0.0161741
0.0156037
0.0150341
0.0144663
0.0139038
0.0133455
0.012788
0.0122334
0.0116863
0.011147
0.0106138
0.0100807
0.00954847
0.00902703
0.00851678
0.00801597
0.00752519
0.00704371
0.0065665
0.00610421
0.00567563
0.00528345
0.00491431
0.0045677
0.00424954
0.00395924
0.00368509
0.00342192
0.0031696
0.00292869
0.00272366
0.00290409
0.00453568
0.00752634
0.0107746
0.0138398
0.00181185
0.00263194
0.0032683
0.0038627
0.00460543
0.00544034
0.00633672
0.00728664
0.00828575
0.00933131
0.0104191
0.0115468
0.0127122
0.0139133
0.0151519
0.016426
0.0177374
0.0190871
0.020476
0.0219068
0.0233808
0.0249022
0.0264728
0.0280964
0.0297767
0.0315185
0.0333265
0.0352053
0.0371614
0.0392005
0.0413293
0.0435549
0.0458846
0.0483266
0.0508866
0.0535688
0.0563774
0.0593173
0.0623928
0.0656084
0.0689685
0.0724771
0.0761379
0.0042475
0.00549514
0.00657403
0.00753911
0.00842858
0.00926865
0.010112
0.0110238
0.012015
0.0130624
0.0141539
0.0152837
0.0164495
0.0176496
0.018882
0.0201468
0.021444
0.022774
0.0241391
0.0255403
0.0269802
0.0284609
0.029986
0.031558
0.0331816
0.0348596
0.0365969
0.0383981
0.0402681
0.042212
0.0442358
0.046345
0.0485463
0.0508461
0.0532489
0.0557575
0.058375
0.0611046
0.0639494
0.0669125
0.0699971
0.0732058
0.0765408
0.0066548
0.00822454
0.00962307
0.0108811
0.0120286
0.013093
0.0141013
0.015078
0.0160452
0.017028
0.0180498
0.0191197
0.0202328
0.0213836
0.0225684
0.0237865
0.025036
0.0263189
0.0276353
0.0289869
0.030376
0.0318036
0.0332725
0.0347863
0.0363475
0.0379596
0.0396261
0.0413508
0.0431377
0.0449915
0.0469163
0.0489173
0.0509993
0.0531677
0.0554259
0.0577755
0.0602186
0.062757
0.0653928
0.0681279
0.0709645
0.0739046
0.0769482
0.00886027
0.0106736
0.0123102
0.0137929
0.0151473
0.0163974
0.0175649
0.0186687
0.0197281
0.02076
0.0217821
0.0228097
0.0238571
0.0249363
0.0260521
0.0272042
0.028392
0.0296149
0.0308738
0.0321693
0.0335025
0.034875
0.0362885
0.0377448
0.039247
0.0407972
0.0423981
0.0440526
0.0457638
0.0475353
0.0493705
0.0512732
0.0532472
0.0552967
0.057424
0.0596301
0.0619159
0.0642819
0.0667293
0.0692593
0.0718734
0.0745739
0.0773603
0.0108274
0.012842
0.0146704
0.0163332
0.0178538
0.0192539
0.0205536
0.0217725
0.0229244
0.0240261
0.0250912
0.0261328
0.0271654
0.0282024
0.0292572
0.0303417
0.0314632
0.0326233
0.0338237
0.0350636
0.0363436
0.0376641
0.0390262
0.040431
0.04188
0.0433748
0.0449172
0.0465091
0.048153
0.0498514
0.0516066
0.0534215
0.0552987
0.0572415
0.0592518
0.0613295
0.0634744
0.065686
0.067964
0.0703092
0.0727236
0.0752096
0.077773
0.0125689
0.0147556
0.0167449
0.0185576
0.020215
0.0217388
0.0231486
0.0244621
0.025695
0.0268606
0.0279725
0.0290433
0.0300853
0.0311119
0.0321359
0.0331719
0.0342352
0.0353379
0.0364836
0.0376729
0.0389045
0.0401793
0.0414963
0.0428563
0.0442593
0.0457057
0.0471968
0.0487342
0.0503191
0.0519533
0.0536379
0.0553743
0.0571649
0.0590129
0.0609193
0.0628832
0.0649031
0.0669764
0.0691017
0.0712799
0.0735129
0.0758017
0.0781444
0.0141077
0.0164439
0.0185721
0.0205123
0.0222849
0.0239119
0.0254132
0.0268065
0.028107
0.0293282
0.0304821
0.0315825
0.0326415
0.0336707
0.0346819
0.0356903
0.0367142
0.0377702
0.0388691
0.0400135
0.0412036
0.0424386
0.0437182
0.0450406
0.0464035
0.047808
0.0492551
0.0507449
0.0522786
0.0538572
0.0554794
0.057145
0.0588579
0.060622
0.0624375
0.0643021
0.0662117
0.0681616
0.0701483
0.0721744
0.0742449
0.0763586
0.0785119
0.0154665
0.017935
0.020185
0.0222361
0.0241071
0.0258213
0.0273987
0.0288593
0.0302178
0.0314863
0.0326766
0.0338042
0.0348803
0.0359146
0.0369215
0.0379185
0.0389208
0.0399429
0.0410023
0.042108
0.0432616
0.0444643
0.0457152
0.0470061
0.0483321
0.049701
0.0511111
0.0525589
0.0540493
0.0555815
0.057147
0.0587457
0.0603889
0.0620805
0.0638182
0.0655979
0.0674121
0.0692515
0.0711086
0.0729947
0.074921
0.0768826
0.0788716
0.0166666
0.0192525
0.0216123
0.0237622
0.0257173
0.0275056
0.029144
0.0306627
0.0320736
0.0333832
0.0346018
0.0357501
0.0368376
0.0378757
0.0388822
0.0398894
0.0408761
0.0418709
0.0428988
0.043971
0.0450933
0.0462717
0.0475047
0.0487652
0.0500506
0.0513959
0.0527736
0.0541819
0.0556413
0.057138
0.0586445
0.0601751
0.0617622
0.0633954
0.0650696
0.0667809
0.0685142
0.0702523
0.071979
0.0737347
0.0755401
0.0773742
0.0792332
0.000330483
0.0015271
0.00290734
0.00436785
0.0058748
0.00741106
0.00896915
0.0105438
0.0121305
0.0137265
0.0153315
0.0169454
0.0185676
0.0201997
0.0218416
0.0234944
0.0251577
0.0268316
0.0285173
0.0302142
0.0319218
0.0336408
0.0353706
0.0371108
0.038861
0.0406211
0.0423901
0.044168
0.0459536
0.0477465
0.0495453
0.0513496
0.0531582
0.05497
0.056784
0.058599
0.0604137
0.0622268
0.0640371
0.0658433
0.0676437
0.0694379
0.0712225
0.000206387
0.00104729
0.00211526
0.00330904
0.0045939
0.00594903
0.0073608
0.00881865
0.0103159
0.011846
0.0134052
0.0149899
0.0165977
0.0182263
0.0198748
0.0215418
0.0232253
0.0249253
0.026641
0.0283712
0.0301153
0.0318731
0.0336433
0.0354254
0.0372191
0.0390234
0.0408377
0.0426607
0.0444921
0.0463308
0.0481756
0.0500259
0.0518802
0.0537375
0.0555966
0.0574566
0.0593156
0.0611724
0.0630261
0.0648748
0.0667172
0.0685516
0.0703735
0.000158985
0.000854078
0.00173669
0.00275167
0.0038727
0.00508147
0.00636443
0.00771125
0.00911389
0.0105653
0.01206
0.0135928
0.0151603
0.0167591
0.0183867
0.0200399
0.0217174
0.0234172
0.0251377
0.0268774
0.0286349
0.0304092
0.0321993
0.0340043
0.0358224
0.0376533
0.0394957
0.0413483
0.0432105
0.0450808
0.0469583
0.0488415
0.0507294
0.0526207
0.0545141
0.056408
0.0583015
0.0601928
0.0620806
0.0639632
0.0658391
0.0677066
0.0695616
0.000143702
0.000702904
0.00146897
0.00236934
0.00338053
0.00448526
0.00567056
0.00692694
0.00824664
0.00962299
0.0110505
0.0125246
0.0140415
0.0155973
0.0171888
0.0188135
0.0204686
0.0221519
0.0238615
0.0255951
0.0273514
0.0291288
0.0309256
0.0327404
0.0345714
0.0364177
0.0382777
0.0401503
0.042034
0.0439275
0.0458295
0.0477386
0.0496531
0.051572
0.0534936
0.0554166
0.0573393
0.0592603
0.0611779
0.0630907
0.064997
0.0668948
0.0687826
0.000156717
0.000615372
0.00130727
0.00212571
0.00305204
0.00407164
0.0051735
0.0063495
0.00759261
0.00889743
0.0102592
0.0116734
0.0131359
0.0146435
0.0161934
0.0177819
0.0194065
0.0210649
0.0227545
0.0244732
0.0262195
0.0279907
0.029785
0.031601
0.0334368
0.0352904
0.0371605
0.0390457
0.0409442
0.0428543
0.0447748
0.0467038
0.0486396
0.050581
0.0525264
0.0544739
0.056422
0.0583688
0.0603132
0.0622531
0.0641872
0.0661142
0.0680359
0.000164355
0.000558277
0.00119577
0.00195092
0.00280979
0.00375974
0.00479193
0.00589911
0.00707532
0.00831592
0.00961703
0.0109743
0.012384
0.0138436
0.0153497
0.0168992
0.0184897
0.0201187
0.0217832
0.0234813
0.0252111
0.0269699
0.0287556
0.0305665
0.0324004
0.0342552
0.0361298
0.0380219
0.0399296
0.0418512
0.0437851
0.0457292
0.0476821
0.0496419
0.0516068
0.0535752
0.0555451
0.0575149
0.0594828
0.0614471
0.0634061
0.0653575
0.0672964
0.000168313
0.00051363
0.00110788
0.00181285
0.00261746
0.00351072
0.00448496
0.00553386
0.00665242
0.00783657
0.009083
0.0103877
0.011748
0.0131611
0.0146241
0.0161343
0.0176891
0.0192863
0.0209229
0.0225969
0.0243062
0.0260482
0.0278207
0.0296219
0.0314492
0.0333012
0.0351752
0.0370695
0.0389819
0.0409106
0.0428535
0.0448092
0.0467751
0.0487496
0.0507309
0.0527168
0.0547055
0.0566953
0.0586843
0.0606704
0.0626519
0.0646262
0.0665862
0.000171155
0.000478679
0.0010365
0.00170032
0.00245998
0.0033059
0.00423105
0.0052299
0.00629825
0.00743271
0.00862991
0.00988709
0.0112016
0.0125709
0.0139928
0.0154641
0.0169835
0.018548
0.0201551
0.021803
0.0234894
0.0252117
0.0269681
0.028756
0.0305734
0.0324181
0.034288
0.0361807
0.0380941
0.0400261
0.041975
0.0439384
0.0459141
0.0479004
0.0498949
0.0518954
0.0539006
0.0559077
0.0579151
0.0599209
0.0619231
0.0639204
0.0659094
0.00017327
0.000450361
0.000977184
0.00160644
0.00232812
0.00313356
0.00401636
0.00497178
0.00599618
0.00708632
0.00823945
0.00945355
0.0107259
0.0120545
0.0134371
0.0148715
0.0163557
0.0178878
0.019465
0.0210858
0.0227479
0.0244488
0.0261866
0.027959
0.0297634
0.0315982
0.0334609
0.0353489
0.0372605
0.0391932
0.0411447
0.043113
0.0450957
0.0470906
0.0490956
0.0511086
0.0531273
0.0551497
0.0571735
0.0591966
0.0612171
0.0632327
0.0652354
0.000174915
0.000426476
0.000926752
0.00152654
0.00221562
0.00298595
0.00383177
0.00474894
0.00573432
0.00678481
0.00789838
0.00907307
0.0103067
0.0115973
0.0129433
0.0143423
0.015793
0.0172933
0.0188409
0.0204345
0.0220717
0.02375
0.0254678
0.0272228
0.0290127
0.0308353
0.0326883
0.0345695
0.0364766
0.0384071
0.0403588
0.0423293
0.0443163
0.0463176
0.0483309
0.0503537
0.0523841
0.0544194
0.0564573
0.0584962
0.0605339
0.0625684
0.0645976
0.000176043
0.000405583
0.00088276
0.00145695
0.00211755
0.0028571
0.00367037
0.00455381
0.00550419
0.00651929
0.00759701
0.00873572
0.00993368
0.0111892
0.0125006
0.0138664
0.0152852
0.0167548
0.0182736
0.0198399
0.0214519
0.0231072
0.0248042
0.0265408
0.0283146
0.0301234
0.0319653
0.0338374
0.0357379
0.0376641
0.0396137
0.0415843
0.0435736
0.0455791
0.0475983
0.049629
0.0516687
0.0537147
0.0557653
0.0578179
0.0598702
0.0619203
0.0639625
0.000177019
0.000387601
0.000844455
0.00139585
0.0020313
0.00274353
0.00352781
0.00438087
0.00529988
0.00628286
0.00732807
0.00843388
0.00959891
0.0108218
0.0121011
0.0134355
0.0148238
0.0162641
0.0177548
0.0192944
0.0208815
0.0225139
0.0241896
0.0259069
0.0276635
0.0294576
0.0312866
0.0331484
0.0350405
0.0369607
0.0389065
0.0408754
0.042865
0.0448726
0.0468958
0.0489326
0.0509795
0.0530349
0.0550959
0.0571601
0.0592253
0.0612879
0.0633401
0.000177895
0.000371713
0.000811044
0.00134175
0.0019546
0.0026423
0.00340052
0.00422618
0.00511667
0.00607046
0.00708591
0.00816162
0.00929626
0.0104888
0.0117381
0.013043
0.0144021
0.0158143
0.0172782
0.0187921
0.0203546
0.021964
0.0236184
0.0253161
0.0270551
0.0288335
0.0306488
0.0324988
0.0343812
0.036294
0.0382343
0.0401997
0.0421879
0.0441959
0.0462218
0.0482625
0.0503154
0.052378
0.0544478
0.0565224
0.0585994
0.0606767
0.0627515
0.00017868
0.000357878
0.000781454
0.00129322
0.00188572
0.00255135
0.00328602
0.00408671
0.0049514
0.00587854
0.00686664
0.00791445
0.00902094
0.0101853
0.0114065
0.0126834
0.014015
0.0154005
0.0168383
0.0183273
0.0198659
0.0214526
0.0230858
0.0247639
0.026485
0.028247
0.0300478
0.0318852
0.0337572
0.0356612
0.0375945
0.0395552
0.0415405
0.0435476
0.0455743
0.0476174
0.0496745
0.0517431
0.0538202
0.0559035
0.05799
0.0600769
0.0621575
0.000179518
0.000345512
0.000754868
0.00124943
0.00182342
0.00246891
0.00318211
0.00396012
0.0048011
0.00570359
0.00666636
0.00768844
0.0087689
0.00990682
0.0111016
0.0123525
0.0136582
0.015018
0.0164308
0.0178957
0.0194111
0.0209756
0.0225881
0.0242466
0.0259494
0.0276949
0.0294805
0.0313048
0.0331653
0.0350595
0.0369851
0.0389399
0.0409209
0.0429259
0.0449518
0.046996
0.0490563
0.0511291
0.0532122
0.0553024
0.0573971
0.0594933
0.0615866
0.000180238
0.000334233
0.00073061
0.00120957
0.0017667
0.00239391
0.00308735
0.00384456
0.00466361
0.00554338
0.00648275
0.00748086
0.00853696
0.00965023
0.0108202
0.0120463
0.0133274
0.014663
0.0160522
0.0174938
0.0189866
0.0205297
0.0221214
0.0237604
0.0254452
0.0271739
0.0289443
0.0307548
0.0326032
0.034487
0.0364039
0.0383515
0.0403275
0.0423288
0.044353
0.0463973
0.0484589
0.0505349
0.0526225
0.0547186
0.0568201
0.0589243
0.0610263
0.000180912
0.000324051
0.000708567
0.00117303
0.00171478
0.00232518
0.00300047
0.00373834
0.00453725
0.00539604
0.00631359
0.00728932
0.00832257
0.00941275
0.0105595
0.0117621
0.0130199
0.0143325
0.0156988
0.017118
0.0185892
0.0201111
0.0216828
0.0233028
0.0249696
0.0266815
0.0284364
0.0302328
0.0320685
0.0339413
0.0358487
0.0377886
0.0397583
0.0417552
0.0437765
0.0458197
0.0478817
0.0499595
0.0520506
0.0541513
0.056259
0.0583702
0.0604805
0.000181515
0.000314722
0.000688414
0.00113977
0.001667
0.00226177
0.00292029
0.00364035
0.00442056
0.0052597
0.00615702
0.00711184
0.0081237
0.00919222
0.0103171
0.0114974
0.0127332
0.0140237
0.0153682
0.016766
0.0182161
0.0197178
0.0212698
0.022871
0.02452
0.0262151
0.0279546
0.0297365
0.0315591
0.0334205
0.0353181
0.0372494
0.0392122
0.0412038
0.0432213
0.0452623
0.0473235
0.0494024
0.0514957
0.0536003
0.0557131
0.0578309
0.0599493
0.000182115
0.00030625
0.000670011
0.00110931
0.00162279
0.00220309
0.00284611
0.00354969
0.00431237
0.00513308
0.00601136
0.00694667
0.00793844
0.00898662
0.0100906
0.0112501
0.0124648
0.0137341
0.0150577
0.016435
0.017865
0.0193469
0.0208799
0.0224628
0.0240942
0.0257726
0.0274964
0.029264
0.0310736
0.0329231
0.0348101
0.0367324
0.0386877
0.0406732
0.0426862
0.0447241
0.0467838
0.0488625
0.0509573
0.0530647
0.0551818
0.0573055
0.0594315
0.000182669
0.000298383
0.000652933
0.00108106
0.00158176
0.00214861
0.00277712
0.00346521
0.00421159
0.00501521
0.00587572
0.00679249
0.00776528
0.00879405
0.00987838
0.0110181
0.0122128
0.013462
0.0147658
0.0161231
0.0175337
0.0189966
0.020511
0.0220759
0.0236899
0.0253519
0.0270603
0.0288137
0.03061
0.0324472
0.0343235
0.0362363
0.0381835
0.0401623
0.04217
0.044204
0.0462614
0.0483393
0.0504346
0.0525439
0.0546644
0.056793
0.058925
0.000183188
0.00029152
0.00063717
0.00105486
0.00154362
0.00209782
0.00271265
0.00338622
0.00411727
0.00490496
0.00574874
0.0066481
0.00760312
0.00861363
0.00967932
0.0108002
0.0119756
0.0132059
0.0144904
0.0158287
0.0172205
0.0186649
0.0201613
0.0217085
0.0233058
0.0249515
0.0266447
0.0283838
0.0301666
0.0319915
0.0338566
0.0357596
0.0376983
0.0396697
0.0416716
0.0437013
0.0457556
0.0478319
0.0499268
0.0520373
0.0541602
0.0562921
0.0584279
0.000184042
0.000286753
0.000622551
0.00103044
0.00150805
0.00205031
0.00265243
0.00331241
0.00402904
0.00480152
0.00562945
0.00651254
0.00745082
0.0084439
0.00949179
0.0105946
0.0117519
0.0129639
0.01423
0.0155502
0.0169237
0.0183504
0.019829
0.0213594
0.0229399
0.02457
0.026248
0.0279725
0.0297419
0.0315546
0.0334084
0.0353014
0.0372308
0.0391947
0.0411903
0.0432149
0.0452656
0.0473395
0.0494336
0.0515443
0.0536688
0.0558029
0.0579415
0.000185559
0.000285389
0.000609043
0.00100768
0.00147466
0.0020058
0.00259601
0.00324321
0.00394617
0.00470429
0.00551725
0.00638496
0.00730713
0.00828371
0.00931479
0.0104003
0.0115404
0.0127348
0.0139835
0.0152859
0.0166421
0.0180513
0.0195132
0.0210267
0.0225912
0.0242055
0.0258686
0.027579
0.0293351
0.0311353
0.0329777
0.0348601
0.0367805
0.0387364
0.0407252
0.0427443
0.0447908
0.0468617
0.048954
0.0510647
0.0531901
0.0553269
0.057469
0.000187692
0.000286412
0.000596561
0.000986337
0.00144346
0.00196402
0.00254293
0.00317794
0.00386805
0.00461257
0.00541143
0.00626442
0.00717137
0.00813234
0.00914748
0.0102166
0.01134
0.0125177
0.0137495
0.0150349
0.0163742
0.0177668
0.0192121
0.0207095
0.022258
0.0238572
0.0255056
0.0272019
0.0289447
0.0307325
0.0325633
0.0344353
0.0363463
0.0382938
0.0402754
0.0422885
0.0443302
0.0463979
0.0484882
0.0505981
0.0527245
0.0548648
0.0570171
0.000190035
0.000288547
0.000584996
0.000966425
0.00141432
0.00192467
0.00249275
0.00311629
0.00379425
0.0045261
0.00531151
0.00615056
0.00704293
0.00798895
0.00898874
0.0100422
0.0111498
0.0123113
0.0135268
0.0147962
0.0161191
0.0174954
0.0189247
0.0204063
0.0219395
0.0235237
0.0251577
0.0268402
0.0285698
0.0303451
0.0321643
0.0340256
0.0359269
0.037866
0.03984
0.0418468
0.0438836
0.0459472
0.0480348
0.0501433
0.0522695
0.0544097
0.0565576
0.000192444
0.000290795
0.000574108
0.000947633
0.0013868
0.00188744
0.00244537
0.00305808
0.00372456
0.00444423
0.0052169
0.00604255
0.00692107
0.00785287
0.00883801
0.00987661
0.0109689
0.012115
0.0133148
0.0145685
0.0158756
0.0172363
0.0186501
0.0201163
0.0216346
0.0232041
0.0248238
0.0264925
0.0282091
0.0299721
0.0317799
0.0336304
0.035522
0.0374522
0.0394185
0.0414187
0.0434499
0.0455092
0.0475937
0.0497002
0.0518256
0.0539664
0.0561196
0.000194848
0.000293041
0.00056414
0.000930083
0.00136084
0.00185224
0.00240047
0.00300282
0.00365831
0.00436637
0.0051269
0.0059398
0.00680531
0.00772358
0.00869473
0.00971895
0.0107967
0.0119278
0.0131125
0.014351
0.015643
0.0169886
0.0183871
0.0198385
0.0213421
0.0228972
0.024503
0.0261583
0.0278621
0.0296129
0.0314091
0.0332489
0.0351305
0.0370516
0.0390101
0.0410034
0.0430288
0.0450834
0.0471642
0.0492683
0.051392
0.0535314
0.0556806
0.000197132
0.000294862
0.000554778
0.000913526
0.00133632
0.00181887
0.00235781
0.0029504
0.00359548
0.00429252
0.0050414
0.00584221
0.00669513
0.00760031
0.00855802
0.00956858
0.0106321
0.011749
0.0129192
0.0141431
0.0154205
0.0167512
0.0181352
0.0195722
0.0210615
0.0226026
0.0241946
0.0258367
0.0275278
0.0292663
0.031051
0.0328801
0.0347517
0.0366638
0.0386143
0.0406003
0.0426195
0.044669
0.0467459
0.0488471
0.0509691
0.0531083
0.0552601
0.000199091
0.0002962
0.00054586
0.000897772
0.00131294
0.00178697
0.00231716
0.00290041
0.00353554
0.00422211
0.00495995
0.00574917
0.00659005
0.00748263
0.00842749
0.00942481
0.0104749
0.0115781
0.0127344
0.0139442
0.0152072
0.0165238
0.0178936
0.0193165
0.0207918
0.0223191
0.0238976
0.0255268
0.0272052
0.0289318
0.0307051
0.0325234
0.0343851
0.0362881
0.0382302
0.0402088
0.0422217
0.0442659
0.0463386
0.0484366
0.0505568
0.0526956
0.0548486
0.000200833
0.000297364
0.000537454
0.000882868
0.00129081
0.00175682
0.0022786
0.00285284
0.00347844
0.00415488
0.00488209
0.0056603
0.00648963
0.00737034
0.00830281
0.00928737
0.0103246
0.0114143
0.0125571
0.0137532
0.0150026
0.0163054
0.0176615
0.0190705
0.0205321
0.0220461
0.0236117
0.0252279
0.0268941
0.0286088
0.0303707
0.0321784
0.03403
0.0359237
0.0378574
0.0398286
0.0418349
0.0438735
0.0459416
0.0480362
0.0501542
0.0522919
0.0544449
0.000202573
0.000298462
0.000529478
0.00086867
0.00126975
0.00172817
0.00224175
0.0028075
0.00342395
0.00409077
0.00480785
0.00557532
0.00639351
0.00726274
0.00818327
0.00915574
0.0101803
0.0112573
0.0123872
0.0135699
0.0148061
0.0160955
0.0174381
0.0188338
0.0202823
0.0217832
0.0233358
0.0249396
0.0265935
0.0282964
0.0300471
0.0318441
0.0336857