/*--------------------------------*- C++ -*----------------------------------*\
| =========                 |                                                 |
| \\      /  F ield         | OpenFOAM: The Open Source CFD Toolbox           |
|  \\    /   O peration     | Version:  2.3.0                                 |
|   \\  /    A nd           | Web:      www.OpenFOAM.org                      |
|    \\/     M anipulation  |                                                 |
\*---------------------------------------------------------------------------*/
FoamFile
{
    version     2.0;
    format      ascii;
    class       surfaceScalarField;
    location    "2000";
    object      phi;
}
// * * * * * * * * * * * * * * * * * * * * * * * * * * * * * * * * * * * * * //

dimensions      [0 3 -1 0 0 0 0];

internalField   nonuniform List<scalar> 
76752
(
0.00226533
-0.00343416
0.00372566
-0.00255675
0.00200547
-0.00326667
0.00352653
0.00177505
-0.00310607
0.00333649
0.00157334
-0.00295289
0.0031546
0.00139861
-0.00280599
0.00298072
0.00124943
-0.00266552
0.00281471
0.00112411
-0.00253095
0.00265626
0.00102167
-0.00240217
0.00250461
0.000940748
-0.00227872
0.00235964
0.000879779
-0.00216057
0.00222153
0.000837745
-0.0020475
0.00208953
0.000813741
-0.00193927
0.00196328
0.00080623
-0.0018353
0.00184282
0.000814591
-0.00173579
0.00172743
0.000837162
-0.00164028
0.00161771
0.000873692
-0.00154875
0.00151222
0.000922936
-0.00146126
0.00141202
0.000984289
-0.00137696
0.0013156
0.00105663
-0.00129608
0.00122374
0.00113936
-0.00121817
0.00113544
0.00123192
-0.00114355
0.00105099
0.00133341
-0.00107134
0.000969848
0.00144343
-0.00100199
0.000891973
0.00156164
-0.000935033
0.000816825
0.00168765
-0.000870648
0.000744638
0.00182047
-0.000807811
0.00067499
0.00196015
-0.000747763
0.000608082
0.00210643
-0.000688235
0.000541952
0.00225854
-0.000631306
0.000479199
0.00241794
-0.000576236
0.000416833
0.00258297
-0.000521783
0.000356753
0.00275439
-0.000468389
0.00029697
0.00293384
-0.000417101
0.000237648
0.00312111
-0.000367682
0.000180414
0.00331716
-0.000317624
0.000121578
0.00352454
-0.000269867
6.24879e-05
0.00374598
-0.000223818
2.37084e-06
0.00398612
-0.000178844
-6.1289e-05
0.00424929
-0.000135901
-0.00012727
0.00454541
-9.36079e-05
-0.00020252
0.00489119
-5.73952e-05
-0.000288384
0.00532354
-2.5705e-05
-0.000406644
-7.99807e-06
0.00596844
-0.000636899
0.00211974
-0.00316952
-0.00238438
0.00188363
-0.00303055
0.00167456
-0.00289701
0.0014909
-0.00276923
0.00133125
-0.00264635
0.001194
-0.00252827
0.00107856
-0.00241551
0.000983232
-0.00230684
0.000907327
-0.00220281
0.000849468
-0.00210271
0.000808842
-0.00200687
0.000784111
-0.00191454
0.000774592
-0.00182579
0.00077961
-0.00174081
0.000798048
-0.00165871
0.000829245
-0.00157995
0.000872081
-0.0015041
0.000926174
-0.00143105
0.000990484
-0.00136039
0.00106498
-0.00129267
0.00114827
-0.00122684
0.00124074
-0.00116381
0.00134113
-0.00110239
0.00144929
-0.00104319
0.00156441
-0.000985771
0.00168643
-0.000929829
0.0018152
-0.000876531
0.00195084
-0.000823875
0.00209332
-0.000773785
0.00224133
-0.00072425
0.00239625
-0.000676701
0.00255802
-0.000630159
0.00272739
-0.000586472
0.00290316
-0.000543453
0.00308825
-0.000502718
0.00328408
-0.000465691
0.00349051
-0.000430247
0.00371043
-0.000398768
0.00394679
-0.000372263
0.00420447
-0.000351284
0.00448662
-0.000339544
0.00479778
-0.000336875
-0.000349381
0.00513917
0.00197452
-0.00293046
-0.00221358
0.0017606
-0.00281663
0.00157074
-0.00270715
0.00140297
-0.00260145
0.00125698
-0.00250036
0.0011316
-0.00240289
0.00102524
-0.00230915
0.000937313
-0.00221891
0.000866517
-0.00213202
0.000812133
-0.00204832
0.000773261
-0.001968
0.000749311
-0.00189059
0.000739122
-0.0018156
0.000741876
-0.00174356
0.000757351
-0.00167419
0.000784734
-0.00160733
0.000822709
-0.00154207
0.000871409
-0.00147975
0.000929803
-0.00141878
0.000997402
-0.00136026
0.00107429
-0.00130373
0.0011594
-0.00124891
0.00125241
-0.0011954
0.00135309
-0.00114387
0.00146098
-0.00109365
0.00157686
-0.00104572
0.00169808
-0.000997743
0.00182674
-0.00095254
0.00196101
-0.000908057
0.00210261
-0.000865848
0.00225
-0.00082409
0.00240474
-0.000784895
0.00256538
-0.000747119
0.00273287
-0.000710937
0.00290821
-0.000678056
0.00309009
-0.000647574
0.00327957
-0.000619723
0.00347777
-0.000596972
0.00368496
-0.000579456
0.00389966
-0.000565976
0.00411949
-0.000559379
0.00434455
-0.000561938
-0.000572567
0.00456774
0.00183267
-0.00271402
-0.00204911
0.00163827
-0.00262223
0.00146474
-0.00253363
0.00131153
-0.00244824
0.00117741
-0.00236623
0.00106136
-0.00228684
0.000962654
-0.00221045
0.000880675
-0.00213693
0.000813913
-0.00206526
0.000762117
-0.00199653
0.000724461
-0.00193035
0.000699502
-0.00186563
0.000687494
-0.00180359
0.000687733
-0.0017438
0.000698555
-0.00168501
0.000720332
-0.00162911
0.000752442
-0.00157418
0.00079377
-0.00152108
0.000844794
-0.0014698
0.000903997
-0.00141947
0.000971383
-0.00137111
0.00104644
-0.00132397
0.0011289
-0.00127786
0.00121868
-0.00123365
0.00131496
-0.00118993
0.0014174
-0.00114816
0.00152684
-0.00110719
0.00164155
-0.00106724
0.00176286
-0.00102937
0.00188937
-0.000992355
0.00202221
-0.000956933
0.00216012
-0.000922805
0.00230439
-0.000891385
0.00245414
-0.000860687
0.00260949
-0.000833407
0.00277026
-0.000808349
0.00293746
-0.000786926
0.00311109
-0.000770604
0.00328898
-0.000757344
0.00347248
-0.000749476
0.00366197
-0.000748863
0.00385291
-0.000752877
-0.000766049
0.00404639
0.00169696
-0.00251682
-0.00189417
0.00151922
-0.00244449
0.00136053
-0.00237493
0.00122
-0.00230772
0.00109643
-0.00224266
0.000989464
-0.00217988
0.000897985
-0.00211897
0.000820856
-0.0020598
0.00075852
-0.00200292
0.000709271
-0.00194728
0.000672012
-0.00189309
0.000647734
-0.00184136
0.000634439
-0.00179029
0.000631499
-0.00174086
0.00063991
-0.00169342
0.000657294
-0.0016465
0.000684163
-0.00160105
0.000719826
-0.00155674
0.000763965
-0.00151394
0.00081624
-0.00147174
0.000875473
-0.00143035
0.000942202
-0.0013907
0.00101549
-0.00135115
0.00109561
-0.00131377
0.00118213
-0.00127645
0.00127419
-0.00124022
0.00137228
-0.00120527
0.00147649
-0.00117146
0.00158554
-0.00113842
0.0016998
-0.00110662
0.00181928
-0.00107642
0.00194353
-0.00104705
0.00207324
-0.00102109
0.00220763
-0.000995072
0.00234643
-0.000972214
0.00249036
-0.00095228
0.00263921
-0.000935768
0.00279189
-0.000923286
0.00294808
-0.000913535
0.00310932
-0.000910716
0.00327283
-0.000912375
0.00343892
-0.000918965
-0.000933617
0.00360649
0.00156722
-0.0023359
-0.00174813
0.00140473
-0.002282
0.00125931
-0.00222951
0.00113036
-0.00217877
0.00101648
-0.00212878
0.000917478
-0.00208087
0.000832563
-0.00203405
0.000761037
-0.00198828
0.000701861
-0.00194374
0.000655062
-0.00190048
0.000619589
-0.00185761
0.000594791
-0.00181656
0.000580458
-0.00177596
0.00057605
-0.00173645
0.000581167
-0.00169854
0.000594999
-0.00166033
0.000617475
-0.00162353
0.000648181
-0.00158745
0.000686295
-0.00155206
0.000731526
-0.00151697
0.000784379
-0.0014832
0.000842986
-0.00144931
0.00090846
-0.00141663
0.000979643
-0.00138495
0.00105679
-0.0013536
0.00113938
-0.00132281
0.00122677
-0.00129267
0.00131964
-0.00126433
0.00141719
-0.00123597
0.00152023
-0.00120965
0.00162795
-0.00118414
0.00174065
-0.00115975
0.00185599
-0.00113643
0.00197748
-0.00111656
0.00210261
-0.00109734
0.00223133
-0.001081
0.0023643
-0.00106874
0.00250019
-0.00105917
0.00264064
-0.00105399
0.00278341
-0.00105349
0.0029291
-0.00105806
0.0030771
-0.00106697
-0.0010824
0.00322588
0.00144357
-0.00217206
-0.00160741
0.00129553
-0.00213395
0.00116253
-0.00209651
0.0010436
-0.00205984
0.000939178
-0.00202436
0.00084772
-0.00198942
0.000768897
-0.00195523
0.000702006
-0.00192139
0.000646792
-0.00188853
0.000602079
-0.00185576
0.000568541
-0.00182408
0.000544256
-0.00179227
0.00052966
-0.00176137
0.000523638
-0.00173043
0.000526026
-0.00170093
0.000537457
-0.00167176
0.000556256
-0.00164232
0.000582092
-0.00161329
0.000615303
-0.00158527
0.000655307
-0.00155698
0.000701358
-0.00152925
0.000753331
-0.00150128
0.000811729
-0.00147503
0.000875352
-0.00144857
0.000943885
-0.00142213
0.00101776
-0.00139668
0.0010973
-0.00137221
0.00118041
-0.00134743
0.00126884
-0.0013244
0.00136079
-0.0013016
0.00145736
-0.00128072
0.0015582
-0.00126059
0.00166382
-0.00124205
0.0017719
-0.00122464
0.00188401
-0.00120945
0.00200072
-0.0011977
0.00211995
-0.00118798
0.00224283
-0.00118205
0.00236857
-0.00117973
0.00249634
-0.00118125
0.00262746
-0.00118919
0.00276079
-0.00120029
-0.0012175
0.00289589
0.00132803
-0.00202259
-0.0014775
0.00119222
-0.00199815
0.00107032
-0.00197461
0.000961496
-0.00195102
0.000865173
-0.00192804
0.000780666
-0.00190491
0.000707788
-0.00188235
0.000645563
-0.00185916
0.000593745
-0.00183671
0.000552043
-0.00181406
0.00051955
-0.00179158
0.000496395
-0.00176912
0.000481542
-0.00174651
0.00047487
-0.00172376
0.0004756
-0.00170166
0.000484057
-0.00168021
0.000499366
-0.00165763
0.000522123
-0.00163604
0.000550845
-0.00161399
0.000586023
-0.00159216
0.000627118
-0.00157035
0.000673614
-0.00154778
0.000725296
-0.00152671
0.000782011
-0.00150529
0.000843683
-0.0014838
0.000909912
-0.00146291
0.000980929
-0.00144323
0.00105635
-0.00142286
0.00113503
-0.00140308
0.00121831
-0.00138488
0.00130536
-0.00136777
0.00139659
-0.00135182
0.0014912
-0.00133666
0.00159004
-0.00132349
0.00169192
-0.00131133
0.00179595
-0.00130173
0.00190347
-0.0012955
0.00201375
-0.00129233
0.00212719
-0.00129317
0.00224301
-0.00129707
0.00236114
-0.00130732
0.00248147
-0.00132062
-0.00133947
0.00260343
0.00121937
-0.00135591
-0.00188606
0.00109571
-0.00187449
0.000983884
-0.00186278
0.000883898
-0.00185103
0.000795158
-0.0018393
0.00071743
-0.00182718
0.000649622
-0.00181454
0.000592335
-0.00180187
0.000543493
-0.00178787
0.000504347
-0.00177492
0.000473747
-0.00176098
0.000451442
-0.00174681
0.000436711
-0.00173178
0.00042937
-0.00171642
0.000428225
-0.00170051
0.000434822
-0.00168681
0.000448039
-0.00167085
0.000467597
-0.0016556
0.000492658
-0.00163905
0.000523756
-0.00162325
0.000560315
-0.00160691
0.00060197
-0.00158943
0.00064746
-0.0015722
0.000698518
-0.00155635
0.00075438
-0.00153966
0.000813647
-0.00152218
0.00087708
-0.00150666
0.000945141
-0.00149092
0.0010171
-0.00147503
0.00109217
-0.00145996
0.00117076
-0.00144636
0.00125341
-0.00143447
0.0013395
-0.00142275
0.00142811
-0.0014121
0.00151939
-0.00140262
0.00161513
-0.00139746
0.00171064
-0.00139102
0.00181246
-0.00139414
0.00191458
-0.0013953
0.00201963
-0.00140211
0.00212567
-0.00141336
0.00223456
-0.00142951
0.00234493
-0.00144983
0.00597802
-5.97798e-05
5.01962e-05
0.00609802
-0.000150404
3.04079e-05
0.00625177
-0.000240368
8.66179e-05
0.00642929
-0.000331568
0.000154049
0.00662734
-0.000426579
0.000228526
0.00683594
-0.00051703
0.000308433
0.00704968
-0.000605231
0.000391489
0.00726496
-0.000690766
0.000475486
0.00747982
-0.000776333
0.000561473
0.00768916
-0.000858034
0.000648691
0.00789051
-0.000939374
0.000738028
0.00808305
-0.00102109
0.000828549
0.00826239
-0.00110027
0.000920932
0.00843197
-0.00118319
0.00101361
0.0085877
-0.00126369
0.00110796
0.00873004
-0.00134701
0.00120467
0.00885835
-0.00142999
0.00130169
0.00897133
-0.00151537
0.00140239
0.00907195
-0.00160332
0.0015027
0.00915794
-0.00169201
0.00160602
0.00922897
-0.00178379
0.00171275
0.00928672
-0.00187916
0.00182141
0.00932712
-0.00197469
0.00193429
0.00935313
-0.00207558
0.00204958
0.00936297
-0.00217952
0.00216968
0.00935657
-0.00228661
0.00229301
0.00933203
-0.00239756
0.0024221
0.00928934
-0.00251148
0.00255417
0.00922636
-0.00263053
0.00269351
0.00914516
-0.00275514
0.00283634
0.00903999
-0.00288129
0.00298645
0.008914
-0.00301577
0.00314176
0.00876343
-0.00315321
0.00330378
0.00858802
-0.00329669
0.0034721
0.00838767
-0.00344609
0.00364643
0.00815916
-0.0036017
0.00383021
0.00790256
-0.00376315
0.00401975
0.00761486
-0.00393141
0.00421911
0.00729589
-0.00410591
0.00442487
0.00694306
-0.00428779
0.00464062
0.00655657
-0.00447909
0.00486558
0.00613553
-0.00467665
0.00509769
-0.00488044
0.00534417
0.0056718
0.00546238
-0.000382995
0.00575079
-0.000438815
0.00600772
-0.000497295
0.00623978
-0.000563627
0.00644358
-0.000630385
0.00663079
-0.000704237
0.00680017
-0.00077461
0.00695989
-0.000850486
0.00710672
-0.000923161
0.00724783
-0.000999145
0.00738036
-0.00107191
0.00750715
-0.00114788
0.00762854
-0.00122166
0.00774196
-0.00129661
0.00784932
-0.00137106
0.00794903
-0.00144672
0.00804275
-0.00152371
0.00812853
-0.00160115
0.00820443
-0.00167923
0.00827186
-0.00175943
0.00832865
-0.00184058
0.00837269
-0.00192321
0.00840763
-0.00200963
0.0084281
-0.00209605
0.00843487
-0.00218629
0.00842757
-0.00227931
0.00840465
-0.00237465
0.00836619
-0.00247302
0.00831021
-0.00257455
0.00823536
-0.00268029
0.00814269
-0.00278861
0.00802885
-0.00290193
0.00789501
-0.00301937
0.00773846
-0.00314013
0.00755889
-0.00326652
0.00735423
-0.00339704
0.00712439
-0.00353331
0.00686746
-0.00367448
0.00658283
-0.00382127
0.00626795
-0.00397291
0.00592127
-0.0041324
0.00554031
-0.00429569
-0.00446895
0.00512882
0.0047859
-0.000601158
0.0049914
-0.000644309
0.00518889
-0.000694791
0.00537772
-0.000752455
0.00556057
-0.000813232
0.00573354
-0.000877211
0.00590243
-0.000943501
0.00606186
-0.00100992
0.00621587
-0.00107717
0.00636068
-0.00114395
0.00650099
-0.00121222
0.0066328
-0.00127969
0.00675751
-0.00134636
0.00687419
-0.0014133
0.00698538
-0.00148224
0.00708807
-0.00154941
0.00718066
-0.0016163
0.00726612
-0.00168661
0.00734134
-0.00175445
0.00740708
-0.00182517
0.00746299
-0.00189649
0.00750901
-0.00196923
0.00754277
-0.00204339
0.00756486
-0.00211814
0.00757434
-0.00219578
0.00757083
-0.00227579
0.00755267
-0.00235649
0.00752097
-0.00244132
0.00747252
-0.00252609
0.00740871
-0.00261649
0.00732731
-0.00270722
0.00722812
-0.00280274
0.00710909
-0.00290034
0.00697043
-0.00300148
0.00681039
-0.00310647
0.00662866
-0.00321531
0.0064236
-0.00332825
0.00619426
-0.00344514
0.00593859
-0.00356561
0.00565751
-0.00369184
0.00534727
-0.00382216
0.0050087
-0.00395712
-0.00409854
0.00463829
0.00423574
-0.000790505
0.00442256
-0.000831134
0.00460345
-0.000875677
0.00477758
-0.000926587
0.00494553
-0.000981185
0.00510746
-0.00103914
0.00526085
-0.00109689
0.00540791
-0.00115698
0.00554903
-0.00121828
0.00568399
-0.00127892
0.00581289
-0.00134112
0.00593424
-0.00140104
0.00605014
-0.00146226
0.00615962
-0.00152277
0.00626061
-0.00158323
0.00635429
-0.00164308
0.00644243
-0.00170444
0.00652099
-0.00176517
0.00659213
-0.00182558
0.00665487
-0.00188791
0.00670763
-0.00194925
0.00675088
-0.00201247
0.00678401
-0.00207652
0.00680625
-0.00214038
0.00681796
-0.00220748
0.00681614
-0.00227398
0.00680238
-0.00234272
0.00677444
-0.00241339
0.00673311
-0.00248475
0.00667663
-0.00256001
0.00660482
-0.0026354
0.00651549
-0.0027134
0.00641048
-0.00279534
0.00628654
-0.00287754
0.00614339
-0.00296332
0.00598143
-0.00305335
0.00579741
-0.00314423
0.00559063
-0.00323836
0.00536267
-0.00333765
0.00510946
-0.00343863
0.00483161
-0.0035443
0.00452631
-0.00365183
-0.00376711
0.00419487
0.00377334
-0.000957357
0.00393592
-0.000993715
0.00409672
-0.00103647
0.00425289
-0.00108276
0.00440414
-0.00113243
0.00454872
-0.00118372
0.00469008
-0.00123825
0.00482575
-0.00129265
0.00495545
-0.00134798
0.00508118
-0.00140465
0.00519955
-0.00145949
0.00531274
-0.00151423
0.00542032
-0.00156984
0.00552287
-0.00162532
0.00561813
-0.00167849
0.0057068
-0.00173175
0.00578836
-0.001786
0.00586254
-0.00183936
0.00592976
-0.0018928
0.00598861
-0.00194676
0.00603923
-0.00199987
0.00607977
-0.00205301
0.00611173
-0.00210848
0.00613356
-0.00216221
0.00614448
-0.0022184
0.00614474
-0.00227424
0.00613301
-0.00233099
0.00611018
-0.00239056
0.00607374
-0.00244831
0.00602363
-0.0025099
0.0059596
-0.00257138
0.00588104
-0.00263484
0.00578584
-0.00270014
0.00567451
-0.0027662
0.00554744
-0.00283626
0.00539993
-0.00290584
0.00523574
-0.00298003
0.00505085
-0.00305347
0.0048444
-0.00313119
0.00461693
-0.00321116
0.00436527
-0.00329264
0.00409335
-0.00337991
-0.00346554
0.00379179
0.00337651
-0.00110798
0.00352364
-0.00114085
0.00366772
-0.00118055
0.00380818
-0.00122322
0.0039447
-0.00126895
0.00407801
-0.00131704
0.00420641
-0.00136665
0.00433003
-0.00141627
0.00444979
-0.00146774
0.00456422
-0.00151909
0.00467306
-0.00156833
0.00477843
-0.00161959
0.00487774
-0.00166916
0.00496978
-0.00171736
0.00505853
-0.00176725
0.00514025
-0.00181347
0.00521564
-0.0018614
0.00528446
-0.00190817
0.00534628
-0.00195463
0.00540056
-0.00200104
0.0054471
-0.00204641
0.00548561
-0.00209153
0.00551533
-0.0021382
0.00553616
-0.00218304
0.00554625
-0.00222849
0.00554733
-0.00227532
0.00553835
-0.00232201
0.00551694
-0.00236915
0.00548513
-0.0024165
0.00544062
-0.0024654
0.00538312
-0.00251387
0.00531166
-0.00256338
0.00522676
-0.00261525
0.00512804
-0.00266748
0.00501207
-0.00272028
0.00488033
-0.0027741
0.00473074
-0.00283044
0.00456518
-0.00288792
0.0043785
-0.00294451
0.00417379
-0.00300644
0.0039496
-0.00306845
0.00370027
-0.00313058
-0.00319766
0.00343239
0.00302919
-0.00124129
0.00316342
-0.00127508
0.00329304
-0.00131016
0.00342083
-0.00135102
0.00354446
-0.00139258
0.00366524
-0.00143782
0.0037822
-0.0014836
0.0038959
-0.00152997
0.00400422
-0.00157607
0.00410818
-0.00162304
0.00420934
-0.00166949
0.00430534
-0.0017156
0.00439511
-0.00175893
0.00448247
-0.00180472
0.00456192
-0.0018467
0.00463819
-0.00188974
0.00470709
-0.00193029
0.00476983
-0.00197092
0.00482767
-0.00201246
0.00487672
-0.00205009
0.00492024
-0.00208994
0.00495559
-0.00212687
0.00498263
-0.00216524
0.00500201
-0.00220243
0.00501324
-0.00223971
0.00501506
-0.00227715
0.00500686
-0.00231382
0.00498783
-0.00235013
0.00495926
-0.00238792
0.00491871
-0.00242485
0.00486659
-0.00246175
0.00480301
-0.0024998
0.00472658
-0.00253881
0.00463559
-0.0025765
0.00453193
-0.00261662
0.00441292
-0.00265509
0.004278
-0.00269552
0.00412705
-0.00273697
0.00396077
-0.00277822
0.00377481
-0.00282048
0.0035698
-0.00286345
0.00334902
-0.0029098
-0.00295315
0.00310451
0.00272582
-0.00136368
0.00284505
-0.00139431
0.00296436
-0.00142948
0.00307954
-0.00146619
0.00319375
-0.00150679
0.00330264
-0.0015467
0.00340906
-0.00159003
0.00351102
-0.00163192
0.00361136
-0.0016764
0.00370756
-0.00171925
0.00379864
-0.00176056
0.00388538
-0.00180234
0.00396925
-0.0018428
0.00404734
-0.00188281
0.00412116
-0.00192052
0.00418949
-0.00195806
0.00425386
-0.00199467
0.00431234
-0.00202939
0.00436334
-0.00206347
0.00441005
-0.0020968
0.00444925
-0.00212913
0.0044817
-0.00215932
0.00450709
-0.00219063
0.00452489
-0.00222023
0.0045347
-0.00224953
0.00453587
-0.00227832
0.00452833
-0.00230628
0.00451273
-0.00233453
0.00448593
-0.00236113
0.00444971
-0.00238863
0.00440368
-0.00241572
0.00434627
-0.0024424
0.0042764
-0.00246895
0.00419479
-0.00249488
0.00410057
-0.0025224
0.00399226
-0.00254679
0.00387119
-0.00257445
0.00373447
-0.00260024
0.00358482
-0.00262858
0.00341584
-0.00265149
0.00323362
-0.00268124
0.00303117
-0.00270735
-0.0027345
0.00281252
0.00245691
-0.00147567
0.00256595
-0.00150334
0.00267251
-0.00153604
0.00277827
-0.00157195
0.0028807
-0.00160922
0.0029807
-0.00164671
0.00307685
-0.00168618
0.00317124
-0.00172631
0.00326167
-0.00176684
0.00334866
-0.00180624
0.0034324
-0.0018443
0.00351218
-0.00188212
0.00358818
-0.00191881
0.00366029
-0.00195492
0.00372818
-0.00198841
0.00379126
-0.00202114
0.00384889
-0.00205229
0.00390227
-0.00208277
0.00395164
-0.00211283
0.00399257
-0.00213773
0.00402767
-0.00216424
0.00405807
-0.00218972
0.00408075
-0.00221331
0.00409675
-0.00223623
0.00410573
-0.0022585
0.00410745
-0.00228004
0.00410221
-0.00230104
0.00408608
-0.0023184
0.00406276
-0.0023378
0.00402966
-0.00235553
0.00398685
-0.00237291
0.0039344
-0.00238994
0.00387153
-0.00240608
0.00379951
-0.00242286
0.00371239
-0.00243528
0.00361483
-0.00244922
0.00350603
-0.00246565
0.00338198
-0.00247619
0.00324456
-0.00249116
0.0030942
-0.00250113
0.00292598
-0.00251302
0.00274553
-0.0025269
-0.00253594
0.00254697
0.000368826
0.00662075
-0.00720679
0.000217212
0.000910083
0.00639507
-0.00693632
0.00141053
0.0061758
-0.00667624
0.00187245
0.00596467
-0.0064266
0.00229791
0.00576196
-0.00618741
0.00268208
0.00556972
-0.0059539
0.00303618
0.00537923
-0.00573333
0.00335116
0.0052014
-0.00551638
0.00363534
0.0050256
-0.00530977
0.00388666
0.00486014
-0.00511146
0.0041073
0.0046964
-0.00491703
0.00429678
0.00454329
-0.00473278
0.00445949
0.00439186
-0.00455457
0.00459303
0.00424869
-0.00438223
0.00469941
0.00410933
-0.00421571
0.00478063
0.00397391
-0.00405513
0.00483427
0.00384443
-0.00389807
0.00486451
0.00371861
-0.00374886
0.00487114
0.0035964
-0.00360302
0.00485153
0.00348006
-0.00346045
0.00481038
0.00336475
-0.0033236
0.00474696
0.0032551
-0.00319168
0.00466162
0.00314403
-0.0030587
0.00455593
0.00304073
-0.00293504
0.00443007
0.00293578
-0.00280992
0.00428431
0.00283583
-0.00269007
0.00411871
0.0027366
-0.002571
0.0039379
0.00263785
-0.00245705
0.00373611
0.00254364
-0.00234185
0.00352437
0.0024457
-0.00223395
0.00329301
0.00235442
-0.00212306
0.00305088
0.00226141
-0.00201928
0.00279945
0.00216813
-0.0019167
0.00253542
0.00207723
-0.00181319
0.00226426
0.00198385
-0.0017127
0.00198524
0.00189398
-0.00161496
0.00170389
0.00179897
-0.00151763
0.00142053
0.00170548
-0.00142212
0.00113735
0.00160479
-0.00132161
0.00085779
0.00150106
-0.0012215
0.000594499
0.00137777
-0.00111448
0.000380959
0.00119906
-0.000985525
0.000897597
0.000261377
-0.000778015
0.000339647
0.00608882
0.000192287
0.000832913
0.0059018
0.00128762
0.00572108
0.00170588
0.00554642
0.00208961
0.00537823
0.00244103
0.0052183
0.00275771
0.00506255
0.00304391
0.0049152
0.00329994
0.00476956
0.00352964
0.00463044
0.00372849
0.00449754
0.00390093
0.00437085
0.00404697
0.00424582
0.00416838
0.00412728
0.00426751
0.00401019
0.00433953
0.0039019
0.00439118
0.00379277
0.00441775
0.00369204
0.00442347
0.00359068
0.00441052
0.00349301
0.00437618
0.0033991
0.00432279
0.00330848
0.00424764
0.00321919
0.00415548
0.00313288
0.00404369
0.00304758
0.00391641
0.00296311
0.00377207
0.00288094
0.00361065
0.00279927
0.00343421
0.00272008
0.0032412
0.00263871
0.00303675
0.00255887
0.0028211
0.00247705
0.00259296
0.00239627
0.00235552
0.00231466
0.00210772
0.00223165
0.00185522
0.00214648
0.00159719
0.002057
0.00133918
0.0019635
0.00107802
0.00186595
0.000823828
0.00175525
0.000592096
0.0016095
0.000425348
0.00136581
0.00103846
0.00028449
0.000312592
0.00560906
0.00016717
0.000760463
0.00545393
0.00117179
0.00530976
0.0015508
0.0051674
0.00189988
0.00502915
0.00221662
0.00490155
0.00250516
0.00477401
0.00276556
0.00465481
0.00299772
0.0045374
0.0032036
0.00442457
0.00338356
0.00431758
0.00354144
0.00421297
0.0036751
0.00411216
0.00378445
0.00401793
0.00387141
0.00392323
0.00393857
0.00383475
0.0039853
0.00374604
0.00401183
0.00366551
0.00402004
0.00358246
0.00400762
0.00350543
0.00397677
0.00342995
0.00392936
0.0033559
0.00386539
0.00328315
0.00378218
0.0032161
0.00368648
0.00314327
0.00357186
0.00307773
0.0034419
0.0030109
0.00329719
0.00294398
0.00314
0.00287726
0.00296861
0.0028101
0.00278473
0.00274276
0.00258747
0.00267431
0.00238126
0.00260248
0.00216493
0.00253099
0.00194147
0.00245511
0.00171153
0.00237641
0.00147505
0.00229349
0.00123335
0.00220519
0.000994831
0.00210447
0.000761813
0.00198827
0.000566179
0.00180514
0.000420202
0.00151179
0.00118632
0.000272337
0.000289858
0.00517003
0.000149168
0.000692523
0.00505127
0.0010696
0.00493269
0.0014123
0.00482469
0.00172693
0.00471452
0.00201573
0.00461275
0.00227646
0.00451328
0.00251355
0.00441771
0.00272432
0.00432663
0.00290929
0.0042396
0.00307432
0.00415254
0.00321562
0.00407168
0.00333481
0.00399297
0.00343651
0.00391623
0.00351627
0.00384346
0.00357588
0.00377513
0.00361759
0.00370433
0.00364149
0.00364161
0.00364729
0.00357666
0.00363709
0.00351563
0.00361095
0.00345609
0.00356855
0.00339829
0.00350978
0.00334193
0.00343921
0.00328666
0.00334963
0.00323285
0.00324782
0.00317954
0.0031337
0.00312502
0.00300486
0.00307282
0.0028635
0.00301862
0.00270993
0.00296367
0.00254435
0.00290834
0.00236902
0.00284965
0.00218035
0.00279115
0.00198524
0.0027261
0.00178008
0.00266027
0.00157012
0.00258637
0.00135426
0.00250935
0.00113443
0.00242502
0.000913263
0.00232563
0.000707076
0.00219445
0.000537781
0.00197443
0.000395328
0.00165424
0.00132526
0.000256386
0.00026484
0.00477534
0.000129852
0.000633551
0.00468255
0.000970046
0.00459619
0.00128514
0.0045096
0.00157023
0.00442943
0.00183135
0.00435163
0.00206686
0.00427777
0.00228061
0.00420396
0.00247067
0.00413657
0.00264322
0.00406704
0.00278981
0.00400595
0.00291893
0.00394256
0.00302835
0.00388355
0.00311818
0.0038264
0.00319004
0.0037716
0.00324671
0.00371846
0.00328359
0.00366746
0.00330699
0.00361821
0.00331248
0.00357118
0.00330213
0.00352598
0.00328041
0.00347782
0.00324066
0.00343804
0.00318914
0.00339344
0.00312338
0.00335243
0.00304615
0.00331008
0.00295642
0.00326928
0.00285045
0.00323099
0.0027367
0.00318657
0.00260861
0.0031467
0.00247019
0.0031021
0.00232191
0.00305661
0.00216187
0.00300969
0.00199464
0.00295838
0.00181628
0.00290446
0.0016316
0.00284495
0.00143771
0.00278026
0.00124153
0.00270554
0.001042
0.00262455
0.000841774
0.00252586
0.000656639
0.00237959
0.000504377
0.00212669
0.000368429
0.00179019
0.00145596
0.00023773
0.000243793
0.0044148
0.000116751
0.000576786
0.00434956
0.000886076
0.0042869
0.00116756
0.00422812
0.00142726
0.00416973
0.00166355
0.00411534
0.00188045
0.00406088
0.00207124
0.00401317
0.00224689
0.00396092
0.00239898
0.00391496
0.00253353
0.0038714
0.00265065
0.00382544
0.00274827
0.00378592
0.00283055
0.00374412
0.00289543
0.00370672
0.0029447
0.00366919
0.0029788
0.00363336
0.00299918
0.00359782
0.00300646
0.0035639
0.0029984
0.00353404
0.0029764
0.00349982
0.00294308
0.00347136
0.00289617
0.00344035
0.00283792
0.00341067
0.00276751
0.00338049
0.00268555
0.00335124
0.00259392
0.00332262
0.0024878
0.00329269
0.002374
0.00326049
0.00224839
0.00322771
0.00211494
0.00319006
0.00196972
0.00315491
0.00181686
0.00311123
0.00165731
0.00306401
0.00148931
0.00301294
0.0013155
0.00295408
0.00113475
0.00288628
0.000953018
0.00280628
0.000771902
0.00270698
0.000607029
0.00254446
0.00046738
0.00226634
0.000340698
0.00191687
0.0015755
0.000221163
0.000223063
0.00408742
0.000104317
0.000526615
0.00404601
0.00080469
0.00400883
0.00106318
0.00396963
0.00129827
0.00393464
0.00151181
0.0039018
0.00170579
0.0038669
0.00188265
0.00383631
0.00204002
0.00380354
0.00217789
0.00377709
0.00230072
0.00374858
0.00240614
0.00372003
0.00249628
0.00369578
0.00256911
0.00367129
0.00262878
0.00364705
0.0026754
0.00362257
0.0027066
0.00360216
0.00272465
0.00357977
0.00272934
0.00355921
0.00272279
0.00354059
0.00270313
0.00351949
0.00267409
0.00350039
0.0026316
0.00348285
0.00257756
0.00346471
0.00251441
0.00344364
0.00243951
0.00342614
0.00235711
0.00340503
0.00226313
0.00338667
0.00215927
0.00336435
0.00204762
0.00333936
0.00192409
0.00331359
0.00179737
0.00328164
0.00165929
0.00324931
0.00151153
0.00321177
0.00135973
0.00316475
0.00120196
0.00311184
0.00103957
0.00304867
0.00087342
0.00297244
0.000708575
0.00287182
0.000560654
0.00269238
0.000432993
0.002394
0.000314786
0.00203508
0.00168512
0.000205164
0.000203836
0.00379139
9.21867e-05
0.000478678
0.00377117
0.000734084
0.00375342
0.000965843
0.00373787
0.00117838
0.0037221
0.00137568
0.0037045
0.00155154
0.00369104
0.00171014
0.00367771
0.00185156
0.00366212
0.00197784
0.00365081
0.00208893
0.00363748
0.00218496
0.003624
0.00226573
0.003615
0.00233341
0.00360362
0.00238811
0.00359235
0.00242764
0.00358304
0.00245598
0.00357383
0.00247358
0.00356217
0.00247787
0.00355491
0.00247115
0.00354731
0.00245324
0.00353739
0.0024264
0.00352723
0.00238821
0.00352103
0.00234095
0.00351197
0.00228453
0.00350006
0.00221647
0.00349419
0.00214123
0.00348027
0.00205637
0.00347152
0.00196431
0.00345641
0.0018624
0.00344127
0.00175292
0.00342307
0.0016337
0.00340086
0.00150915
0.00337385
0.00137795
0.00334298
0.00123955
0.00330314
0.00109524
0.00325616
0.000948433
0.00319547
0.000798838
0.00312203
0.000652108
0.00301855
0.000517882
0.00282661
0.000400273
0.00251161
0.00029314
0.00214221
0.00178571
0.000192546
0.000186847
0.00352189
8.26537e-05
0.000436889
0.00352113
0.000665583
0.00352473
0.000877259
0.00352619
0.00107368
0.00352568
0.00124867
0.00352951
0.0014087
0.00353101
0.00155365
0.00353277
0.00168342
0.00353235
0.00179803
0.0035362
0.00189765
0.00353786
0.00198424
0.00353741
0.00205788
0.00354136
0.00211845
0.00354305
0.0021661
0.00354469
0.00220513
0.00354402
0.00223097
0.00354799
0.00224361
0.00354953
0.00224975
0.00354877
0.00224469
0.00355237
0.00222872
0.00355337
0.00220168
0.00355427
0.00217009
0.00355263
0.00212732
0.00355474
0.00207302
0.00355437
0.00201622
0.003551
0.0019456
0.00355088
0.00187009
0.00354704
0.00178503
0.00354147
0.0016947
0.00353161
0.0015945
0.00352327
0.00148717
0.00350819
0.00137471
0.00348632
0.00125491
0.00346277
0.00112758
0.00343047
0.0009961
0.00338765
0.000863224
0.00332835
0.000729743
0.00325551
0.000600241
0.00314805
0.000481034
0.00294582
0.00037389
0.00261876
0.000274902
0.0022412
0.000180337
0.00188028
-6.48666e-05
0.000562166
-0.000235923
-0.000267199
0.000392707
-0.000190374
-0.000402182
0.000293006
-0.000158023
-0.00049469
0.000225652
-0.000133144
-0.000557477
0.000174692
-0.000111906
-0.000598984
0.000133622
-9.21144e-05
-0.000624193
9.74779e-05
-7.22696e-05
-0.000637203
6.49503e-05
-5.19401e-05
-0.000639953
3.36638e-05
-3.09136e-05
-0.000634866
3.8497e-06
-8.93661e-06
-0.000623407
-2.54055e-05
1.39462e-05
-0.000606596
-5.46143e-05
3.78027e-05
-0.00058541
-8.40379e-05
6.28517e-05
-0.00056127
-0.000113088
8.8948e-05
-0.000534213
-0.000142799
0.000115742
-0.000505164
-0.000172805
0.000143756
-0.000475399
-0.000202862
0.000173097
-0.000444874
-0.000233923
0.000203398
-0.000414982
-0.000264736
0.000234843
-0.000385649
-0.000296353
0.00026702
-0.000358302
-0.000327643
0.000300296
-0.000332863
-0.000360128
0.000334689
-0.000310657
-0.000392074
0.000369867
-0.000291674
-0.000424558
0.000405575
-0.000277196
-0.000456413
0.000441935
-0.000267454
-0.000488535
0.000478793
-0.000262587
-0.000520207
0.00051534