/*--------------------------------*- C++ -*----------------------------------*\
| =========                 |                                                 |
| \\      /  F ield         | OpenFOAM: The Open Source CFD Toolbox           |
|  \\    /   O peration     | Version:  2.3.0                                 |
|   \\  /    A nd           | Web:      www.OpenFOAM.org                      |
|    \\/     M anipulation  |                                                 |
\*---------------------------------------------------------------------------*/
FoamFile
{
    version     2.0;
    format      ascii;
    class       volVectorField;
    location    "2000";
    object      U;
}
// * * * * * * * * * * * * * * * * * * * * * * * * * * * * * * * * * * * * * //

dimensions      [0 1 -1 0 0 0 0];

internalField   nonuniform List<vector> 
38546
(
(13.3284 -1.88378 3.39821e-21)
(13.177 -1.96154 -1.56583e-20)
(13.0271 -2.04861 0)
(12.8748 -2.13778 0)
(12.7203 -2.22933 -2.25106e-20)
(12.5634 -2.32368 0)
(12.404 -2.42097 0)
(12.2422 -2.52127 0)
(12.0778 -2.62462 0)
(11.9106 -2.73114 7.57712e-21)
(11.7407 -2.84103 -9.53945e-21)
(11.5679 -2.95446 2.83954e-20)
(11.392 -3.07161 -2.62683e-20)
(11.2129 -3.19272 5.97044e-20)
(11.0304 -3.31806 2.75843e-20)
(10.8442 -3.448 6.46174e-20)
(10.6543 -3.5829 3.73715e-21)
(10.4602 -3.72331 -1.0337e-19)
(10.2616 -3.86969 -6.63139e-20)
(10.0582 -4.02273 1.60996e-19)
(9.84942 -4.18316 -1.10794e-19)
(9.63488 -4.35189 0)
(9.41393 -4.52991 -3.10737e-20)
(9.18594 -4.71841 -1.80571e-20)
(8.95023 -4.91875 1.70737e-20)
(8.70608 -5.13251 0)
(8.45274 -5.36169 1.01012e-19)
(8.18935 -5.60836 -1.75721e-20)
(7.91498 -5.87499 1.63364e-20)
(7.62909 -6.16498 3.54399e-22)
(7.33099 -6.48166 8.86872e-21)
(7.02004 -6.82968 -6.6177e-20)
(6.69585 -7.21401 1.40627e-21)
(6.35923 -7.64125 5.81362e-20)
(6.01068 -8.11971 -3.84741e-20)
(5.65045 -8.65889 4.14966e-20)
(5.27965 -9.27286 -1.13214e-19)
(4.8942 -9.9752 1.19464e-19)
(4.49706 -10.7893 0)
(4.09381 -11.747 2.5084e-20)
(3.70578 -12.9019 0)
(3.38021 -14.3332 -6.68243e-19)
(3.20658 -16.0375 7.00312e-19)
(13.433 -2.04606 5.39666e-21)
(13.3012 -2.12007 -1.07387e-21)
(13.1724 -2.20517 9.72664e-21)
(13.0426 -2.29345 -7.24603e-21)
(12.9113 -2.38445 -7.51363e-21)
(12.7787 -2.47838 -5.6625e-21)
(12.6445 -2.57539 -5.7211e-21)
(12.5087 -2.67554 2.67609e-20)
(12.3713 -2.77892 -4.65543e-21)
(12.2322 -2.88569 -1.3788e-20)
(12.0915 -2.99602 1.9514e-20)
(11.9491 -3.11017 1.68087e-20)
(11.805 -3.22834 1.84484e-20)
(11.6591 -3.35081 0)
(11.5113 -3.47787 -5.38204e-20)
(11.3615 -3.6098 7.87318e-20)
(11.2098 -3.747 1.8467e-21)
(11.0562 -3.8899 2.9302e-20)
(10.9006 -4.0389 6.92594e-21)
(10.743 -4.19458 0)
(10.5833 -4.35755 1.61699e-20)
(10.4217 -4.52853 1.71479e-20)
(10.2582 -4.70834 -4.47886e-20)
(10.0927 -4.8979 -1.76898e-21)
(9.92561 -5.09831 6.90656e-20)
(9.75702 -5.3108 -2.13377e-20)
(9.58742 -5.53676 -2.84245e-20)
(9.41731 -5.77791 2.9356e-20)
(9.24745 -6.036 -1.58728e-20)
(9.07906 -6.31329 1.64577e-20)
(8.91351 -6.61209 8.74887e-21)
(8.75263 -6.93506 -9.09951e-21)
(8.59933 -7.28521 2.70601e-20)
(8.4574 -7.66588 -4.52641e-20)
(8.33129 -8.08047 -6.44175e-20)
(8.22758 -8.5326 9.28411e-20)
(8.15514 -9.02619 1.57136e-19)
(8.12574 -9.56491 -1.74928e-20)
(8.15654 -10.1518 -2.99779e-20)
(8.2707 -10.7878 -1.19847e-19)
(8.50235 -11.4702 0)
(8.90059 -12.1868 1.69207e-20)
(9.53105 -12.9073 1.58271e-19)
(13.5277 -2.18289 3.66367e-21)
(13.414 -2.25667 2.54188e-21)
(13.302 -2.34133 -4.03919e-21)
(13.1889 -2.4291 1.79289e-21)
(13.0746 -2.51967 -2.49561e-21)
(12.9592 -2.61328 2.25407e-20)
(12.8426 -2.71004 -1.89185e-20)
(12.7247 -2.81008 -1.76506e-20)
(12.6057 -2.91347 -5.45901e-22)
(12.4854 -3.02038 0)
(12.3641 -3.131 0)
(12.2417 -3.2456 -4.99813e-21)
(12.1182 -3.36446 -3.1149e-20)
(11.9935 -3.48789 -3.14739e-20)
(11.8678 -3.61625 3.27995e-20)
(11.7409 -3.74987 -2.31439e-20)
(11.6129 -3.88913 0)
(11.4839 -4.0345 -3.87962e-21)
(11.3539 -4.18647 5.39577e-21)
(11.2232 -4.34562 0)
(11.0917 -4.51265 -2.75734e-20)
(10.9597 -4.68827 -1.69583e-20)
(10.8274 -4.87333 -2.93705e-20)
(10.695 -5.06873 4.34894e-20)
(10.5628 -5.27549 -3.40384e-20)
(10.4314 -5.49478 2.10295e-20)
(10.3015 -5.72779 -1.69188e-20)
(10.1737 -5.97603 5.01499e-20)
(10.0494 -6.24091 -3.35225e-20)
(9.92986 -6.52421 0)
(9.81679 -6.82758 0)
(9.71249 -7.15288 1.51303e-20)
(9.61997 -7.50183 -4.14161e-20)
(9.54283 -7.87628 4.16309e-20)
(9.48552 -8.27766 9.74597e-21)
(9.45388 -8.70682 -2.64083e-20)
(9.45447 -9.16412 -1.634e-20)
(9.49534 -9.64833 6.30661e-21)
(9.5864 -10.1558 5.61665e-21)
(9.73858 -10.6799 2.12894e-21)
(9.9639 -11.2083 1.06325e-19)
(10.2737 -11.7216 -1.26051e-19)
(10.6757 -12.1897 0)
(13.6215 -2.29564 -1.98587e-20)
(13.5229 -2.37105 5.75026e-21)
(13.4254 -2.45406 -4.31343e-21)
(13.3271 -2.53953 -6.803e-22)
(13.228 -2.6276 -7.54572e-22)
(13.1282 -2.71859 -5.95697e-21)
(13.0274 -2.81264 1.15096e-20)
(12.9258 -2.90988 3.8874e-21)
(12.8232 -3.01037 0)
(12.7199 -3.11425 7.20424e-21)
(12.6158 -3.2217 -1.93246e-21)
(12.5112 -3.33294 -4.01188e-21)
(12.4061 -3.44827 4.20977e-21)
(12.3005 -3.56805 2.38339e-20)
(12.1944 -3.69261 -1.54027e-20)
(12.0879 -3.82228 1.48949e-20)
(11.981 -3.95738 -1.50016e-20)
(11.8738 -4.09827 3.30264e-21)
(11.7668 -4.24544 -2.47566e-21)
(11.6599 -4.39933 1.95352e-20)
(11.5537 -4.56056 -8.28875e-21)
(11.4483 -4.72978 2.18175e-20)
(11.3441 -4.9077 -2.22596e-20)
(11.2417 -5.09508 -1.34457e-20)
(11.1414 -5.29274 1.40262e-20)
(11.044 -5.50158 0)
(10.9503 -5.72257 0)
(10.8614 -5.95668 -1.53931e-20)
(10.7786 -6.20509 1.56277e-20)
(10.7034 -6.46886 1.68327e-21)
(10.6375 -6.74911 -1.21153e-20)
(10.5834 -7.04676 -1.49877e-20)
(10.5438 -7.36263 0)
(10.5219 -7.69723 9.71963e-21)
(10.522 -8.05068 -1.00338e-20)
(10.5485 -8.42244 1.223e-21)
(10.6068 -8.8112 -9.36064e-21)
(10.7027 -9.2142 -2.17837e-21)
(10.8426 -9.627 8.17492e-21)
(11.032 -10.0434 4.90651e-20)
(11.2761 -10.4541 -5.63341e-20)
(11.5777 -10.8469 1.32025e-19)
(11.935 -11.2071 -3.01191e-19)
(13.7123 -2.39403 0)
(13.6257 -2.46989 -4.84178e-21)
(13.5398 -2.54964 1.18988e-21)
(13.4537 -2.63175 3.71932e-21)
(13.3672 -2.7165 3.16296e-21)
(13.28 -2.80416 -2.08944e-21)
(13.1922 -2.89486 8.79711e-22)
(13.1036 -2.98869 -3.11941e-21)
(13.0143 -3.08576 -1.02501e-21)
(12.9242 -3.18617 -6.27382e-21)
(12.8334 -3.29004 1.03078e-21)
(12.7423 -3.39752 -1.05812e-20)
(12.651 -3.50889 1.16834e-20)
(12.5596 -3.62457 -9.68816e-21)
(12.468 -3.74502 -6.64468e-21)
(12.3762 -3.8705 0)
(12.2843 -4.00133 0)
(12.1925 -4.13779 4.77323e-21)
(12.101 -4.28031 -5.02564e-21)
(12.0102 -4.42931 2.72767e-21)
(11.9204 -4.58525 -1.36412e-20)
(11.832 -4.74874 2.0973e-20)
(11.7456 -4.92046 -2.93772e-20)
(11.6615 -5.10108 -1.07005e-22)
(11.5802 -5.29132 8.27629e-21)
(11.5026 -5.49185 -1.53564e-20)
(11.4295 -5.70349 1.56175e-20)
(11.3619 -5.927 4.18526e-21)
(11.3013 -6.16316 -6.33529e-21)
(11.2491 -6.41291 1.13663e-21)
(11.2069 -6.67701 5.90301e-21)
(11.1766 -6.95603 2.86886e-21)
(11.1606 -7.25012 -2.96126e-21)
(11.1618 -7.55921 0)
(11.1836 -7.88279 0)
(11.2297 -8.21978 0)
(11.3043 -8.56822 0)
(11.4116 -8.92489 -5.75552e-21)
(11.5558 -9.28566 0)
(11.7403 -9.64469 1.70919e-20)
(11.9678 -9.99425 -6.2698e-20)
(12.2386 -10.3256 6.31949e-20)
(12.5503 -10.6289 0)
(13.7953 -2.48684 0)
(13.7196 -2.55594 -7.99791e-21)
(13.6443 -2.63085 -5.66343e-21)
(13.569 -2.70879 5.68864e-21)
(13.4933 -2.7896 -3.15212e-21)
(13.4171 -2.87337 2.76144e-21)
(13.3402 -2.96022 3.77958e-21)
(13.2625 -3.05016 2.53456e-21)
(13.1841 -3.14326 1.00357e-21)
(13.1051 -3.23975 8.09191e-22)
(13.0253 -3.33966 -4.824e-22)
(12.9451 -3.44295 4.82635e-22)
(12.8649 -3.54985 1.81823e-21)
(12.785 -3.66072 4.03749e-22)
(12.7053 -3.77623 4.40733e-21)
(12.6257 -3.8968 8.84161e-22)
(12.5459 -4.02259 6.4045e-21)
(12.4664 -4.15382 5.76582e-21)
(12.3875 -4.29092 -9.96895e-21)
(12.3094 -4.43418 1.27558e-20)
(12.2327 -4.58404 4.45031e-21)
(12.1578 -4.74085 -1.34467e-20)
(12.0853 -4.90534 6.36897e-21)
(12.0158 -5.07821 0)
(11.9497 -5.26004 -5.38736e-21)
(11.8876 -5.45134 1.24721e-20)
(11.8304 -5.65284 -4.3316e-21)
(11.7792 -5.86506 -2.71408e-21)
(11.7355 -6.08844 -2.19387e-21)
(11.701 -6.3238 1.56845e-21)
(11.677 -6.5719 5.44783e-21)
(11.6649 -6.83319 0)
(11.6665 -7.10734 0)
(11.6844 -7.39384 1.85219e-21)
(11.7217 -7.69177 -1.90596e-21)
(11.7815 -7.99989 0)
(11.867 -8.31615 0)
(11.9819 -8.63738 -1.62293e-20)
(12.1287 -8.96001 3.23594e-20)
(12.3101 -9.27844 0)
(12.5274 -9.58674 -3.15351e-20)
(12.7803 -9.87824 1.17987e-19)
(13.0662 -10.1457 -3.59023e-20)
(13.8708 -2.5591 4.17081e-22)
(13.805 -2.62599 6.76074e-21)
(13.7394 -2.69832 -8.3782e-21)
(13.6734 -2.7727 0)
(13.607 -2.84976 4.27143e-21)
(13.5401 -2.9297 2.88454e-21)
(13.4724 -3.01263 1.59315e-21)
(13.4039 -3.0987 -6.77686e-21)
(13.3345 -3.18771 0)
(13.2647 -3.28016 -7.89342e-22)
(13.1938 -3.37633 0)
(13.1222 -3.47576 0)
(13.0503 -3.5785 2.94614e-22)
(12.9791 -3.68466 -2.95713e-22)
(12.909 -3.79513 -9.8285e-22)
(12.8393 -3.91082 -3.73511e-21)
(12.7691 -4.03177 -1.32725e-21)
(12.6993 -4.15791 0)
(12.6298 -4.28988 2.10006e-21)
(12.5614 -4.42781 -1.08764e-20)
(12.4943 -4.57225 -6.78237e-22)
(12.4288 -4.72313 7.4043e-21)
(12.3665 -4.88095 -2.81334e-21)
(12.3076 -5.04689 2.87595e-21)
(12.252 -5.22138 -1.02936e-21)
(12.2008 -5.40447 2.91891e-21)
(12.1551 -5.5972 0)
(12.1149 -5.80002 0)
(12.0823 -6.01265 3.34215e-21)
(12.0595 -6.23572 -2.87588e-21)
(12.0477 -6.47032 3.58382e-23)
(12.0479 -6.71718 -3.78421e-22)
(12.0605 -6.97591 -1.23927e-21)
(12.0882 -7.24493 1.69172e-21)
(12.1336 -7.52322 -8.01621e-21)
(12.2006 -7.80975 -2.70583e-21)
(12.2902 -8.10238 0)
(12.4074 -8.39823 3.82142e-21)
(12.5521 -8.69441 5.57137e-21)
(12.7276 -8.98496 -7.68181e-20)
(12.9345 -9.26543 3.11526e-20)
(13.1725 -9.53025 -3.744e-20)
(13.4389 -9.77383 6.62105e-21)
(13.9453 -2.62471 3.87113e-22)
(13.8854 -2.68715 1.44828e-20)
(13.8268 -2.75586 -4.95753e-21)
(13.7682 -2.82644 0)
(13.7093 -2.89965 -7.13471e-21)
(13.6504 -2.97602 1.70367e-21)
(13.5902 -3.0549 -7.20022e-21)
(13.5297 -3.13751 4.74068e-21)
(13.4673 -3.2223 -6.16506e-21)
(13.4057 -3.31056 0)
(13.3423 -3.40314 0)
(13.2781 -3.49922 -6.92283e-22)
(13.2127 -3.59863 1.22962e-21)
(13.1475 -3.70066 3.03419e-21)
(13.0835 -3.80616 0)
(13.0224 -3.91661 8.32985e-22)
(12.9598 -4.03316 1.39843e-21)
(12.8986 -4.15438 -1.32994e-21)
(12.8367 -4.28158 0)
(12.7763 -4.41426 0)
(12.7172 -4.55405 2.34099e-21)
(12.6585 -4.70001 7.18991e-22)
(12.6033 -4.85164 8.37107e-22)
(12.5531 -5.0113 2.7769e-22)
(12.5052 -5.1798 -2.23827e-21)
(12.4611 -5.35544 0)
(12.4243 -5.54 1.97874e-21)
(12.3921 -5.73519 2.94573e-21)
(12.367 -5.93908 -6.25491e-23)
(12.3523 -6.15184 5.71463e-21)
(12.3496 -6.37455 0)
(12.3592 -6.60897 1.02265e-21)
(12.3792 -6.85517 -1.05123e-21)
(12.4135 -7.11076 8.41324e-21)
(12.4629 -7.37242 0)
(12.5354 -7.64252 1.07597e-20)
(12.6253 -7.9157 1.68384e-20)
(12.7464 -8.19177 2.02916e-20)
(12.8887 -8.46888 2.25298e-20)
(13.059 -8.73853 2.74604e-20)
(13.2577 -8.99831 1.07335e-19)
(13.4846 -9.24382 1.09697e-20)
(13.7366 -9.46969 -1.36692e-19)
(14.009 -2.68076 1.36133e-20)
(13.957 -2.74103 -1.27237e-20)
(13.9066 -2.80551 -6.43704e-21)
(13.8564 -2.87172 -1.65475e-20)
(13.8032 -2.9403 0)
(13.7506 -3.01463 -9.87205e-21)
(13.6946 -3.08826 0)
(13.6418 -3.16907 -8.66839e-21)
(13.5845 -3.24928 5.80988e-21)
(13.532 -3.33283 4.36779e-22)
(13.4756 -3.42146 -7.17527e-21)
(13.4195 -3.51372 0)
(13.3614 -3.61084 1.34594e-21)
(13.3041 -3.71006 3.47076e-22)
(13.244 -3.81051 5.07534e-21)
(13.1887 -3.91423 2.09003e-22)
(13.1287 -4.02687 -3.47866e-21)
(13.0746 -4.14363 1.25477e-21)
(13.0195 -4.26745 0)
(12.9652 -4.39428 0)
(12.915 -4.52991 -6.04998e-22)
(12.8632 -4.67257 6.19551e-22)
(12.8138 -4.81815 7.13786e-22)
(12.7739 -4.97115 1.70021e-21)
(12.7353 -5.13584 -9.38765e-22)
(12.6964 -5.3046 4.32285e-21)
(12.6684 -5.4801 3.78682e-21)
(12.6417 -5.66828 -2.1231e-21)
(12.6209 -5.86596 6.91002e-21)
(12.6111 -6.07174 -5.32592e-21)
(12.6148 -6.28573 -6.44548e-22)
(12.6338 -6.51001 3.54719e-22)
(12.6559 -6.74439 1.94426e-20)
(12.6929 -6.99254 -3.17577e-20)
(12.7377 -7.23651 0)
(12.8165 -7.50126 0)
(12.8946 -7.75269 -3.57146e-20)
(13.0214 -8.01491 -4.37277e-20)
(13.1566 -8.28099 0)
(13.3196 -8.53729 9.44632e-20)
(13.5083 -8.7825 -6.63086e-20)
(13.7255 -9.01479 -4.22977e-20)
(13.9661 -9.22518 4.29245e-20)
(5.04225 -16.8388 1.8594e-18)
(6.61308 -16.308 -1.83614e-18)
(8.06613 -15.6563 0)
(9.49615 -15.2205 -7.65478e-20)
(10.802 -14.8667 0)
(11.9421 -14.5342 6.85555e-20)
(12.9354 -14.2339 -1.76515e-18)
(13.805 -13.973 1.47025e-18)
(14.5667 -13.7468 -1.14876e-19)
(15.2343 -13.5473 -1.49545e-18)
(15.8208 -13.3669 1.32699e-18)
(16.3377 -13.1988 -1.2101e-18)
(16.7955 -13.038 1.33173e-18)
(17.2016 -12.8788 -1.29096e-18)
(17.564 -12.7189 2.34754e-18)
(17.8887 -12.556 -1.06446e-18)
(18.1808 -12.3889 0)
(18.4453 -12.2176 0)
(18.6856 -12.0419 0)
(18.9054 -11.8626 1.40518e-19)
(19.1073 -11.6804 0)
(19.2939 -11.4964 1.02418e-20)
(19.4672 -11.3113 -2.00978e-18)
(19.6287 -11.126 3.94756e-18)
(19.78 -10.9412 -1.69376e-18)
(19.922 -10.7575 2.44474e-19)
(20.0557 -10.5754 0)
(20.182 -10.395 -1.6261e-18)
(20.3015 -10.2169 2.26962e-19)
(20.4147 -10.041 2.28758e-18)
(20.5221 -9.86755 0)
(20.6242 -9.69654 9.03641e-19)
(20.7214 -9.52796 -2.25862e-18)
(20.8141 -9.36179 1.57716e-18)
(20.9028 -9.19799 -2.23319e-18)
(20.9877 -9.03657 1.33624e-18)
(21.0691 -8.87749 8.95142e-19)
(21.1472 -8.72073 -8.95912e-19)
(21.2224 -8.56627 4.40493e-19)
(21.2946 -8.41411 0)
(21.3641 -8.26414 -4.39589e-19)
(21.4319 -8.11689 1.32283e-18)
(21.4976 -7.97176 4.26164e-19)
(10.3938 -13.5157 -1.90976e-19)
(11.225 -13.988 4.3433e-19)
(11.9908 -14.3102 1.14368e-19)
(12.7171 -14.4956 -1.47051e-18)
(13.4034 -14.5619 7.87676e-19)
(14.0382 -14.5327 5.78383e-20)
(14.6207 -14.4323 -8.93182e-19)
(15.1534 -14.2798 -6.40775e-20)
(15.6399 -14.0904 1.18458e-20)
(16.0836 -13.8756 -4.22493e-20)
(16.4889 -13.6448 1.05823e-18)
(16.8596 -13.4053 -1.15854e-18)
(17.1992 -13.1623 1.0506e-18)
(17.5111 -12.9197 1.26064e-19)
(17.7982 -12.6802 -9.00467e-19)
(18.0629 -12.4456 1.77081e-18)
(18.3076 -12.2171 -9.91299e-19)
(18.5341 -11.9952 1.18254e-19)
(18.7445 -11.7802 9.62336e-19)
(18.94 -11.5721 -9.39814e-19)
(19.1223 -11.3706 1.04115e-18)
(19.2925 -11.1753 -6.79752e-19)
(19.4517 -10.9859 0)
(19.6009 -10.8019 8.88876e-19)
(19.7411 -10.6228 -6.61546e-19)
(19.8729 -10.4482 2.13096e-19)
(19.9973 -10.2777 0)
(20.1148 -10.111 0)
(20.2262 -9.94769 -2.19876e-19)
(20.3319 -9.78759 -2.1891e-19)
(20.4324 -9.63047 0)
(20.5283 -9.47613 2.09838e-19)
(20.62 -9.32442 2.10361e-19)
(20.7078 -9.1752 2.18516e-19)
(20.7921 -9.02837 4.38169e-19)
(20.8731 -8.88385 -4.39635e-19)
(20.9512 -8.74154 4.28679e-19)
(21.0264 -8.60138 8.73143e-19)
(21.0988 -8.46327 -1.75336e-18)
(21.1687 -8.32711 -8.79699e-19)
(21.236 -8.19259 8.80118e-19)
(21.3016 -8.06008 -4.44785e-19)
(21.365 -7.92394 -4.46302e-19)
(11.1706 -12.5754 2.24599e-20)
(11.7277 -12.8639 3.09571e-20)
(12.3157 -13.0617 7.11771e-19)
(12.9133 -13.1803 -6.62192e-19)
(13.5037 -13.2317 0)
(14.0735 -13.2259 8.32419e-19)
(14.614 -13.174 -9.24422e-19)
(15.1208 -13.0852 -1.07671e-19)
(15.592 -12.9683 8.9549e-19)
(16.0275 -12.83 -9.29826e-19)
(16.4284 -12.6765 0)
(16.7964 -12.5119 -1.07261e-18)
(17.1339 -12.3401 9.3205e-19)
(17.4433 -12.164 7.09472e-19)
(17.7271 -11.9858 -9.16967e-19)
(17.9878 -11.8069 9.28055e-19)
(18.2278 -11.6287 -1.69501e-18)
(18.4492 -11.452 7.70598e-19)
(18.6538 -11.2775 -1.06914e-19)
(18.8438 -11.1055 1.05764e-19)
(19.0205 -10.9364 -8.67231e-19)
(19.1855 -10.7703 6.33566e-19)
(19.34 -10.6073 0)
(19.4851 -10.4473 -2.04038e-19)
(19.6219 -10.2904 -2.1105e-19)
(19.751 -10.1364 -2.0956e-19)
(19.8733 -9.98538 -1.02213e-18)
(19.9894 -9.83712 8.15278e-19)
(20.0998 -9.69156 -8.17422e-19)
(20.2052 -9.54861 6.13901e-19)
(20.3058 -9.40816 0)
(20.402 -9.27011 -2.07813e-19)
(20.4942 -9.13432 -2.08598e-19)
(20.5827 -9.00071 -8.28852e-19)
(20.6679 -8.86919 1.66612e-18)
(20.7498 -8.73971 -8.37939e-19)
(20.8287 -8.61218 -1.48198e-18)
(20.9046 -8.48652 4.2954e-19)
(20.9776 -8.36263 -4.24533e-19)
(21.0479 -8.24041 1.72303e-18)
(21.1155 -8.11971 -8.64086e-19)
(21.1807 -8.00111 4.28816e-19)
(21.2422 -7.8803 -4.21324e-19)
(12.3412 -11.521 2.18196e-19)
(12.7841 -11.7806 -5.8164e-20)
(13.2491 -11.9827 -3.0112e-20)
(13.7224 -12.1274 3.35501e-20)
(14.1927 -12.2181 4.24615e-19)
(14.6512 -12.26 -2.49625e-19)
(15.0917 -12.2596 0)
(15.5102 -12.2237 1.04539e-19)
(15.9045 -12.1586 0)
(16.2737 -12.0702 0)
(16.6181 -11.9633 0)
(16.9383 -11.8424 9.69379e-19)
(17.2358 -11.711 -1.6959e-18)
(17.5119 -11.5722 9.47405e-19)
(17.7683 -11.4283 1.03661e-19)
(18.0065 -11.2812 1.08686e-19)
(18.2281 -11.1325 -1.07702e-19)
(18.4345 -10.9832 1.01763e-19)
(18.6272 -10.8343 -7.22358e-19)
(18.8074 -10.6864 7.06165e-19)
(18.9763 -10.5401 7.09796e-19)
(19.1349 -10.3957 -5.97621e-19)
(19.2841 -10.2534 0)
(19.4247 -10.1134 -5.93714e-19)
(19.5574 -9.97569 1.77229e-18)
(19.6829 -9.84023 5.21661e-21)
(19.802 -9.70707 2.04373e-19)
(19.9151 -9.57612 -1.56784e-18)
(20.0228 -9.4474 7.82485e-19)
(20.1254 -9.32081 9.87584e-19)
(20.2234 -9.19624 3.56091e-21)
(20.3171 -9.07361 -9.87157e-19)
(20.4069 -8.95281 0)
(20.4931 -8.8338 8.05105e-19)
(20.5762 -8.71656 -8.08835e-19)
(20.6561 -8.60106 8.18665e-19)
(20.7329 -8.4872 -1.64526e-18)
(20.8069 -8.37491 1.25174e-18)
(20.878 -8.26404 4.20348e-19)
(20.9464 -8.15447 -4.22339e-19)
(21.0125 -8.04616 4.42646e-21)
(21.0763 -7.93932 -8.57009e-19)
(21.1389 -7.83372 8.47155e-19)
(12.8981 -10.8959 2.26014e-21)
(13.2754 -11.1217 2.51008e-19)
(13.6736 -11.303 -1.84759e-19)
(14.0828 -11.4385 -7.3541e-20)
(14.4941 -11.5301 -8.038e-20)
(14.8997 -11.581 -8.62696e-20)
(15.2938 -11.5961 0)
(15.6724 -11.5799 -9.16784e-20)
(16.0327 -11.5376 0)
(16.3732 -11.4736 -3.05771e-19)
(16.6934 -11.3921 3.91953e-19)
(16.9935 -11.297 0)
(17.274 -11.1913 -9.93665e-20)
(17.5358 -11.0775 -4.10431e-19)
(17.78 -10.958 -1.12258e-19)
(18.0079 -10.8346 4.98116e-19)
(18.2206 -10.7085 -4.04532e-19)
(18.4193 -10.581 2.93825e-19)
(18.6052 -10.453 0)
(18.7795 -10.325 0)
(18.943 -10.1978 0)
(19.0967 -10.0717 -9.85485e-20)
(19.2412 -9.94694 -3.87869e-19)
(19.3774 -9.82363 -1.93187e-19)
(19.5062 -9.7019 3.76239e-19)
(19.628 -9.58178 0)
(19.7437 -9.46334 5.71385e-19)
(19.8538 -9.34667 -3.80277e-19)
(19.9586 -9.23185 5.7235e-19)
(20.0584 -9.11875 -3.82202e-19)
(20.1537 -9.00728 0)
(20.245 -8.89738 -1.92449e-19)
(20.3326 -8.789 -1.78597e-21)
(20.4169 -8.68221 9.80823e-19)
(20.498 -8.57705 -3.95807e-19)
(20.5758 -8.47346 -1.98436e-19)
(20.6506 -8.37132 4.08932e-19)
(20.7222 -8.27048 -4.07978e-19)
(20.791 -8.17082 2.04579e-19)
(20.8571 -8.07215 -2.06416e-19)
(20.9207 -7.9743 4.22705e-19)
(20.982 -7.87654 0)
(21.0428 -7.78029 -4.23984e-19)
(13.381 -10.3835 -5.06396e-20)
(13.7193 -10.5878 5.8099e-20)
(14.075 -10.7552 0)
(14.4407 -10.8846 -2.96844e-19)
(14.8092 -10.9772 -2.60873e-20)
(15.1739 -11.0352 -2.43363e-20)
(15.5298 -11.0615 2.46382e-19)
(15.8734 -11.0599 2.80381e-21)
(16.2021 -11.0343 3.76693e-19)
(16.5146 -10.9884 -4.63627e-19)
(16.81 -10.9259 2.9516e-19)
(17.0884 -10.8501 -2.84349e-19)
(17.3499 -10.7635 9.91157e-20)
(17.5952 -10.6686 9.64153e-20)
(17.825 -10.5676 3.95085e-19)
(18.0403 -10.462 -8.78552e-19)
(18.2421 -10.3532 2.88689e-19)
(18.4312 -10.2422 0)
(18.609 -10.1299 0)
(18.7761 -10.0174 9.46189e-20)
(18.933 -9.90517 0)
(19.0806 -9.79343 3.8102e-19)
(19.2196 -9.68233 -7.54103e-19)
(19.3508 -9.5722 5.6392e-19)
(19.475 -9.46313 1.86849e-19)
(19.5927 -9.35525 -3.72412e-19)
(19.7049 -9.24868 1.86286e-19)
(19.8117 -9.14384 -1.87349e-19)
(19.913 -9.04063 -3.57741e-21)
(20.0095 -8.93877 0)
(20.1016 -8.83822 0)
(20.19 -8.73896 0)
(20.275 -8.64104 -5.73715e-19)
(20.3568 -8.54471 3.85995e-19)
(20.4352 -8.44999 -5.82225e-19)
(20.5102 -8.35674 1.9856e-19)
(20.582 -8.26472 5.99477e-19)
(20.6506 -8.17379 -4.01604e-19)
(20.7165 -8.08393 -2.04882e-19)
(20.7796 -7.99501 2.06803e-19)
(20.8404 -7.90682 0)
(20.8989 -7.81856 2.09959e-19)
(20.9575 -7.73443 -2.06499e-19)
(13.7307 -9.99166 -9.6333e-20)
(14.0417 -10.1807 0)
(14.3676 -10.3371 -6.39514e-20)
(14.7038 -10.4605 6.94609e-20)
(15.043 -10.5521 0)
(15.3789 -10.613 0)
(15.7076 -10.645 5.10504e-19)
(16.0261 -10.6513 -1.63221e-19)
(16.3324 -10.6355 0)
(16.6251 -10.6009 0)
(16.9027 -10.5509 9.40296e-20)
(17.1653 -10.4879 -2.05529e-21)
(17.4128 -10.4144 0)
(17.6463 -10.3325 -2.07407e-21)
(17.8656 -10.2445 0)
(18.0715 -10.152 -3.84879e-19)
(18.2649 -10.056 3.78105e-19)
(18.4464 -9.95729 -3.81952e-19)
(18.6183 -9.8569 3.7395e-19)
(18.7797 -9.75673 -9.48335e-20)
(18.9306 -9.65643 1.85278e-19)
(19.0727 -9.55567 -1.84497e-19)
(19.2069 -9.45527 0)
(19.3336 -9.35558 -5.54642e-19)
(19.4538 -9.25662 1.84033e-19)
(19.5679 -9.15842 0)
(19.6773 -9.0615 0)
(19.7805 -8.96674 -1.85769e-19)
(19.8781 -8.87312 -1.86136e-19)
(19.9711 -8.78035 0)
(20.0603 -8.6887 1.84777e-19)
(20.1459 -8.59813 0)
(20.2286 -8.50888 1.90091e-19)
(20.3078 -8.42147 5.7319e-19)
(20.3833 -8.33572 -7.65652e-19)
(20.4551 -8.25122 -1.94609e-19)
(20.5236 -8.16775 1.96735e-19)
(20.5891 -8.08518 1.97186e-19)
(20.6521 -8.00374 0)
(20.7123 -7.92335 -2.04775e-19)
(20.7704 -7.84358 6.11686e-19)
(20.8266 -7.76358 2.07253e-19)
(20.8833 -7.6889 -4.03884e-19)
(14.0125 -9.67343 -1.19386e-20)
(14.3024 -9.85121 1.08195e-19)
(14.6072 -9.9996 6.28094e-20)
(14.9233 -10.1172 -6.82591e-20)
(15.2409 -10.2082 -7.27673e-20)
(15.5541 -10.2706 7.70036e-20)
(15.8613 -10.3056 -8.15687e-20)
(16.1601 -10.3168 -8.48243e-20)
(16.449 -10.3075 1.77435e-19)
(16.7258 -10.2818 -1.73591e-19)
(16.9888 -10.2411 8.99276e-20)
(17.2383 -10.1872 -4.64535e-19)
(17.474 -10.1229 3.63571e-19)
(17.698 -10.0509 -2.85181e-19)
(17.9077 -9.97386 3.67541e-19)
(18.1053 -9.89129 1.85569e-19)
(18.2912 -9.80534 -2.81894e-19)
(18.4663 -9.71593 1.82763e-19)
(18.6342 -9.62499 0)
(18.7889 -9.53552 3.71774e-19)
(18.9338 -9.44394 -1.80271e-19)
(19.0712 -9.35142 1.89269e-19)
(19.2009 -9.2599 -5.45203e-19)
(19.3237 -9.16865 1.83569e-19)
(19.4405 -9.07756 3.64395e-19)
(19.5515 -8.98694 3.64813e-19)
(19.6589 -8.89831 -3.61665e-19)
(19.7572 -8.81255 -1.83796e-19)
(19.8512 -8.72627 3.63223e-19)
(19.9414 -8.64079 0)
(20.0278 -8.55645 -5.53759e-19)
(20.111 -8.47288 -2.15126e-21)
(20.1916 -8.39096 5.56804e-19)
(20.268 -8.31143 1.86992e-19)
(20.3401 -8.23328 5.71244e-19)
(20.4085 -8.1561 -1.89617e-19)
(20.4737 -8.07966 3.89384e-19)
(20.5363 -8.00404 -3.92995e-19)
(20.5966 -7.92988 0)
(20.6539 -7.85717 -2.0169e-19)
(20.7093 -7.7848 -4.06262e-19)
(20.7633 -7.71251 2.03483e-19)
(20.8171 -7.64726 4.00832e-19)
(14.2308 -9.4206 -1.0646e-19)
(14.5007 -9.58749 0)
(14.797 -9.72798 0)
(15.1051 -9.83531 2.70316e-19)
(15.4052 -9.92784 -2.14612e-19)
(15.6992 -9.99052 7.13522e-20)
(15.9898 -10.0259 1.65839e-19)
(16.2748 -10.0392 -3.33019e-19)
(16.5517 -10.0349 3.38687e-19)
(16.8178 -10.0168 -1.68725e-19)
(17.0712 -9.97975 -8.95518e-20)
(17.3114 -9.93051 -1.85067e-19)
(17.5376 -9.87319 1.80685e-19)
(17.7551 -9.81084 -1.84309e-19)
(17.9558 -9.74253 0)
(18.1506 -9.66437 -1.86502e-19)
(18.3305 -9.587 -1.87347e-19)
(18.5017 -9.50365 5.5294e-19)
(18.6696 -9.42068 -1.78226e-19)
(18.8151 -9.339 -1.84418e-19)
(18.9545 -9.2533 1.85561e-19)
(19.0866 -9.16964 0)
(19.2116 -9.08647 1.83774e-19)
(19.3307 -9.00136 -1.8296e-19)
(19.4432 -8.91695 -1.83276e-19)
(19.5506 -8.83302 1.45055e-21)
(19.6569 -8.753 -1.75888e-19)
(19.7471 -8.67431 -5.49645e-19)
(19.8395 -8.59314 -3.71983e-19)
(19.9256 -8.51501 1.07854e-21)
(20.009 -8.43668 0)
(20.0891 -8.35901 -1.85211e-19)
(20.167 -8.28411 -2.30417e-21)
(20.2391 -8.21172 -1.96484e-21)
(20.3077 -8.13989 -1.91141e-19)
(20.3714 -8.06932 0)
(20.432 -7.99893 -1.99372e-19)
(20.4915 -7.92923 8.03936e-22)
(20.549 -7.86203 1.98759e-19)
(20.6025 -7.7969 0)
(20.6546 -7.73125 0)
(20.7051 -7.66615 2.0687e-19)
(20.7526 -7.60739 2.02834e-19)
(21.7662 -1.29078 -7.14237e-19)
(21.7868 -1.31501 -1.86479e-19)
(21.8076 -1.34027 0)
(21.8285 -1.36489 9.40886e-19)
(21.8492 -1.38927 -1.13138e-18)
(21.8696 -1.41336 1.51318e-18)
(21.8897 -1.43714 1.14384e-18)
(21.9092 -1.46058 -1.52724e-18)
(21.9282 -1.48366 1.92939e-19)
(21.9463 -1.50638 0)
(21.9633 -1.52871 5.97899e-22)
(21.979 -1.55064 -9.95656e-20)
(21.9929 -1.57216 1.01033e-19)
(22.0048 -1.59324 0)
(22.014 -1.61388 -1.04698e-19)
(22.0201 -1.63405 0)
(22.0222 -1.65373 -1.74698e-18)
(22.0195 -1.67291 1.78996e-18)
(22.011 -1.69157 5.73426e-20)
(21.9955 -1.70969 -1.7795e-18)
(21.9716 -1.72721 -6.41005e-20)
(21.9376 -1.74411 2.02205e-18)
(21.8919 -1.76028 -2.09613e-18)
(21.8325 -1.77562 2.23532e-18)
(21.7578 -1.78998 0)
(21.6659 -1.80322 -7.30368e-20)
(21.5553 -1.81515 0)
(21.4241 -1.82557 -2.54358e-18)
(21.2707 -1.8343 2.579e-18)
(21.0931 -1.84112 -4.43736e-20)
(20.8897 -1.84579 2.96777e-18)
(20.6579 -1.8481 -3.14786e-18)
(20.3954 -1.84777 -1.79331e-18)
(20.0992 -1.84457 3.62763e-18)
(19.7653 -1.83825 -3.9403e-18)
(19.388 -1.82852 2.15575e-18)
(18.9588 -1.81497 2.40421e-18)
(18.465 -1.79698 -2.61066e-18)
(17.8865 -1.77351 -4.89217e-20)
(17.1877 -1.74275 5.76403e-20)
(16.2972 -1.71038 -6.89894e-20)
(14.8721 -1.71457 0)
(11.5136 -1.71799 -2.92534e-18)
(21.7382 -1.30869 3.98115e-19)
(21.7564 -1.33225 -2.41962e-20)
(21.7746 -1.35617 0)
(21.7928 -1.37953 0)
(21.811 -1.40265 7.81212e-19)
(21.829 -1.42555 -7.82886e-19)
(21.8467 -1.44823 -1.96928e-19)
(21.8642 -1.47067 -9.83053e-20)
(21.8812 -1.49287 0)
(21.8978 -1.51482 9.9593e-20)
(21.9136 -1.53652 -1.51448e-18)
(21.9286 -1.55795 1.6302e-18)
(21.9424 -1.57912 0)
(21.9549 -1.6 0)
(21.9657 -1.62061 -1.06609e-19)
(21.9743 -1.64089 -1.74939e-18)
(21.9803 -1.66087 1.8979e-18)
(21.9831 -1.68053 -1.72083e-18)
(21.9818 -1.69984 1.88276e-18)
(21.9756 -1.71878 -2.00593e-18)
(21.9633 -1.73733 2.00416e-18)
(21.9436 -1.75547 0)
(21.915 -1.77316 6.69711e-20)
(21.8756 -1.79033 -2.30685e-18)
(21.8235 -1.8069 2.31937e-18)
(21.7567 -1.82274 7.54929e-20)
(21.6733 -1.83776 -7.83462e-20)
(21.5708 -1.85183 2.63449e-18)
(21.4472 -1.86477 -5.42676e-18)
(21.2998 -1.87643 2.89529e-18)
(21.1261 -1.88664 -9.51106e-20)
(20.923 -1.89519 0)
(20.6873 -1.90185 1.78183e-18)
(20.4148 -1.90638 -3.75591e-18)
(20.1005 -1.90844 1.93109e-18)
(19.7376 -1.90761 6.7398e-20)
(19.3168 -1.90317 1.19338e-18)
(18.8246 -1.8941 -1.40703e-18)
(18.239 -1.87901 9.28444e-20)
(17.516 -1.8571 0)
(16.4869 -1.84466 2.43893e-19)
(14.4446 -1.89538 0)
(10.9955 -1.8762 0)
(21.712 -1.32504 -1.71732e-19)
(21.7283 -1.34701 1.74763e-19)
(21.7445 -1.36931 0)
(21.7607 -1.39128 0)
(21.7768 -1.41311 -2.01415e-19)
(21.7928 -1.43482 -3.02038e-19)
(21.8086 -1.45639 0)
(21.8243 -1.47781 9.11633e-19)
(21.8398 -1.49912 -1.72842e-18)
(21.8548 -1.52027 8.17631e-19)
(21.8694 -1.54129 -1.75749e-18)
(21.8834 -1.56217 1.66863e-18)
(21.8966 -1.58292 -1.05471e-19)
(21.9088 -1.60353 1.0707e-19)
(21.9198 -1.624 1.09711e-19)
(21.9293 -1.64431 0)
(21.9368 -1.66447 0)
(21.9419 -1.68447 1.75636e-18)
(21.9441 -1.70428 -1.98059e-18)
(21.9425 -1.7239 -6.16362e-20)
(21.9364 -1.74328 -1.98241e-18)
(21.9246 -1.76241 2.04686e-18)
(21.9058 -1.78122 -6.88012e-20)
(21.8785 -1.79968 0)
(21.8408 -1.81769 7.3669e-20)
(21.7905 -1.83516 0)
(21.7256 -1.85197 8.06637e-20)
(21.6436 -1.86799 -8.3466e-20)
(21.5417 -1.88305 1.40658e-18)
(21.4172 -1.89695 -1.38137e-18)
(21.2668 -1.90949 1.9393e-19)
(21.0871 -1.92039 1.01944e-19)
(20.8738 -1.92932 1.63494e-18)
(20.6222 -1.93589 -1.85599e-18)
(20.3265 -1.93958 1.93351e-18)
(19.9791 -1.93974 -3.29722e-18)
(19.57 -1.93538 1.17294e-18)
(19.0845 -1.92515 0)
(18.4975 -1.90814 6.30311e-19)
(17.7348 -1.88959 -7.02531e-19)
(16.4519 -1.91023 -9.23822e-20)
(14.011 -1.99093 -1.20552e-20)
(10.965 -1.94299 0)
(21.6893 -1.34014 2.00358e-19)
(21.7033 -1.36005 -3.09754e-19)
(21.7176 -1.38077 2.06683e-19)
(21.732 -1.40136 -2.06153e-19)
(21.7465 -1.42192 0)
(21.7609 -1.44245 1.0336e-18)
(21.7753 -1.46292 -1.55181e-18)
(21.7895 -1.48334 1.65949e-18)
(21.8035 -1.50369 -8.32086e-19)
(21.8173 -1.524 -1.05082e-19)
(21.8307 -1.54425 5.17451e-22)
(21.8437 -1.56445 0)
(21.8562 -1.58461 5.66798e-22)
(21.8678 -1.60471 -1.10113e-19)
(21.8786 -1.62477 1.78931e-18)
(21.8881 -1.64479 -1.70719e-18)
(21.8962 -1.66474 1.16141e-19)
(21.9023 -1.68464 1.19703e-19)
(21.9062 -1.70447 -6.11029e-20)
(21.9071 -1.72422 1.26197e-19)
(21.9045 -1.74388 -6.48845e-20)
(21.8973 -1.7634 -2.15526e-18)
(21.8845 -1.78275 1.11276e-18)
(21.8648 -1.80189 1.15726e-18)
(21.8364 -1.82075 -1.28152e-18)
(21.7975 -1.83924 7.57374e-20)
(21.7457 -1.85722 -2.46435e-21)
(21.6785 -1.87458 1.36352e-18)
(21.5932 -1.89111 1.51635e-18)
(21.4867 -1.90665 -1.84254e-19)
(21.3553 -1.9209 -1.667e-18)
(21.1951 -1.93357 1.55157e-18)
(21.0016 -1.94428 -1.63839e-18)
(20.7694 -1.95252 0)
(20.4921 -1.95762 2.48465e-19)
(20.1616 -1.95876 0)
(19.7675 -1.95485 -1.4394e-19)
(19.2936 -1.94454 -1.57309e-19)
(18.7077 -1.92817 6.95959e-19)
(17.8784 -1.92111 -1.21444e-18)
(16.3271 -1.97951 3.65541e-19)
(13.781 -2.06597 0)
(11.0439 -1.98437 0)
(21.6676 -1.35219 -2.34989e-19)
(21.6803 -1.37095 1.32368e-19)
(21.6931 -1.39049 3.32312e-22)
(21.706 -1.40988 -4.24268e-19)
(21.7189 -1.42929 4.23145e-19)
(21.732 -1.4487 -3.90259e-22)
(21.7449 -1.46812 7.42412e-19)
(21.7578 -1.48755 -8.49116e-19)
(21.7707 -1.507 2.13296e-19)
(21.7833 -1.52647 -7.51971e-19)
(21.7957 -1.54596 9.72497e-19)
(21.8079 -1.56549 8.74677e-19)
(21.8196 -1.58504 -1.76874e-18)
(21.8308 -1.60463 7.84952e-19)
(21.8413 -1.62425 -1.13861e-19)
(21.8509 -1.6439 -1.16655e-19)
(21.8593 -1.66358 -1.19223e-19)
(21.8664 -1.68329 0)
(21.8716 -1.70301 3.38406e-22)
(21.8745 -1.72274 -1.28643e-19)
(21.8745 -1.74246 6.65316e-20)
(21.8709 -1.76215 3.88644e-22)
(21.8627 -1.78178 -1.06634e-18)
(21.8488 -1.80129 1.25137e-18)
(21.8276 -1.82063 -1.22663e-18)
(21.7974 -1.83974 2.55015e-18)
(21.756 -1.85849 -1.32764e-18)
(21.7009 -1.87676 -1.3005e-18)
(21.6292 -1.89435 -9.3195e-20)
(21.5375 -1.91108 1.60854e-18)
(21.4222 -1.92667 0)
(21.2789 -1.94081 1.04004e-19)
(21.1027 -1.95312 0)
(20.8879 -1.96307 1.16061e-19)
(20.6274 -1.96996 -1.24305e-19)
(20.3127 -1.97285 0)
(19.9328 -1.97051 1.4325e-19)
(19.4703 -1.9618 1.55349e-19)
(18.88 -1.94878 0)
(17.958 -1.95879 0)
(16.1999 -2.0447 -1.6405e-19)
(13.6786 -2.11764 2.96418e-19)
(11.1231 -2.01219 -2.60961e-19)
(21.6479 -1.3631 -1.08921e-19)
(21.6592 -1.38048 -2.95816e-22)