/*--------------------------------*- C++ -*----------------------------------*\
| =========                 |                                                 |
| \\      /  F ield         | OpenFOAM: The Open Source CFD Toolbox           |
|  \\    /   O peration     | Version:  2.3.0                                 |
|   \\  /    A nd           | Web:      www.OpenFOAM.org                      |
|    \\/     M anipulation  |                                                 |
\*---------------------------------------------------------------------------*/
FoamFile
{
    version     2.0;
    format      ascii;
    class       volScalarField;
    location    "150";
    object      p;
}
// * * * * * * * * * * * * * * * * * * * * * * * * * * * * * * * * * * * * * //

dimensions      [0 2 -2 0 0 0 0];

internalField   nonuniform List<scalar> 
7994
(
-0.000595902
0.0227459
0.0809092
0.18452
0.334256
0.523704
0.742568
0.981439
1.23362
1.49688
1.77072
2.05917
2.39251
2.89216
3.52267
0.216649
0.241081
0.267347
0.297213
0.336401
0.391397
0.46811
0.570571
0.700201
0.856177
1.03563
1.2349
1.44973
1.67758
1.91681
0.43335
0.512855
0.61065
0.723982
0.850751
0.986804
1.12774
1.26977
1.4099
1.54618
1.67707
1.80183
1.91949
2.0298
2.13277
0.565796
0.636886
0.716659
0.800515
0.888466
0.979991
1.07444
1.17108
1.26901
1.36746
1.46548
1.5624
1.6574
1.75009
1.84022
0.671165
0.741869
0.82208
0.905403
0.991038
1.07785
1.16479
1.25101
1.33584
1.41886
1.49966
1.57809
1.65389
1.72706
1.79753
0.742823
0.804353
0.873462
0.944075
1.01555
1.08738
1.15916
1.23059
1.30135
1.37126
1.44006
1.50762
1.57373
1.63831
1.70124
0.791553
0.848543
0.910906
0.974342
1.03823
1.10221
1.16603
1.22949
1.29236
1.35452
1.41577
1.47602
1.53509
1.5929
1.6493
0.824211
0.87852
0.934362
0.990732
1.04743
1.10427
1.16112
1.21785
1.27431
1.33038
1.38592
1.44079
1.49484
1.54794
1.59994
0.853119
0.902144
0.951678
1.00218
1.05327
1.10474
1.15644
1.20823
1.25999
1.31158
1.36286
1.41369
1.4639
1.51334
1.56184
0.870609
0.918314
0.963304
1.00922
1.05585
1.10304
1.15063
1.19848
1.24648
1.29449
1.34241
1.39009
1.43732
1.48393
1.52968
0.886357
0.930273
0.971694
1.0139
1.05686
1.10055
1.14479
1.18941
1.23437
1.27945
1.3246
1.36969
1.41452
1.4589
1.5025
0.89903
0.938664
0.977243
1.01646
1.05674
1.0976
1.13879
1.18049
1.22292
1.26552
1.30821
1.35109
1.39402
1.43659
1.47847
0.909811
0.947431
0.983707
1.02017
1.05758
1.09596
1.13527
1.17506
1.21499
1.25502
1.29585
1.33792
1.38017
1.42221
1.46234
0.927185
0.958749
0.997326
1.03057
1.05717
1.09314
1.13661
1.17629
1.21254
1.24878
1.28824
1.33117
1.37112
1.41524
1.45758
4.28886
4.38959
4.26332
4.26085
4.29427
4.31361
4.31147
4.29143
4.25475
4.19919
4.11993
4.01113
3.86871
3.69408
3.50428
2.17425
2.44701
2.70702
2.94999
3.1698
3.35862
3.50885
3.61486
3.67343
3.68455
3.65146
3.58045
3.47979
3.35861
3.22989
2.23066
2.3256
2.41834
2.50914
2.59732
2.68178
2.76119
2.83403
2.89827
2.95153
2.99055
3.01166
3.01137
2.98869
2.95079
1.9292
2.01864
2.10881
2.19894
2.28791
2.37419
2.45607
2.53163
2.59875
2.65536
2.69938
2.729
2.74294
2.74155
2.72918
1.86607
1.93375
2.00106
2.06771
2.13333
2.19733
2.25905
2.31771
2.37236
2.4219
2.46493
2.49987
2.52505
2.5398
2.54578
1.76298
1.82419
1.88504
1.94523
2.00438
2.06205
2.11771
2.17075
2.22047
2.26611
2.30675
2.34135
2.36887
2.38936
2.40769
1.70455
1.75908
1.813
1.86608
1.91804
1.96856
2.01729
2.06384
2.10774
2.14851
2.1855
2.21797
2.24514
2.2666
2.28295
1.65094
1.70124
1.75085
1.79955
1.8471
1.89324
1.93766
1.98006
2.02012
2.05745
2.09163
2.12216
2.14845
2.17005
2.18822
1.6094
1.65622
1.70227
1.74735
1.79126
1.83376
1.87459
1.91352
1.95031
1.98468
2.01635
2.04496
2.07001
2.09103
2.11042
1.57451
1.61853
1.66174
1.70397
1.74502
1.78464
1.82262
1.85879
1.89295
1.92491
1.95446
1.98134
2.00523
2.02566
2.04315
1.54511
1.58679
1.62762
1.66741
1.70617
1.74348
1.77912
1.81304
1.845
1.87496
1.90269
1.92804
1.95088
1.97066
1.98673
1.51935
1.55908
1.598
1.6356
1.67266
1.70829
1.74212
1.77425
1.80433
1.83261
1.85872
1.8826
1.90436
1.92323
1.93742
1.501
1.53743
1.57409
1.61028
1.64624
1.67957
1.71042
1.74044
1.76848
1.79521
1.82001
1.84275
1.86353
1.88207
1.89767
1.49198
1.52239
1.55475
1.59022
1.62802
1.65576
1.68215
1.70983
1.73568
1.7611
1.78529
1.8071
1.8256
1.84207
1.85731
-0.861472
-0.854839
-0.792218
-0.667796
-0.4941
-0.296575
-0.10581
0.0512731
0.158718
0.212228
0.216346
0.177027
0.0988338
-0.0279138
-0.0303769
-0.821484
-0.858684
-0.902667
-0.964642
-1.05119
-1.15776
-1.27313
-1.38475
-1.4822
-1.55974
-1.61641
-1.65655
-1.68194
-1.71569
-1.71618
-0.822966
-0.900154
-0.99432
-1.10042
-1.20838
-1.30581
-1.3845
-1.44225
-1.48126
-1.50625
-1.52276
-1.53788
-1.55167
-1.56568
-1.56773
-0.766176
-0.811358
-0.851531
-0.883418
-0.906161
-0.920399
-0.928325
-0.932532
-0.935168
-0.937946
-0.942317
-0.951185
-0.964307
-0.975681
-0.978067
-0.682193
-0.700261
-0.712559
-0.720861
-0.727195
-0.732687
-0.737653
-0.741922
-0.745395
-0.74848
-0.752172
-0.758616
-0.768834
-0.776845
-0.776522
-0.617983
-0.632682
-0.646293
-0.659665
-0.672279
-0.683538
-0.692949
-0.70031
-0.705886
-0.710473
-0.715405
-0.722547
-0.733004
-0.741119
-0.73997
-0.574278
-0.583316
-0.595007
-0.606807
-0.617604
-0.627302
-0.636006
-0.643862
-0.651145
-0.658335
-0.666366
-0.676476
-0.689219
-0.699089
-0.698151
-0.526044
-0.530228
-0.537096
-0.544645
-0.552449
-0.560948
-0.570314
-0.580524
-0.591493
-0.60322
-0.616085
-0.630718
-0.647033
-0.65951
-0.659262
-0.483186
-0.47895
-0.482108
-0.486943
-0.493587
-0.502715
-0.514529
-0.528937
-0.545633
-0.564246
-0.584752
-0.606997
-0.629664
-0.646674
-0.648025
-0.432765
-0.430368
-0.431248
-0.433533
-0.43839
-0.447087
-0.460379
-0.47867
-0.501524
-0.528375
-0.559062
-0.593589
-0.629225
-0.657349
-0.664757
-0.397866
-0.387502
-0.384041
-0.382092
-0.383317
-0.389894
-0.403902
-0.426883
-0.458065
-0.495133
-0.539948
-0.59307
-0.648341
-0.691054
-0.706393
-0.355979
-0.34529
-0.337672
-0.329909
-0.323284
-0.321679
-0.327822
-0.350414
-0.386721
-0.427746
-0.474639
-0.548796
-0.653194
-0.739781
-0.781354
-0.326827
-0.30841
-0.300253
-0.287142
-0.274738
-0.269115
-0.271937
-0.302301
-0.366329
-0.417322
-0.48241
-0.573082
-0.735032
-0.83333
-0.870357
-0.285763
-0.25908
-0.254394
-0.236119
-0.193634
-0.155362
-0.0837331
-0.090935
-0.180753
-0.201138
-0.140265
-0.175598
-0.641527
-0.930245
-0.95879
-0.023699
-0.0132761
0.121004
0.206422
0.253688
0.257868
0.21283
0.114039
-0.0334999
-0.212596
-0.39482
-0.549561
-0.650986
-0.687658
-0.668355
-1.71271
-1.7073
-1.66855
-1.63817
-1.59151
-1.52649
-1.43857
-1.32881
-1.20316
-1.07254
-0.950015
-0.847616
-0.768877
-0.706375
-0.648669
-1.56398
-1.5552
-1.53492
-1.5153
-1.49346
-1.46899
-1.43455
-1.3845
-1.31411
-1.22141
-1.10917
-0.986317
-0.865055
-0.755138
-0.660525
-0.974588
-0.965487
-0.947928
-0.929005
-0.913712
-0.902021
-0.890861
-0.878772
-0.863966
-0.844293
-0.817157
-0.780419
-0.733382
-0.67718
-0.614862
-0.773184
-0.766902
-0.752821
-0.736896
-0.724244
-0.713549
-0.702544
-0.690267
-0.676283
-0.660692
-0.643573
-0.624514
-0.602315
-0.575204
-0.541766
-0.736715
-0.731316
-0.717153
-0.700973
-0.687631
-0.675741
-0.663353
-0.649183
-0.632423
-0.612821
-0.590528
-0.566048
-0.539991
-0.513019
-0.484943
-0.694986
-0.689468
-0.673613
-0.655183
-0.638906
-0.623968
-0.609073
-0.593343
-0.576283
-0.557612
-0.53714
-0.514824
-0.490818
-0.46618
-0.443647
-0.656414
-0.650675
-0.632606
-0.610847
-0.590169
-0.570448
-0.55103
-0.531602
-0.512151
-0.49276
-0.473463
-0.454241
-0.434916
-0.415885
-0.399638
-0.645278
-0.638246
-0.615908
-0.588132
-0.560243
-0.533157
-0.506975
-0.481833
-0.458076
-0.435943
-0.4156
-0.397128
-0.380263
-0.364876
-0.353241
-0.664242
-0.653828
-0.62171
-0.581567
-0.541393
-0.5034
-0.468231
-0.436479
-0.407972
-0.383009
-0.361804
-0.344174
-0.329577
-0.317408
-0.309278
-0.705473
-0.685099
-0.63329
-0.575447
-0.520523
-0.468957
-0.424172
-0.385361
-0.3525
-0.326058
-0.305717
-0.291057
-0.280433
-0.27296
-0.270102
-0.811905
-0.772745
-0.666498
-0.572584
-0.493514
-0.423893
-0.369675
-0.330361
-0.293688
-0.265831
-0.24849
-0.238137
-0.233065
-0.231419
-0.232629
-0.923161
-0.820241
-0.594558
-0.519565
-0.454969
-0.354983
-0.308954
-0.261781
-0.213287
-0.193589
-0.181829
-0.183263
-0.184409
-0.191287
-0.199082
-1.41861
-1.22156
-0.605649
-0.554007
-0.407769
-0.249941
-0.210991
-0.231896
-0.166058
-0.136854
-0.139452
-0.141112
-0.148805
-0.163768
-0.182924
-8.32471
-7.70371
-7.14725
-6.55506
-5.91093
-5.20823
-4.46493
-3.70709
-2.9658
-2.27695
-1.6737
-1.17989
-0.802822
-0.532776
-0.35377
-0.119674
-1.05011
-1.19438
-1.23324
-1.30736
-1.3923
-1.45584
-1.48555
-1.47223
-1.40738
-1.28801
-1.1212
-0.924382
-0.721164
-0.541864
-0.735559
-1.11766
-0.961965
-0.93058
-0.961101
-0.988435
-1.00156
-1.00524
-0.999668
-0.981637
-0.946626
-0.889518
-0.80662
-0.698599
-0.581434
-2.13851
-2.14864
-1.88977
-1.81947
-1.76025
-1.67835
-1.58024
-1.4726
-1.35623
-1.23267
-1.10508
-0.977015
-0.850877
-0.726685
-0.610593
-2.09028
-1.80018
-1.6289
-1.60579
-1.56029
-1.49886
-1.4301
-1.35482
-1.27084
-1.17766
-1.07568
-0.966331
-0.852083
-0.735561
-0.624419
-1.14087
-0.840655
-0.848161
-0.87279
-0.873235
-0.875125
-0.878959
-0.879445
-0.872984
-0.857454
-0.830751
-0.791008
-0.737199
-0.669323
-0.592595
-0.56679
-0.473492
-0.527905
-0.535138
-0.542099
-0.559541
-0.581751
-0.6035
-0.622317
-0.635955
-0.641878
-0.637443
-0.620274
-0.588255
-0.541959
-0.525997
-0.521443
-0.53989
-0.528328
-0.52825
-0.534013
-0.542699
-0.552282
-0.561481
-0.568585
-0.571773
-0.569045
-0.558351
-0.537451
-0.503962
-0.5611
-0.568727
-0.564887
-0.55442
-0.551195
-0.548381
-0.547523
-0.54804
-0.548821
-0.548535
-0.545952
-0.539705
-0.528312
-0.510205
-0.482794
-0.570002
-0.571473
-0.562232
-0.554366
-0.548698
-0.542549
-0.538209
-0.535181
-0.532538
-0.529302
-0.524553
-0.517226
-0.506127
-0.490062
-0.466311
-0.571892
-0.568712
-0.559031
-0.550319
-0.542629
-0.535579
-0.529648
-0.52453
-0.519683
-0.514433
-0.508064
-0.499751
-0.488531
-0.47342
-0.451976
-0.568719
-0.56385
-0.554401
-0.544623
-0.536578
-0.5298
-0.523216
-0.517051
-0.511004
-0.504533
-0.497032
-0.487855
-0.476262
-0.461534
-0.441827
-0.558174
-0.553216
-0.544329
-0.534759
-0.527509
-0.521334
-0.514721
-0.508393
-0.50211
-0.49538
-0.487656
-0.478381
-0.466948
-0.452799
-0.434417
-0.544772
-0.54033
-0.532195
-0.523452
-0.516925
-0.511088
-0.504701
-0.498589
-0.492468
-0.485906
-0.478406
-0.469451
-0.458473
-0.444959
-0.427471
-0.533676
-0.529746
-0.522203
-0.513998
-0.507311
-0.50127
-0.495194
-0.489344
-0.483418
-0.477065
-0.469837
-0.461251
-0.450754
-0.437838
-0.421237
-0.525433
-0.52176
-0.5145
-0.506359
-0.499018
-0.492675
-0.486972
-0.481305
-0.475523
-0.469355
-0.462396
-0.4542
-0.444262
-0.432129
-0.416673
-0.517699
-0.51412
-0.507035
-0.498915
-0.491316
-0.485079
-0.479748
-0.474191
-0.468535
-0.462552
-0.45586
-0.448045
-0.438645
-0.427254
-0.412716
-0.509228
-0.505774
-0.498973
-0.491124
-0.483831
-0.47803
-0.473015
-0.467569
-0.462077
-0.456304
-0.449883
-0.442424
-0.433484
-0.422672
-0.408741
-0.500488
-0.497268
-0.490885
-0.483526
-0.476798
-0.471411
-0.466583
-0.461305
-0.456036
-0.450511
-0.444385
-0.437292
-0.428809
-0.418583
-0.4053
-0.493075
-0.490135
-0.48419
-0.477328
-0.471027
-0.465628
-0.460711
-0.455643
-0.45061
-0.445332
-0.43951
-0.432805
-0.424828
-0.415324
-0.403417
-0.487501
-0.484786
-0.479175
-0.472643
-0.466467
-0.460682
-0.455542
-0.450733
-0.445891
-0.44081
-0.435233
-0.428841
-0.421254
-0.412155
-0.400653
-0.483297
-0.480713
-0.475313
-0.468934
-0.462711
-0.456574
-0.451334
-0.44674
-0.441969
-0.436983
-0.431555
-0.425371
-0.418059
-0.409301
-0.398141
-0.479345
-0.476836
-0.471596
-0.465324
-0.459103
-0.452922
-0.44781
-0.443388
-0.438647
-0.433736
-0.42843
-0.422423
-0.415365
-0.406947
-0.396041
-0.475241
-0.472814
-0.467757
-0.461653
-0.455578
-0.449614
-0.44475
-0.440458
-0.435755
-0.430938
-0.425771
-0.419968
-0.413205
-0.405261
-0.395089
-0.470909
-0.468602
-0.463776
-0.457933
-0.452135
-0.446517
-0.441882
-0.437672
-0.433062
-0.428383
-0.423386
-0.4178
-0.411316
-0.403721
-0.394025
-0.466846
-0.464688
-0.46012
-0.45459
-0.44911
-0.443797
-0.439193
-0.434952
-0.430502
-0.426002
-0.4212
-0.415849
-0.409646
-0.402377
-0.393131
-0.463493
-0.461482
-0.457155
-0.451919
-0.446697
-0.441545
-0.43675
-0.432403
-0.428178
-0.423876
-0.419287
-0.414195
-0.408308
-0.401418
-0.392707
-0.460884
-0.458989
-0.454855
-0.449841
-0.44477
-0.439652
-0.434626
-0.430228
-0.426246
-0.422111
-0.417721
-0.41287
-0.407271
-0.4007
-0.392293
-0.458791
-0.456978
-0.452992
-0.448131
-0.443139
-0.438021
-0.432896
-0.42857
-0.424799
-0.420788
-0.416569
-0.411932
-0.406588
-0.400325
-0.392359
-0.457062
-0.455307
-0.451443
-0.446697
-0.44177
-0.436689
-0.431626
-0.427461
-0.423851
-0.419938
-0.41587
-0.411423
-0.406312
-0.400324
-0.392715
-0.455575
-0.453874
-0.450132
-0.445512
-0.440687
-0.435724
-0.430849
-0.426891
-0.423412
-0.419597
-0.415677
-0.411421
-0.406562
-0.400929
-0.394233
-0.454613
-0.452976
-0.449366
-0.444888
-0.440205
-0.435403
-0.430747
-0.426938
-0.423517
-0.419775
-0.415965
-0.411843
-0.407153
-0.401658
-0.395223
-0.45421
-0.452644
-0.449176
-0.444867
-0.440365
-0.435759
-0.431311
-0.427543
-0.424102
-0.420436
-0.416707
-0.412667
-0.408065
-0.402602
-0.396399
-0.454935
-0.453445
-0.450114
-0.445968
-0.441631
-0.43717
-0.432817
-0.428891
-0.425312
-0.421706
-0.418019
-0.414024
-0.409492
-0.404066
-0.397815
-0.456411
-0.454988
-0.451783
-0.447791
-0.443606
-0.439256
-0.434932
-0.430787
-0.427078
-0.423563
-0.419907
-0.415946
-0.411483
-0.40615
-0.399809
-0.458834
-0.457466
-0.454366
-0.450493
-0.446403
-0.442083
-0.437702
-0.43333
-0.429513
-0.426054
-0.422387
-0.41845
-0.414063
-0.40895
-0.403085
-0.461618
-0.460288
-0.45727
-0.453485
-0.449455
-0.445138
-0.440701
-0.436206
-0.432365
-0.428939
-0.425227
-0.421261
-0.416834
-0.411644
-0.405471
-0.464654
-0.463353
-0.460405
-0.456689
-0.452695
-0.448372
-0.443896
-0.439367
-0.435546
-0.432123
-0.428357
-0.424364
-0.419907
-0.414713
-0.40906
-0.467603
-0.46633
-0.46345
-0.459802
-0.455854
-0.451556
-0.447103
-0.442639
-0.438894
-0.435494
-0.431723
-0.427761
-0.42337
-0.418242
-0.412935
-0.470363
-0.469121
-0.466316
-0.46275
-0.458875
-0.454652
-0.450284
-0.445955
-0.442313
-0.43895
-0.435208
-0.431294
-0.426967
-0.421837
-0.416239
-0.473109
-0.471907
-0.469183
-0.465714
-0.46193
-0.457809
-0.453558
-0.449381
-0.445813
-0.442475
-0.438797
-0.43496
-0.430735
-0.425772
-0.42023
-0.475761
-0.474606
-0.471975
-0.468626
-0.464972
-0.461007
-0.456923
-0.452926
-0.449405
-0.4461
-0.442562
-0.43888
-0.434854
-0.430243
-0.425567
-0.478906
-0.477803
-0.475265
-0.472038
-0.468512
-0.464689
-0.460743
-0.456861
-0.453282
-0.449952
-0.446548
-0.442969
-0.439018
-0.434356
-0.429375
-0.482461
-0.481407
-0.478959
-0.475853
-0.472458
-0.468781
-0.464961
-0.461163
-0.457494
-0.454146
-0.450884
-0.447386
-0.443488
-0.438786
-0.433876
-0.486878
-0.485869
-0.483504
-0.480505
-0.47722
-0.473648
-0.469903
-0.466129
-0.462364
-0.459019
-0.455902
-0.452505
-0.448762
-0.444251
-0.439436
-0.492046
-0.491075
-0.488782
-0.485876
-0.482686
-0.479201
-0.475511
-0.471753
-0.467948
-0.464652
-0.461663
-0.45835
-0.454737
-0.450424
-0.445624
-0.498158
-0.497216
-0.494983
-0.492148
-0.489023
-0.485588
-0.481918
-0.478153
-0.474335
-0.471089
-0.468174
-0.464899
-0.461359
-0.457182
-0.452769
-0.505062
-0.504143
-0.50196
-0.499182
-0.496105
-0.492701
-0.48904
-0.485269
-0.481465
-0.478255
-0.475349
-0.472038
-0.468445
-0.46412
-0.459109
-0.512696
-0.511795
-0.509659
-0.506932
-0.503898
-0.500525
-0.496881
-0.493124
-0.489363
-0.486195
-0.483288
-0.479963
-0.476399
-0.47223
-0.467967
-0.521117
-0.520233
-0.51814
-0.515457
-0.512461
-0.509112
-0.505488
-0.50175
-0.498034
-0.494877
-0.491916
-0.488501
-0.484779
-0.480231
-0.474571
-0.530183
-0.529318
-0.52727
-0.524637
-0.521688
-0.518385
-0.514805
-0.511114
-0.50746
-0.5043
-0.501269
-0.497763
-0.493893
-0.489108
-0.482775
-0.540099
-0.539256
-0.537256
-0.53468
-0.531786
-0.528537
-0.525016
-0.521388
-0.517805
-0.514633
-0.51157
-0.508106
-0.504326
-0.499874
-0.493745
-0.550816
-0.549996
-0.548049
-0.545539
-0.542717
-0.539549
-0.536116
-0.53258
-0.529082
-0.525886
-0.52281
-0.519462
-0.515839
-0.511809
-0.506373
-0.562576
-0.56178
-0.559883
-0.557433
-0.554674
-0.551569
-0.548199
-0.54471
-0.541225
-0.537892
-0.534683
-0.531268
-0.527392
-0.52285
-0.515595
-0.575263
-0.574492
-0.572646
-0.570261
-0.567573
-0.564543
-0.561242
-0.557795
-0.554303
-0.550821
-0.547499
-0.544085
-0.540166
-0.535799
-0.530258
-0.589277
-0.58853
-0.586731
-0.584405
-0.581778
-0.5788
-0.575537
-0.572091
-0.568546
-0.564897
-0.561447
-0.557964
-0.553844
-0.549034
-0.541528
-0.604584
-0.603857
-0.602103
-0.599831
-0.59726
-0.594331
-0.591099
-0.58764
-0.584027
-0.580226
-0.576646
-0.573045
-0.568708
-0.563764
-0.557088
-0.621553
-0.620843
-0.619125
-0.616894
-0.614356
-0.611443
-0.608201
-0.604682
-0.600961
-0.596996
-0.593255
-0.589453
-0.584776
-0.579276
-0.571109
-0.640074
-0.639377
-0.637694
-0.6355
-0.632996
-0.630099
-0.626847
-0.623272
-0.619447
-0.615334
-0.611412
-0.607334
-0.602215
-0.596106
-0.587161
-0.660491
-0.659808
-0.658157
-0.655996
-0.653514
-0.650621
-0.647344
-0.643703
-0.639773
-0.635527
-0.631429
-0.627079
-0.621579
-0.615
-0.605424
-0.682891
-0.682221
-0.680601
-0.678472
-0.676013
-0.673126
-0.669831
-0.666138
-0.662121
-0.657763
-0.653487
-0.64885
-0.64295
-0.635864
-0.625454
-0.707543
-0.706886
-0.705299
-0.703203
-0.700766
-0.697886
-0.694572
-0.690828
-0.686719
-0.682233
-0.677731
-0.672721
-0.666299
-0.658524
-0.646787
-0.734766
-0.734126
-0.732574
-0.730516
-0.728102
-0.725231
-0.721896
-0.718096
-0.71388
-0.70923
-0.70442
-0.698924
-0.691823
-0.683186
-0.669994
-0.765055
-0.764433
-0.76292
-0.760902
-0.758517
-0.755658
-0.752304
-0.748443
-0.744099
-0.739234
-0.73402
-0.727916
-0.72
-0.710369
-0.696123
-0.799268
-0.798668
-0.797196
-0.795219
-0.792855
-0.789995
-0.786595
-0.78263
-0.778086
-0.772885
-0.767064
-0.76008
-0.750959
-0.739612
-0.722729
-0.838293
-0.837714
-0.836284
-0.834346
-0.831997
-0.82912
-0.825644
-0.821517
-0.816673
-0.81097
-0.80428
-0.796073
-0.785316
-0.771707
-0.751848
-0.883791
-0.883235
-0.881847
-0.87994
-0.877586
-0.874649
-0.871026
-0.86662
-0.861295
-0.854826
-0.846905
-0.837035
-0.824142
-0.807724
-0.784259
-0.937071
-0.936537
-0.935185
-0.933291
-0.930901
-0.927848
-0.923986
-0.91915
-0.913114
-0.905534
-0.895904
-0.883734
-0.867876
-0.847663
-0.819206
-1.00252
-1.002
-1.00068
-0.998762
-0.99625
-0.992918
-0.988548
-0.98287
-0.975524
-0.966005
-0.953601
-0.937803
-0.917394
-0.891698
-0.856957
-1.07862
-1.07811
-1.07678
-1.07479
-1.07209
-1.06838
-1.06336
-1.05658
-1.04751
-1.03539
-1.01924
-0.998448
-0.971679
-0.93829
-0.894408
-1.1886
-1.18809
-1.18678
-1.18456
-1.1812
-1.17622
-1.16907
-1.15905
-1.14531
-1.12681
-1.10244
-1.0717
-1.03362
-0.988248
-0.931939
-1.29088
-1.29033
-1.28876
-1.28619
-1.28239
-1.27668
-1.26825
-1.25603
-1.23869
-1.2147
-1.18253
-1.14164
-1.09146
-1.03328
-0.964453
-1.57437
-1.57415
-1.57224
-1.56756
-1.5584
-1.54328
-1.52047
-1.48804
-1.44438
-1.38863
-1.3212
-1.24467
-1.16213
-1.07813
-0.993801
-1.558
-1.55653
-1.55704
-1.55108
-1.54079
-1.52561
-1.50396
-1.47372
-1.43284
-1.37984
-1.31454
-1.2392
-1.15697
-1.07235
-0.988061
-3.04613
-3.12303
-3.06289
-2.98046
-2.87676
-2.74175
-2.5687
-2.35837
-2.11838
-1.86361
-1.61438
-1.39256
-1.21244
-1.07491
-0.971155
15.1878
14.5566
13.7496
12.9678
12.1279
11.2012
10.2069
9.17816
8.15056
7.16452
6.25954
5.46712
4.80233
4.26109
3.83734
6.62257
5.77579
5.80938
5.92125
5.96417
5.96247
5.93364
5.866
5.74323
5.55409
5.29536
4.97484
4.61174
4.23199
3.87378
4.54193
4.21738
4.43141
4.49404
4.49835
4.50235
4.50809
4.50378
4.483
4.44103
4.37146
4.26644
4.11923
3.92744
3.70733
3.86836
3.85723
4.083
4.1074
4.11759
4.13588
4.15095
4.15252
4.13659
4.09992
4.03989
3.95476
3.84319
3.70286
3.53953
3.22133
3.50492
3.65395
3.66007
3.68529
3.71805
3.74809
3.77118
3.78453
3.78282
3.76021
3.71169
3.63425
3.52649
3.39329
3.36941
3.67407
3.66454
3.64156
3.641
3.63624
3.62558
3.61179
3.59517
3.57339
3.54305
3.49971
3.43848
3.3545
3.24705
3.56716
3.66529
3.60936
3.60179
3.59363
3.57298
3.54461
3.51201
3.47555
3.4347
3.38859
3.33558
3.27308
3.19719
3.10351
3.35083
3.3578
3.33834
3.34919
3.34721
3.33739
3.32218
3.30236
3.27751
3.2471
3.21026
3.16573
3.11189
3.04685
2.96669
3.06617
3.06003
3.06397
3.07431
3.0761
3.07614
3.07255
3.06495
3.05315
3.0367
3.01458
2.98527
2.94706
2.89871
2.83994
2.8428
2.84194
2.8511
2.85818
2.8623
2.86636
2.86733
2.86499
2.85935
2.85007
2.8363
2.81679
2.78992
2.75418
2.7099
2.66036
2.66354
2.67274
2.68016
2.68634
2.69168
2.69466
2.69516
2.69302
2.68788
2.67904
2.66545
2.64565
2.61797
2.58326
2.50183
2.50661
2.51575
2.52478
2.53194
2.5374
2.5415
2.54383
2.54409
2.54195
2.53682
2.52779
2.51353
2.49232
2.46558
2.3663
2.37138
2.38031
2.38976
2.3966
2.40174
2.40637
2.40963
2.41125
2.41099
2.40841
2.40279
2.39305
2.37766
2.35866
2.24956
2.25427
2.26258
2.27137
2.27742
2.28223
2.28701
2.29063
2.2929
2.29366
2.2926
2.28912
2.28235
2.27078
2.25571
2.14432
2.14845
2.15604
2.16404
2.16979
2.17465
2.17942
2.18315
2.18576
2.18714
2.187
2.18486
2.17995
2.17089
2.15841
2.04581
2.04954
2.05669
2.06441
2.07073
2.07606
2.08072
2.08454
2.08746
2.08935
2.08998
2.08897
2.08574
2.07925
2.07103
1.95395
1.95752
1.9645
1.97231
1.97931
1.98495
1.98943
1.99339
1.99661
1.99895
2.00023
2.00015
1.99823
1.99351
1.98789
1.86974
1.87325
1.88008
1.88787
1.895
1.9005
1.9048
1.9089
1.91233
1.91497
1.9167
1.91725
1.91619
1.91252
1.90794
1.79305
1.79643
1.80296
1.81043
1.81719
1.82228
1.82641
1.83056
1.83407
1.83688
1.83891
1.83995
1.83964
1.83711
1.83424
1.72218
1.7253
1.73141
1.73839
1.74462
1.74942
1.7535
1.75763
1.76115
1.76405
1.7663
1.76772
1.76803
1.76647
1.765
1.65512
1.65796
1.66366
1.67018
1.67605
1.68099
1.68526
1.68928
1.69274
1.69569
1.69807
1.69976
1.70055
1.69971
1.69917
1.5907
1.59333
1.59873
1.60497
1.6108
1.61619
1.62073
1.62459
1.62802
1.63101
1.6335
1.63538
1.63652
1.63622
1.6362
1.52918
1.5317
1.53691
1.54303
1.54894
1.55466
1.5593
1.563
1.56647
1.56952
1.57211
1.57415
1.57554
1.57567
1.57589
1.471
1.47345
1.47852
1.48455
1.49047
1.49622
1.50073
1.50432
1.50785
1.51097
1.51365
1.51583
1.51743
1.51794
1.51882
1.41626
1.41863
1.42353
1.42941
1.43518
1.44071
1.44499
1.4485
1.45207
1.45522
1.45798
1.4603
1.46212
1.463
1.46543
1.36446
1.36671
1.37139
1.37702
1.38253
1.38774
1.39182
1.3953
1.39887
1.40203
1.40484
1.40728
1.40933
1.41051
1.41354
1.31478
1.31689
1.32132
1.32666
1.33187
1.3368
1.34087
1.34442
1.34793
1.35104
1.35384
1.35632
1.35846
1.3597
1.36282
1.26649
1.26846
1.27266
1.27772
1.28269
1.28749
1.2918
1.29552
1.2989
1.30196
1.30475
1.30725
1.30949
1.31093
1.31448
1.21935
1.2212
1.22523
1.23008
1.23493
1.23974
1.24434
1.2482
1.25145
1.25449
1.25729
1.25985
1.26222
1.26387
1.2676
1.17347
1.17525
1.17914
1.18387
1.18866
1.19353
1.19831
1.20219
1.20533
1.20839
1.2112
1.21379
1.21623
1.21801
1.22151
1.12902
1.13076
1.13454
1.13917
1.14393
1.1488
1.15358
1.15738
1.16043
1.16351
1.16631
1.16888
1.17127
1.17287
1.17509
1.08609
1.08778
1.09146
1.09599
1.10068
1.10549
1.11014
1.11379
1.1168
1.11989
1.1227
1.12529
1.12776
1.12961
1.13083
1.04462
1.04625
1.04981
1.05421
1.05879
1.06346
1.06792
1.07144
1.07443
1.07754
1.08039
1.08308
1.08572
1.08809
1.08944
1.00425
1.00581
1.00924
1.01349
1.01791
1.0224
1.02666
1.03012
1.03314
1.03624
1.03909
1.0418
1.04448
1.04712
1.04744
0.964638
0.966125
0.969409
0.973485
0.977721
0.982027
0.986139
0.989664
0.992765
0.995785
0.998573
1.00122
1.00378
1.00652
1.0067
0.92546
0.926872
0.930025
0.933937
0.938009
0.942177
0.94623
0.949944
0.953168
0.956088
0.958836
0.961469
0.96399
0.966844
0.968122
0.886712
0.88806
0.891099
0.89487
0.898817
0.902907
0.906975
0.910895
0.914209
0.917029
0.919762
0.922387
0.924891
0.927685
0.928684
0.848357
0.849656
0.852603
0.856268
0.860136
0.864202
0.868317
0.872376
0.875717
0.878463
0.881202
0.883813
0.886275
0.88893
0.889888
0.810525
0.811788
0.814658
0.818241
0.822056
0.826115
0.830264
0.834368
0.837683
0.840401
0.843187
0.845849
0.848413
0.851238
0.852112
0.773254
0.774488
0.777289
0.780803
0.784575
0.788618
0.792765
0.796837
0.800097
0.802816
0.805665
0.808394
0.811076
0.814189
0.815009
0.736542
0.737746
0.740478
0.743921
0.747636
0.751634
0.755731
0.759711
0.762896
0.765619
0.76851
0.771281
0.774004
0.777233
0.778362
0.700306
0.701477
0.704135
0.707496
0.711136
0.715056
0.71906
0.722913
0.726027
0.728756
0.731662
0.734451
0.737178
0.740373
0.741524
0.664414
0.665546
0.668125
0.671393
0.674938
0.678755
0.682645
0.686372
0.689463
0.69223
0.69514
0.697956
0.700752
0.704063
0.704971
0.628702
0.629793
0.632288
0.635455
0.638893
0.642592
0.646364
0.649991
0.653142
0.655993
0.658892
0.661743
0.664631
0.668201
0.669441
0.592985
0.594033
0.596447
0.599509
0.602837
0.60642
0.610088
0.613658
0.616936
0.619884
0.62273
0.625575
0.628455
0.632093
0.633803
0.557114
0.558121
0.560459
0.563423
0.566648
0.570132
0.573729
0.577289
0.580718
0.583742
0.586509
0.589334
0.592155
0.595635
0.597563
0.52104
0.522012
0.524281
0.527159
0.530298
0.533709
0.537271
0.540855
0.544418
0.547493
0.550209
0.553063
0.555925
0.559415
0.561449
0.484707
0.48565
0.48786
0.490666
0.49374
0.497107
0.500665
0.504295
0.507956
0.511064
0.513782
0.516723
0.519735
0.523462
0.525979
0.448079
0.448997
0.451155
0.4539
0.456923
0.46026
0.463824
0.467491
0.471195
0.474312
0.477053
0.480084
0.48321
0.487155
0.489723
0.411059
0.411957
0.414067
0.41676
0.419742
0.423057
0.426622
0.430305
0.434006
0.437107
0.439873
0.442969
0.446182
0.450554
0.455054
0.373633
0.374512
0.376575
0.379217
0.382156
0.385439
0.388985
0.392651
0.396304
0.399365
0.402139
0.40526
0.408401
0.412285
0.419539
0.335714
0.336573
0.33859
0.341182
0.344078
0.347325
0.350841
0.354473
0.358067
0.3611
0.363907
0.3671
0.370376
0.373857
0.381937
0.297313
0.298151
0.30012
0.302657
0.305502
0.3087
0.312166
0.315746
0.319275
0.322305
0.325173
0.328437
0.331918
0.335252
0.343056
0.258242
0.259057
0.260978
0.263459
0.266249
0.269394
0.272807
0.276335
0.279819
0.282903
0.285884
0.289252
0.29302
0.296711
0.304982
0.218402
0.219193
0.221062
0.223482
0.22621
0.229288
0.232633
0.236101
0.239548
0.242724
0.24583
0.249248
0.253138
0.256898
0.264742
0.177562
0.178328
0.180146
0.182503
0.185166
0.188177
0.191457
0.194876
0.198314
0.20163
0.204879
0.208343
0.212374
0.216356
0.223774
0.135591
0.136333
0.138101
0.140397
0.142996
0.145942
0.149168
0.152561
0.156031
0.159534
0.162962
0.166536
0.1708
0.175265
0.183049
0.0922673
0.0929854
0.0947079
0.096946
0.0994877
0.102383
0.105576
0.108978
0.112527
0.116246
0.119886
0.123656
0.128279
0.133396
0.14228
0.0473504
0.0480467
0.0497249
0.0519092
0.0543998
0.0572531
0.0604303
0.063865
0.0675154
0.0714399
0.0752878
0.079293
0.0843077
0.0899887
0.0995129
0.00049248
0.0011686
0.00280519
0.00494051
0.00738784
0.0102117
0.0133897
0.016876
0.0206414
0.0247534
0.0288062
0.033084
0.0385343
0.0448777
0.055492
-0.0486322
-0.0479746
-0.0463774
-0.0442863
-0.0418748
-0.0390694
-0.0358769
-0.0323246
-0.0284333
-0.0241379
-0.0198532
-0.015228
-0.00925146
-0.00216898
0.0101236
-0.100428
-0.0997877
-0.0982279
-0.0961761
-0.093792
-0.090993
-0.0877708
-0.084137
-0.0801047
-0.0756144
-0.0710536
-0.0660019
-0.0594078
-0.0516053
-0.0376961
-0.155357
-0.154733
-0.15321
-0.151194
-0.14883
-0.146027
-0.142762
-0.139029
-0.134831
-0.130106
-0.125189
-0.119583
-0.112182
-0.103444
-0.0876495
-0.214032
-0.213424
-0.211935
-0.20995
-0.207598
-0.204776
-0.201446
-0.197584
-0.193176
-0.188146
-0.182751
-0.176423
-0.167986
-0.158055
-0.140926
-0.277213
-0.276622
-0.275169
-0.273212
-0.270864
-0.268009
-0.264588
-0.260553
-0.25586
-0.250398
-0.244319
-0.236971
-0.227061
-0.215088
-0.195103
-0.345951
-0.345377
-0.343959
-0.342024
-0.339665
-0.336748
-0.333191
-0.328911
-0.32382
-0.31775
-0.310719
-0.301991
-0.290177
-0.275657
-0.252437
-0.421819
-0.421263
-0.419882
-0.417964
-0.415575
-0.41256
-0.408801
-0.404168
-0.398507
-0.391567
-0.3832
-0.3726
-0.3583
-0.340548
-0.313366
-0.506336
-0.505798
-0.504447
-0.502529
-0.500079
-0.496908
-0.492851
-0.487709
-0.481237
-0.473058
-0.46281
-0.449609
-0.431889
-0.409704
-0.377002
-0.603975
-0.603454
-0.602138
-0.600194
-0.597607
-0.594129
-0.589519
-0.583468
-0.575589
-0.56533
-0.552071
-0.534871
-0.512105
-0.483658
-0.443669
-0.713774
-0.713266
-0.711946
-0.70993
-0.707146
-0.703273
-0.697956
-0.690732
-0.680999
-0.667938
-0.650582
-0.627874
-0.598108
-0.560959
-0.508561
-0.85932
-0.858822
-0.857534
-0.855292
-0.851833
-0.846654
-0.839158
-0.828584
-0.814007
-0.794309
-0.76829
-0.735083
-0.693452
-0.644215
-0.578578
-1.00082
-1.00031
-0.998776
-0.996191
-0.992263
-0.986276
-0.977352
-0.964336
-0.945797
-0.920068
-0.885472
-0.841172
-0.786371
-0.723535
-0.645493
-1.3269
-1.32665
-1.32472
-1.31993
-1.31049
-1.29485
-1.27116
-1.2374
-1.19177
-1.13324
-1.06207
-0.980642
-0.891713
-0.800884
-0.705799
-1.36376
-1.36246
-1.36309
-1.35703
-1.3463
-1.33021
-1.30698
-1.27426
-1.2298
-1.1719
-1.1002
-1.01691
-0.924879
-0.829339
-0.733804
-2.91189
-2.98843
-2.92784
-2.84459
-2.73894
-2.60048
-2.42226
-2.20498
-1.95654
-1.6923
-1.43315
-1.20165
-1.01125
-0.861105
-0.742355
0.303568
1.2561
-0.394486
-0.0127201
0.0661033
-0.567254
0.110503
1.90303
0.509444
0.321681
0.0585796
1.23787
0.440752
-0.124351
-0.0187483
1.47709
-0.192405
-2.24225
-0.334812
0.25674
1.18497
0.46679
1.52394
2.40382
1.88304
0.0109887
1.1621
-0.195903
-6.79945
0.331563
-0.573589
-0.28888
1.72479
0.755324
1.42608
0.439441
-0.916998
0.832883
1.94867
0.867596
-0.377461
0.70647
1.0142
0.730234
0.15413
0.709576
0.548686
1.77929
0.987677
0.133105
-0.0102442
2.68477
0.878473
3.40974
0.645621
1.18994
0.678382
0.725612
1.68602
-1.26712
0.251859
1.46517
1.36941
0.160554
4.69697
0.364707
1.99782
1.18087
0.499092
0.295216
-0.389788
1.01138
0.359231
0.43401
1.01206
-0.340225
1.7472
1.40412
0.666553
0.680824
-0.19157
3.43868
0.299019
0.842363
0.415991
-0.353534
2.15264
0.441381
0.46019
-0.159956
1.06816
0.988183
0.489175
1.52908
0.0448626
0.677761
1.92733
1.16122
1.12647
-0.338075
-0.183005
0.90854
0.207713
0.541369
0.687147
1.12197
-0.222578