/*--------------------------------*- C++ -*----------------------------------*\
| =========                 |                                                 |
| \\      /  F ield         | OpenFOAM: The Open Source CFD Toolbox           |
|  \\    /   O peration     | Version:  2.3.0                                 |
|   \\  /    A nd           | Web:      www.OpenFOAM.org                      |
|    \\/     M anipulation  |                                                 |
\*---------------------------------------------------------------------------*/
FoamFile
{
    version     2.0;
    format      ascii;
    class       volVectorField;
    location    "150";
    object      U;
}
// * * * * * * * * * * * * * * * * * * * * * * * * * * * * * * * * * * * * * //

dimensions      [0 1 -1 0 0 0 0];

internalField   nonuniform List<vector> 
7994
(
(20.0745 0.138054 -7.16907e-23)
(20.0763 0.150902 -5.9976e-22)
(20.079 0.166078 2.44503e-21)
(20.0828 0.184096 -1.77198e-21)
(20.0874 0.204537 -1.12552e-20)
(20.0921 0.226521 2.73334e-20)
(20.0958 0.248995 -1.5777e-20)
(20.0975 0.270958 0)
(20.0959 0.29159 0)
(20.0905 0.310266 -1.7029e-20)
(20.0808 0.326565 1.57462e-20)
(20.0667 0.340217 -1.97048e-20)
(20.0482 0.350962 1.80984e-20)
(20.0251 0.355949 0)
(19.998 0.358126 0)
(20.0615 0.135752 0)
(20.0586 0.143589 0)
(20.0547 0.151166 0)
(20.0495 0.158789 -3.81769e-21)
(20.0433 0.166636 7.97684e-21)
(20.0363 0.174774 7.44135e-22)
(20.0287 0.183115 -1.01163e-20)
(20.0209 0.191423 5.19562e-21)
(20.0128 0.199386 -7.24844e-21)
(20.0046 0.206676 -1.4422e-21)
(19.9964 0.213011 1.65813e-20)
(19.9881 0.218175 -1.32757e-20)
(19.9799 0.222026 4.55327e-21)
(19.9718 0.224461 0)
(19.9643 0.22538 1.07576e-35)
(20.0529 0.133916 0)
(20.0496 0.140407 0)
(20.0461 0.146679 7.87268e-21)
(20.0422 0.15254 -7.6988e-21)
(20.0379 0.157824 -1.02211e-20)
(20.0331 0.162393 -1.46469e-21)
(20.028 0.166183 -1.41845e-21)
(20.0225 0.169189 1.14101e-20)
(20.0168 0.17144 0)
(20.011 0.17298 0)
(20.0052 0.173861 0)
(19.9994 0.174134 0)
(19.9937 0.173851 0)
(19.9883 0.17307 0)
(19.983 0.171836 0)
(20.046 0.129563 0)
(20.042 0.133787 -3.95257e-21)
(20.0377 0.137713 3.90476e-21)
(20.0331 0.141194 0)
(20.0285 0.144246 -1.01461e-20)
(20.0238 0.146852 9.7384e-21)
(20.0191 0.149006 -1.11821e-20)
(20.0146 0.150709 2.22677e-20)
(20.0101 0.15197 -5.09007e-21)
(20.0058 0.152809 -5.71345e-21)
(20.0016 0.153251 0)
(19.9976 0.153323 0)
(19.9938 0.153056 0)
(19.9902 0.152481 -1.6662e-21)
(19.9868 0.151624 1.63122e-21)
(20.0415 0.125665 0)
(20.0378 0.128591 0)
(20.034 0.131323 4.93099e-21)
(20.0302 0.133624 4.68951e-22)
(20.0264 0.135531 -5.12353e-21)
(20.0226 0.137053 -5.84955e-21)
(20.0189 0.138208 5.64252e-21)
(20.0152 0.139019 0)
(20.0116 0.139513 0)
(20.0081 0.139718 0)
(20.0047 0.139658 0)
(20.0015 0.139359 0)
(19.9983 0.138843 -3.53966e-21)
(19.9953 0.13813 3.46522e-21)
(19.9924 0.137238 -6.58717e-36)
(20.0383 0.121924 0)
(20.0348 0.123887 -2.42198e-21)
(20.0314 0.125738 2.38826e-21)
(20.028 0.127244 0)
(20.0246 0.128454 0)
(20.0213 0.129387 5.93209e-21)
(20.0181 0.13006 -1.19104e-20)
(20.015 0.130492 -3.547e-22)
(20.0119 0.130702 -3.42603e-22)
(20.0089 0.130705 -3.30672e-22)
(20.0061 0.130518 6.59386e-21)
(20.0033 0.130154 0)
(20.0006 0.129627 0)
(19.998 0.12895 -1.87626e-21)
(19.9955 0.128131 1.86599e-21)
(20.036 0.118763 0)
(20.033 0.120073 0)
(20.03 0.121343 0)
(20.027 0.12236 0)
(20.0241 0.123153 0)
(20.0212 0.123738 0)
(20.0184 0.124128 0)
(20.0157 0.124338 0)
(20.013 0.124378 0)
(20.0104 0.12426 0)
(20.0079 0.123993 0)
(20.0054 0.123586 0)
(20.003 0.123045 0)
(20.0006 0.12238 0)
(19.9984 0.121596 0)
(20.0345 0.115877 -1.23159e-21)
(20.0318 0.116866 1.23394e-21)
(20.0291 0.117756 0)
(20.0265 0.118462 0)
(20.0239 0.118997 0)
(20.0213 0.119373 0)
(20.0188 0.1196 -6.44036e-21)
(20.0164 0.119686 6.37133e-21)
(20.014 0.11964 0)
(20.0116 0.119466 0)
(20.0093 0.119169 -3.71244e-21)
(20.007 0.118753 3.70253e-21)
(20.0048 0.118221 0)
(20.0026 0.117578 0)
(20.0005 0.116828 3.78286e-36)
(20.0335 0.113357 1.25869e-21)
(20.031 0.114203 -1.27752e-21)
(20.0286 0.11486 0)
(20.0263 0.115369 0)
(20.0239 0.115741 0)
(20.0216 0.115986 -3.16239e-21)
(20.0193 0.116112 6.42153e-21)
(20.0171 0.116124 -6.67308e-21)
(20.0149 0.116028 -1.42012e-22)
(20.0127 0.115825 3.53445e-21)
(20.0105 0.115517 3.81693e-21)
(20.0084 0.115102 -3.82267e-21)
(20.0063 0.114582 2.05415e-21)
(20.0042 0.113957 -9.96061e-22)
(20.0022 0.113232 -1.06878e-21)
(20.0327 0.111437 0)
(20.0305 0.112081 0)
(20.0283 0.112547 0)
(20.0262 0.112912 2.97589e-21)
(20.0241 0.11317 -2.95581e-21)
(20.022 0.113328 0)
(20.0198 0.113387 0)
(20.0177 0.113352 3.46567e-21)
(20.0157 0.113226 -3.46803e-21)
(20.0136 0.113009 -3.7484e-21)
(20.0115 0.112699 5.71031e-21)
(20.0095 0.112294 -1.95729e-21)
(20.0076 0.111788 0)
(20.0056 0.11118 1.08984e-21)
(20.0037 0.110474 -1.09642e-21)
(20.0321 0.10979 -6.70324e-22)
(20.0301 0.110329 2.06587e-21)
(20.0282 0.110675 -1.38995e-21)
(20.0262 0.110942 3.00989e-21)
(20.0243 0.111126 -2.99792e-21)
(20.0223 0.111226 3.24336e-21)
(20.0203 0.111242 -3.24275e-21)
(20.0184 0.111175 0)
(20.0164 0.111028 0)
(20.0144 0.110803 -1.89795e-21)
(20.0124 0.110498 1.9083e-21)
(20.0105 0.110104 0)
(20.0086 0.109614 0)
(20.0068 0.109021 0)
(20.0049 0.108329 0)
(20.0317 0.108459 0)
(20.0299 0.108888 0)
(20.0282 0.109156 -1.46428e-21)
(20.0263 0.109356 2.97499e-21)
(20.0245 0.109493 -1.51315e-21)
(20.0227 0.109558 0)
(20.0208 0.109543 0)
(20.0189 0.109456 0)
(20.017 0.109294 1.83287e-21)
(20.0151 0.109061 -1.84334e-21)
(20.0132 0.108761 -1.9825e-21)
(20.0114 0.10838 1.99595e-21)
(20.0096 0.107905 0)
(20.0078 0.107327 0)
(20.006 0.106643 0)
(20.0314 0.107412 0)
(20.0298 0.107707 0)
(20.0282 0.107918 1.47625e-21)
(20.0265 0.108068 -1.47104e-21)
(20.0247 0.108182 -1.57839e-21)
(20.023 0.108234 3.2152e-21)
(20.0212 0.1082 -1.63986e-21)
(20.0194 0.108101 1.76328e-21)
(20.0176 0.107923 -1.77225e-21)
(20.0157 0.10768 0)
(20.0139 0.107385 1.97739e-21)
(20.0121 0.107014 -1.99077e-21)
(20.0103 0.106553 1.06631e-21)
(20.0086 0.105989 -1.07326e-21)
(20.0069 0.105303 0)
(20.0311 0.106424 0)
(20.0296 0.1067 0)
(20.0281 0.106906 0)
(20.0265 0.107014 -1.57365e-21)
(20.0249 0.107128 3.17145e-21)
(20.0233 0.107184 -1.52917e-21)
(20.0215 0.107125 0)
(20.0198 0.107034 0)
(20.018 0.106848 0)
(20.0162 0.106587 0)
(20.0144 0.106284 0)
(20.0126 0.105905 1.01188e-21)
(20.0109 0.105455 -1.01426e-21)
(20.0092 0.10493 -2.67098e-22)
(20.0076 0.104248 2.74121e-22)
(19.9562 0.324255 0)
(19.915 0.309715 0)
(19.8806 0.291727 3.48891e-20)
(19.8532 0.276193 -3.80317e-20)
(19.8336 0.259569 4.18084e-20)
(19.8219 0.241245 -4.52583e-20)
(19.818 0.221223 0)
(19.8211 0.199752 0)
(19.83 0.177247 -1.05532e-19)
(19.843 0.154384 2.15723e-19)
(19.8581 0.132097 -1.08702e-19)
(19.8737 0.111456 -5.16008e-20)
(19.8884 0.0934111 9.98225e-20)
(19.9017 0.0785639 -2.48847e-20)
(19.9136 0.0659223 -2.15649e-20)
(19.9572 0.224835 -1.07894e-35)
(19.9506 0.222377 0)
(19.9445 0.217569 9.59782e-21)
(19.9387 0.210542 -3.29027e-20)
(19.9334 0.201386 5.04277e-20)
(19.9288 0.190306 1.47465e-21)
(19.9249 0.177641 -3.20195e-20)
(19.9217 0.163866 3.65208e-20)
(19.9193 0.149551 -7.82392e-20)
(19.9178 0.1353 1.0496e-22)
(19.9173 0.121645 8.57566e-20)
(19.9179 0.108947 -4.37998e-20)
(19.92 0.0973347 0)
(19.9235 0.086778 0)
(19.9283 0.0763686 0)
(19.9779 0.170205 0)
(19.9727 0.168092 0)
(19.9675 0.165379 0)
(19.9622 0.162049 0)
(19.957 0.158067 0)
(19.952 0.153406 0)
(19.9474 0.14805 0)
(19.9433 0.14199 2.73545e-20)
(19.9399 0.135231 5.96666e-22)
(19.9374 0.127792 4.96045e-22)
(19.9359 0.119724 -3.31227e-20)
(19.9354 0.111131 -3.47919e-20)
(19.936 0.102191 3.55737e-20)
(19.9375 0.0931772 0)
(19.9399 0.0837913 0)
(19.9835 0.150498 1.79515e-21)
(19.9802 0.149044 -1.83759e-21)
(19.9768 0.147184 0)
(19.9734 0.144886 0)
(19.9701 0.142114 0)
(19.9668 0.138832 -1.04973e-20)
(19.9636 0.135015 -1.17013e-20)
(19.9605 0.130644 4.82249e-20)
(19.9577 0.125718 -2.56241e-20)
(19.9552 0.120253 2.79828e-20)
(19.9531 0.114287 -2.91581e-20)
(19.9514 0.107886 0)
(19.9504 0.101135 1.58561e-20)
(19.95 0.0941374 -1.60486e-20)
(19.9504 0.0865708 0)
(19.9896 0.136171 6.59915e-36)
(19.9868 0.134896 4.04465e-21)
(19.9839 0.133367 -4.13231e-21)
(19.9811 0.131566 0)
(19.9782 0.129471 0)
(19.9754 0.127057 0)
(19.9726 0.124299 0)
(19.9699 0.121175 0)
(19.9674 0.117664 1.20944e-20)
(19.965 0.11375 -1.25399e-20)
(19.963 0.109421 -1.34444e-20)
(19.9612 0.104683 -1.69173e-22)
(19.9598 0.0995535 1.43744e-20)
(19.9589 0.0940734 0)
(19.9585 0.0879631 0)
(19.9931 0.127173 2.00673e-21)
(19.9907 0.12605 -2.02134e-21)
(19.9882 0.124733 0)
(19.9858 0.123211 0)
(19.9834 0.121469 9.56526e-21)
(19.981 0.119491 2.7142e-22)
(19.9787 0.117261 2.66055e-22)
(19.9764 0.11476 2.57765e-22)
(19.9742 0.111973 -2.28695e-20)
(19.9722 0.108883 1.18796e-20)
(19.9702 0.105477 0)
(19.9685 0.101748 0)
(19.967 0.0977009 6.78692e-21)
(19.9658 0.0933528 -6.88261e-21)
(19.965 0.0885265 0)
(19.9961 0.120693 0)
(19.9939 0.119655 0)
(19.9917 0.118463 0)
(19.9895 0.117111 0)
(19.9873 0.115589 0)
(19.9852 0.113888 0)
(19.9831 0.111997 0)
(19.9811 0.109903 0)
(19.9791 0.107595 0)
(19.9773 0.105059 0)
(19.9755 0.102281 0)
(19.9739 0.0992491 0)
(19.9725 0.0959501 0)
(19.9712 0.0923764 0)
(19.9703 0.0883591 0)
(19.9984 0.115971 -3.78851e-36)
(19.9963 0.114997 0)
(19.9943 0.113893 0)
(19.9922 0.112656 4.78955e-21)
(19.9902 0.111281 -4.80271e-21)
(19.9883 0.109762 0)
(19.9864 0.108093 0)
(19.9846 0.106267 1.07412e-20)
(19.9828 0.104276 -1.08581e-20)
(19.9811 0.102112 0)
(19.9795 0.0997642 0)
(19.9781 0.0972222 0)
(19.9767 0.0944756 0)
(19.9755 0.0915216 3.16435e-21)
(19.9745 0.0882937 -3.19272e-21)
(20.0002 0.112408 -1.13633e-21)
(19.9983 0.111479 -1.197e-21)
(19.9963 0.110438 2.32332e-21)
(19.9944 0.109284 -4.8846e-21)
(19.9926 0.108013 4.87753e-21)
(19.9908 0.106622 5.11008e-21)
(19.989 0.105108 1.09994e-22)
(19.9873 0.10347 -1.05925e-20)
(19.9857 0.101702 1.08533e-20)
(19.9842 0.0998019 -5.51701e-21)
(19.9827 0.0977622 0)
(19.9813 0.0955748 0)
(19.9801 0.0932322 0)
(19.9789 0.0907304 -3.06372e-21)
(19.9778 0.0880622 3.07478e-21)
(20.0018 0.109674 -1.16305e-21)
(19.9999 0.108779 1.15759e-21)
(19.998 0.107787 0)
(19.9962 0.106696 -2.47664e-21)
(19.9945 0.105503 7.51351e-21)
(19.9928 0.104205 -5.03011e-21)
(19.9911 0.102802 -5.23466e-21)
(19.9895 0.101298 5.23126e-21)
(19.988 0.0996921 0)
(19.9866 0.0979839 0)
(19.9852 0.0961694 -5.64609e-21)
(19.984 0.0942435 5.68449e-21)
(19.9828 0.0922001 0)
(19.9817 0.0900333 0)
(19.9807 0.0877496 0)
(20.0031 0.107546 0)
(20.0013 0.106679 0)
(19.9995 0.105727 0)
(19.9977 0.104688 0)
(19.996 0.103555 2.53391e-21)
(19.9944 0.102325 -2.52023e-21)
(19.9929 0.101003 0)
(19.9914 0.0995967 0)
(19.9899 0.0981108 -5.38466e-21)
(19.9886 0.0965464 5.38579e-21)
(19.9873 0.0949001 -5.55806e-21)
(19.9861 0.0931713 5.58026e-21)
(19.985 0.0913566 -2.87166e-21)
(19.984 0.0894506 4.3458e-21)
(19.9831 0.0875013 -1.46298e-21)
(20.0042 0.105874 0)
(20.0024 0.105033 0)
(20.0007 0.104116 0)
(19.999 0.103121 2.48847e-21)
(19.9974 0.102034 -2.47176e-21)
(19.9958 0.100852 -2.56155e-21)
(19.9943 0.0995882 2.54705e-21)
(19.9929 0.0982547 0)
(19.9915 0.0968609 0)
(19.9902 0.0954067 0)
(19.9891 0.093887 -2.73645e-21)
(19.9879 0.0923088 5.51856e-21)
(19.9869 0.0906671 -2.78704e-21)
(19.986 0.0889525 0)
(19.9851 0.0872154 0)
(20.0051 0.104552 0)
(20.0034 0.103737 -1.19399e-21)
(20.0016 0.102853 1.18632e-21)
(20 0.101895 -2.46654e-21)
(19.9985 0.100835 2.44998e-21)
(19.997 0.0996879 0)
(19.9956 0.0984665 -2.5641e-21)
(19.9942 0.0971891 2.55119e-21)
(19.9929 0.0958702 -2.62457e-21)
(19.9917 0.0945026 5.275e-21)
(19.9905 0.0930789 -2.65523e-21)
(19.9895 0.0916203 -2.72629e-21)
(19.9885 0.0901168 2.73588e-21)
(19.9876 0.0885587 0)
(19.9868 0.0870242 0)
(20.0058 0.103546 2.96815e-22)
(20.0041 0.102749 -2.94038e-22)
(20.0025 0.10187 -1.20365e-21)
(20.0008 0.100934 1.15567e-21)
(19.9994 0.0999004 0)
(19.998 0.0987957 0)
(19.9967 0.0975917 0)
(19.9954 0.0963426 0)
(19.9941 0.0950842 0)
(19.9929 0.0937769 -2.62135e-21)
(19.9918 0.0924188 5.34287e-21)
(19.9908 0.0910644 -2.68412e-21)
(19.9899 0.0896637 0)
(19.9891 0.088189 0)
(19.9883 0.0868061 0)
(20.0762 0.0100241 -9.30707e-21)
(20.0352 0.00735969 1.04263e-20)
(19.9617 0.00426145 0)
(19.8387 0.000392003 0)
(19.6483 -0.00440552 0)
(19.3812 -0.0101008 0)
(19.0366 -0.01662 1.67341e-21)
(18.6185 -0.0239902 -1.85839e-21)
(18.1302 -0.0321489 0)
(17.5708 -0.0409804 0)
(16.9292 -0.0507465 -1.28265e-20)
(16.1739 -0.0615808 1.5174e-20)
(15.2349 -0.0752921 -1.47811e-21)
(13.9971 -0.0653059 1.01353e-21)
(12.6336 -0.079003 1.23896e-21)
(20.0744 0.00794964 0)
(20.0385 0.00582224 -2.27015e-20)
(19.9774 0.00296656 2.50336e-20)
(19.8783 -0.00123488 0)
(19.7273 -0.00713033 0)
(19.5145 -0.0144988 0)
(19.2351 -0.0228837 0)
(18.8878 -0.0318219 6.47896e-20)
(18.4709 -0.0409111 -7.17891e-20)
(17.9792 -0.0499006 8.89632e-20)
(17.3978 -0.0590775 3.04326e-21)
(16.6924 -0.0685899 -1.21149e-19)
(15.7997 -0.0804725 7.54183e-20)
(14.6699 -0.0762821 -4.67842e-20)
(13.5935 -0.0483599 -6.14201e-20)
(20.0731 0.00387247 0)
(20.0416 0.000287548 0)
(19.9897 -0.00426006 3.11251e-20)
(19.9076 -0.00991683 -3.39173e-20)
(19.7839 -0.0165411 -4.42273e-20)
(19.6087 -0.0236667 -3.3301e-21)
(19.3752 -0.0308962 -2.80087e-21)
(19.0784 -0.0380219 6.42303e-20)
(18.713 -0.0450057 0)
(18.2702 -0.0519571 0)
(17.7316 -0.0593975 0)
(17.0611 -0.0674406 0)
(16.2016 -0.0760808 0)
(15.1351 -0.0724687 0)
(14.1727 -0.0344843 0)
(20.0701 0.000618801 0)
(20.0407 -0.00326375 -1.18491e-20)
(19.994 -0.00775626 1.28458e-20)
(19.9225 -0.0128956 0)
(19.817 -0.0185882 -3.29156e-20)
(19.6685 -0.0245897 3.55729e-20)
(19.4689 -0.0307117 -3.92296e-20)
(19.2107 -0.0368703 8.54396e-20)
(18.8855 -0.0430887 -2.33375e-20)
(18.4812 -0.0495056 -2.59094e-20)
(17.9766 -0.0566022 0)
(17.3338 -0.0645112 0)
(16.499 -0.0717334 0)
(15.469 -0.0675211 -1.20397e-20)
(14.5557 -0.0287338 1.46287e-20)
(20.0663 -0.0010433 0)
(20.0388 -0.00454002 0)
(19.9967 -0.00847819 1.15016e-20)
(19.9341 -0.0129457 1.24794e-22)
(19.8435 -0.0179257 1.08643e-22)
(19.7165 -0.0232781 -2.91109e-20)
(19.5441 -0.0288545 1.57397e-20)
(19.3172 -0.034565 -1.72223e-20)
(19.0249 -0.0404234 -8.22789e-23)
(18.6526 -0.0465782 2.06521e-20)
(18.1765 -0.0534632 0)
(17.5572 -0.0612661 0)
(16.7425 -0.0678575 -1.54077e-20)
(15.7352 -0.0631505 1.8246e-20)
(14.846 -0.0256213 0)
(20.0633 -0.00227083 0)
(20.0379 -0.00532944 0)
(20.0001 -0.00889775 1.0881e-20)
(19.9451 -0.0129459 -2.34362e-20)
(19.8665 -0.017435 2.54801e-20)
(19.7563 -0.0222787 2.08222e-22)
(19.6056 -0.0273771 -3.01076e-20)
(19.4037 -0.0326707 1.63083e-20)
(19.1384 -0.0381921 -1.79501e-20)
(18.7927 -0.0441083 3.92987e-20)
(18.3411 -0.0508115 -2.17314e-20)
(17.7423 -0.0584889 0)
(16.9443 -0.0647963 0)
(15.9524 -0.0598347 0)
(15.0756 -0.0236005 0)
(20.0607 -0.0029966 0)
(20.0372 -0.00581975 0)
(20.003 -0.0091787 0)
(19.9541 -0.0129077 0)
(19.8848 -0.0170001 0)
(19.7877 -0.0214389 0)
(19.6539 -0.0261779 0)
(19.4723 -0.0311858 0)
(19.2291 -0.0364999 0)
(18.906 -0.042285 0)
(18.4754 -0.0488908 0)
(17.8948 -0.0564666 0)
(17.1111 -0.062613 0)
(16.1302 -0.0575031 0)
(15.2597 -0.0221935 0)
(20.0585 -0.00362474 0)
(20.0364 -0.00606153 4.52484e-21)
(20.0051 -0.00919373 -4.76493e-21)
(19.961 -0.0126807 1.0322e-20)
(19.8991 -0.0165172 1.61845e-22)
(19.8124 -0.0207223 -2.36193e-20)
(19.6922 -0.0252764 -2.18776e-22)
(19.5271 -0.0301591 -2.52565e-22)
(19.3025 -0.0354002 2.26529e-20)
(18.9987 -0.0411474 1.69795e-22)
(18.5866 -0.0477126 -9.16857e-21)
(18.022 -0.0552036 1.05816e-20)
(17.2509 -0.0612205 -1.79141e-20)
(16.2783 -0.0559767 6.93017e-21)
(15.411 -0.0212487 0)
(20.0561 -0.00347149 2.01553e-21)
(20.0355 -0.00590407 -2.11847e-21)
(20.0067 -0.00897606 0)
(19.9666 -0.0123459 0)
(19.9105 -0.0160794 0)
(19.8322 -0.0202196 -5.44331e-21)
(19.723 -0.0247568 1.16695e-20)
(19.5715 -0.0296695 -1.27454e-20)
(19.3626 -0.0349716 -2.26701e-22)
(19.0754 -0.040787 7.65591e-21)
(18.6797 -0.0473756 0)
(18.1296 -0.0547639 0)
(17.3699 -0.0605623 5.79159e-21)
(16.4042 -0.055059 -3.23505e-21)
(15.5384 -0.0205501 -3.77126e-21)
(20.054 -0.00354855 0)
(20.0346 -0.00572972 0)
(20.0079 -0.00864068 0)
(19.971 -0.0119221 4.31511e-21)
(19.9197 -0.0156337 -4.5128e-21)
(19.8481 -0.0198211 0)
(19.748 -0.0244803 0)
(19.6078 -0.0295757 5.93849e-21)
(19.4123 -0.0350928 -6.31136e-21)
(19.1398 -0.0411194 -7.48124e-21)
(18.7587 -0.0478922 1.23177e-20)
(18.2222 -0.0553852 -4.63886e-21)
(17.473 -0.0611057 0)
(16.513 -0.0552493 3.30151e-21)
(15.6476 -0.0205751 -3.70941e-21)
(20.052 -0.002906 0)
(20.0337 -0.00522664 0)
(20.0087 -0.00810005 0)
(19.9744 -0.011344 3.87326e-21)
(19.9269 -0.0151133 4.1501e-23)
(19.8607 -0.0194894 -8.62838e-21)
(19.7677 -0.0244664 4.58683e-21)
(19.6369 -0.0299633 0)
(19.4526 -0.0358928 0)
(19.1925 -0.0423877 -3.54652e-21)
(18.8241 -0.0496128 3.79723e-21)
(18.2997 -0.0571932 0)
(17.561 -0.0625325 0)
(16.6075 -0.0559736 0)
(15.743 -0.0203923 0)
(20.0503 -0.00254423 0)
(20.0329 -0.00460783 1.66413e-21)
(20.0094 -0.00732638 -3.37934e-21)
(19.9773 -0.0104425 1.72297e-21)
(19.9329 -0.0141731 0)
(19.8711 -0.0186645 0)
(19.7844 -0.0240588 3.9473e-21)
(19.6618 -0.0301853 -4.14215e-21)
(19.4879 -0.0366359 0)
(19.2392 -0.0434508 -3.07523e-21)
(18.8837 -0.0515382 -4.39795e-22)
(18.3713 -0.060918 1.65029e-21)
(17.642 -0.0672202 2.56081e-21)
(16.6925 -0.0598291 -1.79825e-21)
(15.8272 -0.0234189 1.99436e-21)
(20.0486 -0.00165834 0)
(20.0317 -0.00382711 0)
(20.0096 -0.00645094 0)
(19.9792 -0.00941972 0)
(19.9367 -0.0132354 0)
(19.8775 -0.0180731 1.5192e-21)
(19.7937 -0.0241937 -1.58152e-21)
(19.6768 -0.031552 0)
(19.5107 -0.0387538 0)
(19.2703 -0.046323 0)
(18.9189 -0.0555025 0)
(18.4142 -0.0657331 -2.51591e-21)
(17.7021 -0.0720122 2.73026e-21)
(16.7659 -0.062481 0)
(15.9021 -0.022944 0)
(20.0475 -0.000596248 0)
(20.0318 -0.00271131 0)
(20.0114 -0.0052268 0)
(19.9823 -0.00755597 -1.15744e-21)
(19.9431 -0.0107471 2.15836e-21)
(19.8894 -0.014695 -9.95342e-22)
(19.8133 -0.0209964 0)
(19.7034 -0.0303178 0)
(19.5508 -0.0380879 0)
(19.3207 -0.0434345 0)
(18.9967 -0.0531241 0)
(18.5002 -0.0744829 0)
(17.7883 -0.0853766 0)
(16.8401 -0.0722154 -1.06475e-21)
(15.9694 -0.04101 1.17302e-21)
(12.6907 0.0860801 7.96555e-22)
(14.0959 0.0700497 2.45708e-21)
(15.3474 0.0797015 -2.34005e-21)
(16.292 0.0660662 1.77132e-20)
(17.0503 0.0555062 -1.49798e-20)
(17.693 0.0460387 0)
(18.2507 0.0375509 0)
(18.7338 0.0298139 4.17836e-21)
(19.1428 0.0229735 -3.76279e-21)
(19.474 0.0170958 0)
(19.7245 0.0121341 0)
(19.8964 0.00819109 0)
(20.0025 0.00518235 0)
(20.062 0.00290576 8.23367e-21)
(20.092 0.00095668 -7.409e-21)
(13.6394 0.0582744 -6.10751e-20)
(14.7677 0.0840264 -4.62112e-20)
(15.9162 0.0877223 7.47978e-20)
(16.8148 0.0759032 -1.1941e-19)
(17.5217 0.0667284 3.5088e-21)
(18.102 0.0578817 8.73057e-20)
(18.5896 0.0492195 -6.93026e-20)
(18.9991 0.0404832 6.25504e-20)
(19.3357 0.0319549 0)
(19.6011 0.0240467 0)
(19.7977 0.0172248 0)
(19.932 0.0119736 0)
(20.016 0.00842969 2.09491e-20)
(20.0647 0.00617361 -1.90001e-20)
(20.0905 0.00447315 0)
(14.2157 0.0465938 0)
(15.2332 0.0827954 0)
(16.321 0.0857375 0)
(17.1864 0.077131 0)
(17.8568 0.0694606 0)
(18.3921 0.0623983 0)
(18.8288 0.0557995 0)
(19.1851 0.0491493 6.13209e-20)
(19.4699 0.0423512 -3.34937e-21)
(19.6892 0.0354478 -3.87348e-21)
(19.8489 0.0286672 -4.09586e-20)
(19.9574 0.0224477 -2.99489e-20)
(20.0262 0.01723 2.74747e-20)
(20.0669 0.0131028 0)
(20.0892 0.00982995 0)
(14.5986 0.0425219 1.44951e-20)
(15.5682 0.0798028 -1.19164e-20)
(16.6209 0.0832841 0)
(17.461 0.0760909 0)
(18.1022 0.0685661 0)
(18.6017 0.0618703 -2.47908e-20)
(18.9981 0.0558132 -2.18823e-20)
(19.3127 0.0499115 8.04643e-20)
(19.5581 0.0440364 -3.67183e-20)
(19.7435 0.0381728 3.23301e-20)
(19.8774 0.0324275 -2.99022e-20)
(19.9691 0.0270164 0)
(20.0286 0.0221714 1.08825e-20)
(20.0652 0.0179519 -1.00391e-20)
(20.0861 0.0142912 0)
(14.8893 0.0407323 0)
(15.836 0.0769184 1.7876e-20)
(16.8663 0.0808963 -1.51098e-20)
(17.6856 0.0743426 0)
(18.3018 0.0669342 0)
(18.771 0.0604669 1.95648e-20)
(19.1339 0.0546758 -2.91931e-22)
(19.4145 0.0491226 -1.61182e-20)
(19.6281 0.0436723 1.43006e-20)
(19.7865 0.0383256 -2.62099e-20)
(19.8998 0.0331936 3.32062e-22)
(19.9779 0.0284353 3.5221e-22)
(20.0296 0.0241731 9.82817e-21)
(20.0625 0.0203981 0)
(20.0823 0.0170485 0)
(15.1196 0.0397837 0)
(16.0548 0.0747769 0)
(17.0698 0.0790393 0)
(17.8714 0.0727906 0)
(18.4656 0.0655254 -2.07507e-20)
(18.9089 0.0592584 3.73302e-20)
(19.2437 0.0537132 -1.69564e-20)
(19.4965 0.0484943 1.49881e-20)
(19.6848 0.0434512 -2.74361e-20)
(19.8219 0.0385681 4.21737e-22)
(19.9192 0.0339185 2.2338e-20)
(19.9863 0.0296017 -2.00711e-20)
(20.0313 0.0256841 9.20142e-21)
(20.0607 0.0221815 0)
(20.079 0.0191581 0)
(15.3045 0.0392809 0)
(16.234 0.0734095 0)
(17.2379 0.0778496 0)
(18.0242 0.0717847 0)
(18.599 0.0646439 0)
(19.0198 0.058496 0)
(19.331 0.053096 0)
(19.5609 0.0480924 0)
(19.7288 0.0433393 0)
(19.8494 0.0388139 0)
(19.9343 0.0345534 0)
(19.993 0.0305969 0)
(20.0328 0.0269484 0)
(20.0592 0.0236017 0)
(20.0762 0.020713 0)
(15.4564 0.0389979 0)
(16.3834 0.0726211 6.77813e-21)
(17.3787 0.077255 -1.74267e-20)
(18.1515 0.0713704 1.02704e-20)
(18.7089 0.0643532 -8.71044e-21)
(19.11 0.0582747 2.69604e-22)
(19.401 0.0529348 2.10105e-20)
(19.6118 0.0480232 -4.62499e-22)
(19.7633 0.0434098 -4.32817e-22)
(19.8707 0.0390733 -2.07069e-20)
(19.9458 0.0350313 3.81096e-22)
(19.9979 0.0312911 8.71472e-21)
(20.0335 0.0278227 -3.79313e-21)
(20.0575 0.0245968 3.60083e-21)
(20.0734 0.0218022 0)
(15.5846 0.0389726 -3.72926e-21)
(16.5108 0.0723566 -3.13603e-21)
(17.4988 0.0772506 5.66978e-21)
(18.2592 0.0715982 0)
(18.8009 0.0647225 0)
(19.1846 0.0586723 7.16224e-21)
(19.4581 0.0533105 -3.28771e-22)
(19.6529 0.0483744 -1.15874e-20)
(19.7908 0.0437613 1.03679e-20)
(19.8875 0.0394619 -4.77561e-21)
(19.9549 0.0354816 0)
(20.0015 0.031815 0)
(20.0337 0.0284247 0)
(20.0557 0.0252665 -1.57844e-21)
(20.0706 0.0225264 1.51844e-21)
(15.6942 0.0389309 -3.68867e-21)
(16.6203 0.0727765 3.2769e-21)
(17.6019 0.0782425 0)
(18.3511 0.0728386 -4.50582e-21)
(18.8784 0.065956 1.18643e-20)
(19.2466 0.0597645 -7.17382e-21)
(19.5049 0.0542137 -5.81513e-21)
(19.6861 0.0491067 5.47145e-21)
(19.8128 0.044367 0)
(19.9009 0.0399646 0)
(19.9619 0.0359137 -3.64818e-21)
(20.0043 0.0322122 3.48848e-21)
(20.0336 0.0288259 0)
(20.0539 0.0257144 0)
(20.0679 0.0230799 0)
(15.7917 0.0398321 0)
(16.7179 0.0742344 0)
(17.6926 0.0801511 0)
(18.4302 0.0748421 0)
(18.9439 0.0679346 3.62107e-21)
(19.2981 0.0615029 -3.38323e-21)
(19.5432 0.0556078 0)
(19.7131 0.0501622 0)
(19.8304 0.0450888 3.91408e-21)
(19.9113 0.0404385 -7.2027e-21)
(19.9673 0.0362046 1.84257e-22)
(20.0062 0.0323913 3.01506e-21)
(20.0333 0.0289696 0)
(20.0522 0.0258716 0)
(20.0654 0.0232554 0)
(15.8737 0.0390546 2.07218e-21)
(16.7991 0.0774943 -1.86498e-21)
(17.7674 0.0850388 2.62939e-21)
(18.4967 0.0791488 1.73907e-21)
(18.9995 0.0711635 -5.3847e-22)
(19.3408 0.0638242 -3.11989e-21)
(19.5747 0.057103 0)
(19.7344 0.0511495 -3.80418e-21)
(19.8438 0.0458793 3.62517e-21)
(19.9191 0.0408441 0)
(19.971 0.0362941 0)
(20.0073 0.0323135 1.21405e-21)
(20.0326 0.0288205 -2.33663e-21)
(20.0505 0.0257716 1.12893e-21)
(20.0631 0.0232751 0)
(15.9681 0.0444023 0)
(16.8915 0.0857709 0)
(17.8423 0.0905642 2.31628e-21)
(18.5574 0.0812437 -2.13576e-21)
(19.0453 0.0740754 0)
(19.3756 0.0665042 0)
(19.5992 0.0588079 0)
(19.7531 0.0527791 0)
(19.8558 0.0464514 -1.18734e-21)
(19.9256 0.0407456 1.14057e-21)
(19.9744 0.0358872 0)
(20.0081 0.0317595 0)
(20.032 0.0283114 0)
(20.0491 0.025315 0)
(20.0613 0.0229884 0)
(16.0071 0.0291659 1.63126e-21)
(16.9193 0.0972317 -1.47465e-21)
(17.8593 0.104918 0)
(18.5969 0.0887423 0)
(19.0905 0.0797202 0)
(19.4023 0.0687092 0)
(19.6254 0.0588062 0)
(19.7648 0.0523332 0)
(19.8576 0.0477833 0)
(19.9287 0.0407465 -7.84769e-22)
(19.9737 0.035386 1.5312e-21)
(20.0081 0.0310156 -7.5128e-22)
(20.0303 0.0274907 0)
(20.0471 0.0246527 0)
(20.0586 0.0229061 0)
(19.4025 0.136627 0)
(19.958 0.0865813 0)
(20.0606 0.100401 0)
(20.113 0.109487 0)
(20.1422 0.118566 0)
(20.1577 0.126758 0)
(20.1636 0.134396 0)
(20.1622 0.141168 0)
(20.1552 0.146553 0)
(20.1443 0.149939 0)
(20.1312 0.150777 0)
(20.1178 0.148835 0)
(20.1056 0.144354 0)
(20.0956 0.138075 0)
(20.0882 0.130188 0)
(17.5881 -0.26583 0)
(19.9065 0.198687 0)
(19.9583 0.109653 0)
(20.0014 0.100055 0)
(20.0401 0.103126 0)
(20.0708 0.107772 0)
(20.0938 0.112032 0)
(20.1097 0.116023 0)
(20.1192 0.119623 0)
(20.123 0.122586 0)
(20.1219 0.124658 0)
(20.1171 0.125602 0)
(20.1102 0.125215 0)
(20.1025 0.123495 0)
(20.0953 0.119681 0)
(15.6944 -0.145128 -1.13158e-37)
(19.8959 0.220805 0)
(19.9871 0.108829 0)
(19.9996 0.109493 0)
(20.027 0.111936 0)
(20.0537 0.112593 0)
(20.0758 0.112959 0)
(20.0926 0.11368 0)
(20.1042 0.114528 0)
(20.1109 0.115231 0)
(20.1133 0.115598 0)
(20.1122 0.115506 0)
(20.1086 0.114878 0)
(20.1035 0.113783 0)
(20.0978 0.111393 0)
(14.0689 -0.0596688 0)
(19.7939 0.151347 0)
(20.033 0.0707041 0)
(20.034 0.087419 0)
(20.047 0.0901137 0)
(20.0651 0.0908157 0)
(20.0823 0.0919105 0)
(20.0961 0.0937582 0)
(20.1058 0.0959874 0)
(20.1114 0.0983478 0)
(20.1133 0.100594 0)
(20.1121 0.102469 0)
(20.1088 0.103742 0)
(20.1043 0.104395 0)
(20.0991 0.103754 0)
(13.9721 0.0357917 0)
(19.1785 0.0262922 0)
(19.895 0.0339981 0)
(20.0072 0.0609743 0)
(20.036 0.0649266 0)
(20.0544 0.0674569 0)
(20.0709 0.0704387 0)
(20.0849 0.0740033 0)
(20.0958 0.0778887 0)
(20.1031 0.0819455 0)
(20.107 0.0859625 0)
(20.1078 0.0896841 0)
(20.1062 0.0928344 0)
(20.103 0.0952908 0)
(20.0989 0.0964395 0)
(14.6574 0.0690978 0)
(18.3682 -0.0408892 0)
(19.5882 0.0312766 0)
(19.9096 0.0540817 0)
(19.996 0.0592058 0)
(20.0292 0.0626836 0)
(20.0497 0.0657194 0)
(20.0659 0.0687809 0)
(20.079 0.0720607 0)
(20.0889 0.0755839 0)
(20.0956 0.0792198 0)
(20.0993 0.0827795 0)
(20.1003 0.0860401 0)
(20.0994 0.0888672 0)
(20.0971 0.0907756 0)
(15.0551 0.0309289 4.40918e-36)
(17.8414 -0.0273484 0)
(19.2621 0.0389094 0)
(19.7769 0.0545708 0)
(19.945 0.0627148 0)
(20.0058 0.0671741 0)
(20.0347 0.0697556 0)
(20.0534 0.071669 0)
(20.0676 0.0735846 0)
(20.0787 0.0757139 0)
(20.0868 0.0780485 0)
(20.0921 0.0804925 0)
(20.0948 0.0828987 0)
(20.0955 0.0851504 0)
(20.0947 0.0869685 0)
(15.1251 0.00683595 0)
(17.5402 -2.28002e-05 0)
(18.9857 0.0390145 0)
(19.6333 0.0534075 0)
(19.8857 0.0645914 0)
(19.9827 0.0700856 0)
(20.0247 0.0727805 0)
(20.0474 0.0742652 0)
(20.0626 0.0754346 0)
(20.0738 0.076652 0)
(20.0822 0.078034 0)
(20.0879 0.0795723 0)
(20.0913 0.0811867 0)
(20.0928 0.0827735 0)
(20.0928 0.0842214 0)
(15.0012 0.00243001 -8.94213e-36)
(17.341 0.0148736 0)
(18.762 0.0361389 0)
(19.4915 0.0514881 0)
(19.8177 0.0637681 0)
(19.9541 0.0700682 0)
(20.0133 0.0733336 0)
(20.0424 0.0749922 0)
(20.0595 0.0759898 0)
(20.0712 0.0768192 0)
(20.0796 0.077708 0)
(20.0854 0.0787205 0)
(20.089 0.0798344 0)
(20.0909 0.0809689 0)
(20.0914 0.0821674 0)
(14.8179 0.00369569 -9.19869e-36)
(17.1615 0.0190534 0)
(18.5729 0.0338754 0)
(19.3574 0.0493806 0)
(19.7446 0.0615077 0)
(19.9193 0.0685121 0)
(19.9982 0.0724905 0)
(20.0359 0.0745751 0)
(20.0563 0.0756976 0)
(20.069 0.0764375 0)
(20.0776 0.0771055 0)
(20.0836 0.0778281 0)
(20.0874 0.0786322 0)
(20.0895 0.0794632 0)
(20.0903 0.0804102 0)
(14.6338 0.00466634 0)
(16.9831 0.018649 0)
(18.404 0.0320426 0)
(19.2306 0.0468579 0)
(19.6692 0.0586356 0)
(19.8804 0.0662963 0)
(19.9798 0.0709038 0)
(20.0277 0.0734631 0)
(20.0525 0.0748468 0)
(20.0668 0.0756629 0)
(20.076 0.0762744 0)
(20.0822 0.0768572 0)
(20.0861 0.0774773 0)
(20.0884 0.0781053 0)
(20.0894 0.0788319 0)
(14.4656 0.00474575 9.38158e-36)
(16.8095 0.0170377 0)
(18.2471 0.030096 0)
(19.1084 0.0440578 0)
(19.5922 0.0556914 0)
(19.8383 0.0638756 0)
(19.9588 0.0689639 0)
(20.0179 0.0719623 0)
(20.0479 0.073646 0)
(20.0645 0.0746125 0)
(20.0745 0.0752554 0)
(20.081 0.0757906 0)
(20.0851 0.0763158 0)
(20.0875 0.0768266 0)
(20.0887 0.0774198 0)
(14.3141 0.00442674 0)
(16.6453 0.0154564 0)
(18.0983 0.0280914 0)
(18.9892 0.0413486 0)
(19.514 0.0529601 0)
(19.7939 0.0614923 0)
(19.9354 0.0669468 0)
(20.0063 0.070329 0)
(20.0425 0.0723039 0)
(20.0618 0.0734425 0)
(20.073 0.0741547 0)
(20.0799 0.0746884 0)
(20.0842 0.0751695 0)
(20.0868 0.0756184 0)
(20.0881 0.0761504 0)
(14.176 0.00403895 1.82792e-35)
(16.4919 0.0142095 0)
(17.9562 0.0262398 0)
(18.8727 0.0389212 0)
(19.4351 0.0504927 0)
(19.7476 0.0592308 0)
(19.9101 0.0649908 0)
(19.9934 0.0687033 0)
(20.0361 0.0709434 0)
(20.0587 0.0722539 0)
(20.0713 0.0730494 0)
(20.0788 0.0736005 0)
(20.0834 0.0740582 0)
(20.0862 0.0744633 0)
(20.0876 0.0749208 0)
(14.0477 0.00370889 -1.8047e-35)
(16.3485 0.0132365 0)
(17.8206 0.0245824 0)
(18.7596 0.0367125 0)
(19.3561 0.0481878 0)
(19.6998 0.0570606 0)
(19.8833 0.0631289 0)
(19.9792 0.0671265 0)
(20.0289 0.0696042 0)
(20.0551 0.0710796 0)
(20.0695 0.0719636 0)
(20.0777 0.0725415 0)
(20.0827 0.072984 0)
(20.0856 0.0733505 0)
(20.0872 0.0737403 0)
(13.9276 0.0034537 0)
(16.2142 0.0123747 0)
(17.692 0.0230349 0)
(18.6505 0.0346048 0)
(19.2768 0.0459301 0)
(19.6503 0.0549461 0)
(19.855 0.0613492 0)
(19.9639 0.0655981 0)
(20.0211 0.0682934 0)
(20.0512 0.0699286 0)
(20.0674 0.0709063 0)
(20.0766 0.071521 0)
(20.082 0.0719606 0)
(20.0851 0.072303 0)
(20.0868 0.0726687 0)
(13.8155 0.00324167 0)
(16.0886 0.0115352 0)
(17.5704 0.0215533 0)
(18.5455 0.032587 0)
(19.1972 0.0437211 0)
(19.5991 0.0529065 0)
(19.8254 0.0596315 0)
(19.9475 0.0641104 0)
(20.0125 0.0670127 0)
(20.0469 0.068805 0)
(20.0653 0.0698814 0)
(20.0754 0.0705425 0)
(20.0812 0.0709907 0)
(20.0846 0.0713187 0)
(20.0865 0.0716655 0)
(13.7112 0.00304149 1.75722e-35)
(15.971 0.0107372 0)
(17.4553 0.0201723 0)
(18.444 0.0307219 0)
(19.1178 0.0416387 0)
(19.5465 0.0509721 0)
(19.7944 0.0579693 0)
(19.9302 0.0626657 0)
(20.0032 0.0657676 0)
(20.0421 0.0677131 0)
(20.0629 0.0688902 0)
(20.0742 0.0696032 0)
(20.0805 0.0700658 0)
(20.0841 0.070382 0)
(20.0861 0.0707071 0)
(13.6141 0.00284581 -1.73701e-35)
(15.861 0.0100375 0)
(17.3461 0.0189471 0)
(18.3456 0.029062 0)
(19.0389 0.0397357 0)
(19.4928 0.0491587 0)
(19.7621 0.0563674 0)
(19.9119 0.061275 0)