/*--------------------------------*- C++ -*----------------------------------*\
| =========                 |                                                 |
| \\      /  F ield         | OpenFOAM: The Open Source CFD Toolbox           |
|  \\    /   O peration     | Version:  2.3.0                                 |
|   \\  /    A nd           | Web:      www.OpenFOAM.org                      |
|    \\/     M anipulation  |                                                 |
\*---------------------------------------------------------------------------*/
FoamFile
{
    version     2.0;
    format      ascii;
    class       volScalarField;
    location    "100";
    object      nuTilda;
}
// * * * * * * * * * * * * * * * * * * * * * * * * * * * * * * * * * * * * * //

dimensions      [0 2 -1 0 0 0 0];

internalField   nonuniform List<scalar> 
7991
(
0.0689343
0.0642697
0.0598715
0.0557894
0.0520783
0.0487898
0.0459627
0.0436092
0.0417019
0.0401684
0.0388985
0.0377608
0.0366213
0.0353543
0.0338522
0.0750413
0.0719729
0.0692824
0.066992
0.0651068
0.0636144
0.0624862
0.0616793
0.061142
0.0608191
0.0606561
0.0606032
0.0606173
0.0606626
0.0607106
0.0804417
0.0784399
0.0768046
0.0755137
0.0745361
0.0738334
0.0733625
0.0730787
0.0729387
0.0729022
0.0729336
0.0730018
0.07308
0.0731457
0.0731794
0.0849557
0.0836407
0.0826248
0.0818723
0.0813449
0.0810037
0.0808112
0.0807324
0.0807357
0.0807934
0.0808811
0.080978
0.0810657
0.0811285
0.0811521
0.0886555
0.0877642
0.0871001
0.086629
0.0863163
0.0861299
0.086041
0.0860242
0.0860574
0.0861217
0.0862006
0.0862797
0.0863468
0.0863903
0.0864002
0.0916855
0.0910401
0.0905732
0.0902471
0.0900325
0.0899042
0.0898413
0.0898258
0.0898428
0.0898794
0.0899247
0.0899694
0.0900051
0.0900243
0.0900199
0.0941375
0.0936584
0.0933081
0.0930577
0.0928851
0.0927722
0.0927041
0.0926685
0.0926553
0.092656
0.0926639
0.0926728
0.0926778
0.0926741
0.0926573
0.0961458
0.0957818
0.0955008
0.0952892
0.0951324
0.0950176
0.0949346
0.094875
0.0948321
0.0948005
0.0947759
0.094755
0.0947348
0.0947127
0.0946864
0.0978458
0.0975347
0.0972903
0.0970977
0.0969448
0.0968228
0.0967242
0.0966437
0.0965768
0.0965202
0.0964713
0.0964282
0.0963895
0.0963542
0.0963214
0.0992605
0.0989915
0.0987714
0.0985892
0.0984364
0.0983067
0.0981953
0.0980988
0.0980146
0.0979406
0.0978753
0.0978173
0.0977664
0.0977222
0.0976851
0.100455
0.100217
0.100015
0.0998391
0.0996856
0.0995497
0.0994286
0.0993208
0.0992249
0.09914
0.0990648
0.0989982
0.0989399
0.0988902
0.0988504
0.101472
0.101262
0.101072
0.100901
0.100748
0.100608
0.10048
0.100364
0.10026
0.100169
0.100089
0.100019
0.0999571
0.0999042
0.0998622
0.102355
0.102165
0.101983
0.101815
0.101662
0.10152
0.101387
0.101265
0.101156
0.101061
0.100982
0.100913
0.100849
0.100795
0.10075
0.103127
0.102955
0.102777
0.10261
0.102458
0.102316
0.102181
0.102056
0.101939
0.101841
0.101765
0.101706
0.101637
0.101584
0.101534
0.033854
0.035355
0.0365978
0.0377049
0.0388065
0.0400402
0.0415392
0.0434144
0.045738
0.0485375
0.0518024
0.0554974
0.059576
0.063988
0.0686883
0.0606875
0.060593
0.0605008
0.0604402
0.0604478
0.0605678
0.0608511
0.0613532
0.0621306
0.0632367
0.0647163
0.0666011
0.0689062
0.0716299
0.0747522
0.0731504
0.0730584
0.0729346
0.0727996
0.0726771
0.0725949
0.0725855
0.0726862
0.0729388
0.0733888
0.074083
0.075067
0.0763818
0.0780599
0.0801238
0.0811189
0.0810289
0.0809009
0.0807501
0.0805938
0.0804515
0.0803456
0.080302
0.0803503
0.0805244
0.0808611
0.0814001
0.0821818
0.0832449
0.0846256
0.0863651
0.0862852
0.086173
0.0860405
0.0859001
0.0857659
0.0856537
0.0855815
0.0855703
0.0856438
0.0858291
0.0861566
0.0866591
0.0873713
0.0883268
0.0899844
0.0899184
0.0898306
0.0897297
0.0896248
0.0895257
0.0894435
0.0893905
0.0893811
0.0894318
0.0895619
0.0897932
0.0901509
0.0906636
0.0913671
0.0926226
0.0925708
0.0925079
0.0924402
0.0923739
0.0923156
0.0922729
0.0922539
0.0922684
0.0923277
0.0924447
0.092635
0.0929163
0.0933091
0.093839
0.0946533
0.0946139
0.0945727
0.0945339
0.0945016
0.0944802
0.0944744
0.0944897
0.0945323
0.0946096
0.0947306
0.0949055
0.0951468
0.0954677
0.0958797
0.0962899
0.0962606
0.0962366
0.0962207
0.0962156
0.0962238
0.0962484
0.0962925
0.0963601
0.0964559
0.0965857
0.0967566
0.0969771
0.0972581
0.0976139
0.0976552
0.0976336
0.0976226
0.097624
0.0976394
0.0976701
0.0977177
0.0977841
0.0978715
0.0979827
0.0981212
0.0982915
0.0984992
0.098752
0.0990609
0.0988216
0.0988057
0.0988043
0.0988186
0.098849
0.0988961
0.0989605
0.0990432
0.0991452
0.099268
0.0994133
0.0995836
0.099782
0.100013
0.100283
0.0998341
0.0998221
0.0998281
0.0998521
0.0998937
0.0999523
0.100029
0.100123
0.100235
0.100366
0.100516
0.100686
0.100877
0.101091
0.101329
0.100722
0.100713
0.100725
0.100757
0.100807
0.100873
0.100958
0.101059
0.101178
0.101316
0.101469
0.101637
0.101822
0.102023
0.102236
0.101505
0.101499
0.101516
0.101555
0.101611
0.101682
0.101773
0.10188
0.102003
0.102146
0.102301
0.102467
0.102649
0.102839
0.103032
0.0140472
0.0111077
0.00874843
0.00691218
0.00566643
0.00478381
0.00409495
0.00351291
0.00299462
0.00251843
0.00207409
0.00165851
0.00127326
0.000919713
0.000661134
0.0141201
0.0113871
0.00917117
0.00742937
0.00616935
0.00524056
0.00452354
0.00393326
0.00341787
0.00294815
0.00250866
0.00209269
0.00169805
0.00132415
0.00101995
0.0142209
0.0116943
0.0096166
0.00797321
0.0067026
0.00572614
0.00496362
0.004343
0.00381067
0.00333156
0.00288488
0.00245966
0.0020495
0.00165035
0.00131685
0.0143432
0.0120042
0.0100539
0.00849288
0.00722637
0.00621172
0.00539955
0.0047357
0.00417181
0.00367095
0.00320817
0.00276821
0.00234025
0.00191685
0.00155902
0.0144737
0.0123052
0.010474
0.00897744
0.00772388
0.00668294
0.00582507
0.00511342
0.00450908
0.00397739
0.00349153
0.00303264
0.00258564
0.00213953
0.00175941
0.0146219
0.0125951
0.0108732
0.00942805
0.00818978
0.0071318
0.00623519
0.00547663
0.00482783
0.00425939
0.00374511
0.00326388
0.00279683
0.00232918
0.00192816
0.0147456
0.012868
0.0112459
0.00984671
0.00862364
0.00755449
0.00662599
0.00582418
0.00513044
0.00452211
0.00397573
0.00346947
0.00298148
0.00249314
0.00207244
0.0148993
0.0131278
0.0115909
0.0102347
0.00902666
0.0079499
0.00699508
0.00615458
0.00541761
0.00476847
0.00418783
0.00365462
0.00314495
0.00263658
0.00219732
0.0150003
0.0133673
0.0119092
0.0105935
0.00940037
0.00831829
0.00734146
0.00646667
0.00568926
0.00499995
0.00438419
0.00382287
0.00329102
0.00276317
0.00230637
0.0151356
0.0135916
0.0122024
0.010925
0.0097466
0.00866081
0.0076652
0.00676006
0.0059454
0.00521751
0.00456679
0.00397687
0.00342261
0.00287575
0.00240233
0.0152372
0.0137998
0.012473
0.0112311
0.0100671
0.00897877
0.00796691
0.00703471
0.00618592
0.00542157
0.00473671
0.00411825
0.00354167
0.00297644
0.00248738
0.015366
0.0139973
0.0127237
0.0115142
0.0103639
0.00927402
0.00824825
0.00729214
0.00641227
0.00561372
0.00489628
0.0042499
0.00365086
0.00306735
0.00256333
0.0154672
0.0141829
0.012957
0.0117762
0.0106378
0.00954495
0.00850383
0.00752509
0.00661759
0.00578806
0.00503798
0.00436496
0.00374726
0.00314865
0.00263085
0.0155989
0.0143866
0.0131963
0.0120356
0.0109223
0.00985005
0.00881647
0.00780574
0.0068555
0.00598755
0.00521828
0.00450933
0.00384981
0.00322342
0.00269313
0.000664061
0.000920538
0.00127184
0.001654
0.00206472
0.00250194
0.00296852
0.00347474
0.00404341
0.00472261
0.00561429
0.00691333
0.00877592
0.0111598
0.0141273
0.00102351
0.00132433
0.00169345
0.00208316
0.00249294
0.0029244
0.00338436
0.00388929
0.00447144
0.00518883
0.00613371
0.0074225
0.00920502
0.0114436
0.014194
0.00132112
0.00165014
0.00204244
0.00244608
0.00286413
0.00330256
0.00377297
0.00429811
0.00491647
0.00568552
0.00667786
0.00796962
0.00965572
0.0117543
0.0143002
0.00156406
0.00191647
0.00233141
0.00275171
0.00318409
0.00363921
0.00413343
0.00469388
0.00536006
0.00618169
0.0072118
0.0084995
0.0100979
0.0120685
0.0144257
0.00176525
0.00213924
0.00257567
0.00301432
0.00346579
0.00394523
0.00447277
0.00507706
0.00579419
0.00666312
0.00771977
0.00899412
0.010519
0.0123717
0.0145498
0.00193483
0.0023292
0.0027863
0.00324473
0.00371916
0.00422865
0.00479543
0.00544697
0.00621317
0.00712182
0.00819526
0.00945116
0.0109143
0.0126642
0.0147125
0.00207997
0.00249371
0.00297092
0.00345037
0.00395077
0.00449412
0.00510308
0.00580176
0.00661269
0.00755359
0.00863686
0.0098732
0.0112839
0.012941
0.0148435
0.00220573
0.00263789
0.00313482
0.00363629
0.00416476
0.00474413
0.00539591
0.00613951
0.00699003
0.00795691
0.00904576
0.0102635
0.0116289
0.0132027
0.0149948
0.0023157
0.00276541
0.00328173
0.00380591
0.00436371
0.00497986
0.0056735
0.00645878
0.00734395
0.00833203
0.00942417
0.010625
0.0119506
0.0134488
0.015125
0.00241254
0.00287903
0.00341444
0.00396172
0.00454935
0.005202
0.00593561
0.00675898
0.00767449
0.00868034
0.00977471
0.0109604
0.01225
0.0136778
0.0152461
0.0024987
0.00298113
0.0035351
0.00410544
0.00472279
0.00541093
0.00618215
0.00704017
0.00798241
0.00900357
0.0100997
0.0112716
0.0125275
0.0138892
0.015355
0.00257479
0.00307255
0.00364512
0.00423861
0.00488526
0.00560734
0.0064134
0.00730261
0.00826873
0.00930358
0.0104013
0.0115604
0.0127847
0.0140879
0.0154776
0.00264697
0.00315925
0.00374764
0.00436194
0.00503581
0.00579019
0.00662949
0.00754971
0.00853761
0.00958384
0.0106827
0.0118293
0.0130244
0.0142748
0.0155833
0.00269014
0.00321579
0.00383058
0.00447532
0.00518482
0.00597108
0.00684193
0.00776422
0.00875989
0.009827
0.0109194
0.0120669
0.0132327
0.0144276
0.0156371
0.00135953
0.00411256
0.0071585
0.0104446
0.0139702
0.0177346
0.0217462
0.0260201
0.0305725
0.0354129
0.0405371
0.0459242
0.0515384
0.0573346
0.0632663
1.99837e-05
0.000431832
0.00170337
0.00396893
0.00659358
0.00973053
0.0133866
0.0175584
0.0222331
0.0273859
0.0329778
0.0389542
0.0452458
0.0517733
0.0584531
0
0.000227382
0.00106637
0.00260868
0.00450635
0.00692743
0.00991778
0.0135114
0.0177279
0.0225673
0.0280055
0.0339919
0.0404493
0.0472787
0.05437
2.36336e-05
0.000110484
0.00112053
0.00222797
0.00373408
0.00570942
0.00821756
0.0113188
0.0150636
0.0194854
0.0245926
0.030362
0.036735
0.0436189
0.0508958
0.000106155
0.000473018
0.00108494
0.00200899
0.00329586
0.00499951
0.00718781
0.00993205
0.0133002
0.0173492
0.0221157
0.0276067
0.0337918
0.0405987
0.0479171
0.000338215
0.000635837
0.00101431
0.0018298
0.00297225
0.00449254
0.00645728
0.00894043
0.0120177
0.0157595
0.0202221
0.0254372
0.031401
0.0380657
0.0453338
0.000405468
0.000620912
0.000990302
0.0016809
0.0027124
0.00409528
0.00589155
0.0081743
0.0110218
0.0145117
0.0187126
0.0236742
0.0294153
0.035912
0.0430899
0.000400638
0.000580878
0.000977663
0.00155925
0.00250024
0.00377324
0.00543485
0.00755632
0.0102163
0.0134957
0.017471
0.022204
0.0277297
0.0340396
0.0410543
0.000391991
0.00055759
0.000951088
0.00145812
0.00232541
0.00350773
0.00505771
0.00704487
0.00954722
0.0126472
0.0164259
0.0209539
0.0262797
0.0324161
0.0393388
0.000386016
0.000545502
0.000920915
0.00137386
0.00217934
0.00328552
0.00474093
0.0066136
0.00898068
0.0119251
0.0155309
0.0198751
0.0250176
0.0309892
0.0377851
0.000381335
0.00053878
0.000899837
0.00132317
0.00205763
0.00309703
0.0044709
0.00624441
0.00849361
0.0113015
0.0147538
0.0189325
0.0239062
0.029718
0.03637
0.00037748
0.000535594
0.000890733
0.00130083
0.00195657
0.00293535
0.00423782
0.00592435
0.00806962
0.0107562
0.0140711
0.0180996
0.0229162
0.0285716
0.0350703
0.00037421
0.000534233
0.000887724
0.00128692
0.00187142
0.00279522
0.0040344
0.00564386
0.00769662
0.0102747
0.0134656
0.0173571
0.0220292
0.0275437
0.0339398
0.000371234
0.000533079
0.000885389
0.00127271
0.00179809
0.00267245
0.00385512
0.0053957
0.00736546
0.00984567
0.0129241
0.0166905
0.0212296
0.0266117
0.0328828
0.000368369
0.000531426
0.000881928
0.00125817
0.00174032
0.00256446
0.00369583
0.00517436
0.00706914
0.00946054
0.0124364
0.0160878
0.0205025
0.0257547
0.0318828
0.000365638
0.00052969
0.000879052
0.0012488
0.00170869
0.00247082
0.00355353
0.00497557
0.00680216
0.00911252
0.0119942
0.0155391
0.0198371
0.024965
0.0309696
0.000363134
0.000528451
0.000878234
0.00124562
0.00169373
0.00239002
0.00342589
0.00479598
0.00656016
0.00879615
0.011591
0.0150372
0.0192264
0.0242419
0.0301533
0.000360874
0.000527745
0.000879053
0.00124551
0.00168336
0.00231936
0.00331084
0.00463289
0.00633964
0.00850705
0.0112216
0.014576
0.018664
0.0235737
0.029378
0.000358794
0.000527209
0.000880185
0.00124539
0.00167227
0.00225669
0.00320657
0.00448408
0.00613774
0.00824167
0.0108816
0.0141505
0.0181436
0.0229514
0.0286463
0.000356809
0.000526492
0.000880643
0.00124395
0.00166017
0.00220417
0.00311189
0.00434772
0.0059521
0.00799705
0.0105675
0.0137563
0.0176597
0.0223698
0.0279605
0.000354883
0.000525537
0.000880428
0.00124206
0.00165055
0.00216952
0.00302694
0.00422245
0.00578078
0.00777072
0.0102762
0.0133898
0.0172084
0.0218253
0.0273186
0.000353034
0.000524539
0.000880214
0.00124127
0.00164578
0.00215093
0.00295158
0.0041072
0.00562217
0.00756061
0.0100051
0.0130479
0.0167861
0.0213143
0.0267115
0.000351292
0.000523693
0.000880534
0.00124213
0.00164487
0.00213993
0.00288453
0.00400098
0.0054749
0.00736492
0.00975201
0.0127278
0.0163888
0.0208284
0.0261178
0.000349666
0.000523045
0.000881406
0.00124409
0.00164556
0.00213064
0.00282414
0.00390283
0.00533779
0.00718214
0.00951503
0.0124273
0.0160159
0.0203783
0.0256151
0.00034814
0.000522496
0.000882471
0.00124623
0.00164604
0.00212062
0.00276946
0.00381182
0.00520979
0.00701096
0.00929258
0.0121447
0.0156642
0.0199477
0.0250735
0.000346684
0.00052192
0.000883331
0.00124784
0.00164551
0.0021099
0.0027222
0.00372741
0.00509003
0.00685027
0.00908327
0.0118782
0.0153315
0.0195396
0.0245864
0.000345272
0.000521237
0.000883789
0.00124877
0.00164437
0.00210053
0.00268728
0.00364981
0.0049778
0.00669908
0.00888585
0.0116262
0.0150159
0.0191513
0.0241186
0.000343897
0.000520468
0.000883937
0.0012494
0.00164369
0.00209455
0.0026656
0.00357926
0.00487259
0.00655655
0.00869928
0.0113877
0.0147175
0.0187885
0.0237092
0.000342567
0.000519683
0.000884023
0.00125023
0.00164422
0.00209219
0.00265253
0.00351533
0.00477392
0.00642197
0.0085227
0.0111617
0.0144348
0.0184442
0.0232953
0.000341292
0.000518957
0.00088426
0.00125155
0.00164602
0.00209225
0.00264316
0.00345706
0.00468129
0.00629474
0.0083554
0.0109475
0.0141671
0.0181182
0.0229085
0.000340077
0.000518316
0.00088471
0.00125333
0.00164861
0.00209324
0.00263454
0.00340345
0.00459419
0.00617432
0.00819669
0.0107439
0.0139118
0.0178022
0.0225069
0.000338918
0.00051774
0.000885292
0.00125531
0.00165136
0.00209408
0.00262541
0.00335408
0.00451214
0.00606019
0.00804591
0.0105503
0.0136687
0.0175044
0.0221681
0.000337806
0.000517183
0.000885862
0.00125719
0.00165379
0.00209423
0.00261573
0.00330993
0.00443487
0.00595191
0.00790252
0.0103659
0.0134368
0.0172182
0.0218108
0.000336729
0.000516604
0.000886288
0.00125874
0.00165567
0.00209374
0.00260654
0.00327393
0.00436245
0.0058491
0.00776594
0.0101898
0.0132147
0.0169418
0.0214689
0.00033568
0.000515982
0.000886514
0.00125993
0.00165711
0.0020932
0.00259936
0.00324817
0.00429522
0.00575145
0.00763571
0.0100217
0.0130026
0.0166814
0.0211724
0.000334656
0.000515321
0.000886567
0.00126087
0.00165843
0.00209329
0.00259504
0.00323127
0.00423323
0.00565875
0.00751141
0.00986084
0.0127989
0.0164269
0.0208398
0.000333657
0.000514649
0.000886539
0.00126174
0.00165996
0.0020944
0.0025934
0.00321992
0.00417612
0.00557073
0.00739264
0.00970679
0.0126039
0.0161867
0.0205737
0.000332688
0.000513993
0.000886521
0.00126272
0.00166188
0.00209651
0.00259359
0.00321121
0.00412324
0.00548712
0.0072791
0.00955931
0.0124176
0.0159588
0.0203054
0.000331751
0.000513375
0.000886578
0.00126387
0.0016642
0.00209933
0.00259468
0.00320328
0.00407397
0.00540762
0.00717051
0.00941804
0.0122389
0.0157379
0.0200263
0.000330848
0.000512797
0.000886716
0.00126517
0.00166677
0.00210245
0.00259589
0.0031952
0.00402793
0.00533197
0.0070666
0.00928262
0.0120675
0.0155257
0.0197724
0.000329976
0.000512251
0.000886907
0.00126654
0.0016694
0.00210553
0.00259676
0.0031867
0.00398536
0.00525993
0.00696711
0.00915276
0.011903
0.0153225
0.0195269
0.000329131
0.00051172
0.000887095
0.00126787
0.0016719
0.00210829
0.00259711
0.00317805
0.00394747
0.00519146
0.00687178
0.00902799
0.0117442
0.015122
0.0192595
0.00032831
0.000511189
0.000887231
0.00126907
0.00167414
0.00211065
0.00259708
0.00317004
0.00391619
0.00512669
0.00678041
0.00890796
0.011591
0.0149302
0.0190364
0.000327508
0.000510644
0.000887279
0.00127007
0.00167609
0.00211269
0.00259704
0.00316362
0.00389264
0.00506582
0.0066928
0.00879236
0.011443
0.014744
0.0188001
0.000326723
0.000510084
0.000887234
0.0012709
0.0016778
0.00211458
0.00259744
0.00315937
0.00387603
0.00500894
0.0066088
0.00868094
0.0112999
0.0145636
0.0185754
0.000325955
0.000509513
0.00088711
0.0012716
0.00167939
0.00211657
0.00259857
0.00315731
0.00386438
0.00495587
0.00652826
0.0085734
0.0111613
0.0143874
0.0183511
0.000325203
0.000508941
0.000886947
0.00127223
0.00168098
0.0021188
0.00260054
0.00315702
0.00385565
0.00490624
0.00645102
0.00846963
0.0110274
0.0142189
0.0181506
0.000324469
0.000508377
0.000886775
0.00127287
0.00168266
0.00212137
0.00260324
0.00315791
0.00384832
0.00485962
0.00637687
0.00836924
0.0108968
0.0140494
0.0179107
0.000323755
0.000507833
0.000886627
0.00127356
0.00168449
0.00212424
0.00260646
0.00315938
0.00384143
0.00481561
0.00630562
0.00827219
0.0107708
0.0138925
0.0177574
0.00032306
0.000507309
0.000886512
0.00127432
0.00168644
0.00212733
0.00260994
0.00316099
0.00383446
0.00477398
0.00623709
0.00817831
0.0106485
0.0137359
0.0175306
0.000322386
0.000506808
0.000886433
0.00127512
0.00168847
0.00213051
0.00261346
0.00316241
0.00382719
0.00473482
0.00617113
0.00808739
0.0105295
0.0135825
0.0173372
0.00032173
0.000506324
0.000886372
0.00127595
0.0016905
0.00213366
0.00261682
0.00316348
0.00381969
0.00469865
0.00610766
0.0079993
0.0104139
0.0134345
0.017157
0.000321092
0.000505852
0.000886314
0.00127676
0.00169248
0.00213666
0.00261991
0.00316419
0.00381229
0.00466653
0.00604671
0.00791388
0.0103013
0.0132884
0.016958
0.000320471
0.000505382
0.000886238
0.0012775
0.00169433
0.00213945
0.00262271
0.00316467
0.00380552
0.0046396
0.00598837
0.00783092
0.0101911
0.0131441
0.0167705
0.000319863
0.000504914
0.000886131
0.00127817
0.00169603
0.00214202
0.00262525
0.00316515
0.00379995
0.00461835
0.00593279
0.00775045
0.0100842
0.0130082
0.0166243
0.000319268
0.000504442
0.000885979
0.00127873
0.00169756
0.00214437
0.00262765
0.00316589
0.00379595
0.00460228
0.00588002
0.00767239
0.0099801
0.0128733
0.0164361
0.000318685
0.000503968
0.000885783
0.0012792
0.00169895
0.00214658
0.00263005
0.00316711
0.00379359
0.00459024
0.00583002
0.00759676
0.00987903
0.0127441
0.016288
0.000318113
0.000503491
0.000885551
0.00127959
0.00170023
0.00214871
0.00263256
0.00316892
0.00379268
0.00458093
0.00578262
0.00752354
0.00978077
0.0126174
0.0161207
0.000317553
0.000503014
0.000885295
0.00127992
0.00170145
0.00215085
0.00263526
0.00317131
0.0037929
0.00457325
0.0057376
0.00745264
0.0096852
0.0124943
0.0159699
0.000317007
0.000502541
0.000885027
0.00128023
0.00170266
0.00215305
0.00263819
0.0031742
0.00379388
0.00456638
0.00569471
0.00738403
0.00959253
0.0123761
0.0158312
0.000316474
0.000502076
0.000884756
0.00128054
0.00170388
0.00215532
0.00264133
0.00317746
0.00379527
0.0045598
0.00565375
0.00731767
0.00950268
0.0122614
0.0156877
0.000315957
0.000501625
0.000884495
0.00128086
0.00170514
0.00215767
0.00264462
0.00318093
0.00379679
0.00455319
0.00561461
0.00725351
0.00941566
0.0121506
0.0155532
0.000315455
0.000501184
0.000884247
0.00128119
0.00170642
0.00216008
0.002648
0.00318447
0.00379824
0.00454639
0.00557731
0.0071915
0.0093313
0.0120426
0.0154167
0.000314971
0.000500756
0.000884018
0.00128155
0.00170773
0.00216252
0.0026514
0.00318796
0.00379948
0.00453938
0.00554205
0.00713161
0.00924959
0.0119384
0.0152927
0.000314503
0.000500338
0.000883798
0.00128191
0.00170903
0.00216494
0.00265473
0.0031913
0.00380045
0.00453228
0.0055093
0.00707386
0.00917053
0.0118377
0.0151688
0.000314053
0.000499934
0.000883586
0.00128227
0.00171032
0.00216731
0.00265796
0.00319444
0.00380117
0.00452531
0.00547974
0.00701831
0.00909395
0.0117394
0.0150419
0.000313623
0.000499535
0.000883376
0.00128261
0.00171156
0.00216959
0.00266104
0.00319736
0.00380173
0.00451882
0.00545408
0.00696505
0.00901972
0.0116432
0.014919
0.000313215
0.000499142
0.000883165
0.00128292
0.00171273
0.00217176
0.00266395
0.00320011
0.00380226
0.00451317
0.00543272
0.00691417
0.0089478
0.0115498
0.0148016
0.000312828
0.000498754
0.000882961
0.00128322
0.00171386
0.00217383
0.00266673
0.00320275
0.00380296
0.00450867
0.00541561
0.00686577
0.00887813
0.0114586
0.0146848
0.000312485
0.000498358
0.000882728
0.00128344
0.00171488
0.00217577
0.00266938
0.00320535
0.00380398
0.00450548
0.00540225
0.0068199
0.00881087
0.0113708
0.0145775
0.000312139
0.000497992
0.000882605
0.00128377
0.00171596
0.00217774
0.00267206
0.0032081
0.00380552
0.0045037
0.00539199
0.00677655
0.00874585
0.0112846
0.0144625
0.000311993
0.000497525
0.000882264
0.0012839
0.00171694
0.00217972
0.0026749
0.00321123
0.00380786
0.0045034
0.00538418
0.00673612
0.00868392
0.0112038
0.0143735
0.000311449
0.000497308
0.000882305
0.00128386
0.00171719
0.00218056
0.0026764
0.00321308
0.00380925
0.00450279
0.0053769
0.00669598
0.00862246
0.0111213
0.0142482
0.000313299
0.000497922
0.000885557
0.00129098
0.00172753
0.00219326
0.00269064
0.00322804
0.00382388
0.00451528
0.00538197
0.00667355
0.00857698
0.0110534
0.0141763
0.000295953
0.000474569
0.00084169
0.00123562
0.00166725
0.00213238
0.00263154
0.00317139
0.00376859
0.00445815
0.0053166
0.00656746
0.0084567
0.0109326
0.0140445
0.00135593
0.00409741
0.00712782
0.0103951
0.0139008
0.0176441
0.0216342
0.0258867
0.030418
0.0352374
0.0403416
0.0457119
0.0513171
0.0571161
0.0630684
1.99308e-05
0.000429483
0.00169351
0.00394882
0.00656262
0.00968645
0.0133269
0.017481
0.0221365
0.0272694
0.0328419
0.0388013
0.0450815
0.0516075
0.0583011
0
0.000228806
0.00107166
0.00260875
0.00450085
0.00691472
0.00989493
0.0134753
0.0176758
0.0224971
0.0279166
0.0338856
0.0403298
0.0471541
0.0542499
2.73825e-05
0.00012801
0.00112415
0.00223468
0.00373756
0.00570836
0.00821
0.0113021
0.0150351
0.0194426
0.0245341
0.0302882
0.0366486
0.0435258
0.0508049
0.000106568
0.000474939
0.00108485
0.00201092
0.00329865
0.00499989
0.00718393
0.00992202
0.0132819
0.0173204
0.0220749
0.0275536
0.033728
0.0405286
0.0478475
0.000338362
0.000628569
0.00101237
0.00182772
0.00297073
0.00449145
0.00645411
0.00893318
0.0120046
0.0157387
0.0201923
0.0253978
0.031353
0.0380122
0.0452797
0.000407855
0.000609691
0.000966871
0.00167512
0.00270793
0.00409127
0.00588804
0.00816871
0.0110122
0.0144964
0.0186904
0.0236446
0.0293789
0.035871
0.0430487
0.000403302
0.000571651
0.000954432
0.00155147
0.00249402
0.00376744
0.00542993
0.00755135
0.010209
0.0134843
0.0174543
0.0221815
0.0277017
0.0340076
0.0410205
0.00039483
0.000551463
0.000933294
0.00144991
0.00231814
0.00350063
0.00505119
0.00703953
0.00954122
0.0126386
0.0164134
0.0209368
0.0262581
0.0323914
0.0393137
0.000389089
0.000541576
0.000907496
0.00136447
0.00217145
0.0032775
0.00473325
0.00660708
0.00897513
0.0119184
0.0155215
0.0198622
0.0250013
0.030971
0.0377688
0.000384385
0.000535171
0.00088514
0.00129993
0.00204788
0.00308816
0.00446227
0.0062367
0.00848781
0.0112959
0.0147467
0.018923
0.0238944
0.0297055
0.0363611
0.00038034
0.000531545
0.000873912
0.001271
0.00194494
0.00292567
0.0042284
0.00591578
0.00806304
0.0107512
0.0140658
0.0180929
0.0229082
0.028564
0.0350673
0.000376944
0.000530261
0.000871264
0.00125902
0.00185886
0.00278486
0.0040243
0.00563446
0.00768888
0.0102697
0.0134615
0.0173528
0.0220246
0.0275404
0.0339419
0.00037398
0.000529843
0.000871159
0.00124921
0.00178535
0.00266166
0.00384446
0.0053856
0.00735694
0.00984027
0.0129209
0.0166881
0.0212278
0.026612
0.0328885
0.000371186
0.000529041
0.000869869
0.00123711
0.00172158
0.00255279
0.00368467
0.00516371
0.00706002
0.0094545
0.0124336
0.0160869
0.0205031
0.0257578
0.0318908
0.000368455
0.000527635
0.000867286
0.00122552
0.00167582
0.00245687
0.00354173
0.00496439
0.00679242
0.00910557
0.0119915
0.0155393
0.0198394
0.0249701
0.0309786
0.000365864
0.000526277
0.000865693
0.00121975
0.00165456
0.00237378
0.00341335
0.00478429
0.00654985
0.00878855
0.011588
0.015038
0.0192301
0.0242486
0.0301637
0.000363509
0.000525478
0.000866189
0.00121942
0.00164539
0.00230185
0.00329764
0.00462072
0.00632884
0.00849896
0.0112181
0.0145772
0.0186688
0.023582
0.0293917
0.000361384
0.000525146
0.000868015
0.00122116
0.00163823
0.00223854
0.00319288
0.00447149
0.00612651
0.0082331
0.0108775
0.0141518
0.0181492
0.0229613
0.0286623
0.000359412
0.00052488
0.000869827
0.00122224
0.00162937
0.00218197
0.00309751
0.00433475
0.00594047
0.00798797
0.0105626
0.0137575
0.0176661
0.0223811
0.0279783
0.000357515
0.000524357
0.00087076
0.0012217
0.00161912
0.00213453
0.00301057
0.00420897
0.00576875
0.00776116
0.0102708
0.0133907
0.0172151
0.0218373
0.0273352
0.000355663
0.000523557
0.00087093
0.0012206
0.0016112
0.00210428
0.00293238
0.00409302
0.00560973
0.00755061
0.00999923
0.0130484
0.016793
0.0213265
0.0267283
0.000353878
0.000522701
0.000871081
0.00122057
0.00160805
0.00208951
0.00286298
0.00398603
0.00546205
0.00735453
0.0097457
0.0127277
0.0163956
0.0208411
0.026137
0.000352195
0.000522004
0.000871785
0.00122221
0.00160872
0.00208187
0.00280124
0.00388718
0.00532453
0.00717137
0.00950826
0.0124265
0.0160226
0.0203917
0.0256359
0.000350626
0.000521513
0.000873079
0.001225
0.00161099
0.00207556
0.00274556
0.00379562
0.00519616
0.00699982
0.00928534
0.0121433
0.0156707
0.0199616
0.0250948
0.000349154
0.000521135
0.0008746
0.00122801
0.001613
0.00206821
0.00269478
0.00371051
0.00507603
0.00683877
0.00907558
0.0118763
0.0153377
0.0195537
0.024608
0.00034775
0.000520727
0.000875927
0.00123048
0.00161386
0.00205953
0.00264957
0.00363127
0.00496336
0.00668722
0.00887775
0.0116238
0.0150217
0.0191655
0.0241407
0.000346387
0.000520197
0.000876804
0.00123212
0.00161371
0.00205117
0.00261442
0.00355793
0.00485751
0.00654433
0.0086908
0.0113849
0.0147228
0.0188026
0.0237309
0.000345054
0.000519547
0.000877274
0.00123324
0.00161359
0.0020456
0.00259259
0.00349097
0.00475803
0.00640937
0.00851387
0.0111585
0.0144396
0.018458
0.0233169
0.000343756
0.000518849
0.000877574
0.00123438
0.00161449
0.00204373
0.00258081
0.00343031
0.00466454
0.00628174
0.00834621
0.0109438
0.0141712
0.0181317
0.0229305
0.000342507
0.000518188
0.000877973
0.00123598
0.00161673
0.00204474
0.00257384
0.00337519
0.00457666
0.00616091
0.00818714
0.0107399
0.0139153
0.0178155
0.0225293
0.000341317
0.000517612
0.000878599
0.0012381
0.00161999
0.00204714
0.0025681
0.00332461
0.00449396
0.00604638
0.00803602
0.0105458
0.0136717
0.0175172
0.0221891
0.000340184
0.000517116
0.000879416
0.00124055
0.00162365
0.00204968
0.00256189
0.00327777
0.00441597
0.00593772
0.00789227
0.010361
0.0134394
0.0172305
0.021832
0.000339103
0.000516659
0.000880287
0.00124302
0.00162714
0.00205157
0.00255469
0.0032346
0.00434233
0.0058345
0.00775536
0.0101846
0.0132167
0.0169534
0.021489
0.000338058
0.000516194
0.000881053
0.00124523
0.00163009
0.00205256
0.00254689
0.00319674
0.00427287
0.00573632
0.0076248
0.0100161
0.0130042
0.0166924
0.0211926
0.000337043
0.000515684
0.000881614
0.00124703
0.0016324
0.00205294
0.00253987
0.00316745
0.00420784
0.0056429
0.00750014
0.00985482
0.0128001
0.0164371
0.0208589
0.000336049
0.000515122
0.000881949
0.00124844
0.0016343
0.00205343
0.00253514
0.00314813
0.00414759
0.00555402
0.00738099
0.0097004
0.0126045
0.0161959
0.0205913
0.000335076
0.000514522
0.000882126
0.00124963
0.00163616
0.00205469
0.0025333
0.00313659
0.00409214
0.0054695
0.00726705
0.00955255
0.0124177
0.0159678
0.0203262
0.000334127
0.000513918
0.000882247
0.00125082
0.00163832
0.00205702
0.00253394
0.00312949
0.00404107
0.00538916
0.00715804
0.00941093
0.0122387
0.0157464
0.0200459
0.000333208
0.000513341
0.000882409
0.00125215
0.00164091
0.00206032
0.00253615
0.00312418
0.00399376
0.00531276
0.00705373
0.00927521
0.0120671
0.0155356
0.019803
0.00033232
0.000512806
0.000882663
0.00125368
0.0016439
0.00206425
0.00253901
0.00311915
0.00394958
0.00524005
0.00695389
0.00914515
0.0119029
0.0153343
0.0195627
0.000331465
0.000512311
0.000883009
0.00125537
0.00164713
0.00206842
0.00254182
0.00311364
0.00390817
0.00517079
0.00685827
0.00902037
0.0117448
0.0151367
0.0193033
0.00033064
0.000511847
0.000883402
0.00125712
0.00165039
0.00207246
0.00254416
0.00310747
0.00386965
0.00510478
0.00676665
0.00890051
0.0115925
0.0149474
0.0190826
0.000329841
0.000511396
0.000883784
0.00125881
0.00165348
0.00207613
0.00254586
0.00310088
0.0038351
0.00504193
0.00667879
0.00878529
0.011446
0.0147654
0.0188599
0.000329063
0.000510939
0.000884101
0.00126034
0.00165627
0.00207934
0.00254706
0.00309466
0.00380652
0.00498238
0.00659451
0.00867441
0.0113045
0.0145873
0.018629
0.000328303
0.000510466
0.000884319
0.00126166
0.00165873
0.00208214
0.00254813
0.00308982
0.00378546
0.00492639
0.00651365
0.00856758
0.0111676
0.0144143
0.0184111
0.000327557
0.000509972
0.00088443
0.00126278
0.00166091
0.00208475
0.00254955
0.00308709
0.0037715
0.00487413
0.00643606
0.00846439
0.0110344
0.0142429
0.0181831
0.000326825
0.000509465
0.000884454
0.00126375
0.00166295
0.00208742
0.00255169
0.00308661
0.00376276
0.00482548
0.00636163
0.00836474
0.0109057
0.0140816
0.0180065
0.000326108
0.000508953
0.00088443
0.00126465
0.00166498
0.00209033
0.0025547
0.00308803
0.00375712
0.00478013
0.00629018
0.0082683
0.0107803
0.0139187
0.0177712
0.000325407
0.000508448
0.000884399
0.00126555
0.0016671
0.00209361
0.00255852
0.00309074
0.00375298
0.00473765
0.00622155
0.00817499
0.0106591
0.013769
0.0176379
0.000324725
0.00050796
0.000884394
0.00126651
0.00166939
0.00209723
0.00256293
0.00309414
0.00374926
0.00469761
0.00615562
0.00808491
0.0105429
0.013627
0.0174687
0.000324062
0.000507495
0.000884431
0.00126756
0.00167184
0.00210112
0.00256768
0.00309774
0.0037454
0.00465972
0.00609227
0.0079981
0.010431
0.0134873
0.0172767