/*--------------------------------*- C++ -*----------------------------------*\
| =========                 |                                                 |
| \\      /  F ield         | OpenFOAM: The Open Source CFD Toolbox           |
|  \\    /   O peration     | Version:  2.3.0                                 |
|   \\  /    A nd           | Web:      www.OpenFOAM.org                      |
|    \\/     M anipulation  |                                                 |
\*---------------------------------------------------------------------------*/
FoamFile
{
    version     2.0;
    format      ascii;
    class       volScalarField;
    location    "100";
    object      p;
}
// * * * * * * * * * * * * * * * * * * * * * * * * * * * * * * * * * * * * * //

dimensions      [0 2 -2 0 0 0 0];

internalField   nonuniform List<scalar> 
7991
(
0.0154136
0.0177757
0.0383402
0.0996203
0.20809
0.360086
0.54895
0.765915
1.00692
1.26862
1.55324
1.86224
2.2281
2.78049
3.50345
0.32422
0.335779
0.343547
0.350728
0.364725
0.394529
0.448065
0.531312
0.647431
0.795597
0.974221
1.17733
1.40207
1.64254
1.89874
0.609462
0.693282
0.793655
0.907567
1.03276
1.16569
1.30165
1.43665
1.56782
1.69218
1.809
1.91558
2.01234
2.09632
2.16981
0.790216
0.870249
0.959055
1.04844
1.13797
1.22735
1.31558
1.40195
1.48563
1.5655
1.64107
1.71085
1.7747
1.83088
1.88058
0.927053
1.0053
1.09564
1.18547
1.27321
1.35767
1.43744
1.51175
1.57984
1.64141
1.69628
1.74432
1.78554
1.8197
1.84748
1.01178
1.07837
1.15561
1.23048
1.30156
1.36839
1.4304
1.48756
1.53957
1.58665
1.6287
1.66604
1.69855
1.72646
1.74997
1.06126
1.12133
1.18916
1.25422
1.3152
1.37196
1.42424
1.47223
1.51578
1.5553
1.59071
1.62251
1.65058
1.67535
1.69684
1.08769
1.1456
1.20325
1.25826
1.30968
1.3575
1.40163
1.44237
1.47967
1.51395
1.54516
1.57379
1.59971
1.62338
1.64476
1.10569
1.15953
1.20821
1.25507
1.2992
1.34055
1.37902
1.4149
1.44816
1.47915
1.50783
1.53459
1.55935
1.58248
1.60396
1.11024
1.16375
1.20641
1.24719
1.28582
1.3223
1.35658
1.38892
1.41932
1.44802
1.47499
1.50051
1.52453
1.54733
1.56893
1.11768
1.16553
1.20242
1.23807
1.27231
1.30499
1.33607
1.36576
1.39413
1.42119
1.44695
1.47152
1.49494
1.51737
1.539
1.12137
1.16315
1.19609
1.22793
1.25924
1.28902
1.31732
1.34484
1.3718
1.39765
1.4225
1.44622
1.46908
1.49103
1.51254
1.12593
1.16155
1.19076
1.2192
1.24849
1.27592
1.3018
1.32778
1.35362
1.37823
1.40274
1.42626
1.44875
1.47079
1.49183
1.13658
1.16123
1.19096
1.21575
1.23819
1.2645
1.29156
1.31588
1.34018
1.36328
1.38868
1.41282
1.43315
1.454
1.47662
4.42005
4.57565
4.46655
4.48125
4.52743
4.55127
4.54386
4.5089
4.44938
4.36369
4.25012
4.10469
3.92696
3.72157
3.50875
2.17384
2.46584
2.74125
2.99575
3.22207
3.41155
3.55684
3.65177
3.69512
3.68757
3.63519
3.54588
3.42983
3.29742
3.16221
2.23531
2.29994
2.36536
2.4329
2.50123
2.56895
2.63511
2.69743
2.75477
2.80375
2.84187
2.8648
2.86921
2.85434
2.82598
1.92689
1.97585
2.02965
2.0882
2.15018
2.21384
2.27792
2.34005
2.39871
2.4513
2.49605
2.53067
2.5537
2.56533
2.56597
1.8717
1.89672
1.92504
1.95683
1.99193
2.0298
2.07032
2.11268
2.15638
2.20009
2.24251
2.28164
2.31552
2.34288
2.35945
1.77141
1.7935
1.81808
1.84506
1.87454
1.90614
1.93993
1.97543
2.01238
2.05001
2.08755
2.12381
2.15746
2.18809
2.21448
1.71676
1.73672
1.75811
1.78081
1.80509
1.83078
1.85808
1.8868
1.91691
1.94804
1.97975
2.01132
2.04198
2.07095
2.09422
1.66503
1.68511
1.70591
1.72734
1.74968
1.77282
1.79697
1.82204
1.84805
1.87484
1.90217
1.92962
1.95665
1.98251
2.00681
1.62458
1.64483
1.66531
1.68595
1.70701
1.72843
1.75037
1.77282
1.79582
1.81929
1.84309
1.86698
1.89047
1.9129
1.93873
1.58983
1.61027
1.63064
1.65087
1.67119
1.69154
1.71208
1.73279
1.75371
1.7748
1.79596
1.81706
1.83773
1.85749
1.88143
1.56003
1.58058
1.60089
1.62074
1.64054
1.66016
1.67971
1.69921
1.71859
1.7379
1.75704
1.77589
1.7942
1.81131
1.83204
1.53371
1.55431
1.5747
1.59412
1.61359
1.63282
1.65166
1.67029
1.68849
1.70653
1.72422
1.74151
1.75788
1.77284
1.79005
1.51278
1.53247
1.55282
1.57212
1.59116
1.60968
1.62693
1.64465
1.66187
1.67861
1.6951
1.71141
1.72631
1.73995
1.755
1.49573
1.51514
1.53494
1.5528
1.57313
1.58792
1.60404
1.62133
1.63773
1.65263
1.66724
1.67949
1.69448
1.70859
1.72037
-0.758809
-0.757756
-0.70397
-0.588897
-0.424273
-0.234494
-0.048851
0.105337
0.21164
0.264804
0.268939
0.229538
0.15114
0.0238151
0.0214911
-0.714368
-0.756874
-0.806692
-0.873227
-0.963481
-1.07377
-1.19258
-1.3076
-1.40819
-1.48864
-1.54778
-1.59
-1.61694
-1.65197
-1.65343
-0.711673
-0.793551
-0.89255
-1.0028
-1.11453
-1.21586
-1.29818
-1.35929
-1.40112
-1.42853
-1.44703
-1.46392
-1.47917
-1.49439
-1.49759
-0.652372
-0.702764
-0.748706
-0.786276
-0.814211
-0.833315
-0.845382
-0.853187
-0.85869
-0.863872
-0.870113
-0.880534
-0.894871
-0.90714
-0.910385
-0.565777
-0.589128
-0.607359
-0.621643
-0.633513
-0.644198
-0.653628
-0.661863
-0.668539
-0.674292
-0.680027
-0.6881
-0.69956
-0.708473
-0.709032
-0.497034
-0.516959
-0.536061
-0.555088
-0.573131
-0.589713
-0.603893
-0.615677
-0.625011
-0.632896
-0.640488
-0.6498
-0.661894
-0.671099
-0.670846
-0.449
-0.46231
-0.478547
-0.495264
-0.511039
-0.525831
-0.539309
-0.55178
-0.5632
-0.574201
-0.585478
-0.598312
-0.61312
-0.624295
-0.624193
-0.397335
-0.404442
-0.414261
-0.425441
-0.437192
-0.449896
-0.463377
-0.477705
-0.49254
-0.507968
-0.524125
-0.541615
-0.56013
-0.573976
-0.574476
-0.352917
-0.349446
-0.353771
-0.360588
-0.369616
-0.381399
-0.395916
-0.413161
-0.432659
-0.454087
-0.477248
-0.501922
-0.526529
-0.544777
-0.546743
-0.30156
-0.299056
-0.299561
-0.302238
-0.30775
-0.317249
-0.33145
-0.350757
-0.374726
-0.402889
-0.434956
-0.470854
-0.50766
-0.536549
-0.544332
-0.270012
-0.257431
-0.252233
-0.24924
-0.249464
-0.254985
-0.267816
-0.289611
-0.319721
-0.356043
-0.400363
-0.453245
-0.508489
-0.551319
-0.566719
-0.231608
-0.218865
-0.208722
-0.198997
-0.190203
-0.186133
-0.189655
-0.209123
-0.24208
-0.280204
-0.32448
-0.39561
-0.497661
-0.583248
-0.624551
-0.209052
-0.187574
-0.176225
-0.160264
-0.144474
-0.134766
-0.133128
-0.158006
-0.215191
-0.261382
-0.321885
-0.406589
-0.56348
-0.660731
-0.697715
-0.1742
-0.144233
-0.135989
-0.115439
-0.069085
-0.0261193
0.0478597
0.0461369
-0.0338613
-0.0479985
0.0182397
-0.00309736
-0.456172
-0.743704
-0.774214
0.0285623
0.0383381
0.172715
0.257268
0.302905
0.304893
0.257311
0.156051
0.00640422
-0.17406
-0.356987
-0.512237
-0.614049
-0.650981
-0.630881
-1.65067
-1.64621
-1.60799
-1.57855
-1.53303
-1.4694
-1.38313
-1.2754
-1.15218
-1.02433
-0.904745
-0.805332
-0.729042
-0.668232
-0.611377
-1.49496
-1.48724
-1.46788
-1.44959
-1.42939
-1.40693
-1.37464
-1.32697
-1.25904
-1.16908
-1.05978
-0.940115
-0.821751
-0.714126
-0.621194
-0.9078
-0.899493
-0.882601
-0.864746
-0.850904
-0.841096
-0.831987
-0.82217
-0.809625
-0.792343
-0.767599
-0.733305
-0.688464
-0.633969
-0.572891
-0.706686
-0.701276
-0.687827
-0.672819
-0.661351
-0.652216
-0.642912
-0.632593
-0.620626
-0.607234
-0.59227
-0.575287
-0.554842
-0.52898
-0.496192
-0.668505
-0.663757
-0.649802
-0.633969
-0.621148
-0.610145
-0.598838
-0.586126
-0.57104
-0.553438
-0.533243
-0.510864
-0.486646
-0.46099
-0.433883
-0.621743
-0.616447
-0.600156
-0.581291
-0.564742
-0.549953
-0.535556
-0.520851
-0.505234
-0.488496
-0.470234
-0.450266
-0.428475
-0.405572
-0.384239
-0.572223
-0.56638
-0.547422
-0.524706
-0.503317
-0.483414
-0.46437
-0.44601
-0.428235
-0.41112
-0.394468
-0.37805
-0.361329
-0.344096
-0.327893
-0.544601
-0.537397
-0.514062
-0.48524
-0.45674
-0.429725
-0.404374
-0.380895
-0.359523
-0.340411
-0.323453
-0.308438
-0.294716
-0.281883
-0.270721
-0.544503
-0.533973
-0.501016
-0.460157
-0.419891
-0.382667
-0.349188
-0.319999
-0.294821
-0.273756
-0.256706
-0.243163
-0.232241
-0.223241
-0.217273
-0.566565
-0.546357
-0.494153
-0.436261
-0.382189
-0.332451
-0.29033
-0.255003
-0.226129
-0.204116
-0.18828
-0.177887
-0.170937
-0.166552
-0.166098
-0.655934
-0.616634
-0.510297
-0.417377
-0.340293
-0.273273
-0.222253
-0.186503
-0.154441
-0.131449
-0.118463
-0.112092
-0.110092
-0.110558
-0.112212
-0.750602
-0.646991
-0.423241
-0.350235
-0.289011
-0.193053
-0.150497
-0.10775
-0.0627164
-0.0464277
-0.0379741
-0.0424559
-0.0462056
-0.0541328
-0.0615347
-1.23493
-1.03304
-0.418453
-0.370753
-0.230014
-0.0741811
-0.0357865
-0.0548139
0.00461084
0.0258175
0.0209125
0.0165197
0.00660937
-0.00792915
-0.0270931
-9.95654
-9.24446
-8.59121
-7.89708
-7.14389
-6.31778
-5.44208
-4.54308
-3.65945
-2.83053
-2.0962
-1.48404
-1.00397
-0.646953
-0.401589
-0.421703
-1.40008
-1.55948
-1.60858
-1.69227
-1.78493
-1.85099
-1.8759
-1.84768
-1.75599
-1.59702
-1.37919
-1.12341
-0.857807
-0.62154
-0.86075
-1.2878
-1.15164
-1.12966
-1.17119
-1.20933
-1.23138
-1.24094
-1.23639
-1.21322
-1.16497
-1.08593
-0.972316
-0.826285
-0.669311
-2.4931
-2.52233
-2.24321
-2.15824
-2.08806
-1.99311
-1.87949
-1.7541
-1.61791
-1.47205
-1.31936
-1.16324
-1.00603
-0.847937
-0.697634
-2.53062
-2.22861
-2.01228
-1.97186
-1.91045
-1.82917
-1.73763
-1.63786
-1.52798
-1.40753
-1.27703
-1.13802
-0.99307
-0.844852
-0.702463
-1.31635
-1.00433
-1.00229
-1.03207
-1.03467
-1.03668
-1.03949
-1.03751
-1.02646
-1.00365
-0.966519
-0.912881
-0.841602
-0.752797
-0.652836
-0.585509
-0.487878
-0.54853
-0.563202
-0.576016
-0.60035
-0.63016
-0.659267
-0.684528
-0.702921
-0.711103
-0.705571
-0.683228
-0.641566
-0.581557
-0.537379
-0.534289
-0.556811
-0.54663
-0.548088
-0.556581
-0.568556
-0.581558
-0.594088
-0.604063
-0.609169
-0.606745
-0.594019
-0.56813
-0.526042
-0.574241
-0.584161
-0.581668
-0.571208
-0.568461
-0.566563
-0.566754
-0.568409
-0.570262
-0.570784
-0.568442
-0.561506
-0.548053
-0.526147
-0.493174
-0.571715
-0.574583
-0.565814
-0.55847
-0.553424
-0.547814
-0.544125
-0.541915
-0.540102
-0.537553
-0.533081
-0.525315
-0.512651
-0.493513
-0.464952
-0.56389
-0.561335
-0.551987
-0.543987
-0.536751
-0.529907
-0.52433
-0.519692
-0.515343
-0.510523
-0.504324
-0.495686
-0.483278
-0.465723
-0.440321
-0.555993
-0.551361
-0.54209
-0.532624
-0.524604
-0.517725
-0.511151
-0.504978
-0.498895
-0.492305
-0.484501
-0.474672
-0.461829
-0.444956
-0.422213
-0.541007
-0.536067
-0.527167
-0.517528
-0.510071
-0.50369
-0.496915
-0.490327
-0.483731
-0.476571
-0.468236
-0.458059
-0.445264
-0.429101
-0.408262
-0.523292
-0.518753
-0.510486
-0.501503
-0.494761
-0.488662
-0.481907
-0.47528
-0.468592
-0.461324
-0.452958
-0.442872
-0.430366
-0.414709
-0.394298
-0.507249
-0.503204
-0.495523
-0.487118
-0.48037
-0.474095
-0.467526
-0.461062
-0.454465
-0.447279
-0.439053
-0.429209
-0.41711
-0.402049
-0.382645
-0.494669
-0.490921
-0.483553
-0.475263
-0.46784
-0.461147
-0.454862
-0.448552
-0.442053
-0.435013
-0.427039
-0.417599
-0.406118
-0.392082
-0.374438
-0.482073
-0.478455
-0.471289
-0.463047
-0.455269
-0.44865
-0.442845
-0.436787
-0.430533
-0.423807
-0.41623
-0.407312
-0.396534
-0.383426
-0.367081
-0.468456
-0.464979
-0.458109
-0.450158
-0.442652
-0.436541
-0.431211
-0.425424
-0.419481
-0.413133
-0.405996
-0.397598
-0.387421
-0.374963
-0.359133
-0.453979
-0.450749
-0.444332
-0.436932
-0.430083
-0.424613
-0.419704
-0.414277
-0.408751
-0.402867
-0.396233
-0.388408
-0.378883
-0.36714
-0.352098
-0.440863
-0.437943
-0.432016
-0.425202
-0.418939
-0.413729
-0.40895
-0.403881
-0.398776
-0.393354
-0.387249
-0.38005
-0.371271
-0.360425
-0.346611
-0.429795
-0.42715
-0.421636
-0.415279
-0.409329
-0.403964
-0.39914
-0.394522
-0.389855
-0.384894
-0.379306
-0.372725
-0.364684
-0.354752
-0.342164
-0.421893
-0.419416
-0.414157
-0.408014
-0.402085
-0.39636
-0.391441
-0.387135
-0.382687
-0.377979
-0.37273
-0.366576
-0.359062
-0.349761
-0.338044
-0.41562
-0.413215
-0.408116
-0.402084
-0.396162
-0.390346
-0.385566
-0.381541
-0.377225
-0.372683
-0.367647
-0.361754
-0.354578
-0.345635
-0.334335
-0.411899
-0.409545
-0.404584
-0.398636
-0.392751
-0.386973
-0.382312
-0.37828
-0.373864
-0.369269
-0.364241
-0.358428
-0.351379
-0.342729
-0.33156
-0.408539
-0.406252
-0.401477
-0.39572
-0.390052
-0.384556
-0.380119
-0.376141
-0.371738
-0.367164
-0.362181
-0.356435
-0.349582
-0.341242
-0.330667
-0.407663
-0.405479
-0.400903
-0.395345
-0.38986
-0.38449
-0.379944
-0.375686
-0.371137
-0.366429
-0.361356
-0.355572
-0.348731
-0.340522
-0.329831
-0.406929
-0.404854
-0.400492
-0.395182
-0.389926
-0.384683
-0.379927
-0.375449
-0.370955
-0.366246
-0.361146
-0.355325
-0.348447
-0.340243
-0.329902
-0.407957
-0.405981
-0.401788
-0.396643
-0.391462
-0.386118
-0.380925
-0.376099
-0.371571
-0.366731
-0.361517
-0.355611
-0.348675
-0.340455
-0.330253
-0.408574
-0.406664
-0.402607
-0.397591
-0.392463
-0.387054
-0.381629
-0.376718
-0.372281
-0.367396
-0.36215
-0.356229
-0.349334
-0.341153
-0.331045
-0.409437
-0.407578
-0.403622
-0.398688
-0.393557
-0.38808
-0.38255
-0.377634
-0.373216
-0.36825
-0.362965
-0.357031
-0.350156
-0.34203
-0.331776
-0.409606
-0.407789
-0.403937
-0.399095
-0.394019
-0.388589
-0.383163
-0.378383
-0.374035
-0.369077
-0.363841
-0.357991
-0.351289
-0.343438
-0.334344
-0.409413
-0.407652
-0.403916
-0.3992
-0.394229
-0.388932
-0.38369
-0.379067
-0.374769
-0.369856
-0.364696
-0.358953
-0.352377
-0.344709
-0.335791
-0.409128
-0.407437
-0.403839
-0.399276
-0.394464
-0.389343
-0.384306
-0.379758
-0.375458
-0.370594
-0.365503
-0.359812
-0.353307
-0.345584
-0.336992
-0.408828
-0.407222
-0.403773
-0.399403
-0.394789
-0.389888
-0.385038
-0.380481
-0.376139
-0.371397
-0.366399
-0.36077
-0.354315
-0.34645
-0.336949
-0.409404
-0.40788
-0.404573
-0.400372
-0.395928
-0.391165
-0.386385
-0.381649
-0.37719
-0.372563
-0.367628
-0.362045
-0.355576
-0.347832
-0.337957
-0.410247
-0.408796
-0.405618
-0.401587
-0.397301
-0.392678
-0.387952
-0.383098
-0.378624
-0.374187
-0.369381
-0.36395
-0.357747
-0.350551
-0.342593
-0.412241
-0.410843
-0.40776
-0.403825
-0.399604
-0.394977
-0.390185
-0.385158
-0.380636
-0.376262
-0.371442
-0.366021
-0.359754
-0.352344
-0.343455
-0.413732
-0.412375
-0.409379
-0.40555
-0.401411
-0.396847
-0.392075
-0.387071
-0.382619
-0.378316
-0.373466
-0.368007
-0.361664
-0.35409
-0.345973
-0.416144
-0.414818
-0.411886
-0.408102
-0.403972
-0.399361
-0.39453
-0.389478
-0.385022
-0.380689
-0.375799
-0.370383
-0.36419
-0.356851
-0.349457
-0.417372
-0.416081
-0.413228
-0.409546
-0.40551
-0.401019
-0.396309
-0.391454
-0.387156
-0.382916
-0.378076
-0.372725
-0.366593
-0.359191
-0.350985
-0.419553
-0.418299
-0.415511
-0.411881
-0.407874
-0.403384
-0.398681
-0.393846
-0.389528
-0.38522
-0.380353
-0.37502
-0.368975
-0.361738
-0.353468
-0.42014
-0.418932
-0.416239
-0.412745
-0.408889
-0.404609
-0.400129
-0.395572
-0.391409
-0.387229
-0.382559
-0.377475
-0.371756
-0.365229
-0.358786
-0.422072
-0.420914
-0.418298
-0.414883
-0.411092
-0.406861
-0.402427
-0.397885
-0.393604
-0.389338
-0.384739
-0.379742
-0.374081
-0.367426
-0.360419
-0.422525
-0.42142
-0.418904
-0.415644
-0.412033
-0.408045
-0.403843
-0.399541
-0.3953
-0.391108
-0.386723
-0.381882
-0.376363
-0.36972
-0.363763
-0.424757
-0.423703
-0.421259
-0.418079
-0.414531
-0.41058
-0.406384
-0.402023
-0.3976
-0.393342
-0.389069
-0.384315
-0.378906
-0.372159
-0.365116
-0.425889
-0.424881
-0.422528
-0.41949
-0.416105
-0.412364
-0.408353
-0.404182
-0.399839
-0.395753
-0.391721
-0.387121
-0.38184
-0.375174
-0.367741
-0.429044
-0.428082
-0.425794
-0.422827
-0.419493
-0.415769
-0.411737
-0.407508
-0.403099
-0.399058
-0.395144
-0.390634
-0.385471
-0.379022
-0.370943
-0.431469
-0.430548
-0.428347
-0.425513
-0.422332
-0.418804
-0.414957
-0.410944
-0.406753
-0.40299
-0.399362
-0.39513
-0.390401
-0.384704
-0.378212
-0.436123
-0.435239
-0.433095
-0.43032
-0.427179
-0.42366
-0.419805
-0.415774
-0.411615
-0.407934
-0.404386
-0.400245
-0.395559
-0.389868
-0.382074
-0.440276
-0.439422
-0.437354
-0.43469
-0.431681
-0.428332
-0.424652
-0.420835
-0.41691
-0.413459
-0.410087
-0.406154
-0.401799
-0.396824
-0.392877
-0.446558
-0.445734
-0.443715
-0.441098
-0.438119
-0.434774
-0.431093
-0.427266
-0.423369
-0.419917
-0.416509
-0.412545
-0.408132
-0.40261
-0.395502
-0.452415
-0.451619
-0.449673
-0.44716
-0.444305
-0.44112
-0.437604
-0.433954
-0.430217
-0.426827
-0.423354
-0.419253
-0.414534
-0.408553
-0.401107
-0.460742
-0.45996
-0.458042
-0.455543
-0.452683
-0.449453
-0.445889
-0.442174
-0.438381
-0.434862
-0.43127
-0.427141
-0.422495
-0.416877
-0.410927
-0.468733
-0.467961
-0.466081
-0.463635
-0.460846
-0.457721
-0.454273
-0.450691
-0.44701
-0.443493
-0.439903
-0.435899
-0.431425
-0.425984
-0.420057
-0.47793
-0.477192
-0.475355
-0.47296
-0.470202
-0.467088
-0.463635
-0.460031
-0.456295
-0.452611
-0.44889
-0.444842
-0.440167
-0.434295
-0.427125
-0.485992
-0.48529
-0.483534
-0.481267
-0.478669
-0.475773
-0.472543
-0.469177
-0.465627
-0.462027
-0.458432
-0.454675
-0.450359
-0.445142
-0.442355
-0.496263
-0.495594
-0.493879
-0.491665
-0.489102
-0.486236
-0.483017
-0.479658
-0.476087
-0.47243
-0.468861
-0.465239
-0.460962
-0.455165
-0.449197
-0.506448
-0.50581
-0.504158
-0.502042
-0.499603
-0.496904
-0.493854
-0.490674
-0.487247
-0.483698
-0.480259
-0.476792
-0.472626
-0.467074
-0.463007
-0.518665
-0.518083
-0.516508
-0.514512
-0.512188
-0.509623
-0.506679
-0.503598
-0.500233
-0.496746
-0.493392
-0.489997
-0.485839
-0.480027
-0.474131
-0.532887
-0.532341
-0.530843
-0.528948
-0.526755
-0.524334
-0.521545
-0.518605
-0.515363
-0.511969
-0.508679
-0.505229
-0.500831
-0.494602
-0.487639
-0.550735
-0.550214
-0.548759
-0.546929
-0.544796
-0.54245
-0.539716
-0.536824
-0.533605
-0.530236
-0.526931
-0.523374
-0.518766
-0.512336
-0.505376
-0.572553
-0.572048
-0.57064
-0.568855
-0.566774
-0.564446
-0.561727
-0.55881
-0.55555
-0.552109
-0.54867
-0.544843
-0.539776
-0.532613
-0.523966
-0.598028
-0.597544
-0.596193
-0.594494
-0.592507
-0.590288
-0.587648
-0.584776
-0.581499
-0.577976
-0.574327
-0.570116
-0.564482
-0.55654
-0.54701
-0.629794
-0.62931
-0.62798
-0.626268
-0.624253
-0.621923
-0.619155
-0.616068
-0.612546
-0.608699
-0.604605
-0.599767
-0.593296
-0.58429
-0.573123
-0.66565
-0.665166
-0.66387
-0.662205
-0.660238
-0.65796
-0.655208
-0.652085
-0.648425
-0.644282
-0.639635
-0.633947
-0.626325
-0.615787
-0.602869
-0.709057
-0.708581
-0.707314
-0.705643
-0.703633
-0.701206
-0.698244
-0.694755
-0.690619
-0.685777
-0.680118
-0.673028
-0.663585
-0.650643
-0.634495
-0.758531
-0.758052
-0.756825
-0.755188
-0.753201
-0.750747
-0.747674
-0.743918
-0.739278
-0.733564
-0.726496
-0.717398
-0.705296
-0.688829
-0.668591
-0.818564
-0.818074
-0.816836
-0.815106
-0.812941
-0.810132
-0.80656
-0.802015
-0.796308
-0.789059
-0.779846
-0.767914
-0.75225
-0.731298
-0.706656
-0.889293
-0.888785
-0.887557
-0.885772
-0.883458
-0.880331
-0.876205
-0.870735
-0.863593
-0.854187
-0.84189
-0.825904
-0.805234
-0.778161
-0.747271
-0.972042
-0.971514
-0.97023
-0.968272
-0.965633
-0.961913
-0.956877
-0.949974
-0.94075
-0.928324
-0.911816
-0.890293
-0.86272
-0.827197
-0.786587
-1.08675
-1.0862
-1.08493
-1.08271
-1.07938
-1.07435
-1.06714
-1.0569
-1.04286
-1.02383
-0.998773
-0.966876
-0.92754
-0.879355
-0.826012
-1.19465
-1.19406
-1.1925
-1.18988
-1.18601
-1.1801
-1.1714
-1.15871
-1.14079
-1.11592
-1.08264
-1.04006
-0.988048
-0.926085
-0.856808
-1.48159
-1.48135
-1.47946
-1.47478
-1.46558
-1.45032
-1.42725
-1.39437
-1.35008
-1.29337
-1.22467
-1.14628
-1.06175
-0.974056
-0.88823
-1.47369
-1.47217
-1.47273
-1.46675
-1.45632
-1.44083
-1.41867
-1.38762
-1.34562
-1.29109
-1.22379
-1.14579
-1.06066
-0.971871
-0.883689
-2.96939
-3.04675
-2.98614
-2.90291
-2.79801
-2.66141
-2.48646
-2.27408
-2.03217
-1.77561
-1.52467
-1.30083
-1.11836
-0.976945
-0.870299
16.834
16.1174
15.2104
14.3263
13.3771
12.3265
11.1989
10.0284
8.85808
7.73218
6.69703
5.78855
5.0251
4.40399
3.92087
7.08496
6.20238
6.24072
6.3589
6.4032
6.39924
6.36338
6.28246
6.13756
5.91622
5.61499
5.24359
4.82504
4.39004
3.98352
4.86242
4.50598
4.71603
4.7782
4.77982
4.78055
4.7816
4.7707
4.74009
4.68461
4.59662
4.46814
4.29243
4.06849
3.81656
4.04604
4.01777
4.25937
4.28941
4.30232
4.32351
4.3413
4.34395
4.3267
4.28551
4.21706
4.11926
3.99058
3.82919
3.64339
3.2507
3.54226
3.72616
3.74179
3.77532
3.81841
3.85955
3.89286
3.9147
3.91865
3.89781
3.84626
3.76061
3.63954
3.48969
3.4966
3.81316
3.8121
3.78455
3.78176
3.77581
3.76399
3.74892
3.73075
3.70682
3.67303
3.6242
3.55472
3.4592
3.33732
3.76001
3.86537
3.80401
3.78992
3.77653
3.74942
3.7135
3.67278
3.62775
3.57796
3.52239
3.45927
3.38567
3.2973
3.18984
3.51679
3.52348
3.49956
3.50865
3.50454
3.49115
3.47146
3.44642
3.41555
3.37829
3.33362
3.28022
3.21638
3.14009
3.04689
3.19583
3.18746
3.18982
3.19996
3.2008
3.19913
3.19333
3.18298
3.16779
3.14723
3.12008
3.08469
3.03917
2.98226
2.91355
2.94778
2.94569
2.95452
2.96119
2.96455
2.96769
2.96738
2.9633
2.95536
2.94318
2.92575
2.90171
2.86923
2.8267
2.77392
2.7465
2.74919
2.7581
2.76475
2.7703
2.77521
2.77743
2.77682
2.77313
2.76592
2.75435
2.73724
2.71296
2.67974
2.63799
2.57056
2.57513
2.584
2.5925
2.59939
2.60473
2.60843
2.61014
2.60945
2.60596
2.59893
2.58734
2.56967
2.54417
2.51214
2.41996
2.42499
2.43385
2.44321
2.4501
2.45525
2.45966
2.46259
2.46362
2.46249
2.45861
2.45118
2.43896
2.42036
2.39758
2.29042
2.29522
2.30364
2.31262
2.31884
2.32372
2.32843
2.33194
2.33389
2.33412
2.33215
2.32735
2.31868
2.30446
2.28568
2.17532
2.17959
2.18731
2.19548
2.20121
2.20604
2.21083
2.21456
2.217
2.21804
2.21725
2.21411
2.20773
2.19655
2.18105
2.06923
2.07303
2.08022
2.08792
2.09397
2.09916
2.10389
2.10772
2.11052
2.11218
2.11238
2.11069
2.10644
2.09857
2.08871
1.97045
1.97402
1.98096
1.98867
1.99545
2.00106
2.00563
2.0096
2.01274
2.01495
2.01595
2.01545
2.01289
2.00729
2.00079
1.88006
1.88356
1.89036
1.89808
1.90516
1.91074
1.91508
1.91916
1.92252
1.92508
1.92661
1.92685
1.92526
1.92077
1.91498
1.79753
1.80092
1.80748
1.81502
1.82188
1.82715
1.83134
1.83556
1.83909
1.84192
1.84384
1.84463
1.84386
1.84055
1.83643
1.72279
1.72596
1.73213
1.7392
1.74553
1.75037
1.75441
1.75858
1.76212
1.76507
1.76726
1.76854
1.76856
1.76645
1.76419
1.65182
1.65473
1.66051
1.66716
1.67312
1.67802
1.68227
1.68652
1.69017
1.69332
1.69582
1.69758
1.69831
1.69727
1.69641
1.58446
1.58717
1.59264
1.599
1.60487
1.61019
1.61479
1.61898
1.62267
1.62596
1.6287
1.63081
1.63208
1.6318
1.63175
1.51949
1.52208
1.52739
1.53367
1.53972
1.54564
1.5506
1.55483
1.55871
1.56223
1.56522
1.56762
1.56926
1.56944
1.5697
1.45999
1.46251
1.46767
1.47384
1.47991
1.48594
1.49082
1.49484
1.49874
1.50227
1.50534
1.5079
1.50978
1.51048
1.51173
1.40357
1.40603
1.41106
1.41714
1.4232
1.42918
1.43395
1.43795
1.44196
1.44558
1.44873
1.45141
1.45349
1.45444
1.4567
1.35332
1.35564
1.3604
1.36615
1.37184
1.37729
1.38161
1.38527
1.38906
1.39245
1.39549
1.39812
1.40027
1.40149
1.40436
1.3043
1.30647
1.31099
1.31645
1.32186
1.32701
1.33122
1.33489
1.33863
1.34195
1.34489
1.34744
1.3495
1.35056
1.35353
1.25918
1.26117
1.2654
1.27048
1.27548
1.28024
1.28435
1.2879
1.29131
1.29432
1.29702
1.29935
1.30126
1.30224
1.3055
1.21427
1.21611
1.22013
1.22496
1.22979
1.23449
1.23888
1.24258
1.2458
1.24865
1.25118
1.25333
1.2551
1.25587
1.2586
1.1725
1.17421
1.17801
1.18257
1.18716
1.19168
1.19609
1.19958
1.20239
1.20492
1.20715
1.209
1.21049
1.21107
1.21315
1.13014
1.13179
1.13549
1.13996
1.14454
1.14912
1.15363
1.15706
1.1597
1.16212
1.16419
1.16583
1.16707
1.16728
1.1681
1.08956
1.09117
1.09475
1.09911
1.1036
1.10809
1.11245
1.11564
1.11809
1.12038
1.12229
1.1238
1.12499
1.12541
1.12543
1.04946
1.051
1.05447
1.05869
1.06307
1.06742
1.07158
1.07458
1.07692
1.07915
1.08102
1.08251
1.08376
1.08449
1.08415
1.0096
1.01107
1.0144
1.01847
1.02269
1.02686
1.03079
1.03365
1.03595
1.03816
1.04
1.04147
1.04274
1.04363
1.04173
0.969791
0.9712
0.974393
0.978296
0.982329
0.986298
0.990012
0.992831
0.995159
0.997334
0.99914
1.00061
1.00178
1.00296
1.00103
0.929015
0.930366
0.933446
0.937231
0.941144
0.945044
0.948736
0.951804
0.954366
0.956618
0.958541
0.960159
0.961516
0.96304
0.96278
0.888986
0.890274
0.893227
0.896849
0.900596
0.904371
0.908033
0.911335
0.914075
0.916335
0.918361
0.920141
0.921639
0.923276
0.922974
0.848084
0.849337
0.852219
0.855782
0.859503
0.863348
0.867172
0.870842
0.873828
0.876191
0.87838
0.880307
0.881902
0.883469
0.883175
0.808693
0.809915
0.812718
0.816192
0.819845
0.823679
0.827556
0.831366
0.83441
0.836798
0.839127
0.841221
0.843067
0.84495
0.844696
0.769263
0.770475
0.77324
0.776701
0.780384
0.784325
0.788348
0.792333
0.795497
0.79804
0.800595
0.802931
0.805075
0.807435
0.807378
0.731222
0.732423
0.735134
0.738549
0.742207
0.746156
0.7502
0.754193
0.757368
0.760013
0.762742
0.765277
0.767632
0.770319
0.770531
0.69316
0.694358
0.697045
0.700465
0.70416
0.708191
0.712318
0.716379
0.719647
0.722476
0.72542
0.728175
0.730762
0.733703
0.734603
0.656422
0.657603
0.660238
0.66361
0.667264
0.671261
0.67535
0.67936
0.682652
0.685597
0.688675
0.691588
0.694356
0.697478
0.698226
0.619895
0.621053
0.623637
0.626958
0.630577
0.63455
0.63862
0.642614
0.646
0.649087
0.652253
0.655252
0.658101
0.661334
0.662181
0.584063
0.585187
0.587698
0.59093
0.59446
0.598336
0.602318
0.606246
0.609729
0.612916
0.616058
0.619025
0.621798
0.624916
0.625941
0.548584
0.54966
0.552089
0.555207
0.558627
0.562382
0.566271
0.570146
0.573757
0.577015
0.58005
0.582912
0.58549
0.588262
0.588971
0.513827
0.514848
0.517184
0.520171
0.523457
0.527062
0.530834
0.53463
0.538323
0.54158
0.544467
0.547246
0.549806
0.552566
0.553525
0.479789
0.480748
0.482982
0.485818
0.488951
0.492381
0.496018
0.499712
0.503414
0.506592
0.509319
0.512046
0.514578
0.517556
0.518937
0.445998
0.446899
0.449039
0.451741
0.454741
0.458018
0.461535
0.465115
0.468747
0.471774
0.474334
0.476986
0.479554
0.482651
0.484801
0.412517
0.413363
0.415402
0.417965
0.420815
0.423921
0.427281
0.430694
0.434159
0.436975
0.43936
0.44195
0.444561
0.44819
0.452224
0.3786
0.379398
0.381358
0.38381
0.386545
0.38951
0.392731
0.395974
0.399232
0.401803
0.403988
0.4064
0.408783
0.411746
0.417729
0.343808
0.344575
0.346469
0.348846
0.351496
0.354376
0.357496
0.360613
0.363692
0.366075
0.368114
0.370426
0.37277
0.37522
0.381659
0.30805
0.308791
0.310627
0.312929
0.315502
0.318291
0.321318
0.324329
0.327273
0.329554
0.331557
0.333867
0.3363
0.338507
0.344425
0.270029
0.270769
0.272588
0.274907
0.2775
0.280359
0.283444
0.286535
0.289528
0.291922
0.294095
0.296584
0.299362
0.302069
0.308901
0.231603
0.23233
0.234104
0.236366
0.238894
0.241684
0.244701
0.247741
0.250706
0.253193
0.255548
0.258221
0.261254
0.264061
0.27129
0.190124
0.190853
0.192618
0.194902
0.197468
0.200359
0.203482
0.206687
0.209829
0.212632
0.215304
0.218227
0.221553
0.224617
0.231
0.14779
0.148514
0.150235
0.152463
0.154961
0.157785
0.160861
0.164074
0.1673
0.170381
0.173391
0.176599
0.180364
0.184105
0.191449
0.101532
0.10227
0.104008
0.1063
0.108894
0.111901
0.115189
0.118709
0.122302
0.125935
0.129472
0.133148
0.137526
0.142127
0.149884
0.0553203
0.0560457
0.0577316
0.059952
0.0624603
0.0653787
0.068605
0.0721343
0.0758426
0.0797873
0.0836814
0.0877191
0.0926154
0.0979989
0.106371
0.0054471
0.0061704
0.00784783
0.0100841
0.0126399
0.0156737
0.019061
0.0228457
0.0268838
0.0312919
0.0356349
0.0401376
0.0456191
0.0518548
0.0615134
-0.0455528
-0.0448262
-0.0431783
-0.0409696
-0.0384417
-0.035416
-0.0320008
-0.0281099
-0.0238772
-0.0191467
-0.0144301
-0.00946118
-0.00335828
0.00363676
0.0147199
-0.0996809
-0.0989558
-0.0973033
-0.095072
-0.0924737
-0.0893264
-0.0857238
-0.0815695
-0.0769945
-0.0718431
-0.0666565
-0.0610859
-0.054204
-0.0462444
-0.033281
-0.154428
-0.15373
-0.152138
-0.149982
-0.147455
-0.14437
-0.140787
-0.136584
-0.131864
-0.126458
-0.120868
-0.114665
-0.106854
-0.0977761
-0.0823888
-0.21204
-0.211372
-0.209828
-0.207731
-0.205236
-0.202166
-0.198536
-0.194233
-0.189306
-0.183592
-0.177499
-0.170508
-0.161506
-0.150958
-0.133441
-0.273386
-0.272735
-0.271226
-0.269154
-0.266654
-0.263549
-0.259825
-0.255356
-0.250152
-0.244024
-0.237275
-0.229282
-0.218795
-0.206192
-0.185776
-0.338605
-0.337994
-0.336553
-0.334569
-0.332126
-0.329068
-0.325308
-0.320732
-0.315257
-0.308679
-0.30115
-0.291969
-0.279801
-0.264997
-0.241801
-0.410426
-0.409856
-0.408477
-0.406548
-0.404117
-0.401024
-0.397133
-0.392308
-0.386386
-0.379109
-0.370455
-0.359628
-0.345188
-0.327391
-0.300371
-0.489788
-0.489258
-0.487943
-0.486074
-0.483653
-0.480517
-0.476454
-0.471295
-0.464748
-0.456466
-0.446199
-0.433032
-0.415394
-0.39338
-0.36098
-0.582644
-0.582142
-0.580869
-0.578987
-0.576437
-0.573021
-0.568435
-0.562432
-0.554575
-0.544373
-0.531313
-0.514382
-0.491926
-0.463888
-0.424415
-0.686973
-0.686507
-0.685268
-0.683373
-0.680703
-0.676994
-0.671821
-0.664797
-0.65526
-0.642478
-0.625576
-0.603409
-0.574214
-0.537782
-0.486503
-0.826961
-0.826538
-0.825378
-0.823332
-0.820083
-0.815204
-0.808006
-0.797822
-0.783646
-0.764464
-0.739138
-0.706704
-0.665912
-0.617695
-0.553126
-0.96407
-0.963646
-0.962249
-0.959865
-0.956165
-0.95049
-0.941904
-0.929337
-0.911303
-0.886219
-0.852461
-0.809076
-0.755285
-0.693657
-0.616658
-1.28668
-1.28649
-1.28469
-1.28011
-1.27089
-1.25557
-1.23222
-1.19891
-1.1538
-1.09596
-1.02564
-0.945129
-0.857127
-0.767307
-0.67214
-1.32112
-1.31988
-1.32068
-1.31478
-1.30424
-1.28841
-1.26548
-1.23318
-1.18924
-1.13202
-1.06115
-0.97872
-0.887494
-0.792673
-0.696876
-2.86847
-2.94579
-2.88496
-2.80143
-2.69545
-2.55667
-2.37819
-2.16095
-1.91295
-1.64963
-1.39167
-1.16152
-0.972337
-0.823072
-0.703909
0.380323
1.26432
-0.353552
-0.0271614
0.162731
-0.45622
0.117259
1.96204
0.605017
0.350666
0.139384
1.26598
0.5129
-0.0876275
0.0808436
1.43942
-0.0899441
-2.1395
-0.211803
0.253965
1.20503
0.535816
1.51417
0.819122
0.781329
2.39813
1.73751
0.0343709
1.14066
-0.09962
-6.68001
0.408235
-0.534071
-0.207643
1.69591
1.44343
0.498328
-0.799741
1.05478
1.80777
0.862706
-0.281007
0.682081
0.994261
0.75986
0.243511
0.746164
0.690232
-0.329194
1.69796
0.973628
0.225551
0.0730064
2.66114
0.889818
3.50998
0.694093
-0.679901
0.678368
0.738537
1.59893
-1.13743
0.345339
-0.179928
1.44809
1.40479
0.149319
4.77901
0.507666
1.92501
1.16206
0.56255
0.377734
-0.321046
1.00266
0.42459
0.511535
1.05711
-0.279834
1.73847
1.36909
0.671472
0.695159
-0.18328
3.47304
0.134455
0.83808
0.51692
-0.297137
2.15533
0.49495
0.524897
-0.0595064
1.04255
0.165954
0.973331
0.553385
1.5557
0.142218
0.669016
1.93063
1.22983
1.1141
0.459295
-0.218599
-0.0815971
0.883741
0.211953