/*--------------------------------*- C++ -*----------------------------------*\
| =========                 |                                                 |
| \\      /  F ield         | OpenFOAM: The Open Source CFD Toolbox           |
|  \\    /   O peration     | Version:  2.3.0                                 |
|   \\  /    A nd           | Web:      www.OpenFOAM.org                      |
|    \\/     M anipulation  |                                                 |
\*---------------------------------------------------------------------------*/
FoamFile
{
    version     2.0;
    format      ascii;
    class       volVectorField;
    location    "100";
    object      U;
}
// * * * * * * * * * * * * * * * * * * * * * * * * * * * * * * * * * * * * * //

dimensions      [0 1 -1 0 0 0 0];

internalField   nonuniform List<vector> 
7991
(
(20.0949 0.157026 -9.72441e-23)
(20.1025 0.174366 -2.50258e-22)
(20.1102 0.193415 1.24881e-21)
(20.1176 0.21508 -8.94434e-22)
(20.1241 0.238864 -7.18839e-21)
(20.1289 0.263869 1.82022e-20)
(20.1311 0.289025 -1.07752e-20)
(20.1298 0.31334 0)
(20.1243 0.335994 0)
(20.1142 0.356395 -1.37402e-20)
(20.0994 0.374139 1.26501e-20)
(20.0799 0.388994 -1.67779e-20)
(20.056 0.400761 1.53656e-20)
(20.0273 0.406706 0)
(19.9948 0.409509 0)
(20.0759 0.15479 0)
(20.0772 0.167036 0)
(20.0769 0.178858 0)
(20.0745 0.190504 -4.13934e-21)
(20.0698 0.20207 8.23517e-21)
(20.063 0.213569 4.50546e-22)
(20.0544 0.224881 -9.12248e-21)
(20.0445 0.23576 4.56879e-21)
(20.0335 0.245886 -6.22897e-21)
(20.0218 0.254946 -1.29536e-21)
(20.0097 0.262668 1.43021e-20)
(19.9974 0.268868 -1.15205e-20)
(19.9851 0.273426 3.97004e-21)
(19.9731 0.276269 0)
(19.9618 0.277322 9.66908e-36)
(20.0617 0.151626 0)
(20.0613 0.161995 0)
(20.0604 0.172203 9.72437e-21)
(20.0586 0.181858 -9.44204e-21)
(20.0557 0.190693 -1.16818e-20)
(20.0514 0.198488 -1.34848e-21)
(20.0459 0.205124 -1.27822e-21)
(20.0393 0.210578 1.21717e-20)
(20.0317 0.214871 0)
(20.0236 0.218064 0)
(20.015 0.220223 0)
(20.0062 0.221431 0)
(19.9975 0.221765 0)
(19.989 0.221316 0)
(19.9808 0.220162 0)
(20.0501 0.144656 0)
(20.0479 0.151955 -5.21821e-21)
(20.0454 0.159109 5.12495e-21)
(20.0423 0.165719 0)
(20.0387 0.171746 -1.23137e-20)
(20.0345 0.177107 1.17398e-20)
(20.0298 0.181744 -1.2803e-20)
(20.0247 0.185627 2.50424e-20)
(20.0192 0.188745 -5.77502e-21)
(20.0136 0.191111 -6.14637e-21)
(20.0078 0.192748 0)
(20.002 0.193693 0)
(19.9962 0.193988 0)
(19.9906 0.193687 -1.57824e-21)
(19.9853 0.192841 1.54281e-21)
(20.042 0.137691 0)
(20.0395 0.142839 0)
(20.0369 0.148023 6.34089e-21)
(20.0341 0.152687 4.76964e-22)
(20.031 0.156857 -6.39942e-21)
(20.0277 0.160496 -6.98576e-21)
(20.0241 0.163583 6.70258e-21)
(20.0203 0.166115 0)
(20.0163 0.168093 0)
(20.0121 0.169529 0)
(20.0079 0.170439 0)
(20.0038 0.170844 0)
(19.9996 0.170768 -3.51335e-21)
(19.9956 0.170242 3.43278e-21)
(19.9917 0.169302 -6.20666e-36)
(20.0363 0.130815 0)
(20.0335 0.134277 -3.16326e-21)
(20.0309 0.137865 3.10651e-21)
(20.0281 0.141032 0)
(20.0254 0.143834 0)
(20.0225 0.146258 7.127e-21)
(20.0196 0.1483 -1.41043e-20)
(20.0165 0.149954 -2.60224e-22)
(20.0135 0.15122 -2.29803e-22)
(20.0104 0.152097 -2.01686e-22)
(20.0073 0.152591 7.14466e-21)
(20.0042 0.15271 0)
(20.0012 0.152464 0)
(19.9983 0.151874 -1.83979e-21)
(19.9955 0.150959 1.82815e-21)
(20.0321 0.124659 0)
(20.0297 0.126897 0)
(20.0272 0.129335 0)
(20.0248 0.131461 0)
(20.0224 0.13331 0)
(20.02 0.13488 0)
(20.0176 0.136168 0)
(20.0151 0.137172 0)
(20.0127 0.137891 0)
(20.0103 0.138324 0)
(20.0079 0.138472 0)
(20.0055 0.13834 0)
(20.0032 0.137934 0)
(20.001 0.137268 0)
(19.9989 0.136355 0)
(20.0295 0.118843 -1.61531e-21)
(20.0272 0.120489 1.59498e-21)
(20.025 0.122131 0)
(20.0228 0.123552 0)
(20.0207 0.124755 0)
(20.0186 0.125743 0)
(20.0166 0.126517 -7.49286e-21)
(20.0145 0.127077 7.3965e-21)
(20.0125 0.12742 0)
(20.0105 0.127547 0)
(20.0086 0.127459 -3.95765e-21)
(20.0067 0.127157 3.94226e-21)
(20.0049 0.126649 0)
(20.0032 0.125943 0)
(20.0015 0.12505 3.70974e-36)
(20.0277 0.113646 1.6395e-21)
(20.0256 0.115028 -1.62852e-21)
(20.0236 0.116144 0)
(20.0217 0.11709 0)
(20.0199 0.117856 0)
(20.018 0.118451 -3.72734e-21)
(20.0163 0.118878 7.48757e-21)
(20.0145 0.119138 -7.62942e-21)
(20.0128 0.11923 -8.60896e-23)
(20.0112 0.119152 3.91966e-21)
(20.0096 0.118905 4.07057e-21)
(20.008 0.118494 -4.07331e-21)
(20.0065 0.117922 2.10673e-21)
(20.005 0.117198 -1.04086e-21)
(20.0036 0.11633 -1.07566e-21)
(20.0264 0.10942 0)
(20.0246 0.110467 0)
(20.0228 0.111189 0)
(20.0211 0.111797 3.60151e-21)
(20.0195 0.112261 -3.57188e-21)
(20.0179 0.112587 0)
(20.0164 0.112782 0)
(20.0148 0.112845 3.90683e-21)
(20.0134 0.112772 -3.90551e-21)
(20.0119 0.112563 -4.07051e-21)
(20.0105 0.112218 6.15929e-21)
(20.0091 0.11174 -2.08535e-21)
(20.0078 0.111135 0)
(20.0066 0.110409 1.10199e-21)
(20.0053 0.109569 -1.10856e-21)
(20.0256 0.105675 -8.37216e-22)
(20.0239 0.106555 2.55814e-21)
(20.0224 0.107029 -1.71377e-21)
(20.0209 0.107412 3.60944e-21)
(20.0194 0.107674 -3.59103e-21)
(20.018 0.107819 3.76562e-21)
(20.0166 0.107857 -3.7613e-21)
(20.0153 0.107791 0)
(20.014 0.107613 0)
(20.0127 0.107322 -2.05694e-21)
(20.0114 0.106918 2.06713e-21)
(20.0102 0.106405 0)
(20.009 0.105786 0)
(20.0079 0.105066 0)
(20.0068 0.104253 0)
(20.025 0.10261 0)
(20.0236 0.103242 0)
(20.0222 0.103534 -1.76649e-21)
(20.0209 0.103753 3.56151e-21)
(20.0196 0.103875 -1.79806e-21)
(20.0183 0.103894 0)
(20.017 0.103824 0)
(20.0158 0.103673 0)
(20.0146 0.103427 2.01516e-21)
(20.0134 0.103084 -2.02574e-21)
(20.0123 0.102648 -2.11102e-21)
(20.0111 0.102121 2.1248e-21)
(20.0101 0.101502 0)
(20.009 0.100792 0)
(20.008 0.0999979 0)
(20.0246 0.100066 0)
(20.0233 0.100401 0)
(20.0222 0.100563 1.76448e-21)
(20.0209 0.100654 -1.75708e-21)
(20.0197 0.100686 -1.83643e-21)
(20.0186 0.100631 3.71108e-21)
(20.0174 0.100485 -1.87823e-21)
(20.0162 0.100273 1.96036e-21)
(20.0151 0.0999768 -1.96954e-21)
(20.014 0.0995981 0)
(20.013 0.0991513 2.10262e-21)
(20.0119 0.0986298 -2.11643e-21)
(20.0109 0.0980224 1.0994e-21)
(20.0099 0.0973245 -1.1066e-21)
(20.009 0.0965307 0)
(20.0244 0.0977021 0)
(20.0232 0.0979284 0)
(20.0221 0.0980357 0)
(20.021 0.0980001 -1.83998e-21)
(20.02 0.0979731 3.68793e-21)
(20.0189 0.0979078 -1.76863e-21)
(20.0178 0.097707 0)
(20.0166 0.09744 0)
(20.0156 0.0971079 0)
(20.0146 0.0966907 0)
(20.0136 0.0962365 0)
(20.0126 0.0957472 1.0572e-21)
(20.0116 0.0951588 -1.05959e-21)
(20.0107 0.0944948 -2.70292e-22)
(20.0098 0.093685 2.77451e-22)
(19.9479 0.376556 0)
(19.902 0.36108 0)
(19.8627 0.342016 3.38617e-20)
(19.8305 0.32518 -3.70404e-20)
(19.806 0.307061 4.10916e-20)
(19.7898 0.287008 -4.47058e-20)
(19.782 0.264974 0)
(19.7823 0.241183 0)
(19.7898 0.21602 -1.04979e-19)
(19.8032 0.190139 2.15298e-19)
(19.8208 0.164469 -1.08827e-19)
(19.8407 0.140086 -5.11742e-20)
(19.8614 0.118005 9.91879e-20)
(19.8818 0.0989233 -2.49088e-20)
(19.9008 0.0819423 -2.13889e-20)
(19.9511 0.276664 -9.70308e-36)
(19.9408 0.273871 0)
(19.9309 0.268462 8.84695e-21)
(19.9215 0.260539 -3.05073e-20)
(19.9128 0.250147 4.70502e-20)
(19.9051 0.237452 1.34727e-21)
(19.8988 0.222756 -3.02516e-20)
(19.8942 0.206509 3.45528e-20)
(19.8914 0.189276 -7.44633e-20)
(19.8908 0.171672 3.03893e-22)
(19.8925 0.154276 8.21374e-20)
(19.8966 0.137511 -4.21583e-20)
(19.9032 0.121621 0)
(19.9117 0.106713 0)
(19.9216 0.0920521 0)
(19.9729 0.21837 0)
(19.9649 0.215848 0)
(19.957 0.212453 0)
(19.9492 0.20814 0)
(19.9419 0.20284 0)
(19.9352 0.196504 0)
(19.9295 0.189094 0)
(19.9249 0.180595 2.44441e-20)
(19.9219 0.171016 5.10699e-22)
(19.9206 0.160398 4.45942e-22)
(19.9211 0.148843 -3.02652e-20)
(19.9235 0.136527 -3.20868e-20)
(19.9274 0.123746 3.30276e-20)
(19.9325 0.110881 0)
(19.9384 0.0978643 0)
(19.9802 0.191469 1.62561e-21)
(19.9752 0.189509 -1.66822e-21)
(19.9703 0.186877 0)
(19.9655 0.183524 0)
(19.9611 0.179401 0)
(19.9571 0.174471 -9.11752e-21)
(19.9536 0.16871 -1.01363e-20)
(19.9507 0.162111 4.21632e-20)
(19.9486 0.154695 -2.25249e-20)
(19.9473 0.146508 2.47691e-20)
(19.9468 0.137638 -2.59817e-20)
(19.9472 0.128211 0)
(19.9485 0.118391 1.44477e-20)
(19.9505 0.108339 -1.47003e-20)
(19.9532 0.097984 0)
(19.988 0.167957 6.22182e-36)
(19.9844 0.166171 3.65703e-21)
(19.9809 0.163903 -3.74602e-21)
(19.9775 0.161129 0)
(19.9743 0.157827 0)
(19.9714 0.153985 0)
(19.9688 0.149592 0)
(19.9666 0.144646 0)
(19.9648 0.139152 1.05308e-20)
(19.9635 0.133124 -1.09779e-20)
(19.9628 0.126591 -1.18654e-20)
(19.9625 0.119598 -1.99038e-22)
(19.9627 0.112213 1.28656e-20)
(19.9634 0.104485 0)
(19.9645 0.0964287 0)
(19.9929 0.149725 1.87853e-21)
(19.9903 0.148148 -1.89547e-21)
(19.9878 0.146206 0)
(19.9854 0.143888 0)
(19.9832 0.141186 8.45523e-21)
(19.9811 0.138098 1.4918e-22)
(19.9792 0.134625 1.62137e-22)
(19.9775 0.130769 1.74319e-22)
(19.9761 0.126535 -2.00122e-20)
(19.975 0.121933 1.04236e-20)
(19.9741 0.116976 0)
(19.9735 0.111683 0)
(19.9732 0.106085 6.07919e-21)
(19.9731 0.100194 -6.18731e-21)
(19.9732 0.0940953 0)
(19.9969 0.1352 0)
(19.995 0.133788 0)
(19.9931 0.132108 0)
(19.9913 0.130154 0)
(19.9896 0.127927 0)
(19.988 0.125427 0)
(19.9865 0.122658 0)
(19.9851 0.119624 0)
(19.9839 0.116328 0)
(19.9829 0.112773 0)
(19.982 0.108963 0)
(19.9812 0.104901 0)
(19.9807 0.100591 0)
(19.9802 0.0960194 0)
(19.98 0.0912422 0)
(19.9999 0.123974 -3.71662e-36)
(19.9984 0.122706 0)
(19.9969 0.121238 0)
(19.9954 0.119571 4.41679e-21)
(19.9941 0.117705 -4.43625e-21)
(19.9928 0.115643 0)
(19.9916 0.113389 0)
(19.9904 0.110945 9.60416e-21)
(19.9894 0.108314 -9.73073e-21)
(19.9885 0.105498 0)
(19.9876 0.102494 0)
(19.9868 0.0993016 0)
(19.9862 0.0959167 0)
(19.9855 0.0923388 2.86208e-21)
(19.985 0.08858 -2.85891e-21)
(20.0023 0.115321 -1.10543e-21)
(20.001 0.114168 -1.13007e-21)
(19.9997 0.112864 2.22868e-21)
(19.9985 0.111411 -4.56326e-21)
(19.9974 0.109812 4.56215e-21)
(19.9963 0.10807 4.68257e-21)
(19.9953 0.106188 5.98522e-23)
(19.9943 0.104167 -9.61842e-21)
(19.9934 0.102011 9.81103e-21)
(19.9925 0.0997186 -4.98262e-21)
(19.9917 0.0972881 0)
(19.991 0.0947145 0)
(19.9903 0.0919908 0)
(19.9896 0.0891276 -2.78029e-21)
(19.9889 0.086042 2.74056e-21)
(20.0042 0.108618 -1.14004e-21)
(20.003 0.107554 1.1353e-21)
(20.002 0.106374 0)
(20.0009 0.105081 -2.33783e-21)
(19.9999 0.103679 7.0467e-21)
(19.9989 0.102169 -4.70517e-21)
(19.998 0.100554 -4.81442e-21)
(19.9971 0.0988379 4.81674e-21)
(19.9963 0.0970215 0)
(19.9955 0.0951052 0)
(19.9948 0.0930867 -5.11915e-21)
(19.9941 0.0909605 5.16085e-21)
(19.9934 0.0887184 0)
(19.9928 0.0863735 0)
(19.9922 0.0838043 0)
(20.0057 0.103349 0)
(20.0047 0.102356 0)
(20.0037 0.101271 0)
(20.0028 0.100097 0)
(20.0018 0.0988399 2.38848e-21)
(20.001 0.0974996 -2.37726e-21)
(20.0001 0.0960811 0)
(19.9993 0.0945862 0)
(19.9986 0.0930179 -4.94455e-21)
(19.9979 0.0913776 4.95012e-21)
(19.9972 0.0896627 -5.07525e-21)
(19.9965 0.0878679 5.10056e-21)
(19.9959 0.0859835 -2.6193e-21)
(19.9953 0.0840248 3.96967e-21)
(19.9946 0.0818558 -1.3376e-21)
(20.007 0.0991311 0)
(20.006 0.0981957 0)
(20.0051 0.0971839 0)
(20.0042 0.0961029 2.38395e-21)
(20.0034 0.0949556 -2.36905e-21)
(20.0026 0.0937418 -2.41155e-21)
(20.0018 0.0924691 2.39925e-21)
(20.0011 0.0911389 0)
(20.0004 0.0897566 0)
(19.9997 0.0883255 0)
(19.999 0.0868407 -2.5149e-21)
(19.9984 0.0853003 5.0692e-21)
(19.9979 0.0836944 -2.55889e-21)
(19.9973 0.0820302 0)
(19.9967 0.0802043 0)
(20.008 0.0956915 0)
(20.0071 0.0948057 -1.1723e-21)
(20.0063 0.093856 1.1651e-21)
(20.0054 0.0928553 -2.37382e-21)
(20.0046 0.0917865 2.35871e-21)
(20.0039 0.0906696 0)
(20.0031 0.0895077 -2.41123e-21)
(20.0024 0.0882991 2.40014e-21)
(20.0018 0.0870625 -2.44246e-21)
(20.0011 0.0857944 4.90036e-21)
(20.0005 0.0844822 -2.46243e-21)
(20 0.0831469 -2.51434e-21)
(19.9994 0.0817706 2.52459e-21)
(19.9989 0.0803419 0)
(19.9983 0.0788274 0)
(20.0089 0.0928709 2.94202e-22)
(20.008 0.0920277 -2.91496e-22)
(20.0072 0.09111 -1.17312e-21)
(20.0064 0.0902035 1.12658e-21)
(20.0056 0.0891899 0)
(20.0049 0.0881569 0)
(20.0042 0.087069 0)
(20.0036 0.0859298 0)
(20.0029 0.084818 0)
(20.0023 0.0836814 -2.44433e-21)
(20.0018 0.0824743 5.0241e-21)
(20.0012 0.0813054 -2.51278e-21)
(20.0007 0.0801315 0)
(20.0003 0.0788772 0)
(19.9997 0.0775854 0)
(20.0559 0.00784048 -8.19492e-21)
(20.012 0.00455576 9.17948e-21)
(19.9375 0.000841427 0)
(19.8162 -0.00325839 0)
(19.6305 -0.00805224 0)
(19.3699 -0.0135367 0)
(19.0332 -0.0196976 -2.80852e-21)
(18.6231 -0.0266391 3.11948e-21)
(18.1423 -0.0343625 0)
(17.5891 -0.042789 0)
(16.9522 -0.0522017 -1.62628e-20)
(16.1999 -0.0627411 1.92399e-20)
(15.2623 -0.0762345 -3.96142e-21)
(14.0243 -0.0659541 5.85568e-21)
(12.6625 -0.0794592 -9.55402e-22)
(20.053 0.00536236 0)
(20.0145 0.00249752 -2.00762e-20)
(19.9522 -0.00100857 2.21418e-20)
(19.8544 -0.00554163 0)
(19.7072 -0.0115264 0)
(19.5002 -0.0187871 0)
(19.228 -0.0269013 0)
(18.8886 -0.0354692 6.12799e-20)
(18.4795 -0.0441459 -6.79139e-20)
(17.995 -0.0527164 8.49377e-20)
(17.4196 -0.061489 3.18246e-21)
(16.7187 -0.0706234 -1.16006e-19)
(15.8287 -0.0821927 7.24757e-20)
(14.7 -0.0776768 -4.49094e-20)
(13.6267 -0.0493571 -5.90539e-20)
(20.0506 0.000959311 0)
(20.0167 -0.00342589 0)
(19.9637 -0.0086243 2.80439e-20)
(19.8824 -0.0146732 -3.05674e-20)
(19.7618 -0.0214855 -4.08396e-20)
(19.5918 -0.0286216 -3.46106e-21)
(19.365 -0.0356922 -2.93684e-21)
(19.0759 -0.0425228 6.02508e-20)
(18.7186 -0.0491197 0)
(18.2836 -0.0556351 0)
(17.7522 -0.0626261 0)
(17.0875 -0.0702294 0)
(16.232 -0.0784772 0)
(15.1676 -0.0745063 0)
(14.2089 -0.0360499 0)
(20.0465 -0.00261437 0)
(20.0149 -0.00734707 -1.02918e-20)
(19.9671 -0.0125243 1.11582e-20)
(19.8962 -0.0181204 0)
(19.7933 -0.0240754 -2.95513e-20)
(19.6494 -0.0301598 3.19534e-20)
(19.4561 -0.036187 -3.56795e-20)
(19.2054 -0.0420911 7.79175e-20)
(18.8885 -0.0479302 -2.12665e-20)
(18.4927 -0.0538855 -2.37764e-20)
(17.9961 -0.0604775 0)
(17.3603 -0.0678753 0)
(16.5307 -0.0746168 0)
(15.5038 -0.0699707 -1.1179e-20)
(14.5949 -0.0306443 1.35754e-20)
(20.0417 -0.00457286 0)
(20.0121 -0.00897617 0)
(19.9689 -0.0136453 9.80579e-21)
(19.9067 -0.0186271 2.22246e-22)
(19.8183 -0.0239265 2.0627e-22)
(19.6953 -0.0294127 -2.54608e-20)
(19.5289 -0.0349401 1.38328e-20)
(19.3093 -0.0404267 -1.53482e-20)
(19.0255 -0.0459096 -1.55352e-22)
(18.6621 -0.051575 1.85164e-20)
(18.1949 -0.0578976 0)
(17.5837 -0.0651148 0)
(16.7753 -0.0711409 -1.40071e-20)
(15.772 -0.0659212 1.65851e-20)
(14.8875 -0.0277908 0)
(20.0375 -0.00611359 0)
(20.0101 -0.0100968 0)
(19.9713 -0.014424 9.03445e-21)
(19.9166 -0.0190338 -1.9596e-20)
(19.8398 -0.0238953 2.15889e-20)
(19.7333 -0.0289225 3.08223e-22)
(19.5881 -0.0340167 -2.60987e-20)
(19.3934 -0.03912 1.42132e-20)
(19.1366 -0.0442769 -1.58835e-20)
(18.8003 -0.0496854 3.4893e-20)
(18.3583 -0.0557757 -1.93569e-20)
(17.7687 -0.0627929 0)
(16.978 -0.0684465 0)
(15.991 -0.0628842 0)
(15.1193 -0.0259776 0)
(20.0338 -0.00712011 0)
(20.0084 -0.0108694 0)
(19.9732 -0.0150068 0)
(19.9244 -0.0193394 0)
(19.8567 -0.0238556 0)
(19.7629 -0.0285302 0)
(19.6343 -0.033313 0)
(19.4597 -0.0381699 0)
(19.2252 -0.0431414 0)
(18.9118 -0.0484132 0)
(18.4915 -0.0543663 0)
(17.9209 -0.0612098 0)
(17.1455 -0.0666085 0)
(16.1702 -0.0607955 0)
(15.3053 -0.0247244 0)
(20.0305 -0.00797865 0)
(20.0065 -0.0113299 3.44313e-21)
(19.9743 -0.0152473 -3.62648e-21)
(19.9303 -0.019375 8.05419e-21)
(19.8696 -0.0236848 2.40911e-22)
(19.786 -0.028178 -1.88124e-20)
(19.6706 -0.0328265 -3.08646e-22)
(19.5123 -0.0376024 -3.45651e-22)
(19.2964 -0.042531 1.87377e-20)
(19.0026 -0.0477705 2.17112e-22)
(18.6015 -0.0536556 -7.73553e-21)
(18.0477 -0.0603503 9.0978e-21)
(17.2859 -0.0655263 -1.54397e-20)
(16.3196 -0.0594705 5.99858e-21)
(15.4582 -0.0238825 0)
(20.0269 -0.00792479 1.45741e-21)
(20.0046 -0.0112915 -1.53243e-21)
(19.9749 -0.0151621 0)
(19.9347 -0.0192043 0)
(19.8798 -0.0234529 0)
(19.8042 -0.0279282 -4.12783e-21)
(19.6996 -0.0326082 8.92111e-21)
(19.5547 -0.03746 -9.89741e-21)
(19.3544 -0.0424855 -2.61341e-22)
(19.0776 -0.0478092 6.09039e-21)
(18.6933 -0.053705 0)
(18.1548 -0.0602483 0)
(17.4052 -0.065126 4.84714e-21)
(16.4465 -0.0587101 -2.69504e-21)
(15.5869 -0.0232464 -3.16818e-21)
(20.0238 -0.00811266 0)
(20.0028 -0.011183 0)
(19.9751 -0.0148807 0)
(19.9381 -0.0188512 2.99093e-21)
(19.8879 -0.0231064 -3.12925e-21)
(19.8188 -0.0276671 0)
(19.7229 -0.0325119 0)
(19.5892 -0.0375885 4.36604e-21)
(19.4022 -0.0428661 -4.6448e-21)
(19.1402 -0.0484228 -5.73694e-21)
(18.7711 -0.0544976 9.51903e-21)
(18.2468 -0.0611066 -3.63339e-21)
(17.5085 -0.06584 0)
(16.5563 -0.0589911 2.69068e-21)
(15.6973 -0.023289 -3.02148e-21)
(20.0208 -0.00743974 0)
(20.001 -0.0106573 0)
(19.9751 -0.0143183 0)
(19.9407 -0.0182577 2.49802e-21)
(19.8941 -0.0225836 3.03804e-23)
(19.8301 -0.0273526 -5.60569e-21)
(19.7412 -0.0325421 2.99627e-21)
(19.6166 -0.0380542 0)
(19.4408 -0.0437817 0)
(19.1914 -0.0498348 -2.57845e-21)
(18.8354 -0.0563698 2.76331e-21)
(18.3239 -0.0630495 0)
(17.5968 -0.0673594 0)
(16.6516 -0.0597452 0)
(15.7938 -0.0230779 0)
(20.0182 -0.00709513 0)
(19.9994 -0.0100038 1.02899e-21)
(19.975 -0.0134875 -2.06549e-21)
(19.9427 -0.0172948 1.0405e-21)
(19.8991 -0.0215834 0)
(19.8395 -0.0264805 0)
(19.7566 -0.0321011 2.30051e-21)
(19.64 -0.0382564 -2.4165e-21)
(19.4744 -0.0445281 0)
(19.2366 -0.0509253 -2.04929e-21)
(18.8938 -0.0583143 -4.17374e-22)
(18.395 -0.0667584 1.06429e-21)
(17.6781 -0.0720109 1.89673e-21)
(16.7374 -0.0635498 -1.42302e-21)
(15.8791 -0.0260362 1.57735e-21)
(20.0157 -0.00619049 0)
(19.9975 -0.00917433 0)
(19.9745 -0.012532 0)
(19.9439 -0.0161669 0)
(19.9022 -0.0205175 0)
(19.8451 -0.0257351 7.44251e-22)
(19.7651 -0.0320552 -7.75497e-22)
(19.6541 -0.039419 0)
(19.4963 -0.0464779 0)
(19.2668 -0.0536914 0)
(18.9286 -0.0621609 0)
(18.4378 -0.0714403 -1.85823e-21)
(17.7386 -0.07673 2.01758e-21)
(16.8117 -0.0661546 0)
(15.9552 -0.0254408 0)
(20.0138 -0.00514192 0)
(19.997 -0.0080171 0)
(19.9757 -0.0112676 0)
(19.9463 -0.0142648 -4.90483e-22)
(19.9078 -0.0179605 7.65764e-22)
(19.8559 -0.0223123 -2.68339e-22)
(19.7832 -0.0288245 0)
(19.6789 -0.0380262 0)
(19.5343 -0.0456319 0)
(19.3153 -0.0506945 0)
(19.0047 -0.0595665 0)
(18.523 -0.079741 0)
(17.8246 -0.0897146 0)
(16.8866 -0.0758433 -8.52476e-22)
(16.0233 -0.0434787 9.38601e-22)
(12.7339 0.0860514 -1.39525e-21)
(14.1466 0.0696534 7.2446e-21)
(15.4008 0.079376 -4.78546e-21)
(16.3453 0.0657815 2.15079e-20)
(17.1017 0.0553475 -1.81862e-20)
(17.741 0.0460647 0)
(18.2944 0.0378049 0)
(18.7728 0.0303215 7.83246e-21)
(19.177 0.0237526 -7.05344e-21)
(19.5039 0.0181583 0)
(19.7506 0.0135091 0)
(19.9194 0.00995547 0)
(20.0231 0.00743885 0)
(20.0807 0.00582637 7.73609e-21)
(20.1088 0.00468792 -6.95988e-21)
(13.6842 0.0576456 -5.86724e-20)
(14.8199 0.083296 -4.43447e-20)
(15.9704 0.0870879 7.17556e-20)
(16.8679 0.0753761 -1.14472e-19)
(17.5719 0.0663821 3.41167e-21)
(18.1481 0.0577651 8.36399e-20)
(18.6312 0.0493653 -6.62368e-20)
(19.0361 0.0409141 5.97805e-20)
(19.3684 0.0326922 0)
(19.63 0.0251147 0)
(19.8235 0.0186638 0)
(19.9552 0.0138624 0)
(20.0372 0.0108611 1.97121e-20)
(20.0843 0.00929377 -1.78767e-20)
(20.1085 0.00843781 0)
(14.263 0.0454261 0)
(15.2871 0.0817089 0)
(16.3759 0.0848048 0)
(17.2392 0.0763778 0)
(17.9059 0.068943 0)
(18.4367 0.0621591 0)
(18.8687 0.05586 0)
(19.2206 0.0495204 5.84142e-20)
(19.5015 0.0430461 -3.22194e-21)
(19.7175 0.0364922 -3.7413e-21)
(19.8746 0.0301144 -3.89055e-20)
(19.9811 0.024386 -2.83031e-20)
(20.0482 0.0197629 2.59603e-20)
(20.0875 0.0163565 0)
(20.1083 0.0139617 0)
(14.6484 0.0410651 1.34478e-20)
(15.6239 0.0785213 -1.10425e-20)
(16.6765 0.0822007 0)
(17.5136 0.0752293 0)
(18.1505 0.0679728 0)
(18.6452 0.0615877 -2.29906e-20)
(19.0369 0.0558608 -2.03572e-20)
(19.3473 0.0502975 7.47695e-20)
(19.5892 0.0447705 -3.4137e-20)
(19.7717 0.039279 3.01296e-20)
(19.9034 0.0339615 -2.786e-20)
(19.9934 0.0290641 0)
(20.0515 0.0248379 1.01228e-20)
(20.0868 0.0213496 -9.33788e-21)
(20.1064 0.0185649 0)
(14.9414 0.0390749 0)
(15.8932 0.0755077 1.62504e-20)
(16.9225 0.0797385 -1.37302e-20)
(17.7381 0.0734527 0)
(18.3494 0.0663488 0)
(18.8136 0.0602217 1.77736e-20)
(19.1719 0.0547856 -2.44347e-22)
(19.4485 0.0495918 -1.46502e-20)
(19.6589 0.0445097 1.30297e-20)
(19.8148 0.0395579 -2.3889e-20)
(19.9263 0.0348781 2.906e-22)
(20.0029 0.0306516 3.16479e-22)
(20.0534 0.0270195 8.9754e-21)
(20.0852 0.0239788 0)
(20.1037 0.0214969 0)
(15.1738 0.0379871 0)
(16.1132 0.0733009 0)
(17.1263 0.0778812 0)
(17.9235 0.0719534 0)
(18.5125 0.0650314 -1.86145e-20)
(18.9507 0.0591299 3.34674e-20)
(19.281 0.0539547 -1.51919e-20)
(19.53 0.0491043 1.34225e-20)
(19.7154 0.0444384 -2.45603e-20)
(19.8504 0.0399624 3.77009e-22)
(19.9461 0.0357795 1.99841e-20)
(20.012 0.0320054 -1.79427e-20)
(20.0561 0.0287231 8.22118e-21)
(20.0844 0.025948 0)
(20.1016 0.0237585 0)
(15.3605 0.0374146 0)
(16.2936 0.0719488 0)
(17.2946 0.0767809 0)
(18.076 0.0710926 0)
(18.6452 0.0643291 0)
(19.0608 0.0585617 0)
(19.3676 0.0535338 0)
(19.594 0.0488944 0)
(19.7594 0.044514 0)
(19.8781 0.0403941 0)
(19.9617 0.0365999 0)
(20.0194 0.0331839 0)
(20.0583 0.030165 0)
(20.0838 0.0275319 0)
(20.0997 0.0254436 0)
(15.5139 0.0371227 0)
(16.4439 0.071247 5.84839e-21)
(17.4356 0.0763519 -1.49639e-20)
(18.2029 0.0708971 8.79525e-21)
(18.7545 0.0642827 -7.35113e-21)
(19.1504 0.0585872 2.66192e-22)
(19.437 0.053608 1.75442e-20)
(19.6447 0.0490441 -4.25984e-22)
(19.7938 0.0447878 -3.85081e-22)
(19.8997 0.0408454 -1.71015e-20)
(19.9738 0.037262 3.23754e-22)
(20.0249 0.0340586 7.17879e-21)
(20.0598 0.0312233 -3.11108e-21)
(20.083 0.0287276 2.95305e-21)
(20.0979 0.0267429 0)
(15.6435 0.0371287 -3.12802e-21)
(16.5721 0.0711118 -2.59844e-21)
(17.5558 0.0765563 4.72251e-21)
(18.3102 0.0713802 0)
(18.8458 0.0649215 0)
(19.2243 0.0592462 5.69538e-21)
(19.4936 0.0542234 -3.09996e-22)
(19.6855 0.0496102 -9.07525e-21)
(19.8214 0.0453321 8.05709e-21)
(19.9168 0.0414105 -3.69774e-21)
(19.9833 0.0378793 0)
(20.0293 0.034748 0)
(20.0608 0.031997 0)
(20.0821 0.0296014 -1.20043e-21)
(20.0962 0.027736 1.15389e-21)
(15.7542 0.0371565 -3.00263e-21)
(16.6822 0.0716924 2.66472e-21)
(17.659 0.0777735 0)
(18.4017 0.0728823 -3.50569e-21)
(18.9228 0.0664243 9.10516e-21)
(19.2856 0.0605902 -5.46216e-21)
(19.54 0.055349 -4.25979e-21)
(19.7185 0.0505322 4.00477e-21)
(19.8434 0.0460999 0)
(19.9304 0.0420585 0)
(19.9908 0.0384482 -2.5519e-21)
(20.0327 0.0352817 2.43956e-21)
(20.0615 0.0325396 0)
(20.0813 0.0302047 0)
(20.0946 0.0284848 0)
(15.8528 0.0381399 0)
(16.7805 0.0733043 0)
(17.7497 0.0799021 0)
(18.4804 0.0751379 0)
(18.9877 0.0686467 2.59367e-21)
(19.3367 0.0625494 -2.42099e-21)
(19.5779 0.056935 0)
(19.7453 0.0517559 0)
(19.8612 0.0469705 2.45258e-21)
(19.9413 0.0426608 -4.46606e-21)
(19.9968 0.0388576 1.36392e-22)
(20.0353 0.0355786 1.82555e-21)
(20.062 0.0328053 0)
(20.0805 0.0304868 0)
(20.0932 0.0287879 0)
(15.936 0.0374873 1.65501e-21)
(16.8624 0.0767656 -1.48798e-21)
(17.8247 0.0850137 1.95473e-21)
(18.5467 0.079665 1.13551e-21)
(19.0429 0.0721099 -5.17294e-22)
(19.379 0.0650977 -2.06642e-21)
(19.6093 0.058634 0)
(19.7667 0.0528953 -2.05435e-21)
(19.8748 0.0478634 1.95606e-21)
(19.9495 0.0431709 0)
(20.0011 0.0390617 0)
(20.0371 0.0356255 5.64292e-22)
(20.0621 0.0328011 -1.08965e-21)
(20.0797 0.0305593 5.28197e-22)
(20.0919 0.0289754 0)
(16.0316 0.0430085 0)
(16.9555 0.0851999 0)
(17.8997 0.0907128 1.59633e-21)
(18.6071 0.0819892 -1.47069e-21)
(19.0885 0.0752058 0)
(19.4135 0.0679443 0)
(19.6334 0.0604848 0)
(19.785 0.054702 0)
(19.8869 0.048664 -3.14377e-22)
(19.9563 0.0432651 3.01767e-22)
(20.005 0.03882 0)
(20.0386 0.0352346 0)
(20.0624 0.0324787 0)
(20.0791 0.0303305 0)
(20.091 0.0289336 0)
(16.0713 0.0280919 1.39318e-21)
(16.9839 0.0969095 -1.25807e-21)
(17.9174 0.105213 0)
(18.6468 0.0895327 0)
(19.1333 0.0810267 0)
(19.4403 0.0704298 0)
(19.6598 0.0608217 0)
(19.7981 0.0543411 0)
(19.8896 0.0498732 0)
(19.9599 0.0432931 1.30757e-22)
(20.0047 0.0384779 -2.27643e-22)
(20.0391 0.0346473 9.8526e-23)
(20.0613 0.0319051 0)
(20.0781 0.0299495 0)
(20.0893 0.029095 0)
(19.4212 0.144163 0)
(19.9682 0.0903704 0)
(20.0724 0.105284 0)
(20.1281 0.116045 0)
(20.1616 0.127083 0)
(20.1818 0.137384 0)
(20.1925 0.147296 0)
(20.1957 0.156385 0)
(20.1926 0.163995 0)
(20.1843 0.169255 0)
(20.1721 0.171386 0)
(20.1575 0.169907 0)
(20.1421 0.164922 0)
(20.127 0.157194 0)
(20.1131 0.146685 0)
(17.5731 -0.28289 0)
(19.8913 0.203363 0)
(19.9466 0.111069 0)
(19.9947 0.102116 0)
(20.0389 0.106332 0)
(20.0761 0.112342 0)
(20.1061 0.118167 0)
(20.1292 0.123899 0)
(20.1455 0.12935 0)
(20.1549 0.134149 0)
(20.1577 0.137874 0)
(20.1546 0.140061 0)
(20.1467 0.140277 0)
(20.1355 0.138383 0)
(20.1227 0.133291 0)
(15.6365 -0.147139 -1.32913e-37)
(19.8756 0.232396 0)
(19.9696 0.116919 0)
(19.9869 0.115897 0)
(20.02 0.118276 0)
(20.0529 0.119064 0)
(20.0819 0.119757 0)
(20.1058 0.121004 0)
(20.1245 0.122587 0)
(20.1375 0.124207 0)
(20.145 0.125583 0)
(20.1469 0.126442 0)
(20.1439 0.126494 0)
(20.1367 0.125626 0)
(20.1265 0.122628 0)
(13.6468 -0.0650262 0)
(19.9004 0.168954 0)
(20.0486 0.07611 0)
(20.0313 0.0915288 0)
(20.0441 0.0940658 0)
(20.0662 0.0947312 0)
(20.0887 0.0959712 0)
(20.1085 0.0981803 0)
(20.1244 0.100998 0)
(20.1359 0.104158 0)
(20.1428 0.107368 0)
(20.145 0.11026 0)
(20.1429 0.112426 0)
(20.1371 0.113663 0)
(20.1285 0.112939 0)
(13.5511 0.0234155 0)
(19.2845 0.031722 0)
(19.931 0.0285567 0)
(20.0127 0.0573234 0)
(20.0348 0.0618159 0)
(20.0545 0.0648632 0)
(20.0752 0.0685937 0)
(20.0947 0.0731564 0)
(20.1115 0.0782314 0)
(20.1247 0.0836291 0)
(20.1337 0.0890895 0)
(20.1383 0.0942656 0)
(20.1387 0.0987337 0)
(20.1351 0.102204 0)
(20.1283 0.10376 0)
(14.4252 0.0573765 0)
(18.4067 -0.0457292 0)
(19.6126 0.0242195 0)
(19.9124 0.0491847 0)
(19.9911 0.0545385 0)
(20.0243 0.0584064 0)
(20.0485 0.0621084 0)
(20.0702 0.066085 0)
(20.0896 0.0704794 0)
(20.1059 0.0752893 0)
(20.1183 0.0803444 0)
(20.1266 0.0853791 0)
(20.1305 0.0900412 0)
(20.1301 0.0940367 0)
(20.126 0.0966229 0)
(14.957 0.0259936 4.54582e-36)
(17.838 -0.0332893 0)
(19.2693 0.0350554 0)
(19.7746 0.0518884 0)
(19.9369 0.0600457 0)
(19.9975 0.0647015 0)
(20.0297 0.0676204 0)
(20.0536 0.0700314 0)
(20.0741 0.0726191 0)
(20.0917 0.0755984 0)
(20.1059 0.0789466 0)
(20.1164 0.082519 0)
(20.1226 0.0860722 0)
(20.1247 0.0893483 0)
(20.1229 0.0918585 0)
(15.096 0.00439456 0)
(17.5246 -0.00363144 0)
(18.9823 0.037126 0)
(19.627 0.0519361 0)
(19.8763 0.0632709 0)
(19.9734 0.0689624 0)
(20.0183 0.0718629 0)
(20.0458 0.0736385 0)
(20.0669 0.0752323 0)
(20.0845 0.0770257 0)
(20.099 0.0791347 0)
(20.11 0.0815209 0)
(20.1173 0.0840358 0)
(20.1207 0.0864537 0)
(20.1205 0.0884878 0)
(14.9983 0.00117726 -9.14071e-36)
(17.3281 0.0133071 0)
(18.7542 0.035005 0)
(19.482 0.0505151 0)
(19.8067 0.0630373 0)
(19.9439 0.0695449 0)
(20.0061 0.0729843 0)
(20.0397 0.0748645 0)
(20.0625 0.0761814 0)
(20.0803 0.077455 0)
(20.0947 0.0789205 0)
(20.1059 0.0806246 0)
(20.1137 0.0824938 0)
(20.1179 0.0843503 0)
(20.1187 0.0860845 0)
(14.8215 0.00320168 -9.21405e-36)
(17.1546 0.0185488 0)
(18.5641 0.033192 0)
(19.3458 0.0487767 0)
(19.7319 0.0611094 0)
(19.9079 0.0682944 0)
(19.99 0.0724522 0)
(20.0322 0.0747453 0)
(20.058 0.076142 0)
(20.0767 0.0772526 0)
(20.0914 0.0784022 0)
(20.1028 0.0797093 0)
(20.1109 0.0811622 0)
(20.1156 0.0826265 0)
(20.1171 0.0840409 0)
(14.6381 0.00454372 0)
(16.9802 0.0185827 0)
(18.3956 0.031735 0)
(19.2183 0.0465718 0)
(19.6553 0.0584546 0)
(19.8678 0.066248 0)
(19.9705 0.0710452 0)
(20.0229 0.0738171 0)
(20.0531 0.0754586 0)
(20.0733 0.0766063 0)
(20.0884 0.0776395 0)
(20.1001 0.0787315 0)
(20.1085 0.0799172 0)
(20.1137 0.0811009 0)
(20.1157 0.0822247 0)
(14.4691 0.00476009 9.16345e-36)
(16.8084 0.0171236 0)
(18.2397 0.0300273 0)
(19.0964 0.0439646 0)
(19.5778 0.0556104 0)
(19.8247 0.0638921 0)
(19.9484 0.0691677 0)
(20.012 0.0723814 0)
(20.0474 0.0743209 0)
(20.0698 0.0756035 0)
(20.0858 0.0766374 0)
(20.0978 0.0776374 0)
(20.1066 0.0786752 0)
(20.1122 0.0796907 0)
(20.1147 0.0806378 0)
(14.3169 0.00448404 0)
(16.6448 0.0155667 0)
(18.0917 0.0281243 0)
(18.9777 0.0413385 0)
(19.4993 0.0529235 0)
(19.7795 0.0615349 0)
(19.924 0.0671624 0)
(19.9995 0.0707559 0)
(20.0409 0.0729854 0)
(20.0661 0.0744319 0)
(20.0832 0.0755175 0)
(20.0957 0.0764896 0)
(20.1048 0.0774531 0)
(20.1108 0.0783842 0)
(20.1137 0.0792766 0)
(14.1783 0.00410474 1.75462e-35)
(16.4916 0.0142908 0)
(17.9504 0.0262862 0)
(18.8618 0.0389292 0)
(19.4204 0.0504632 0)
(19.7325 0.0592653 0)
(19.8978 0.0651736 0)
(19.9855 0.0690911 0)
(20.0335 0.0715868 0)
(20.0619 0.0732028 0)
(20.0805 0.0743629 0)
(20.0937 0.0753365 0)
(20.1032 0.0762552 0)
(20.1095 0.077118 0)
(20.1128 0.0779196 0)
(14.05 0.00376005 -1.71415e-35)
(16.3484 0.0132845 0)
(17.8153 0.0246202 0)
(18.749 0.0367321 0)
(19.3413 0.0481695 0)
(19.6841 0.0570828 0)
(19.87 0.0632632 0)
(19.9703 0.0674577 0)
(20.0254 0.0701888 0)
(20.0574 0.0719669 0)
(20.0777 0.0732093 0)
(20.0917 0.0741984 0)
(20.1016 0.0750861 0)
(20.1083 0.07589 0)
(20.112 0.0766045 0)
(13.9299 0.00347669 0)
(16.2142 0.0124013 0)
(17.6869 0.0230586 0)
(18.6401 0.0346203 0)
(19.2622 0.0459072 0)
(19.6343 0.05493 0)
(19.841 0.0614164 0)
(19.954 0.0658559 0)
(20.0165 0.0688024 0)
(20.0524 0.07074 0)
(20.0747 0.0720744 0)
(20.0896 0.0730951 0)
(20.1001 0.0739736 0)
(20.1072 0.0747492 0)
(20.1114 0.0754432 0)
(13.8174 0.00323599 0)
(16.0883 0.0115474 0)
(17.5653 0.0215618 0)
(18.5352 0.0325832 0)
(19.183 0.043679 0)
(19.583 0.0528474 0)
(19.8107 0.0596427 0)
(19.9367 0.0643028 0)
(20.0069 0.0674504 0)
(20.0471 0.0695434 0)
(20.0716 0.0709751 0)
(20.0876 0.0720397 0)
(20.0986 0.0729253 0)
(20.1062 0.0736927 0)
(20.1107 0.0743867 0)
(13.7126 0.00301311 1.61585e-35)
(15.9705 0.0107301 0)
(17.4503 0.0201589 0)
(18.4339 0.0306862 0)
(19.1039 0.0415637 0)
(19.5303 0.050873 0)
(19.7791 0.0579362 0)
(19.9185 0.062802 0)
(19.9967 0.0661415 0)
(20.0414 0.0683846 0)
(20.0682 0.0699142 0)
(20.0855 0.0710271 0)
(20.0972 0.0719237 0)
(20.1051 0.07268 0)
(20.11 0.0733536 0)
(13.615 0.00280458 -1.57501e-35)
(15.8601 0.010012 0)
(17.341 0.0189157 0)
(18.3359 0.0290033 0)
(19.0252 0.039642 0)
(19.4765 0.0490416 0)
(19.7463 0.0563111 0)
(19.8994 0.0613711 0)