/*--------------------------------*- C++ -*----------------------------------*\
| =========                 |                                                 |
| \\      /  F ield         | OpenFOAM: The Open Source CFD Toolbox           |
|  \\    /   O peration     | Version:  2.3.0                                 |
|   \\  /    A nd           | Web:      www.OpenFOAM.org                      |
|    \\/     M anipulation  |                                                 |
\*---------------------------------------------------------------------------*/
FoamFile
{
    version     2.0;
    format      ascii;
    class       volScalarField;
    location    "10000";
    object      nuTilda;
}
// * * * * * * * * * * * * * * * * * * * * * * * * * * * * * * * * * * * * * //

dimensions      [0 2 -1 0 0 0 0];

internalField   nonuniform List<scalar> 
123060
(
0.0404689
0.0392347
0.0380177
0.0368169
0.0356331
0.034467
0.0333185
0.032188
0.0310753
0.0299801
0.0289025
0.0278429
0.0268007
0.0257755
0.024767
0.0237757
0.022801
0.021842
0.0208991
0.0199724
0.0190612
0.0181652
0.0172848
0.0164192
0.0155689
0.0147335
0.0139125
0.0131068
0.0123152
0.0115388
0.0107785
0.0100331
0.00930433
0.00859433
0.00790319
0.00723411
0.00659122
0.00597869
0.00540266
0.00487035
0.00437431
0.00386518
0.00304287
0.0411941
0.0400795
0.0389789
0.0378916
0.0368186
0.0357593
0.0347142
0.0336832
0.032666
0.0316625
0.0306733
0.0296975
0.0287352
0.0277863
0.0268503
0.0259267
0.0250161
0.0241178
0.0232316
0.0223582
0.0214966
0.020647
0.0198099
0.0189845
0.0181717
0.0173713
0.0165847
0.0158119
0.0150521
0.0143083
0.0135813
0.0128707
0.012182
0.0115156
0.0108755
0.0102669
0.00969491
0.00916613
0.00868882
0.00827121
0.0079242
0.00765312
0.00746183
0.0418793
0.0408707
0.0398735
0.0388871
0.0379115
0.0369465
0.0359924
0.035049
0.0341164
0.0331944
0.0322826
0.0313815
0.0304906
0.0296097
0.0287381
0.0278759
0.0270237
0.0261805
0.0253464
0.0245221
0.0237062
0.0229004
0.0221046
0.0213182
0.020542
0.0197767
0.019024
0.0182836
0.0175564
0.0168447
0.0161494
0.015473
0.0148187
0.0141879
0.0135861
0.0130172
0.0124869
0.0120003
0.0115634
0.0111835
0.0108649
0.0106121
0.0104273
0.0425234
0.0416088
0.0407032
0.0398058
0.0389162
0.0380344
0.0371603
0.036294
0.0354354
0.0345841
0.0337406
0.0329052
0.0320764
0.0312549
0.0304401
0.0296321
0.028831
0.028036
0.0272478
0.0264659
0.0256904
0.0249228
0.024163
0.0234103
0.022666
0.0219317
0.0212072
0.0204941
0.0197937
0.0191076
0.0184373
0.0177866
0.0171572
0.0165523
0.015976
0.0154325
0.0149262
0.0144622
0.0140461
0.0136821
0.0133743
0.0131282
0.0129441
0.0431242
0.0422939
0.0414696
0.0406514
0.0398374
0.0390285
0.0382249
0.0374259
0.0366316
0.0358424
0.0350587
0.0342796
0.0335052
0.0327355
0.0319702
0.0312094
0.0304525
0.0296994
0.0289502
0.0282052
0.0274651
0.0267302
0.0260006
0.0252769
0.0245603
0.023851
0.0231499
0.022459
0.02178
0.0211138
0.0204636
0.0198317
0.0192204
0.0186333
0.0180749
0.0175471
0.0170555
0.0166044
0.0161984
0.0158424
0.0155397
0.0152947
0.015108
0.0436822
0.0429275
0.0421763
0.0414273
0.0406803
0.0399358
0.0391935
0.0384535
0.0377155
0.0369804
0.0362478
0.035518
0.0347902
0.034065
0.033343
0.0326231
0.0319044
0.0311877
0.0304729
0.02976
0.0290497
0.0283422
0.0276387
0.026939
0.0262447
0.0255563
0.0248744
0.0242018
0.02354
0.0228901
0.0222547
0.0216368
0.0210391
0.0204649
0.0199173
0.0194005
0.0189188
0.0184759
0.0180763
0.0177239
0.0174232
0.0171771
0.0169874
0.0441999
0.0435124
0.0428251
0.0421381
0.0414502
0.0407616
0.040074
0.0393856
0.0386964
0.0380074
0.0373193
0.0366322
0.035945
0.0352583
0.0345735
0.033889
0.0332043
0.0325189
0.0318334
0.0311484
0.0304638
0.0297803
0.029098
0.0284183
0.0277426
0.0270718
0.0264068
0.0257492
0.0250998
0.0244625
0.0238384
0.0232312
0.0226437
0.0220789
0.0215404
0.0210315
0.0205565
0.0201184
0.0197218
0.0193719
0.019071
0.0188231
0.01863
0.0446789
0.0440513
0.0434201
0.0427883
0.0421517
0.0415125
0.0408727
0.0402302
0.0395829
0.0389341
0.0382841
0.0376348
0.036983
0.0363289
0.035675
0.0350221
0.0343679
0.0337102
0.0330484
0.0323883
0.0317267
0.0310639
0.0303998
0.0297366
0.029076
0.0284205
0.0277705
0.0271241
0.0264842
0.0258569
0.0252421
0.0246426
0.024062
0.0235051
0.0229739
0.0224701
0.0219998
0.0215655
0.0211719
0.0208228
0.0205198
0.0202709
0.0200737
0.0451223
0.0445511
0.0439649
0.0433837
0.0427915
0.0421923
0.0415937
0.0409951
0.0403836
0.0397709
0.039151
0.0385341
0.0379142
0.037286
0.0366571
0.0360298
0.0354036
0.0347753
0.0341301
0.0334926
0.0328506
0.0322082
0.0315584
0.0309109
0.0302605
0.0296169
0.02898
0.0283477
0.0277129
0.0270917
0.0264835
0.0258898
0.0253131
0.0247609
0.0242375
0.0237378
0.0232712
0.0228407
0.0224483
0.0221025
0.0217947
0.0215485
0.0213433
0.00275157
0.00319512
0.00356211
0.00388717
0.00422135
0.00458155
0.00496455
0.00537368
0.00580255
0.00625164
0.00671867
0.00720485
0.00770812
0.00822807
0.00876425
0.00931387
0.00988067
0.0104609
0.0110555
0.0116652
0.0122892
0.0129274
0.01358
0.0142472
0.0149282
0.0156247
0.016335
0.0170605
0.0178008
0.0185564
0.0193267
0.0201129
0.0209145
0.0217318
0.022565
0.0234147
0.0242805
0.0251629
0.0260616
0.026977
0.0279086
0.028856
0.0298182
0.00735042
0.00731652
0.00735649
0.00746474
0.00763666
0.00786448
0.00814215
0.00846199
0.00881856
0.00920645
0.00962314
0.0100632
0.0105255
0.0110064
0.0115051
0.0120211
0.012551
0.0130955
0.0136544
0.0142259
0.0148102
0.0154068
0.0160163
0.0166368
0.0172699
0.0179145
0.0185713
0.01924
0.0199208
0.0206138
0.0213196
0.0220371
0.0227679
0.0235111
0.0242674
0.0250366
0.0258193
0.0266155
0.0274255
0.0282489
0.0290859
0.0299365
0.0308008
0.010309
0.0102547
0.0102635
0.0103355
0.0104667
0.0106515
0.0108852
0.0111624
0.0114776
0.0118275
0.0122068
0.0126132
0.0130408
0.0134905
0.0139572
0.0144409
0.0149397
0.0154526
0.0159782
0.0165156
0.0170647
0.0176242
0.0181943
0.0187744
0.0193647
0.0199647
0.020574
0.0211938
0.0218234
0.0224626
0.0231114
0.0237706
0.0244393
0.0251184
0.0258078
0.0265077
0.0272187
0.0279403
0.0286727
0.029416
0.0301704
0.0309359
0.0317123
0.0128195
0.0127538
0.012748
0.0128003
0.0129082
0.0130679
0.0132748
0.0135251
0.0138131
0.0141358
0.0144885
0.0148672
0.0152701
0.015693
0.0161347
0.0165925
0.0170647
0.0175506
0.0180474
0.0185558
0.0190737
0.0196018
0.0201377
0.020683
0.0212362
0.0217979
0.0223677
0.0229449
0.0235298
0.0241225
0.0247232
0.0253308
0.0259467
0.0265702
0.0272018
0.027842
0.0284905
0.0291471
0.0298122
0.0304857
0.0311676
0.031858
0.0325572
0.0149787
0.0149056
0.0148898
0.0149295
0.0150228
0.0151661
0.0153558
0.0155873
0.0158572
0.0161606
0.0164939
0.0168533
0.0172363
0.0176396
0.0180606
0.0184975
0.0189483
0.0194111
0.0198844
0.0203681
0.0208602
0.0213605
0.0218684
0.0223838
0.0229065
0.0234353
0.0239703
0.0245115
0.0250588
0.0256121
0.0261703
0.0267346
0.0273043
0.0278802
0.0284624
0.0290507
0.029645
0.0302453
0.0308518
0.031464
0.0320823
0.0327064
0.0333361
0.0168532
0.0167746
0.0167514
0.0167822
0.0168653
0.0169974
0.017175
0.0173936
0.0176507
0.0179403
0.0182586
0.0186038
0.0189717
0.0193593
0.0197636
0.0201841
0.0206172
0.0210609
0.0215147
0.0219769
0.0224471
0.0229241
0.0234085
0.0238987
0.0243949
0.0248966
0.0254027
0.0259135
0.0264285
0.0269472
0.0274695
0.0279955
0.0285261
0.0290615
0.0296008
0.0301443
0.0306918
0.0312431
0.0317982
0.0323571
0.0329196
0.0334857
0.0340549
0.0184919
0.0184082
0.0183794
0.0184041
0.0184795
0.0186036
0.0187721
0.0189822
0.0192291
0.0195083
0.0198166
0.0201506
0.0205062
0.0208803
0.0212727
0.0216787
0.0220973
0.0225259
0.022962
0.0234054
0.0238566
0.0243149
0.024779
0.0252486
0.0257241
0.0262019
0.0266829
0.0271675
0.027655
0.0281438
0.0286342
0.0291281
0.0296256
0.0301259
0.0306288
0.0311336
0.0316402
0.0321486
0.0326591
0.0331713
0.0336849
0.0342002
0.0347175
0.0199331
0.0198449
0.0198111
0.0198303
0.0198996
0.0200176
0.0201803
0.0203839
0.0206242
0.0208957
0.0211953
0.0215193
0.0218646
0.022229
0.0226111
0.0230056
0.0234135
0.0238268
0.0242463
0.024674
0.0251107
0.0255533
0.0260003
0.0264537
0.0269118
0.0273674
0.0278267
0.0282909
0.0287538
0.0292153
0.0296786
0.0301454
0.0306155
0.031086
0.031557
0.0320279
0.0324985
0.0329697
0.0334417
0.0339128
0.0343834
0.034854
0.0353257
0.021207
0.0211131
0.0210757
0.0210891
0.0211536
0.021267
0.0214251
0.0216246
0.0218616
0.0221248
0.0224163
0.0227326
0.0230689
0.0234242
0.0238017
0.0241831
0.0245874
0.0249781
0.025383
0.0257984
0.026228
0.026655
0.0270883
0.0275291
0.0279754
0.0284019
0.0288489
0.0292953
0.029732
0.0301691
0.0306107
0.0310581
0.0315071
0.0319494
0.032395
0.0328357
0.0332742
0.0337139
0.0341534
0.0345881
0.0350224
0.0354545
0.0358891
0.00960146
0.0090252
0.00847553
0.00795179
0.00745321
0.006979
0.00652846
0.00610082
0.00569526
0.00531106
0.0049475
0.00460399
0.00428002
0.00397531
0.00368989
0.00342418
0.00317931
0.00295746
0.00276209
0.00259122
0.00243914
0.00230131
0.00217461
0.00205686
0.00194636
0.00184172
0.00174179
0.00164551
0.0015519
0.00146007
0.00136918
0.00127847
0.00118721
0.00109471
0.00100033
0.000903533
0.000803833
0.000700888
0.00059461
0.000485367
0.00037442
0.000262266
0.00011467
0.00956354
0.00903049
0.00852004
0.00803157
0.00756445
0.00711812
0.006692
0.00628543
0.00589778
0.00552847
0.00517692
0.00484263
0.00452514
0.00422421
0.00393971
0.00367186
0.00342129
0.00318933
0.00297852
0.00279119
0.00262462
0.0024744
0.00233716
0.00221034
0.002092
0.00198056
0.00187468
0.00177317
0.00167501
0.00157919
0.00148481
0.00139098
0.00129687
0.00120167
0.00110464
0.00100507
0.000902394
0.000796199
0.000686379
0.000573229
0.000456988
0.000334194
0.000188869
0.00953111
0.00903952
0.00856665
0.00811208
0.00767529
0.0072558
0.00685315
0.00646691
0.00609661
0.00574178
0.00540194
0.00507672
0.00476579
0.00446888
0.0041859
0.00391691
0.00366226
0.00342282
0.00320028
0.00299744
0.00281581
0.00265199
0.00250252
0.00236486
0.00223696
0.00211711
0.00200384
0.00189586
0.00179198
0.00169113
0.00159231
0.00149451
0.0013968
0.00129824
0.00119795
0.00109508
0.000988892
0.000878836
0.000764673
0.000646356
0.000522625
0.000386598
0.000248185
0.00950566
0.00904968
0.00861067
0.00818705
0.00777811
0.00738338
0.00700249
0.00663515
0.00628103
0.00593976
0.00561102
0.0052945
0.00499
0.00469732
0.00441636
0.00414716
0.00388996
0.00364535
0.00341446
0.00319951
0.00300365
0.00282633
0.00266427
0.00251498
0.00237653
0.00224722
0.00212556
0.00201016
0.00189973
0.00179311
0.00168915
0.0015868
0.00148499
0.00138266
0.00127879
0.00117238
0.00106253
0.000948534
0.000829938
0.000706164
0.000574329
0.000425857
0.000299322
0.00948059
0.00905937
0.00865138
0.00825589
0.0078723
0.00750019
0.00713926
0.00678929
0.0064501
0.00612142
0.00580307
0.0054948
0.00519649
0.00490804
0.00462939
0.0043606
0.00410189
0.00385365
0.00361672
0.00339274
0.00318465
0.0029947
0.00282049
0.00265958
0.00251019
0.00237085
0.00224012
0.00211664
0.00199905
0.00188609
0.00177655
0.00166924
0.00156299
0.00145664
0.00134902
0.00123899
0.00112551
0.00100771
0.000884878
0.000755766
0.000616004
0.000457327
0.000347395
0.00945702
0.00906806
0.00868871
0.00831893
0.00795843
0.00760694
0.00726425
0.00693022
0.00660475
0.00628772
0.00597901
0.00567848
0.00538608
0.00510176
0.00482554
0.00455751
0.00429789
0.00404702
0.00380555
0.00357476
0.00335695
0.0031555
0.00296997
0.00279796
0.00263783
0.00248831
0.0023482
0.00221623
0.00209106
0.00197139
0.00185592
0.00174338
0.0016325
0.001522
0.00141057
0.00129695
0.00117994
0.00105851
0.000931679
0.000797535
0.00065048
0.000484209
0.000394476
0.00943579
0.00907598
0.00872285
0.00837665
0.00803731
0.00770469
0.00737867
0.00705922
0.00674633
0.00644
0.00614027
0.0058471
0.00556033
0.00527996
0.0050061
0.00473893
0.00447875
0.00422589
0.00398087
0.00374465
0.00351912
0.00330755
0.00311172
0.00292946
0.00275915
0.00259969
0.00245018
0.00230956
0.0021766
0.00205001
0.00192845
0.00181055
0.00169491
0.00158017
0.00146498
0.00134791
0.00122757
0.00110277
0.000972211
0.000833345
0.000679618
0.000508201
0.000441306
0.0094174
0.00908344
0.00875414
0.00842966
0.00811002
0.00779487
0.00748422
0.00717817
0.00687678
0.00658014
0.00628872
0.00600279
0.00572202
0.00544578
0.00517433
0.00490778
0.00464696
0.0043925
0.00414467
0.00390396
0.00367157
0.00345084
0.00324528
0.0030535
0.00287398
0.00270548
0.00254667
0.00239729
0.00225638
0.00212248
0.00199455
0.00187124
0.00175113
0.00163211
0.00151264
0.00139183
0.00126819
0.00114031
0.00100668
0.000863869
0.000704623
0.000530392
0.000486622
0.0094013
0.0090903
0.00878266
0.00847854
0.00817819
0.00787978
0.0075838
0.00729037
0.00699984
0.00671153
0.00642695
0.00614851
0.00587731
0.00560719
0.0053404
0.00507453
0.0048116
0.00455604
0.00430671
0.00406526
0.00382586
0.0035941
0.00337681
0.00317405
0.00298384
0.00281155
0.00264718
0.00248702
0.00234112
0.00219915
0.00206224
0.0019316
0.00180534
0.00168985
0.00157032
0.0014444
0.00131577
0.00118164
0.00104096
0.000892247
0.000725957
0.000550418
0.000535721
9.84907e-05
0.000179426
0.000267776
0.000378751
0.000511129
0.000666583
0.000840987
0.00103163
0.00123802
0.00145986
0.00169704
0.00194952
0.00221734
0.0025006
0.00279943
0.00311399
0.00344453
0.00379116
0.00415415
0.00453373
0.00493009
0.00534348
0.00577411
0.00622212
0.0066877
0.00717098
0.00767195
0.00819074
0.00872724
0.00928135
0.00985287
0.0104414
0.0110466
0.0116677
0.0123039
0.0129543
0.0136174
0.0142918
0.0149753
0.0156657
0.0163599
0.0170547
0.0177468
0.000172847
0.000269002
0.000391645
0.000539088
0.000705129
0.000889088
0.00109444
0.00131764
0.00155652
0.00181043
0.00207902
0.002362
0.00265922
0.0029705
0.00329579
0.00363503
0.00398824
0.00435544
0.0047366
0.00513183
0.00554114
0.00596457
0.00640218
0.00685405
0.00732008
0.00780034
0.00829475
0.00880318
0.00932551
0.00986152
0.0104109
0.0109733
0.0115481
0.0121347
0.0127324
0.0133401
0.0139567
0.0145807
0.0152103
0.0158436
0.016478
0.0171104
0.0177367
0.000251772
0.000372654
0.000530076
0.000712354
0.000912159
0.00112783
0.0013613
0.00161522
0.00188495
0.00216909
0.00246699
0.00277826
0.00310248
0.00343935
0.00378862
0.00415011
0.0045236
0.00490891
0.00530597
0.00571462
0.0061348
0.00656636
0.00700922
0.00746324
0.00792838
0.00840443
0.00889121
0.00938856
0.00989621
0.0104139
0.0109412
0.0114777
0.0120228
0.012576
0.0131364
0.0137033
0.0142753
0.0148515
0.0154301
0.0160095
0.0165876
0.017162
0.0177299
0.000332812
0.000482808
0.000673114
0.00088769
0.00111907
0.00136521
0.0016268
0.00190731
0.00220497
0.00251658
0.00284104
0.00317768
0.00352595
0.00388545
0.00425575
0.00463648
0.00502739
0.00542812
0.00583843
0.00625809
0.00668682
0.00712441
0.00757066
0.00802532
0.00848821
0.00895905
0.0094376
0.00992357
0.0104167
0.0109165
0.0114226
0.0119346
0.012452
0.0129741
0.0135001
0.0140294
0.0145609
0.0150934
0.0156259
0.0161568
0.0166845
0.0172069
0.0177214
0.000414584
0.000594443
0.000815151
0.00105946
0.00132004
0.00159448
0.00188284
0.00218736
0.0025096
0.00284584
0.0031941
0.00355343
0.00392309
0.00430253
0.00469126
0.00508877
0.00549465
0.00590847
0.00632984
0.00675846
0.00719393
0.00763592
0.00808417
0.00853834
0.0089981
0.00946313
0.00993311
0.0104078
0.0108867
0.0113695
0.0118558
0.012345
0.0128366
0.0133302
0.0138249
0.0143201
0.0148148
0.0153083
0.0157994
0.0162869
0.0167698
0.0172466
0.0177165
0.000495729
0.000704312
0.000952998
0.00122462
0.00151195
0.00181242
0.00212558
0.00245273
0.00279622
0.00315422
0.00352375
0.00390332
0.00429205
0.00468919
0.00509415
0.00550632
0.00592516
0.00635017
0.00678088
0.00721684
0.00765759
0.00810273
0.00855184
0.00900462
0.00946063
0.00991948
0.0103808
0.0108444
0.0113098
0.0117766
0.0122443
0.0127125
0.0131806
0.0136482
0.0141144
0.0145787
0.0150404
0.0154987
0.0159528
0.0164017
0.0168441
0.0172788
0.0177036
0.000575278
0.00081058
0.00108482
0.00138137
0.00169321
0.00201751
0.00235347
0.00270179
0.0030644
0.0034415
0.00383004
0.00422782
0.00463363
0.0050466
0.00546594
0.005891
0.00632113
0.00675577
0.00719439
0.00763637
0.0080811
0.00852818
0.00897723
0.00942778
0.0098794
0.0103317
0.0107843
0.0112371
0.0116898
0.0121417
0.0125922
0.013041
0.0134878
0.0139319
0.0143725
0.0148088
0.0152406
0.0156675
0.0160887
0.016503
0.0169094
0.0173067
0.0176936
0.00065049
0.00091053
0.00120876
0.00152906
0.00186412
0.00221073
0.00256762
0.00293541
0.00331599
0.00371035
0.00411619
0.00453052
0.00495176
0.00537889
0.00581097
0.00624715
0.00668693
0.00712983
0.00757516
0.00802175
0.00846881
0.00891655
0.00936456
0.00981201
0.0102582
0.0107032
0.0111469
0.0115893
0.0120305
0.0124691
0.0129031
0.0133338
0.0137622
0.0141857
0.0146026
0.015013
0.015418
0.0158171
0.0162094
0.0165933
0.0169674
0.0173319
0.0176866
0.000732934
0.00101983
0.00134439
0.00168767
0.00204311
0.00240587
0.00277542
0.00315834
0.00355762
0.00397036
0.00439277
0.0048213
0.00525584
0.00569513
0.00613769
0.0065821
0.00702951
0.00747954
0.00793071
0.00837955
0.00882553
0.00927267
0.00971891
0.0101615
0.0106
0.0110367
0.0114707
0.0119037
0.0123365
0.0127633
0.0131785
0.0135935
0.0140093
0.0144142
0.0148077
0.0151929
0.0155747
0.0159498
0.0163179
0.0166753
0.0170194
0.0173541
0.0176823
0.000220109
0.000819469
0.00146664
0.00213797
0.00282776
0.00353117
0.00424638
0.00497321
0.00571059
0.00645945
0.00721823
0.00798932
0.00877245
0.00956737
0.0103761
0.0111976
0.0120336
0.0128838
0.0137482
0.0146286
0.0155246
0.0164369
0.017366
0.0183119
0.0192745
0.0202549
0.0212529
0.0222689
0.0233031
0.0243563
0.0254278
0.0265178
0.0276277
0.0287567
0.029905
0.031073
0.03226
0.0334665
0.0346922
0.035937
0.0371996
0.0384804
0.0397799
3.81317e-05
0.000394661
0.000865908
0.00141091
0.0020048
0.00263534
0.00329531
0.00397974
0.00468561
0.00541075
0.00615381
0.00691432
0.00769143
0.00848512
0.00929507
0.0101214
0.0109635
0.0118219
0.0126974
0.0135894
0.0144982
0.0154243
0.016368
0.0173289
0.0183071
0.0193037
0.0203191
0.0213529
0.0224053
0.0234762
0.0245659
0.0256751
0.0268033
0.027951
0.0291185
0.0303049
0.0315106
0.0327353
0.0339798
0.035243
0.0365243
0.0378244
0.0391443
6.8658e-05
0.000342763
0.000725418
0.0011782
0.00168444
0.00223472
0.00282226
0.00344332
0.00409433
0.00477236
0.00547498
0.0062019
0.00695143
0.00772213
0.00851425
0.0093261
0.0101574
0.0110079
0.0118784
0.0127677
0.0136758
0.0146031
0.0155494
0.0165144
0.0174985
0.0185019
0.0195245
0.0205666
0.0216278
0.0227083
0.0238088
0.0249287
0.0260684
0.027228
0.0284073
0.0296062
0.0308243
0.0320619
0.0333194
0.0345953
0.0358905
0.0372042
0.0385382
6.77565e-05
0.000307115
0.00063968
0.00103674
0.00148582
0.00197968
0.00251325
0.00308292
0.00368668
0.00432141
0.00498465
0.00567582
0.00639329
0.00713616
0.00790343
0.0086943
0.00950721
0.0103426
0.0112003
0.0120792
0.0129789
0.0138999
0.014842
0.0158045
0.016788
0.0177917
0.0188158
0.0198604
0.0209257
0.0220112
0.023117
0.0242437
0.0253907
0.026558
0.0277454
0.0289532
0.0301805
0.0314282
0.0326955
0.0339822
0.0352884
0.0366138
0.0379609
6.04526e-05
0.000271908
0.000569707
0.000928866
0.00133796
0.00179157
0.00228478
0.00281475
0.00337982
0.00397736
0.00460596
0.00526436
0.00595144
0.00666588
0.00740754
0.00817461
0.00896658
0.00978385
0.0106248
0.0114891
0.0123767
0.0132874
0.0142212
0.015177
0.016155
0.0171548
0.0181766
0.0192207
0.0202857
0.0213722
0.0224807
0.0236104
0.0247615
0.0259334
0.0271264
0.0283402
0.0295744
0.0308296
0.0321047
0.0333996
0.0347143
0.036049
0.0374047
5.71836e-05
0.000245538
0.000517248
0.00084788
0.00122632
0.00164793
0.00210896
0.00260658
0.00313872
0.00370459
0.00430269
0.00493132
0.00558991
0.0062778
0.00699424
0.00773801
0.00850866
0.0093058
0.0101285
0.0109767
0.0118497
0.0127479
0.0136701
0.0146166
0.0155868
0.0165799
0.0175967
0.0186366
0.019699
0.0207846
0.0218923
0.0230228
0.0241753
0.0253493
0.0265457
0.0277637
0.0290026
0.0302626
0.0315436
0.0328447
0.0341664
0.0355075
0.0368686
5.59013e-05
0.000226406
0.000477725
0.000785283
0.00113907
0.00153451
0.00196839
0.00243836
0.00294314
0.00348178
0.00405259
0.00465472
0.00528772
0.00595064
0.0066432
0.00736421
0.00811379
0.00889081
0.00969537
0.0105263
0.0113843
0.0122683
0.0131778
0.014113
0.0150731
0.0160581
0.0170679
0.0181015
0.0191597
0.0202412
0.0213468
0.0224757
0.0236277
0.0248025
0.0260001
0.0272198
0.0284613
0.0297252
0.03101
0.0323163
0.0336429
0.0349894
0.0363556
5.49977e-05
0.000211258
0.000445879
0.000734382
0.00106778
0.00144129
0.00185245
0.00229928
0.0027805
0.00329479
0.00384157
0.00442027
0.00502982
0.00567018
0.00634021
0.00704002
0.00776919
0.00852712
0.00931313
0.0101271
0.0109693
0.0118386
0.0127345
0.013657
0.0146064
0.0155821
0.0165828
0.0176091
0.018661
0.0197377
0.0208388
0.0219647
0.0231146
0.0242885
0.0254857
0.0267056
0.0279487
0.0292145
0.0305022
0.0318119
0.0331424
0.0344934
0.0358654
5.42315e-05
0.000198958
0.000419684
0.000692021
0.0010082
0.0013632
0.00175492
0.00218171
0.00264211
0.00313538
0.00366101
0.00421813
0.00480655
0.00542611
0.00607573
0.00675568
0.00746559
0.0082051
0.00897319
0.00977065
0.0105968
0.0114508
0.0123327
0.0132428
0.0141804
0.0151452
0.0161365
0.0171546
0.018199
0.019269
0.0203651
0.0214863
0.0226329
0.023804
0.0249996
0.0262188
0.0274621
0.0287284
0.030018
0.0313297
0.0326633
0.0340185
0.0353952
5.35224e-05
0.000188626
0.000397408
0.000655796
0.000957103
0.00129624
0.00167109
0.0020801
0.00252227
0.00299698
0.00350386
0.00404192
0.00461131
0.00521161
0.00584257
0.00650387
0.00719559
0.00791698
0.00866829
0.0094492
0.0102596
0.0110991
0.0119674
0.0128644
0.0137896
0.0147429
0.0157242
0.0167331
0.0177688
0.0188316
0.0199212
0.0210372
0.0221792
0.0233468
0.0245395
0.0257571
0.0269991
0.0282654
0.0295556
0.0308687
0.0322043
0.0335625
0.0349444
5.27267e-05
0.000179669
0.0003785
0.00062485
0.000913125
0.00123836
0.00159818
0.00199161
0.0024174
0.00287542
0.00336534
0.00388631
0.00443809
0.00502104
0.00563449
0.00627877
0.00695311
0.00765787
0.00839291
0.00915801
0.00995314
0.0107782
0.0116325
0.0125161
0.0134291
0.0143711
0.0153415
0.0163406
0.0173675
0.0184225
0.0195048
0.0206149
0.0217513
0.0229145
0.0241038
0.0253185
0.0265587
0.027824
0.0291136
0.0304268
0.0317635
0.0331236
0.0345076
5.19877e-05
0.000171899
0.00036191
0.000597901
0.000874479
0.00118721
0.00153381
0.00191318
0.00232471
0.0027679
0.00324227
0.00374726
0.00428329
0.0048497
0.00544712
0.00607522
0.00673383
0.00742282
0.00814266
0.00889266
0.00967316
0.0104838
0.0113242
0.0121948
0.0130958
0.0140262
0.0149856
0.0159744
0.0169923
0.0180388
0.0191139
0.0202166
0.0213469
0.0225049
0.0236898
0.0249015
0.0261388
0.0274019
0.0286898
0.0300027
0.0313398
0.0326999
0.0340832
5.14253e-05
0.00016574
0.000347626
0.000574337
0.000840399
0.00114194
0.0014768
0.00184379
0.00224236
0.00267185
0.00313183
0.00362261
0.00414383
0.00469559
0.0052781
0.00589097
0.00653453
0.00720887
0.00791379
0.00864929
0.0094157
0.0102126
0.0110397
0.0118979
0.0127865
0.0137049
0.0146536
0.0156322
0.0166406
0.0176782
0.018745
0.0198403
0.0209642
0.0221163
0.0232964
0.0245037
0.025738
0.0269981
0.0282843
0.0295962
0.0309322
0.0322918
0.0336754
5.11203e-05
0.000162374
0.000334973
0.000553273
0.000809955
0.00110168
0.00142586
0.00178162
0.00216801
0.00258483
0.00303218
0.00350975
0.00401742
0.00455569
0.00512421
0.00572296
0.00635233
0.00701262
0.00770363
0.00842525
0.00917823
0.00996179
0.0107765
0.011622
0.0124984
0.0134053
0.014343
0.0153114
0.0163099
0.0173383
0.0183967
0.0194845
0.0206017
0.0217474
0.0229219
0.0241247
0.0253547
0.0266118
0.0278957
0.0292055
0.0305405
0.031901
0.0332874
5.12295e-05
0.000162514
0.000323984
0.000534445
0.000782617
0.00106525
0.0013797
0.00172506
0.00210056
0.00250599
0.00294162
0.003407
0.00390216
0.00442769
0.00498304
0.00556864
0.00618493
0.00683221
0.00751001
0.0082188
0.00895841
0.00972931
0.0105315
0.0113649
0.0122293
0.0131251
0.0140519
0.0150101
0.0159986
0.0170178
0.0180674
0.0191479
0.0202574
0.0213965
0.0225651
0.0237623
0.024988
0.0262417
0.0275226
0.0288298
0.030164
0.031524
0.0329101
5.14654e-05
0.000163916
0.000314158
0.000517583
0.000757916
0.00103218
0.00133786
0.00167376
0.00203931
0.00243443
0.00285923
0.00331322
0.00379685
0.00431022
0.00485324
0.00542685
0.00603102
0.00666558
0.00733073
0.00802684
0.00875397
0.0095127
0.0103029
0.0111244
0.0119775
0.0128621
0.0137784
0.014726
0.0157047
0.0167147
0.017756
0.0188279
0.0199299
0.0210622
0.0222245
0.0234163
0.0246373
0.0258866
0.027164
0.0284691
0.0298012
0.0311606
0.0325481
5.1722e-05
0.000165305
0.000305482
0.000502355
0.000735689
0.00100218
0.00129955
0.00162662
0.00198312
0.00236867
0.00278305
0.00322654
0.0036994
0.00420162
0.00473369
0.00529575
0.00588802
0.00651063
0.00716392
0.00784802
0.00856354
0.00931038
0.0100889
0.0108991
0.0117409
0.0126148
0.0135204
0.0144578
0.0154267
0.0164276
0.01746
0.0185235
0.0196179
0.0207433
0.0218994
0.0230853
0.0243007
0.0255455
0.0268194
0.0281213
0.029451
0.0308085
0.0321943
5.19435e-05
0.000166083
0.000297554
0.00048832
0.000715095
0.000974485
0.00126428
0.00158328
0.00193114
0.00230761
0.00271265
0.00314646
0.00360912
0.00410122
0.0046227
0.00517385
0.00575489
0.0063663
0.00700815
0.00768126
0.00838519
0.00912082
0.00988817
0.0106872
0.0115184
0.0123816
0.0132768
0.014204
0.0151632
0.0161549
0.0171785
0.0182338
0.0193205
0.0204386
0.0215878
0.0227676
0.0239776
0.0252176
0.0264869
0.0277854
0.0291122
0.0304663
0.0318483
5.205e-05
0.000166246
0.000290446
0.000475663
0.0006963
0.000949034
0.00123184
0.00154351
0.00188333
0.00225139
0.00264779
0.00307235
0.00352561
0.0040077
0.00451901
0.00505982
0.00563055
0.00623111
0.00686259
0.00752485
0.00821808
0.00894277
0.00969932
0.010488
0.0113084
0.012161
0.0130462
0.0139637
0.0149135
0.0158957
0.0169105
0.0179575
0.0190364
0.020147
0.0212894
0.0224631
0.0236675
0.0249019
0.0261666
0.0274608
0.0287836
0.0301341
0.0315123
5.21025e-05
0.000166056
0.000283731
0.000463891
0.000678831
0.000925237
0.00120151
0.00150623
0.00183875
0.00219905
0.00258717
0.00300325
0.00344761
0.00392062
0.00442241
0.00495341
0.00551418
0.00610483
0.00672591
0.00737799
0.00806102
0.00877522
0.00952152
0.0102995
0.0111095
0.0119523
0.0128277
0.0137357
0.0146761
0.0156492
0.016655
0.0176937
0.0187649
0.0198681
0.0210035
0.0221705
0.0233689
0.024598
0.0258577
0.027147
0.0284658
0.0298126
0.0311867
5.21671e-05
0.000165761
0.000277667
0.00045306
0.000662806
0.000903364
0.00117338
0.00147156
0.00179719
0.00215013
0.00253054
0.00293875
0.00337478
0.00383905
0.00433184
0.00485357
0.00540486
0.00598592
0.00659725
0.00723943
0.00791261
0.00861716
0.00935314
0.010121
0.0109215
0.0117545
0.0126202
0.0135186
0.0144501
0.0154143
0.0164116
0.0174419
0.0185049
0.0196007
0.0207289
0.0218893
0.0230814
0.024305
0.0255593
0.0268444
0.0281587
0.0295017
0.0308726
5.21245e-05
0.000165235
0.000271954
0.000442982
0.000647894
0.00088297
0.00114725
0.00143928
0.00175837
0.00210454
0.00247772
0.00287828
0.00330633
0.00376238
0.00424677
0.00475999
0.00530231
0.0058742
0.00647623
0.00710898
0.00777261
0.00846748
0.0091938
0.00995237
0.0107432
0.0115666
0.0124227
0.0133119
0.0142343
0.0151899
0.0161789
0.0172007
0.0182557
0.0193442
0.0204654
0.0216188
0.0228045
0.0240223
0.0252717
0.0265518
0.0278616
0.0292016
0.0305716
5.20824e-05
0.000164734
0.000266744
0.000433624
0.000633938
0.000863838
0.00112263
0.00140891
0.00172194
0.0020615
0.00242802
0.0028213
0.00324184
0.0036901
0.0041663
0.00467141
0.00520548
0.00576869
0.0063618
0.00698557
0.00764008
0.00832549
0.00904257
0.00979181
0.0105734
0.0113877
0.0122346
0.0131147
0.0140282
0.0149751
0.0159557
0.0169694
0.0180167
0.0190976
0.0202115
0.0213583
0.0225379
0.0237499
0.0249938
0.0262687
0.0275747
0.0289114
0.030278
5.20121e-05
0.000163973
0.000261797
0.000424809
0.000620717
0.000846001
0.00109949
0.00138044
0.00168757
0.0020209
0.00238086
0.00276743
0.00318109
0.00362189
0.00409061
0.00458771
0.00511366
0.00566853
0.00625319
0.00686827
0.00751405
0.00819065
0.00889879
0.0096392
0.0104119
0.0112172
0.0120551
0.0129263
0.0138311
0.0147695
0.0157418
0.0167475
0.0177871
0.0188604
0.0199672
0.0211075
0.0222806
0.0234866
0.0247249
0.0259951
0.0272972
0.0286298
0.0299938
5.19555e-05
0.000163222
0.000257249
0.000416551
0.00060852
0.000829444
0.00107795
0.00135352
0.00165515
0.00198284
0.00233657
0.0027167
0.00312349
0.00355742
0.00401897
0.00450855
0.00502666
0.00557375
0.00615029
0.00675709
0.00739444
0.00806256
0.0087622
0.00949375
0.0102577
0.0110541
0.0118836
0.0127463
0.0136428
0.0145728
0.0155366
0.0165344
0.0175664
0.0186324
0.0197321
0.0208653
0.0220321
0.0232322
0.024465
0.0257302
0.0270276
0.0283566
0.0297169
5.19323e-05
0.000162575
0.000253321
0.000408834
0.000596961
0.000813641
0.0010576
0.00132829
0.00162473
0.00194683
0.00229468
0.00266878
0.00306927
0.00349647
0.00395121
0.00443344
0.00494421
0.00548378
0.00605243
0.00665131
0.00728061
0.00794055
0.00863176
0.00935498
0.0101102
0.0108984
0.0117196
0.0125743
0.0134623
0.014384
0.0153398
0.0163297
0.0173543
0.0184128
0.0195053
0.0206318
0.0217923
0.0229863
0.0242132
0.0254734
0.0267664
0.0280915
0.0294497
5.19136e-05
0.000162076
0.00025037
0.000401844
0.000586237
0.000798858
0.00103829
0.00130427
0.00159587
0.00191278
0.00225512
0.00262329
0.00301762
0.00343855
0.00388665
0.00436214
0.00486582
0.00539788
0.00595923
0.00655054
0.00717182
0.00782388
0.00850709
0.0092221
0.00996936
0.0107494
0.0115626
0.0124089
0.0132887
0.0142026
0.0151506
0.0161331
0.0171498
0.018201
0.0192865
0.0204062
0.0215603
0.0227481
0.0239696
0.0252247
0.0265126
0.027833
0.0291864
5.18992e-05
0.000161831
0.000248528
0.000395201
0.000575941
0.000784688
0.00101997
0.00128142
0.00156833
0.00188036
0.00221739
0.00258011
0.00296873
0.00338354
0.00382539
0.00429428
0.004791
0.00531628
0.00587063
0.00645417
0.00706807
0.00771257
0.00838811
0.00909531
0.00983462
0.0106066
0.0114117
0.01225
0.013122
0.0140282
0.0149685
0.0159434
0.0169526
0.0179966
0.0190748
0.0201881
0.0213356
0.0225176
0.0237335
0.0249829
0.0262655
0.0275805
0.028928
5.19341e-05
0.000162107
0.000247879
0.000389099
0.000566385
0.000771555
0.00100289
0.00125992
0.00154234
0.00184954
0.00218155
0.00253887
0.00292185
0.00333096
0.00376676
0.00422952
0.00471987
0.00523848
0.00578577
0.00636232
0.00696887
0.00760598
0.00827396
0.00897357
0.00970537
0.0104695
0.0112668
0.0120974
0.012962
0.0138603
0.0147931
0.0157603
0.0167623
0.017799
0.0188707
0.0199772
0.0211184
0.022294
0.0235038