/*--------------------------------*- C++ -*----------------------------------*\
| =========                 |                                                 |
| \\      /  F ield         | OpenFOAM: The Open Source CFD Toolbox           |
|  \\    /   O peration     | Version:  2.3.0                                 |
|   \\  /    A nd           | Web:      www.OpenFOAM.org                      |
|    \\/     M anipulation  |                                                 |
\*---------------------------------------------------------------------------*/
FoamFile
{
    version     2.0;
    format      ascii;
    class       surfaceScalarField;
    location    "10000";
    object      phi;
}
// * * * * * * * * * * * * * * * * * * * * * * * * * * * * * * * * * * * * * //

dimensions      [0 3 -1 0 0 0 0];

internalField   nonuniform List<scalar> 
245180
(
0.000573745
-0.00155823
0.00169352
-0.000709034
0.000451462
-0.00149276
0.00161505
0.000341225
-0.00142965
0.00153989
0.000242396
-0.00136915
0.00146798
0.000154069
-0.0013107
0.00139903
7.62842e-05
-0.00125519
0.00133297
8.2141e-06
-0.00120145
0.00126952
-5.0377e-05
-0.00115041
0.001209
-9.95613e-05
-0.00110129
0.00115047
-0.00014059
-0.00105406
0.00109509
-0.000173813
-0.00100856
0.00104179
-0.000198862
-0.000965347
0.000990397
-0.000216757
-0.000923439
0.000941333
-0.000227492
-0.000883709
0.000894444
-0.000231907
-0.000844956
0.000849371
-0.000229826
-0.000808128
0.000806047
-0.000221495
-0.000772868
0.000764537
-0.000207782
-0.000738545
0.000724832
-0.000188593
-0.000705742
0.000686554
-0.000164133
-0.000674157
0.000649696
-0.000134783
-0.000643818
0.000614468
-0.000100307
-0.000614664
0.000580188
-6.14681e-05
-0.000586294
0.000547455
-1.82175e-05
-0.000559161
0.000515911
2.93691e-05
-0.000532836
0.000485249
8.12211e-05
-0.00050745
0.000455598
0.000137021
-0.000482829
0.00042703
0.00019695
-0.000459198
0.000399269
0.000260903
-0.000435967
0.000372014
0.000329057
-0.00041388
0.000345727
0.000401125
-0.000392004
0.000319936
0.000477529
-0.000371015
0.000294611
0.000558392
-0.000350676
0.000269813
0.00064433
-0.00033105
0.000245112
0.000735516
-0.000311825
0.000220639
0.000832744
-0.000293625
0.000196397
0.000936902
-0.000276238
0.00017208
0.00104921
-0.000259594
0.000147289
0.00117235
-0.000244982
0.000121838
0.00130815
-0.000231694
9.58958e-05
0.00146344
-0.000222175
6.68828e-05
0.00164775
-0.000216268
3.19614e-05
-0.000219959
0.0019079
-4.01937e-05
0.000536386
-0.00143635
-0.000658268
0.000425494
-0.00138187
0.000325318
-0.00132948
0.000235133
-0.00127896
0.000155014
-0.00123058
8.39651e-05
-0.00118414
2.20465e-05
-0.00113953
-3.19276e-05
-0.00109644
-7.75997e-05
-0.00105561
-0.000115622
-0.00101604
-0.000146206
-0.000977981
-0.00016984
-0.000941713
-0.000186922
-0.000906357
-0.000197885
-0.000872746
-0.000202309
-0.000840532
-0.000201259
-0.000809178
-0.000194949
-0.000779178
-0.000183162
-0.000750332
-0.000166429
-0.000722476
-0.000144975
-0.00069561
-0.00011898
-0.000669813
-8.88964e-05
-0.000644747
-5.44099e-05
-0.00062078
-1.58894e-05
-0.000597682
2.6397e-05
-0.000575122
7.25707e-05
-0.000553624
0.000122393
-0.000532652
0.000175793
-0.000512598
0.000233002
-0.000493176
0.000293638
-0.000474517
0.000358182
-0.000456548
0.000426612
-0.000439445
0.000499019
-0.000423082
0.00057559
-0.000407621
0.000656946
-0.000393181
0.000743398
-0.000380077
0.000835196
-0.000368035
0.000933677
-0.000358075
0.0010383
-0.000349603
0.00115062
-0.000344013
0.00127019
-0.000341747
0.00139678
-0.000342857
-0.00034763
0.00152445
0.000499049
-0.00132564
-0.000609755
0.000398408
-0.00128123
0.000307225
-0.00123829
0.000225384
-0.00119712
0.000152438
-0.00115763
8.74608e-05
-0.00111916
3.07467e-05
-0.00108282
-1.82875e-05
-0.0010474
-6.04378e-05
-0.00101346
-9.53038e-05
-0.000981172
-0.000123773
-0.000949512
-0.00014606
-0.000919426
-0.000161997
-0.00089042
-0.00017222
-0.000862522
-0.000177101
-0.000835652
-0.000176683
-0.000809596
-0.000171353
-0.000784508
-0.000161033
-0.000760651
-0.000146476
-0.000737033
-0.000127228
-0.000714857
-0.000103714
-0.000693327
-7.62606e-05
-0.000672201
-4.50285e-05
-0.000652012
-1.01346e-05
-0.000632576
2.86437e-05
-0.0006139
7.07237e-05
-0.000595704
0.000116258
-0.000578186
0.00016514
-0.00056148
0.00021726
-0.000545296
0.000272503
-0.00052976
0.000331108
-0.000515153
0.000392809
-0.000501146
0.000457729
-0.000488002
0.000525996
-0.000475889
0.000597453
-0.000464638
0.000672178
-0.000454802
0.000750299
-0.000446156
0.00083151
-0.000439286
0.000916247
-0.000434341
0.00100348
-0.000431243
0.0010921
-0.000430373
0.00118204
-0.000432796
-0.000437129
0.00127154
0.000462953
-0.00122542
-0.000563177
0.000371635
-0.00118991
0.000288784
-0.00115544
0.000213979
-0.00112232
0.000147042
-0.0010907
8.80383e-05
-0.00106016
3.55222e-05
-0.0010303
-9.66429e-06
-0.00100222
-4.83919e-05
-0.000974737
-8.09484e-05
-0.000948616
-0.000107661
-0.0009228
-0.000128414
-0.000898672
-0.000143842
-0.000874993
-0.000154236
-0.000852127
-0.000159539
-0.000830349
-0.000159956
-0.000809179
-0.000155849
-0.000788614
-0.00014772
-0.00076878
-0.000134915
-0.000749839
-0.000118449
-0.000731323
-9.82219e-05
-0.000713554
-7.43462e-05
-0.000696077
-4.67795e-05
-0.000679579
-1.58411e-05
-0.000663514
1.81307e-05
-0.000647872
5.53566e-05
-0.00063293
9.56169e-05
-0.000618446
0.000138942
-0.000604806
0.000185047
-0.000591401
0.000234019
-0.000578731
0.000285812
-0.000566946
0.000340358
-0.000555693
0.000397621
-0.000545265
0.000457509
-0.000535777
0.000520083
-0.000527212
0.000585115
-0.000519834
0.000652831
-0.000513872
0.000722804
-0.000509259
0.000794678
-0.000506214
0.000868819
-0.000505384
0.000944462
-0.000506016
0.00102094
-0.000509275
-0.000513739
0.00109755
0.000427906
-0.00113378
-0.000519541
0.000344808
-0.00110682
0.000269062
-0.0010797
0.000201167
-0.00105442
0.000140143
-0.00102967
8.55191e-05
-0.00100553
3.79328e-05
-0.000982715
-3.79227e-06
-0.000960493
-3.94957e-05
-0.000939033
-6.99336e-05
-0.000918178
-9.46028e-05
-0.000898131
-0.000114274
-0.000879001
-0.000128968
-0.000860299
-0.000138913
-0.000842182
-0.000144611
-0.00082465
-0.000145787
-0.000808004
-0.00014282
-0.000791582
-0.000135743
-0.000775857
-0.00012506
-0.000760522
-0.000110797
-0.000745586
-9.31348e-05
-0.000731216
-7.18691e-05
-0.000717342
-4.76491e-05
-0.000703799
-2.04055e-05
-0.000690758
1.00318e-05
-0.00067831
4.31122e-05
-0.00066601
7.90289e-05
-0.000654363
0.000117597
-0.000643374
0.000158679
-0.000632483
0.00020248
-0.000622532
0.000248438
-0.000612904
0.000296989
-0.000604244
0.000347658
-0.000595934
0.000400757
-0.000588876
0.000455927
-0.000582382
0.000513278
-0.000577186
0.000572584
-0.000573178
0.000633835
-0.00057051
0.000696944
-0.000569323
0.000761218
-0.000569658
0.000826929
-0.000571728
0.000893146
-0.000575492
-0.00058102
0.000960427
0.000394987
-0.00105106
-0.000477714
0.000318739
-0.00103057
0.000250099
-0.00101106
0.000187754
-0.000992079
0.000131903
-0.000973821
8.23852e-05
-0.000956015
3.81343e-05
-0.000938464
-7.43742e-08
-0.000922284
-3.33813e-05
-0.000905726
-6.11153e-05
-0.000890444
-8.42523e-05
-0.000874994
-0.000102754
-0.000860499
-0.000116676
-0.000846377
-0.000126241
-0.000832618
-0.000131954
-0.000818937
-0.000133524
-0.000806434
-0.000131601
-0.000793505
-0.000126058
-0.000781399
-0.000116974
-0.000769607
-0.000104509
-0.000758051
-8.89081e-05
-0.000746816
-7.04781e-05
-0.000735773
-4.88908e-05
-0.000725386
-2.45746e-05
-0.000715074
2.21871e-06
-0.000705103
3.17875e-05
-0.000695579
6.39573e-05
-0.000686533
9.81096e-05
-0.000677526
0.000135031
-0.000669404
0.000173912
-0.000661413
0.000215059
-0.000654052
0.0002582
-0.000647385
0.000303558
-0.000641291
0.00035063
-0.000635948
0.000399832
-0.000631583
0.000450895
-0.000628249
0.000503648
-0.000625932
0.000558021
-0.000624882
0.000613725
-0.000625027
0.000670914
-0.000626848
0.000729178
-0.000629992
0.000788517
-0.00063483
-0.000640573
0.000848069
0.000363526
-0.000975396
-0.000439189
0.000294556
-0.000961596
0.000231652
-0.000948153
0.000174675
-0.000935101
0.000123649
-0.000922796
7.78482e-05
-0.000910214
3.77318e-05
-0.000898347
2.3118e-06
-0.000886864
-2.80679e-05
-0.000875347
-5.40036e-05
-0.000864508
-7.53428e-05
-0.000853655
-9.26469e-05
-0.000843195
-0.000105899
-0.000833124
-0.000115322
-0.000823195
-0.000120789
-0.00081347
-0.00012311
-0.000804113
-0.000121364
-0.000795252
-0.00011683
-0.000785932
-0.000109088
-0.000777349
-9.83188e-05
-0.00076882
-8.46386e-05
-0.000760497
-6.80943e-05
-0.000752317
-4.9236e-05
-0.000744244
-2.76764e-05
-0.000736634
-3.58125e-06
-0.000729198
2.27889e-05
-0.000721949
5.12467e-05
-0.00071499
8.21527e-05
-0.000708432
0.000114953
-0.000702205
0.000149829
-0.000696288
0.000186803
-0.000691026
0.000225442
-0.000686024
0.000266
-0.000681849
0.000308441
-0.000678389
0.000352501
-0.000675644
0.000398007
-0.000673754
0.000445228
-0.000673153
0.000493526
-0.000673181
0.00054366
-0.00067516
0.000594693
-0.00067788
0.000646856
-0.000682155
0.000699735
-0.000687709
-0.000694807
0.000753969
0.000334067
-0.000906491
-0.000402972
0.000271023
-0.000898552
0.00021375
-0.000890881
0.000161944
-0.000883295
0.00011498
-0.000875832
7.3361e-05
-0.000868595
3.64005e-05
-0.000861387
3.7431e-06
-0.000854207
-2.40818e-05
-0.000847522
-4.79997e-05
-0.00084059
-6.79077e-05
-0.000833747
-8.41058e-05
-0.000826997
-9.6482e-05
-0.000820748
-0.000105212
-0.000814465
-0.000110706
-0.000807975
-0.000112963
-0.000801856
-0.000112429
-0.000795786
-0.00010834
-0.000790021
-0.000101824
-0.000783865
-9.23501e-05
-0.000778294
-8.03783e-05
-0.000772468
-6.58494e-05
-0.000766846
-4.87557e-05
-0.000761338
-2.94509e-05
-0.000755938
-8.05634e-06
-0.000750593
1.55086e-05
-0.000745514
4.11939e-05
-0.000740676
6.87792e-05
-0.000736017
9.83942e-05
-0.00073182
0.000129745
-0.000727639
0.000162811
-0.000724093
0.000197745
-0.000720957
0.000234153
-0.000718257
0.000272042
-0.000716278
0.000311698
-0.0007153
0.000352688
-0.000714744
0.000394692
-0.000715157
0.000438716
-0.000717206
0.000483281
-0.000719725
0.000529319
-0.000723919
0.000576457
-0.000729292
0.000624248
-0.0007355
-0.000743282
0.000672723
0.00030658
-0.000843946
-0.000369126
0.000249197
-0.000841169
0.00019708
-0.000838763
0.000149275
-0.00083549
0.000106633
-0.000833191
6.83151e-05
-0.000830277
3.45015e-05
-0.000827573
4.66162e-06
-0.000824367
-2.11259e-05
-0.000821734
-4.31959e-05
-0.00081852
-6.16559e-05
-0.000815287
-7.63329e-05
-0.00081232
-8.80283e-05
-0.000809053
-9.64057e-05
-0.000806088
-0.000101888
-0.000802493
-0.000104208
-0.000799537
-0.000103848
-0.000796146
-0.00010068
-0.000793189
-9.46176e-05
-0.000789927
-8.66991e-05
-0.000786213
-7.60178e-05
-0.00078315
-6.31337e-05
-0.00077973
-4.79513e-05
-0.000776521
-3.0707e-05
-0.000773183
-1.12787e-05
-0.000770021
9.74809e-06
-0.000766541
3.27812e-05
-0.000763709
5.77315e-05
-0.000760967
8.43054e-05
-0.000758394
0.000112675
-0.000756008
0.000142483
-0.000753901
0.000173965
-0.000752438
0.000206858
-0.000751151
0.000241171
-0.000750591
0.000276884
-0.000751013
0.000313702
-0.000751562
0.000351995
-0.00075345
0.00039101
-0.00075622
0.000431564
-0.00076028
0.000473101
-0.000765455
0.000514987
-0.000771179
0.000558371
-0.000778885
0.000602258
-0.000787169
0.00199849
-0.000248508
0.000157916
0.00209604
-0.000293456
0.000195912
0.00218364
-0.000334813
0.000247212
0.00226172
-0.000373331
0.000295247
0.00233251
-0.000409303
0.000338518
0.00239567
-0.000442558
0.000379395
0.00245378
-0.000474172
0.000416061
0.00250562
-0.000504078
0.000452239
0.00255281
-0.000532798
0.000485602
0.00259593
-0.000561052
0.000517937
0.00263563
-0.000589067
0.000549365
0.00267155
-0.000616263
0.000580346
0.00270464
-0.00064389
0.000610796
0.00273454
-0.000671618
0.000641724
0.00276096
-0.000699312
0.000672886
0.00278511
-0.000728212
0.00070407
0.00280569
-0.000757264
0.000736681
0.00282282
-0.000786972
0.000769844
0.00283637
-0.000817579
0.000804024
0.00284609
-0.000848986
0.000839266
0.00285097
-0.000881148
0.000876272
0.00285164
-0.00091451
0.00091384
0.00284726
-0.000949068
0.000953449
0.00283741
-0.000984297
0.000994143
0.0028216
-0.00102083
0.00103664
0.00279964
-0.00105857
0.00108052
0.00277127
-0.00109779
0.00112617
0.00273614
-0.00113824
0.00117337
0.00269374
-0.00118018
0.00122258
0.00264384
-0.00122341
0.00127331
0.00258602
-0.00126851
0.00132633
0.00251997
-0.00131496
0.00138101
0.00244508
-0.00136302
0.00143791
0.00236142
-0.00141315
0.00149681
0.0022681
-0.00146484
0.00155816
0.00216502
-0.0015184
0.00162148
0.00205182
-0.00157426
0.00168747
0.00192848
-0.00163212
0.00175545
0.00179379
-0.00169165
0.00182634
0.00164784
-0.00175374
0.00189969
0.00149001
-0.00181824
0.00197607
0.00132014
-0.00188499
0.00205486
-0.00195419
0.00213693
0.00113739
0.00164052
-0.000364578
0.00173769
-0.000390629
0.00182046
-0.000417585
0.00189281
-0.000445676
0.00195753
-0.00047402
0.00201654
-0.000501573
0.00207082
-0.00052845
0.00212213
-0.000555389
0.00217032
-0.00058098
0.00221669
-0.000607429
0.00226012
-0.00063249
0.00230157
-0.000657721
0.00234025
-0.000682565
0.00237638
-0.000707748
0.00240986
-0.000732793
0.00243989
-0.00075824
0.00246637
-0.000783751
0.00248955
-0.000810148
0.00250837
-0.000836401
0.00252322
-0.000863835
0.00253345
-0.000891378
0.00253882
-0.000919879
0.00253892
-0.000949172
0.00253387
-0.00097924
0.00252327
-0.00101023
0.00250691
-0.00104221
0.00248429
-0.00107517
0.00245516
-0.00110912
0.00241928
-0.0011443
0.00237655
-0.00118069
0.00232626
-0.00121821
0.00226856
-0.00125727
0.00220301
-0.00129747
0.00212921
-0.00133934
0.0020467
-0.00138233
0.0019557
-0.0014274
0.00185498
-0.00147355
0.00174457
-0.00152171
0.00162451
-0.00157159
0.00149418
-0.0016234
0.00135266
-0.00167673
0.00120005
-0.00173237
-0.00178988
0.00103574
0.00135693
-0.000449963
0.00143699
-0.000470695
0.00151279
-0.00049338
0.00158393
-0.000516814
0.00165045
-0.000540545
0.00171307
-0.000564196
0.00177275
-0.000588123
0.00182874
-0.000611384
0.00188176
-0.000634003
0.00193136
-0.000657025
0.00197836
-0.000679492
0.00202183
-0.000701192
0.00206286
-0.00072359
0.00210031
-0.000745196
0.00213465
-0.000767134
0.00216542
-0.000789014
0.00219307
-0.0008114
0.00221646
-0.000833534
0.00223647
-0.000856411
0.00225202
-0.000879392
0.00226361
-0.000902967
0.00227066
-0.000926931
0.00227289
-0.000951403
0.00227028
-0.00097663
0.00226257
-0.00100252
0.00224929
-0.00102893
0.00223062
-0.0010565
0.00220611
-0.0010846
0.00217532
-0.0011135
0.0021384
-0.00114377
0.00209484
-0.00117464
0.00204415
-0.00120658
0.00198633
-0.00123965
0.00192099
-0.00127401
0.00184814
-0.00130948
0.00176678
-0.00134604
0.00167714
-0.00138391
0.00157877
-0.00142334
0.00147137
-0.0014642
0.00135423
-0.00150625
0.00122722
-0.00154972
0.00109019
-0.00159535
-0.00164262
0.000942933
0.00117242
-0.000524833
0.00124448
-0.000542752
0.00131309
-0.000561987
0.00137815
-0.000581874
0.00144018
-0.000602577
0.00149907
-0.000623087
0.00155475
-0.000643806
0.00160753
-0.000664161
0.00165815
-0.000684628
0.00170531
-0.000704183
0.00174983
-0.000724007
0.00179181
-0.000743172
0.0018308
-0.000762579
0.00186702
-0.00078142
0.00190033
-0.000800442
0.00193045
-0.000819133
0.00195694
-0.000837896
0.00198054
-0.000857131
0.00200014
-0.000876007
0.002016
-0.000895252
0.00202797
-0.000914938
0.00203587
-0.000934828
0.00203941
-0.00095495
0.00203849
-0.000975707
0.00203289
-0.000996915
0.00202256
-0.00101861
0.00200688
-0.00104082
0.00198578
-0.00106351
0.00195946
-0.00108718
0.00192699
-0.00111131
0.00188874
-0.00113639
0.00184395
-0.00116179
0.00179294
-0.00118863
0.00173487
-0.00121595
0.00166963
-0.00124423
0.00159708
-0.00127349
0.00151714
-0.00130397
0.00142891
-0.00133511
0.00133237
-0.00136766
0.00122739
-0.00140128
0.00111364
-0.00143596
0.00099013
-0.00147184
-0.00150971
0.000857221
0.00102682
-0.000591222
0.00109099
-0.000606924
0.00115265
-0.000623652
0.00121177
-0.000640993
0.00126866
-0.000659469
0.00132305
-0.000677472
0.00137489
-0.000695648
0.00142437
-0.000713645
0.0014713
-0.000731559
0.001516
-0.00074888
0.00155786
-0.000765861
0.0015975
-0.000782812
0.00163438
-0.000799463
0.00166848
-0.000815518
0.00169979
-0.000831755
0.00172828
-0.000847624
0.00175395
-0.000863563
0.00177584
-0.000879022
0.00179472
-0.000894883
0.00181043
-0.000910964
0.00182223
-0.00092674
0.00183027
-0.000942867
0.00183431
-0.000958989
0.00183456
-0.000975959
0.00183037
-0.000992723
0.00182148
-0.00100972
0.00180829
-0.00102762
0.00179015
-0.00104537
0.00176701
-0.00106404
0.00173854
-0.00108284
0.00170453
-0.00110238
0.00166497
-0.00112224
0.00161938
-0.00114305
0.00156761
-0.00116418
0.00150933
-0.00118595
0.00144455
-0.00120871
0.00137259
-0.00123201
0.00129357
-0.00125609
0.00120699
-0.00128108
0.00111256
-0.00130685
0.00100985
-0.00133325
0.000899111
-0.0013611
-0.00138968
0.000779076
0.000907621
-0.000650774
0.000965342
-0.000664644
0.00102121
-0.000679517
0.00107535
-0.000695141
0.00112688
-0.000710994
0.00117693
-0.00072752
0.00122446
-0.000743184
0.00127017
-0.000759347
0.00131342
-0.000774817
0.00135452
-0.000789976
0.0013936
-0.000804943
0.00143031
-0.00081952
0.00146444
-0.000833593
0.00149638
-0.000847455
0.00152552
-0.0008609
0.00155208
-0.00087418
0.0015756
-0.000887088
0.00159656
-0.000899976
0.00161436
-0.000912682
0.00162886
-0.00092547
0.00164027
-0.000938148
0.00164819
-0.000950785
0.00165278
-0.000963578
0.00165339
-0.000976573
0.00165016
-0.000989497
0.00164313
-0.00100269
0.00163138
-0.00101587
0.00161585
-0.00102984
0.00159535
-0.00104353
0.00157012
-0.00105761
0.00153996
-0.00107222
0.00150476
-0.00108704
0.00146386
-0.00110214
0.00141767
-0.00111798
0.00136564
-0.00113393
0.00130736
-0.00115043
0.00124257
-0.00116722
0.00117166
-0.00118517
0.00109358
-0.001203
0.00100847
-0.00122175
0.000916287
-0.00124106
0.000816117
-0.00126093
-0.0012817
0.000708137
0.000807359
-0.000704164
0.00085949
-0.000716775
0.000910076
-0.000730103
0.000959133
-0.000744198
0.00100646
-0.000758318
0.00105179
-0.000772849
0.00109558
-0.000786981
0.00113723
-0.000800995
0.00117712
-0.000814702
0.00121505
-0.000827906
0.00125099
-0.000840888
0.00128452
-0.000853043
0.00131611
-0.00086519
0.00134527
-0.000876614
0.00137224
-0.000887872
0.00139666
-0.0008986
0.00141871
-0.000909134
0.00143805
-0.000919321
0.00145472
-0.000929351
0.00146838
-0.000939127
0.00147897
-0.000948735
0.00148668
-0.000958496
0.00149132
-0.000968218
0.00149239
-0.000977645
0.00148989
-0.000986995
0.00148357
-0.000996369
0.00147391
-0.00100622
0.00145975
-0.00101568
0.0014416
-0.00102538
0.0014194
-0.00103542
0.00139234
-0.00104515
0.00136086
-0.00105556
0.00132444
-0.00106573
0.00128267
-0.00107621
0.00123564
-0.0010869
0.00118333
-0.00109812
0.00112544
-0.00110933
0.0010612
-0.00112094
0.000991033
-0.00113283
0.000914288
-0.001145
0.00083112
-0.0011579
0.000740965
-0.00117077
-0.00118386
0.000643129
0.000721334
-0.000752774
0.000768669
-0.00076411
0.000814565
-0.000775999
0.00085885
-0.000788483
0.000901917
-0.000801385
0.000943305
-0.000814237
0.000983032
-0.000826709
0.00102148
-0.00083944
0.0010578
-0.000851022
0.00109239
-0.000862497
0.001125
-0.000873495
0.00115602
-0.000884065
0.00118489
-0.000894064
0.0012119
-0.000903622
0.00123657
-0.00091254
0.00125906
-0.000921094
0.00127926
-0.000929331
0.0012971
-0.00093716
0.00131253
-0.000944788
0.00132537
-0.000951962
0.00133558
-0.000958944
0.00134272
-0.000965638
0.00134699
-0.000972492
0.00134839
-0.000979044
0.00134626
-0.000984862
0.00134112
-0.000991228
0.00133227
-0.000997364
0.00131999
-0.00100341
0.00130392
-0.00100931
0.00128374
-0.00101524
0.0012599
-0.00102131
0.00123141
-0.00102706
0.00119841
-0.00103273
0.00116107
-0.00103887
0.00111913
-0.00104495
0.00107195
-0.00105093
0.00101942
-0.00105679
0.000961636
-0.00106316
0.000898283
-0.00106948
0.00082938
-0.0010761
0.000753778
-0.00108229
0.000672264
-0.00108926
-0.00109586
0.000584263
0.000646741
-0.000797258
0.000689527
-0.000806897
0.000731112
-0.000817584
0.000771271
-0.000828642
0.000810345
-0.000840459
0.000848173
-0.000852064
0.000884626
-0.000863162
0.000919419
-0.000874232
0.000952495
-0.000884098
0.000984291
-0.000894293
0.00101429
-0.000903498
0.00104253
-0.000912304
0.00106892
-0.000920452
0.00109331
-0.000928016
0.00111599
-0.000935217
0.00113688
-0.000941979
0.00115545
-0.000947908
0.00117187
-0.000953579
0.00118593
-0.000958843
0.00119764
-0.000963673
0.00120707
-0.000968371
0.00121408
-0.000972646
0.00121829
-0.000976704
0.00121952
-0.000980281
0.0012177
-0.00098304
0.00121331
-0.000986842
0.00120584
-0.000989892
0.00119478
-0.000992341
0.0011805
-0.00099503
0.00116231
-0.00099705
0.00114052
-0.000999522
0.0011149
-0.00100144
0.00108557
-0.00100341
0.00105195
-0.00100525
0.00101373
-0.00100673
0.000970985
-0.00100819
0.000923848
-0.00100966
0.000871841
-0.00101115
0.000814551
-0.00101219
0.000751937
-0.00101348
0.000683839
-0.0010142
0.000610189
-0.00101561
-0.00101637
0.000530696
2.2772e-06
0.00251359
-0.00273383
0.000217961
0.000205991
0.00242397
-0.00262768
0.000393708
0.00233778
-0.0025255
0.000565581
0.00225503
-0.0024269
0.000722686
0.00217515
-0.00233226
0.000865414
0.00209822
-0.00224095
0.000994507
0.00202392
-0.00215301
0.00110969
0.00195298
-0.00206816
0.00121244
0.0018839
-0.00198665
0.00130242
0.0018177
-0.00190769
0.00138064
0.00175353
-0.00183174
0.00144728
0.00169171
-0.00175835
0.00150253
0.00163215
-0.0016874
0.00154707
0.00157436
-0.0016189
0.00158091
0.00151847
-0.0015523
0.00160463
0.00146433
-0.00148805
0.00161851
0.00141178
-0.00142566
0.00162272
0.0013608
-0.00136501
0.00161749
0.00131114
-0.00130591
0.00160334
0.0012627
-0.00124855
0.00158099
0.0012153
-0.00119296
0.00155011
0.00116932
-0.00113844
0.00151171
0.00112406
-0.00108566
0.00146548
0.00107998
-0.00103375
0.00141229
0.00103684
-0.000983644
0.00135286
0.000994092
-0.000934665
0.00128766
0.000952284
-0.000887086
0.00121657
0.000911332
-0.000840234
0.00114082
0.000870813
-0.000795065
0.00106036
0.00083111
-0.000750654
0.000976462
0.000791599
-0.000707699
0.000889407
0.000752616
-0.00066556
0.000799913
0.000713907
-0.000624413
0.000708694
0.000675602
-0.000584384
0.000616583
0.000637134
-0.000545023
0.000524424
0.00059855
-0.000506392
0.000432796
0.000559533
-0.000467906
0.000342911
0.000519504
-0.000429619
0.00025588
0.000477695
-0.000390663
0.000173459
0.000432931
-0.000350512
9.72054e-05
0.000382514
-0.000306259
2.70264e-05
0.00032288
-0.000252704
0.000258295
-6.61779e-05
-0.000165091
1.00575e-08
0.00231372
0.000199858
0.00018489
0.00223909
0.000355
0.00216767
0.000511072
0.00209896
0.000653564
0.00203266
0.000783257
0.00196853
0.00089989
0.00190729
0.0010049
0.00184797
0.00109778
0.00179102
0.00117976
0.00173572
0.0012508
0.00168249
0.00131111
0.00163139
0.00136168
0.00158158
0.00140225
0.00153379
0.00143345
0.00148728
0.00145555
0.00144223
0.0014687
0.00139862
0.0014734
0.00135611
0.00146986
0.00131468
0.001458
0.00127456
0.0014384
0.00123491
0.00141177
0.00119595
0.00137746
0.00115837
0.00133674
0.0011207
0.00128973
0.00108384
0.00123632
0.0010475
0.00117719
0.00101141
0.00111302
0.000975508
0.00104385
0.000939978
0.000970609
0.000904353
0.000893523
0.000868685
0.000812917
0.000833222
0.000729897
0.000796926
0.00064499
0.000760509
0.00055871
0.000723414
0.000471931
0.000685329
0.000385561
0.000645902
0.000300562
0.000604503
0.000218109
0.000560149
0.000140046
0.000510994
6.79133e-05
0.000454647
-2.90939e-07
0.000391085
0.000348171
-9.01679e-05
-1.62702e-06
0.00213209
0.00018326
0.000166033
0.00207143
0.000320397
0.00201331
0.000462254
0.0019571
0.000591598
0.00190332
0.000708863
0.00185126
0.000814833
0.00180132
0.000909966
0.00175283
0.000994769
0.00170622
0.00106898
0.00166151
0.00113328
0.0016182
0.00118849
0.00157619
0.00123426
0.00153581
0.00127131
0.00149674
0.00129988
0.0014587
0.00131995
0.00142216
0.00133221
0.00138635
0.00133689
0.00135144
0.00133394
0.00131763
0.00132407
0.00128443
0.00130706
0.00125192
0.0012831
0.00121991
0.00125297
0.0011885
0.0012165
0.00115718
0.00117396
0.00112638
0.00112594
0.00109553
0.00107281
0.00106454
0.00101446
0.00103386
0.000951819
0.00100262
0.00088491
0.000971262
0.000814205
0.000939391
0.000740507
0.000906919
0.000663788
0.000873646
0.000585109
0.000839188
0.000504985
0.000803538
0.000424245
0.000766069
0.000343428
0.000726719
0.000263812
0.00068412
0.000186571
0.00063739
0.000113362
0.000584203
4.5048e-05
0.00052296
-2.14004e-05
0.000457533
0.000434748
-0.000107977
-2.72331e-06
0.00196707
0.000167749
0.000149242
0.00191946
0.00028949
0.00187306
0.000417963
0.00182863
0.000535425
0.00178586
0.000642091
0.0017446
0.000738449
0.00170496
0.000824548
0.00166673
0.000901284
0.00162948
0.00096873
0.00159406
0.00102734
0.00155959
0.00107705
0.00152648
0.00111891
0.00149395
0.00115262
0.00146302
0.00117843
0.0014329
0.00119704
0.00140355
0.00120842
0.00137497
0.00121281
0.00134705
0.00121041
0.00132003
0.00120147
0.00129337
0.00118638
0.00126701
0.001165
0.00124129
0.00113801
0.00121549
0.00110543
0.00118976
0.0010673
0.00116451
0.00102419
0.00113864
0.000975917
0.00111281
0.000923309
0.00108647
0.000866312
0.00105961
0.000805326
0.00103225
0.000740813
0.0010039
0.000673319
0.000974413
0.000603326
0.000943639
0.000530853
0.000911662
0.000456997
0.000877394
0.000382111
0.000840955
0.000307495
0.000801335
0.00023345
0.000758166
0.000161689
0.000709151
9.35231e-05
0.000652368
2.96022e-05
0.000586881
-3.40649e-05
0.0005212
0.000514397
-0.000113715
-3.95278e-06
0.00181739
0.000153623
0.00013448
0.00178103
0.000261651
0.00174589
0.000378545
0.00171173
0.000484914
0.00167949
0.000581824
0.00164769
0.000669161
0.00161762
0.000747718
0.00158818
0.000816996
0.0015602
0.000878441
0.00153262
0.000931607
0.00150642
0.00097695
0.00148113
0.00101468
0.00145623
0.00104532
0.00143238
0.00106906
0.00140916
0.00108616
0.00138645
0.00109664
0.00136448
0.00110066
0.00134303
0.00109868
0.00132201
0.00109097
0.00130108
0.00107751
0.00128047
0.00105851
0.00126029
0.00103421
0.00123979
0.00100462
0.00121935
0.00097049
0.00119863
0.000931372
0.00117776
0.00088803
0.00115615
0.000840365
0.00113413
0.000788429
0.00111155
0.000733341
0.00108734
0.000674616
0.00106263
0.000612901
0.00103613
0.000548554
0.00100799
0.000482285
0.000977931
0.000414371
0.000945308
0.000345502
0.000909823
0.000276356
0.00087048
0.000208198
0.000826324
0.00014188
0.000775469
7.85009e-05
0.000715747
1.90871e-05
0.000646295
-4.08837e-05
0.000581171
0.000586819
-0.000113305
-4.62039e-06
0.00168151
0.000140508
0.000121028
0.00165538
0.000236909
0.00163001
0.000342556
0.00160609
0.000439694
0.00158235
0.00052731
0.00156007
0.000606906
0.00153802
0.00067799
0.0015171
0.000741296
0.0014969
0.000796823
0.00147709
0.00084506
0.00145818
0.000886489
0.00143971
0.000920852
0.00142186
0.000948876
0.00140435
0.000970307
0.00138773
0.000985658
0.0013711
0.000995351
0.00135479
0.00099915
0.00133923
0.000997817
0.00132334
0.000990761
0.00130813
0.000978504
0.00129272
0.000961732
0.00127706
0.00093972
0.0012618
0.000913455
0.00124562
0.000882446
0.00122964
0.000847211
0.001213
0.000807752
0.00119561
0.000764611
0.00117727
0.000717894
0.00115826
0.000667246
0.00113798
0.000614014
0.00111586
0.000557738
0.0010924
0.000499113
0.00106661
0.000438639
0.0010384
0.000376225
0.00100772
0.000312949
0.000973099
0.000249278
0.000934152
0.000186433
0.000889168
0.00012517
0.000836732
6.70721e-05
0.000773845
1.20103e-05
0.000701357
-4.40442e-05
0.000637225
0.000652702
-0.000109927
-4.89199e-06
0.00155813
0.000128272
0.000109249
0.00154124
0.000214157
0.0015251
0.000310572
0.00150967
0.00039846
0.00149446
0.000478348
0.00148019
0.000550262
0.00146611
0.000615129
0.00145223
0.000672482
0.00143954
0.000723087
0.00142648
0.000767112
0.00141416
0.00080466
0.00140216
0.000835878
0.00139064
0.000861053
0.00137918
0.000880885
0.00136789
0.000894887
0.0013571
0.000903544
0.00134613
0.000907392
0.00133539
0.000905802
0.00132493
0.000899834
0.0013141
0.000889165
0.00130339
0.000873538
0.00129269
0.000854166
0.00128118
0.000830111
0.00126967
0.000802094
0.00125766
0.000770365
0.00124473
0.000734905
0.00123107
0.000695545
0.00121663
0.000653052
0.00120076
0.000607525
0.00118351
0.000558867
0.00116452
0.000507713
0.00114356
0.000454117
0.00112021
0.000398742
0.00109378
0.000342096
0.00106437
0.000284095
0.0010311
0.000225752
0.000992494
0.000167792
0.000947129
0.000111516
0.000893008
5.77603e-05
0.000827601
6.72665e-06
0.00075239
-4.53058e-05
0.000689257
0.000712615
-0.000105219
-5.08629e-06
0.0014457
0.000117508
9.85645e-05
0.00143759
0.000193762
0.0014299
0.000281436
0.001422
0.000361358
0.00141454
0.000434059
0.00140748
0.000499486
0.00140068
0.000558154
0.00139356
0.000610578
0.00138712
0.000656425
0.00138064
0.0006961
0.00137448
0.000730201
0.00136806
0.000758815
0.00136203
0.000782084
0.00135591
0.00079979
0.00135019
0.000812674
0.00134422
0.000820725
0.00133808
0.000823978
0.00133213
0.000822921
0.00132599
0.000817432
0.00131959
0.000807565
0.00131326
0.000793954
0.0013063
0.000775962
0.00129917
0.000754267
0.00129137
0.000729135
0.00128279
0.000700579
0.00127328
0.000668254
0.00126339
0.000632799
0.00125209
0.000594227
0.00123933
0.000552421
0.00122532
0.000507977
0.00120896
0.000461356
0.00119018
0.000412889
0.00116867
0.000362435
0.00114423
0.000310659
0.00111614
0.000257426
0.00108433
0.000203463
0.00104646
0.000150293
0.0010003
9.89107e-05
0.000944391
5.00395e-05
0.000876472
3.36664e-06
0.000799063
-4.50481e-05
0.000737672
0.0007668
-9.9233e-05
-5.44553e-06
0.000107395
0.00134375
8.87813e-05
0.00134336
0.000175715
0.00134297
0.000255233
0.00134248
0.000327731
0.00134204
0.000393673
0.00134154
0.000453426
0.00134093
0.00050665
0.00134034
0.000554149
0.00133962
0.000595873
0.00133891
0.000632283
0.00133807
0.00066327
0.00133707
0.000689241
0.00133606
0.000710167
0.00133498
0.000726526
0.00133383
0.000738021
0.00133272
0.000745199
0.0013309
0.000748391
0.00132894
0.000747507
0.00132687
0.000742529
0.00132457
0.000733932
0.00132185
0.000721285
0.00131894
0.000705289
0.00131516
0.000685852
0.0013108
0.000662842
0.0013058
0.000637058
0.00129907
0.00060799
0.00129246
0.000575665
0.00128441
0.000541342
0.00127365
0.000503409
0.00126325
0.000463054
0.00124932
0.000420287
0.00123294
0.000375161
0.0012138
0.000330752