/*--------------------------------*- C++ -*----------------------------------*\
| =========                 |                                                 |
| \\      /  F ield         | OpenFOAM: The Open Source CFD Toolbox           |
|  \\    /   O peration     | Version:  2.3.0                                 |
|   \\  /    A nd           | Web:      www.OpenFOAM.org                      |
|    \\/     M anipulation  |                                                 |
\*---------------------------------------------------------------------------*/
FoamFile
{
    version     2.0;
    format      ascii;
    class       volScalarField;
    location    "5000";
    object      nut;
}
// * * * * * * * * * * * * * * * * * * * * * * * * * * * * * * * * * * * * * //

dimensions      [0 2 -1 0 0 0 0];

internalField   nonuniform List<scalar> 
39444
(
0.0579574
0.0562934
0.0546385
0.0529941
0.0513603
0.0497387
0.04813
0.0465352
0.0449551
0.0433907
0.041843
0.0403128
0.0388008
0.0373077
0.0358349
0.0343827
0.0329528
0.0315459
0.0301637
0.0288082
0.027481
0.0261855
0.0249254
0.023705
0.0225263
0.0213906
0.0203048
0.0192758
0.0183113
0.0174039
0.0165221
0.0156452
0.0147703
0.0138993
0.0130349
0.0121749
0.0113166
0.0104539
0.00957771
0.00867475
0.0077252
0.0067331
0.00590458
0.0596446
0.0581847
0.0567322
0.0552875
0.0538519
0.052426
0.0510107
0.0496062
0.0482129
0.0468318
0.0454632
0.044108
0.0427666
0.0414388
0.040126
0.0388285
0.0375463
0.0362804
0.0350318
0.0338009
0.0325885
0.0313956
0.0302235
0.0290733
0.0279471
0.026845
0.0257698
0.0247235
0.0237086
0.0227281
0.0217824
0.0208745
0.0200078
0.0191881
0.0184239
0.0177251
0.0171025
0.0165704
0.0161409
0.015831
0.0156553
0.0156285
0.0157652
0.061182
0.0598947
0.0586115
0.0573344
0.0560645
0.054802
0.0535473
0.0523005
0.0510621
0.0498323
0.0486117
0.0474008
0.0462
0.0450096
0.0438294
0.0426607
0.0415037
0.0403587
0.0392264
0.0381073
0.0370031
0.035914
0.0348415
0.0337867
0.0327517
0.0317378
0.0307468
0.0297819
0.0288453
0.0279413
0.0270734
0.0262451
0.025463
0.0247341
0.024065
0.0234646
0.0229436
0.0225117
0.0221817
0.0219623
0.0218634
0.0218912
0.0220485
0.0625863
0.0614408
0.0603006
0.0591659
0.0580359
0.0569111
0.0557913
0.054677
0.0535679
0.0524646
0.0513675
0.0502766
0.0491925
0.0481154
0.0470459
0.0459842
0.0449307
0.0438859
0.0428505
0.0418251
0.0408103
0.0398082
0.0388195
0.0378456
0.0368878
0.0359489
0.0350306
0.0341363
0.0332687
0.0324314
0.0316295
0.0308675
0.0301504
0.0294858
0.0288804
0.0283419
0.0278796
0.0275033
0.0272202
0.0270406
0.0269704
0.0270139
0.0271735
0.0638555
0.0628354
0.0618186
0.0608051
0.0597942
0.0587862
0.0577808
0.0567779
0.0557775
0.0547803
0.0537865
0.052796
0.0518092
0.0508266
0.0498483
0.0488753
0.0479079
0.0469462
0.045991
0.0450429
0.0441029
0.043172
0.0422523
0.041345
0.0404514
0.0395736
0.0387143
0.0378764
0.0370631
0.0362791
0.0355285
0.0348163
0.0341479
0.0335298
0.0329687
0.0324717
0.0320483
0.0317059
0.0314521
0.0312947
0.03124
0.0312908
0.0314495
0.0650036
0.0640929
0.0631826
0.0622726
0.0613635
0.0604549
0.0595465
0.0586383
0.0577298
0.0568217
0.0559146
0.0550085
0.0541033
0.0531995
0.0522974
0.0513976
0.0505013
0.0496091
0.0487209
0.0478374
0.0469589
0.046087
0.0452236
0.044371
0.0435305
0.0427034
0.0418926
0.0411006
0.0403309
0.0395878
0.0388769
0.0382031
0.0375718
0.0369888
0.03646
0.0359931
0.0355961
0.0352763
0.0350414
0.0348981
0.0348521
0.0349069
0.0350638
0.0660424
0.0652274
0.0644087
0.0635872
0.0627648
0.0619414
0.0611157
0.060288
0.0594577
0.0586245
0.0577905
0.0569556
0.0561194
0.0552819
0.0544438
0.0536052
0.0527673
0.051932
0.0511009
0.0502721
0.0494459
0.0486228
0.0478053
0.0469967
0.0462
0.045416
0.0446459
0.0438922
0.043158
0.0424478
0.0417674
0.0411223
0.0405197
0.0399644
0.0394608
0.0390164
0.0386388
0.0383346
0.0381129
0.0379787
0.0379381
0.0379945
0.0381496
0.0669898
0.0662524
0.065513
0.0647654
0.0640167
0.0632666
0.0625115
0.0617516
0.0609904
0.0602196
0.059447
0.0586724
0.0578952
0.0571136
0.0563305
0.055544
0.0547551
0.0539639
0.0531793
0.0523983
0.0516176
0.0508374
0.050059
0.0492838
0.0485218
0.047774
0.0470397
0.0463201
0.0456161
0.0449327
0.0442771
0.0436519
0.0430708
0.0425382
0.042056
0.0416288
0.0412668
0.0409732
0.0407609
0.0406331
0.0405956
0.0406531
0.0408058
0.0678633
0.0671826
0.0665144
0.0658229
0.0651337
0.0644464
0.0637554
0.0630428
0.0623476
0.0616302
0.0609109
0.0601833
0.0594606
0.0587217
0.0579882
0.0572451
0.0565065
0.055742
0.0549917
0.0542505
0.0535128
0.0527699
0.052034
0.0512797
0.0505404
0.0498204
0.0491165
0.0484306
0.0477604
0.0470951
0.0464683
0.0458536
0.0452855
0.0447703
0.0443134
0.0438953
0.0435529
0.0432624
0.0430583
0.0429357
0.0428979
0.0429564
0.0431078
0.00669236
0.00851442
0.0096728
0.0108086
0.0120112
0.0132843
0.0146143
0.0159878
0.0173936
0.0188245
0.0202747
0.0217403
0.0232194
0.0247097
0.0262094
0.0277183
0.0292354
0.0307602
0.0322919
0.0338306
0.0353757
0.0369271
0.0384845
0.0400476
0.041616
0.0431898
0.0447684
0.0463515
0.047939
0.0495304
0.0511252
0.052723
0.0543233
0.0559256
0.0575294
0.059134
0.0607389
0.0623435
0.0639471
0.0655488
0.0671481
0.0687436
0.0703372
0.0160701
0.0165469
0.0171845
0.0179689
0.0188814
0.0199011
0.0210082
0.0221857
0.0234182
0.0246947
0.0260047
0.0273415
0.0286988
0.0300717
0.0314571
0.0328526
0.0342558
0.0356656
0.0370802
0.0384987
0.0399204
0.0413449
0.0427719
0.0442002
0.0456301
0.0470615
0.0484938
0.0499272
0.0513614
0.0527961
0.0542308
0.0556658
0.0571007
0.058535
0.0599688
0.0614016
0.0628334
0.0642639
0.0656926
0.0671194
0.0685436
0.0699654
0.0713883
0.0223345
0.0227508
0.0233008
0.0239762
0.0247646
0.0256525
0.0266255
0.0276699
0.0287733
0.0299248
0.0311149
0.0323354
0.0335798
0.0348424
0.0361195
0.0374074
0.0387032
0.0400049
0.0413101
0.0426181
0.0439275
0.0452374
0.0465471
0.0478561
0.049164
0.0504706
0.0517757
0.0530793
0.0543812
0.0556808
0.0569781
0.0582732
0.0595663
0.0608569
0.0621449
0.0634307
0.0647139
0.0659948
0.0672732
0.0685491
0.0698222
0.0710921
0.0723623
0.0274474
0.0278367
0.0283425
0.0289591
0.029677
0.0304863
0.0313753
0.0323324
0.0333476
0.0344098
0.0355104
0.0366421
0.0377978
0.0389726
0.0401615
0.0413604
0.0425669
0.0437781
0.0449919
0.046207
0.0474212
0.0486336
0.0498442
0.0510518
0.0522564
0.0534575
0.0546551
0.0558489
0.0570384
0.0582235
0.0594043
0.0605809
0.0617533
0.0629215
0.0640854
0.0652455
0.0664017
0.0675544
0.0687036
0.0698491
0.0709909
0.0721292
0.073267
0.0317152
0.0320869
0.0325652
0.033145
0.033818
0.0345753
0.0354072
0.0363033
0.0372543
0.038251
0.0392843
0.0403473
0.0414336
0.0425379
0.0436551
0.0447816
0.0459149
0.0470519
0.0481899
0.049327
0.0504617
0.0515927
0.0527194
0.0538417
0.0549595
0.0560723
0.0571798
0.0582809
0.0593757
0.0604642
0.0615464
0.0626227
0.0636927
0.0647566
0.0658149
0.0668676
0.0679154
0.0689583
0.0699964
0.0710292
0.0720566
0.0730796
0.0740999
0.0353222
0.0356816
0.0361409
0.036695
0.0373362
0.0380567
0.0388475
0.0396989
0.0406021
0.0415486
0.0425297
0.0435387
0.0445697
0.0456167
0.0466759
0.0477439
0.0488175
0.0498934
0.0509688
0.052041
0.0531085
0.0541706
0.0552272
0.0562785
0.0573241
0.0583631
0.0593946
0.0604177
0.0614325
0.0624394
0.0634385
0.0644296
0.0654128
0.066388
0.0673557
0.0683167
0.0692717
0.0702209
0.0711634
0.0720987
0.0730267
0.0739487
0.0748681
0.0384027
0.0387525
0.0391979
0.0397332
0.0403509
0.0410434
0.0418028
0.0426201
0.0434865
0.0443934
0.045333
0.0462985
0.0472837
0.0482834
0.0492951
0.0503156
0.0513413
0.0523672
0.0533903
0.0544074
0.0554169
0.0564201
0.0574177
0.0584104
0.0593966
0.0603739
0.0613412
0.0622973
0.0632441
0.0641823
0.0651112
0.0660302
0.0669392
0.0678381
0.0687279
0.0696105
0.0704868
0.0713561
0.0722168
0.0730671
0.073908
0.074742
0.0755714
0.0410536
0.0413965
0.0418314
0.0423526
0.0429526
0.0436215
0.0443566
0.0451473
0.0459843
0.0468592
0.0477648
0.0486943
0.0496412
0.0505998
0.0515728
0.0525555
0.0535443
0.0545284
0.0555067
0.0564748
0.0574328
0.0583858
0.0593342
0.0602808
0.0612178
0.0621433
0.0630546
0.0639519
0.0648415
0.0657223
0.0665921
0.0674494
0.0682944
0.0691267
0.0699493
0.0707656
0.0715759
0.0723775
0.0731678
0.073943
0.0747066
0.0754643
0.0762173
0.0433461
0.0436835
0.0441107
0.0446182
0.0452063
0.0458507
0.0465687
0.0473369
0.0481452
0.0489924
0.0498646
0.050765
0.0516778
0.0526
0.0535483
0.0545019
0.0554647
0.0564056
0.0573456
0.0582639
0.0591794
0.0600917
0.061
0.061916
0.0628055
0.0636885
0.0645469
0.0653939
0.06624
0.0670743
0.0678942
0.0686974
0.0694879
0.0702609
0.0710274
0.0717914
0.0725489
0.0732922
0.0740209
0.074726
0.075422
0.076115
0.0767985
0.0662024
0.063032
0.059882
0.0567956
0.0538117
0.0509505
0.0482156
0.0456037
0.0431096
0.0407283
0.0384547
0.0362836
0.0342104
0.0322303
0.030339
0.0285323
0.026806
0.0251562
0.0235799
0.022073
0.0206323
0.0192547
0.017938
0.0166784
0.0154751
0.014324
0.0132248
0.0121736
0.0111686
0.0102073
0.00928739
0.00840868
0.00756926
0.00676838
0.00600708
0.00528525
0.00460434
0.00396713
0.00338293
0.00289274
0.00247108
0.00199105
0.00136256
0.0664157
0.0635007
0.0606066
0.0577672
0.0550128
0.0523589
0.0498091
0.0473618
0.0450135
0.0427601
0.0405979
0.0385229
0.0365317
0.0346207
0.0327862
0.0310249
0.0293339
0.0277104
0.0261512
0.024654
0.0232164
0.0218365
0.0205121
0.0192424
0.018025
0.0168588
0.0157414
0.0146712
0.013646
0.0126652
0.0117283
0.0108351
0.00998551
0.00918182
0.00842672
0.00772569
0.00710113
0.00653622
0.00595014
0.00531099
0.00459589
0.00376571
0.00275119
0.0666285
0.0639551
0.0612972
0.0586822
0.0561344
0.0536681
0.0512871
0.0489907
0.0467762
0.0446411
0.0425825
0.0405978
0.0386842
0.0368392
0.0350599
0.0333442
0.0316897
0.0300943
0.0285562
0.0270737
0.025645
0.0242694
0.0229464
0.0216758
0.0204563
0.019286
0.0181645
0.017091
0.0160653
0.0150872
0.0141585
0.0132811
0.0124583
0.0116971
0.0110107
0.0103632
0.00970306
0.00900653
0.00825053
0.00740967
0.0064544
0.00534905
0.00404361
0.0668424
0.064393
0.0619499
0.0595366
0.0571746
0.0548772
0.0526486
0.0504888
0.0483965
0.0463694
0.0444061
0.0425046
0.0406631
0.0388798
0.0371529
0.0354806
0.0338617
0.0322946
0.0307781
0.0293111
0.0278937
0.0265248
0.0252058
0.023937
0.0227177
0.0215478
0.0204271
0.0193564
0.0183362
0.0173691
0.016458
0.0156089
0.0148291
0.0141156
0.0134164
0.0126978
0.0119374
0.0111147
0.0102091
0.00919682
0.00804917
0.00673156
0.00520394
0.0670765
0.0648199
0.0625661
0.060333
0.0581377
0.0559917
0.0539004
0.051864
0.049882
0.0479529
0.046076
0.0442502
0.0424743
0.0407476
0.0390689
0.0374372
0.0358517
0.0343113
0.0328155
0.0313645
0.0299577
0.0285963
0.0272817
0.0260153
0.0247968
0.0236277
0.0225088
0.0214414
0.020429
0.0194748
0.0185844
0.017766
0.0170126
0.0162746
0.0155183
0.014722
0.0138664
0.0129329
0.0118999
0.0107437
0.00943567
0.00794337
0.00622971
0.0673047
0.0652253
0.0631432
0.0610723
0.0590266
0.057017
0.055049
0.0531241
0.0512413
0.0494007
0.0476016
0.0458437
0.044127
0.0424511
0.0408161
0.0392213
0.0376666
0.0361513
0.0346753
0.0332389
0.0318431
0.030489
0.0291785
0.0279133
0.026695
0.0255256
0.0244074
0.0233436
0.022338
0.0213961
0.0205252
0.0197263
0.0189543
0.0181729
0.0173576
0.0164894
0.0155504
0.0145205
0.0133783
0.0120989
0.0106537
0.00901018
0.00713295
0.0675184
0.0656048
0.063679
0.0617553
0.0598447
0.0579574
0.0561009
0.0542766
0.0524841
0.0507225
0.0489932
0.0472962
0.0456318
0.0440011
0.0424045
0.040843
0.0393166
0.0378247
0.0363671
0.0349451
0.0335596
0.0322125
0.0309064
0.0296418
0.028422
0.0272507
0.0261316
0.0250694
0.0240692
0.0231383
0.0222839
0.0214765
0.0206714
0.019844
0.0189744
0.0180435
0.0170317
0.0159189
0.0146824
0.0132959
0.0117313
0.00995472
0.00793103
0.0677334
0.0659625
0.0641761
0.0623848
0.0605959
0.0588178
0.0570616
0.05533
0.053619
0.0519285
0.0502617
0.0486186
0.047001
0.0454093
0.0438459
0.0423131
0.0408126
0.0393432
0.0379023
0.0364944
0.0351185
0.0337782
0.0324798
0.031215
0.0299914
0.0288154
0.0276935
0.0266304
0.0256336
0.024711
0.0238621
0.0230349
0.022192
0.0213187
0.0204008
0.0194154
0.0183418
0.0171576
0.0158395
0.0143587
0.0126893
0.0107974
0.00864341
0.0679367
0.0662962
0.0646374
0.0629643
0.061286
0.0596022
0.0579345
0.0562915
0.054657
0.053028
0.0514181
0.0498221
0.0482465
0.0466887
0.0451528
0.0436422
0.0421636
0.0407208
0.0392923
0.0378993
0.0365358
0.0351913
0.033914
0.03265
0.0314183
0.0302344
0.0291074
0.0280407
0.0270433
0.0261297
0.0252688
0.024422
0.0235431
0.0226202
0.0216613
0.0206296
0.0195036
0.0182592
0.0168723
0.0153059
0.0135405
0.0115544
0.00930326
0.000647898
0.000544329
0.000767458
0.000987498
0.00119571
0.00139361
0.00158297
0.00176545
0.00194315
0.00211818
0.00229296
0.00247119
0.00265772
0.00285956
0.00308649
0.00334867
0.00364935
0.00398672
0.00435663
0.0047566
0.00518479
0.0056409
0.00612449
0.00663594
0.00717566
0.00774432
0.00834224
0.00897008
0.00962856
0.0103182
0.0110395
0.0117935
0.012581
0.0134029
0.0142598
0.015153
0.0160836
0.0170521
0.0180599
0.0191082
0.020198
0.0213314
0.0225106
0.00153362
0.000861375
0.000954366
0.00117527
0.0013911
0.00159616
0.00179222
0.00198182
0.002168
0.00235447
0.00254598
0.0027481
0.00296794
0.00321379
0.00349423
0.0038132
0.00416488
0.00454543
0.00495207
0.00538344
0.00583875
0.00631789
0.00682088
0.00734756
0.00789865
0.00847446
0.00907539
0.00970172
0.0103538
0.0110322
0.0117373
0.0124701
0.0132312
0.0140213
0.0148409
0.0156913
0.0165731
0.0174872
0.0184343
0.0194158
0.0204326
0.021486
0.0225766
0.00252648
0.00131873
0.00114286
0.00134486
0.00156741
0.00178022
0.0019847
0.00218456
0.00238447
0.0025901
0.00280788
0.00304469
0.00330709
0.00360159
0.00393396
0.00430012
0.0046928
0.00510892
0.00554668
0.00600531
0.00648447
0.0069838
0.00750363
0.00804376
0.0086045
0.00918609
0.00978849
0.010412
0.0110571
0.0117239
0.012413
0.013125
0.0138602
0.0146194
0.0154031
0.0162121
0.017047
0.0179084
0.0187973
0.0197144
0.0206605
0.0216365
0.0226432
0.00345441
0.00184722
0.00133917
0.00149469
0.00172186
0.00194319
0.00215814
0.00237198
0.00259122
0.00282293
0.00307389
0.00335004
0.00365628
0.00399683
0.00437374
0.0047778
0.00520373
0.00564925
0.00611326
0.00659514
0.00709449
0.00761119
0.00814519
0.00869642
0.00926474
0.00985028
0.0104531
0.0110732
0.0117109
0.0123662
0.0130398
0.013732
0.0144429
0.0151734
0.0159236
0.0166941
0.0174856
0.0182984
0.0191333
0.019991
0.020872
0.021777
0.0227067
0.00427968
0.00237859
0.0015434
0.00162803
0.00185785
0.00208867
0.00231648
0.00254808
0.00279122
0.00305323
0.00333999
0.0036555
0.0040026
0.00438498
0.00479827
0.00523363
0.00568738
0.00615806
0.00664457
0.00714627
0.00766307
0.00819458
0.00874058
0.00930092
0.00987514
0.0104635
0.0110656
0.0116817
0.0123119
0.0129563
0.0136152
0.0142887
0.0149772
0.015681
0.0164004
0.0171357
0.0178874
0.0186559
0.0194416
0.020245
0.0210666
0.0219062
0.0227637
0.00500617
0.00287336
0.00174838
0.00174786
0.0019789
0.00222045
0.00246349
0.00271578
0.00298557
0.00327952
0.0036016
0.00395382
0.00433797
0.0047567
0.0052003
0.00566226
0.00614006
0.00663233
0.00713842
0.00765765
0.00818968
0.00873394
0.00929003
0.00985775
0.0104367
0.0110268
0.011628
0.0122399
0.0128628
0.0134968
0.0141418
0.0147981
0.0154658
0.0161452
0.0168363
0.0175394
0.0182549
0.0189829
0.0197238
0.0204777
0.0212451
0.0220259
0.0228216
0.00564433
0.00331855
0.00194796
0.00185669
0.00208802
0.00234131
0.00260141
0.00287641
0.00317409
0.00349953
0.00385488
0.0042405
0.0046582
0.00510707
0.00557626
0.00606142
0.00656045
0.00707224
0.00759556
0.0081301
0.00867523
0.00923069
0.00979553
0.0103695
0.0109523
0.0115436
0.0121434
0.012751
0.013367
0.0139914
0.0146237
0.015264
0.0159126
0.0165693
0.0172344
0.0179083
0.0185909
0.019282
0.0199819
0.0206908
0.0214086
0.0221353
0.0228706
0.00621193
0.00371348
0.0021321
0.00195511
0.00218663
0.00245278
0.00273154
0.00302958
0.00335475
0.00371038
0.00409584
0.00451106
0.00495842
0.00543253
0.00592479
0.0064321
0.00695161
0.00748081
0.00801854
0.00856597
0.00912303
0.00968828
0.0102611
0.0108406
0.0114268
0.012019
0.0126168
0.0132202
0.0138296
0.014445
0.0150655
0.0156905
0.0163206
0.0169563
0.0175979
0.0182453
0.0188984
0.019556
0.0202182
0.0208857
0.0215583
0.0222357
0.0229185
0.00676264
0.00410592
0.00233236
0.00204748
0.00227944
0.00256173
0.00285389
0.00317802
0.00353534
0.00391462
0.00432754
0.00477089
0.00524655
0.00575342
0.00628154
0.00681854
0.00735183
0.00788176
0.00841653
0.00897599
0.00954579
0.0101208
0.0107006
0.011285
0.0118738
0.0124646
0.0130578
0.0136552
0.0142584
0.0148669
0.0154755
0.0160824
0.0166929
0.0173084
0.017929
0.0185546
0.0191825
0.0198083
0.0204345
0.0210645
0.0216956
0.022327
0.0229595
0.000298812
0.0011178
0.00236553
0.00361811
0.0048168
0.00596967
0.00708101
0.00815579
0.00919867
0.0102146
0.0112083
0.0121837
0.0131448
0.0140973
0.0150519
0.0160231
0.0170222
0.0180516
0.0191043
0.0201702
0.0212783
0.0224836
0.023773
0.0251271
0.0265311
0.0279773
0.029461
0.0309778
0.0325249
0.0340989
0.0356981
0.0373202
0.0389637
0.0406275
0.0423099
0.0440096
0.0457257
0.0474567
0.0492019
0.0509595
0.0527295
0.054512
0.0563134
0.000232344
0.000789371
0.00178271
0.00287745
0.00389699
0.00486406
0.00580343
0.00673182
0.00765475
0.00857463
0.00949285
0.0104105
0.0113291
0.012251
0.01318
0.0141214
0.0150815
0.0160654
0.0170751
0.0181128
0.0191905
0.0203273
0.0215266
0.0227753
0.0240597
0.0254244
0.0268801
0.0284032
0.0299775
0.0315943
0.0332469
0.0349302
0.0366403
0.0383739
0.0401283
0.0419015
0.0436916
0.0454969
0.0473162
0.0491479
0.0509912
0.052847
0.0547177
0.000103543
0.000509315
0.00118576
0.00206486
0.00314006
0.00426391
0.00530564
0.00627361
0.00718761
0.00806365
0.00891407
0.00974883
0.0105764
0.0114042
0.0122388
0.0130865
0.0139535
0.0148461
0.01577
0.0167311
0.0177366
0.0187939
0.0199087
0.0210804
0.0223075
0.0235991
0.0249554
0.0263617
0.0278371
0.0294094
0.0310529
0.0327507
0.0344911
0.0362663
0.0380703
0.0398981
0.0417462
0.0436119
0.0454926
0.0473865
0.0492924
0.05121
0.0531395
0.000112615
0.000426652
0.000986142
0.00171088
0.00260395
0.00366502
0.00477548
0.00583656
0.0068381
0.00778475
0.00868242
0.00953772
0.0103584
0.011153
0.011931
0.0127026
0.0134779
0.0142672
0.015081
0.015929
0.0168208
0.0177649
0.0187687
0.0198375
0.0209742
0.0221807
0.0234556
0.0247945
0.0261989
0.027669
0.0291944
0.0308177
0.0325278
0.0343013
0.0361231
0.0379822
0.0398711
0.0417836
0.0437155
0.0456632
0.0476246
0.0495978
0.0515813
8.50839e-05
0.000373973
0.000862996
0.00149752
0.00227659
0.00320198
0.00427157
0.00538361
0.00645729
0.00747862
0.00844907
0.00937157
0.0102487
0.0110839
0.0118817
0.012649
0.0133945
0.0141289
0.0148645
0.0156146
0.0163929
0.0172127
0.0180866
0.0190253
0.020037
0.0211266
0.0222962
0.0235447
0.0248695
0.026266
0.0277289
0.0292626
0.030859
0.0325486
0.0343317
0.0361831
0.0380848
0.0400242
0.0419927
0.0439833
0.0459917
0.0480141
0.0500466
7.82405e-05
0.00034263
0.000788857
0.00136599
0.00207259
0.00291069
0.00388404
0.00497437
0.00608321
0.0071593
0.00819078
0.00917682
0.0101181
0.0110151
0.0118686
0.0126803
0.0134537
0.014195
0.0149127
0.0156182
0.0163255
0.0170503
0.017809
0.0186179
0.019492
0.0204429
0.0214793
0.0226055
0.0238218
0.0251253
0.026511
0.0279738
0.0295068
0.0311118
0.0327839
0.0345588
0.0364255
0.0383591
0.040341
0.0423581
0.0444017
0.0464647
0.0485413
6.79191e-05
0.000317841
0.000732429
0.00126849
0.00192322
0.00269855
0.00359782
0.00462334
0.005732
0.00684358
0.00792396
0.00896382
0.00996173
0.0109173
0.01183
0.0126993
0.0135252
0.0143091
0.0150547
0.0157681
0.0164589
0.01714
0.0178271
0.0185384
0.0192929
0.0201092
0.021003
0.0219869
0.0230682
0.0242496
0.0255294
0.0269024
0.0283617
0.0299002
0.0315105
0.0331958
0.0349567
0.0368304
0.0387883
0.0408063
0.0428669
0.0449579
0.0470706
6.21024e-05
0.000300077
0.000691537
0.00119713
0.00181312
0.00254129
0.00338499
0.00434835
0.00542323
0.00654573
0.00765998
0.00874364
0.00979006
0.0107972
0.011764
0.0126891
0.0135711
0.0144089
0.0152027
0.0159544
0.0166682
0.0173518
0.0180164
0.0186774
0.0193529
0.020064
0.0208315
0.0216752
0.022611
0.0236502
0.024798
0.0260543
0.0274144
0.0288706
0.0304141
0.0320368
0.0337325
0.0355049
0.0373798
0.0393566
0.0414062
0.0435064
0.0456407
5.6952e-05
0.000285856
0.000659129
0.00114058
0.00172637
0.00241782
0.00321801
0.00413109
0.00515907
0.00627126
0.0074048
0.00852284
0.00961056
0.010663
0.011678
0.0126538
0.0135885
0.0144803
0.0153273
0.0161287
0.0168854
0.0176001
0.0182791
0.0189324
0.0195739
0.020222
0.0208983
0.0216258
0.0224272
0.0233217
0.024324
0.0254421
0.0266778
0.028027
0.0294819
0.0310323
0.0326679
0.0343811
0.0361726
0.0380522
0.0400483
0.0421297
0.044273
5.32426e-05
0.000274756
0.000634092
0.00109553
0.00165695
0.00231903
0.00308432
0.00395676
0.00494044
0.00602632
0.00716428
0.00830632
0.00942818
0.01052
0.0115778
0.0125992
0.0135822
0.0145244
0.0154232
0.0162766
0.0170829
0.0178423
0.0185568
0.0192313
0.0198747
0.0205003
0.0211262
0.0217742
0.022469
0.0232355
0.0240959
0.0250679
0.026162
0.0273818
0.028724
0.0301807
0.0317406
0.0333924
0.0351263
0.0369373
0.0388338
0.0408535
0.042969
5.02472e-05
0.000265487
0.000613399
0.00105831
0.00159976
0.00223761
0.0029742
0.00381325
0.0047591
0.00581168
0.00694143
0.00809738
0.00924633
0.0103722
0.011468
0.0125306
0.0135574
0.0145459
0.0154933
0.0163967
0.0172537
0.0180621
0.0188216
0.0195334
0.0202019
0.0208354
0.0214464
0.0220528
0.0226771
0.023345
0.0240832
0.0249166
0.0258652
0.026942
0.0281521
0.0294926
0.0309555
0.0325289
0.0341998
0.0359564
0.0377923
0.0397177
0.0417702
4.80756e-05
0.00025789
0.000596091
0.00102715
0.00155193
0.0021695
0.00288211
0.00369314
0.00460709
0.00562677
0.00673858
0.00789897
0.00906763
0.0102222
0.0113519
0.0124516
0.0135183
0.0145492
0.0155415
0.016492
0.0173976
0.0182553
0.0190629
0.0198195
0.020526
0.0211864
0.0218086
0.0224049
0.0229933
0.0235968
0.0242423
0.0249581
0.0257713
0.0267039
0.0277708
0.0289779
0.0303231
0.0317976
0.0333888
0.0350824
0.0368662
0.0387349
0.0406993
4.65154e-05
0.000251715
0.000581331
0.00100053
0.00151113
0.00211157
0.00280381
0.00359113
0.00447766
0.00546761
0.00655642
0.00771271
0.00889419
0.0100722
0.0112316
0.0123649
0.013468
0.0145379
0.0155715
0.0165659
0.0175174
0.0184226
0.0192783
0.0200821
0.0208328
0.021531
0.0221807
0.0227897
0.0233704
0.0239413
0.0245261
0.0251529
0.0258517
0.0266512
0.0275753
0.0286398
0.0298515
0.0312082
0.0327005
0.0343148
0.0360368
0.0378549
0.0397663
4.55654e-05
0.00024704
0.000568557
0.000977538
0.00147591
0.00206163
0.00273637
0.00350327
0.00436625
0.00532977
0.0063943
0.00754004
0.00872766
0.00992396
0.0111091
0.0122726
0.013409
0.0145147
0.0155868
0.0166218
0.0176163
0.0185665
0.0194688
0.0203196
0.0211164
0.021858
0.0225449
0.0231811
0.0237747
0.0243387
0.0248921
0.0254598
0.0260712
0.026758
0.0275505
0.0284735
0.0295437
0.0307679
0.0321434
0.0336602
0.0353041
0.0370601
0.0389135
4.52649e-05
0.000243878
0.000557499
0.000957544
0.00144534
0.00201817
0.00267766
0.00342671
0.00426935
0.00520974
0.00625061
0.0073815
0.00856935
0.00977877
0.0109857
0.0121763
0.0133433
0.0144821
0.0155897
0.0166626
0.0176973
0.0186898
0.0196364
0.020533
0.021376
0.0221627
0.0228918
0.0235642
0.0241841
0.0247599
0.0253057
0.0258416
0.0263937
0.0269932
0.0276732
0.0284652
0.0293949
0.0304791
0.0317241
0.0331263
0.0346747
0.0363541
0.0381472
4.53932e-05
0.000241904
0.000547796
0.000939889
0.0014184
0.00197992
0.00262604
0.00335956
0.00418412
0.00510418
0.00612313
0.00723678
0.00842011
0.00963785
0.0108626
0.0120773
0.0132722
0.0144419
0.0155824
0.0166906
0.0177628
0.0187953
0.0197837
0.0207241
0.0216122
0.0224442
0.0232174
0.0239307
0.0245853
0.0251859
0.0257418
0.0262682
0.0267866
0.0273251
0.0279163
0.0285949
0.0293935
0.0303381
0.0314449
0.0327193
0.0341563
0.0357439
0.0374677
4.57106e-05
0.000240658
0.000539132
0.00092421
0.00139437
0.00194601
0.00258029
0.00330004
0.00410866
0.00501046
0.00600962
0.00710527
0.00828031
0.00950218
0.010741
0.0119766
0.0131969
0.0143951
0.0155666
0.0167078
0.0178152
0.018885
0.0199132
0.0208951
0.0218265
0.022703
0.0235207
0.0242771
0.0249712
0.0256048
0.0261832
0.0267171
0.0272231
0.0277246
0.0282517
0.0288389
0.0295223
0.0303352
0.0313033
0.0324417
0.0337543
0.0352342
0.0368688
4.62487e-05
0.000239917
0.000531466
0.000910198
0.00137299
0.00191567
0.00253944
0.00324683
0.00404131
0.0049269
0.00590803
0.00698609
0.00815021
0.00937232
0.0106216
0.0118751
0.0131185
0.0143431
0.0155435
0.0167157
0.0178563
0.0189613
0.0200268
0.0210483
0.022021
0.0229404
0.023802
0.0246021
0.0253382
0.0260096
0.0266189
0.0271726
0.0276827
0.0281678
0.0286536
0.0291723
0.0297607
0.0304558
0.0312914
0.0322922
0.0334714
0.0348307
0.0363603
4.69049e-05
0.000239488
0.000524573
0.000897543
0.00135376
0.00188842
0.00250269
0.00319903
0.00398077
0.0048519
0.00581667
0.00687793
0.00802953
0.00924867
0.0105051
0.0117738
0.0130378
0.0142868
0.0155142
0.0167156
0.0178874
0.0190257
0.0201265
0.0211853
0.0221976
0.0231582
0.0240626
0.0249059
0.0256847
0.0263969
0.0270422
0.0276241
0.0281507
0.0286358
0.0291002
0.0295723
0.0300869
0.0306824
0.0313974
0.0322647
0.0333076
0.0345367
0.0359502
4.75385e-05
0.000239227
0.000518321
0.000886105
0.00133625
0.00186373
0.00246946
0.00315583
0.00392601
0.00478394
0.00573398
0.00677949
0.00791785
0.00913152
0.010392
0.011673
0.0129554
0.0142268
0.0154796
0.0167086
0.0179098
0.0190796
0.0202139
0.0213083
0.022358
0.0233582
0.0243036
0.0251894
0.0260109
0.0267648
0.0274493
0.0280651
0.0286169
0.0291145
0.0295739
0.0300187
0.0304803
0.030996
0.0316062
0.0323498
0.0332586
0.0343532
0.035641
4.81779e-05
0.00023902
0.000512582
0.000875689
0.00132038
0.00184124
0.00243924
0.00311658
0.00387632
0.00472226
0.00565881
0.00668979
0.00781477
0.00902108
0.010283
0.0115736
0.012872
0.0141639
0.0154404
0.0166955
0.0179247
0.0191244
0.0202903
0.0214185
0.022504
0.0235418
0.0245268
0.0254536
0.0263172
0.0271131
0.0278384
0.0284915
0.0290747
0.0295938
0.0300609
0.0304949
0.0309224
0.0313779
0.0319015
0.0325351
0.0333173
0.034278
0.0354351
4.89123e-05
0.000238883
0.00050741
0.000866105
0.00130587
0.00182075
0.00241159
0.00308064
0.00383093
0.00466604
0.00559024
0.00660768
0.00771956
0.00891715
0.0101782
0.0114761
0.0127883
0.0140988
0.0153974
0.016677
0.0179329
0.0191608
0.0203571
0.0215173
0.0226368
0.0237107
0.0247337
0.0257001
0.0266047
0.0274422
0.0282087
0.0289013
0.0295197
0.0300672
0.0305517
0.0309878
0.0313977
0.0318114
0.0322669
0.0328067
0.0334736
0.034305
0.0353262
4.96288e-05
0.000238836
0.000502697
0.000857389
0.00129252
0.00180194
0.00238627
0.00304772
0.00378921
0.00461447
0.00552736
0.00653226
0.00763153
0.00881955
0.0100778
0.0113806
0.0127045
0.014032
0.015351
0.0166538
0.0179349
0.01919
0.020415
0.0216058
0.0227579
0.0238662
0.0249254
0.0259301
0.0268744
0.0277529
0.0285604
0.0292934
0.0299496
0.0305299
0.031039
0.0314877
0.0318933
0.0322816
0.0326868
0.03315
0.033716
0.0344277
0.0353215
5.03048e-05
0.000238784
0.000498383
0.000849431
0.00128025
0.00178457
0.00236295
0.00301746
0.0037509
0.00456687
0.00546949
0.00646285
0.00755008
0.00872814
0.00998203
0.0112877
0.0126213
0.0139638
0.0153019
0.0166265
0.0179316
0.0192125
0.0204651
0.0216851
0.0228682
0.0240095
0.0251036
0.0261449
0.0271276
0.0280459
0.0288941
0.0296676
0.030363
0.030979
0.0315181
0.0319871
0.0323994
0.0327762
0.0331474
0.033551
0.0340315
0.0346345
0.0354003
5.10226e-05
0.000238787
0.000494529
0.000842229
0.00126897
0.00176857
0.0023414
0.00298938
0.00371548
0.00452297
0.00541593
0.0063987
0.00747453
0.0086425
0.0098909
0.0111977
0.0125391
0.0138949
0.0152505
0.0165957
0.0179236
0.019229
0.020508
0.0217561
0.0229689
0.0241416
0.0252692
0.0263458
0.0273656
0.0283224
0.0292105
0.0300243
0.0307594
0.0314131
0.0319855
0.0324807
0.0329084
0.0332852
0.0336366
0.0339967
0.0344076
0.0349159
0.035566
5.17225e-05
0.000238829
0.000490977
0.000835618
0.00125847
0.00175371
0.00232136
0.0029634
0.00368258
0.00448236
0.00536641
0.00633914
0.00740438
0.00856225
0.00980414
0.0111106
0.0124581
0.0138256
0.0151971
0.0165616
0.0179112
0.0192403
0.0205444
0.0218193
0.0230606
0.0242637
0.0254232
0.0265338
0.0275893
0.0285836
0.0295104
0.030364
0.0311389
0.0318313
0.0324395
0.0329651
0.0334147
0.0338009
0.0341446
0.0344756
0.0348327
0.0352612
0.0358078
5.23646e-05
0.000238829
0.000487625
0.000829499
0.00124873
0.00173984
0.00230276
0.0029393
0.00365209
0.00444449
0.00532037
0.00628384
0.00733898
0.00848709
0.0097219
0.0110266
0.0123785
0.0137561
0.0151423
0.0165248
0.0178949
0.0192466
0.020575
0.0218756
0.0231443
0.0243765
0.0255669
0.02671
0.0277999
0.0288304
0.029795
0.0306874
0.0315018
0.0322333
0.0328788
0.033438
0.0339143
0.0343173
0.0346633
0.0349779
0.0352959
0.0356605
0.0361208
5.30411e-05
0.000238822
0.000484545
0.000823802
0.00123966
0.00172696
0.00228546
0.00291677
0.00362369
0.00440928
0.00527745
0.00623236
0.00727806
0.00841666
0.0096441
0.0109459
0.0123008
0.0136869
0.0150864
0.0164857
0.0178754
0.0192485
0.0206001
0.0219257
0.0232207
0.0244807
0.0257008
0.0268753
0.0279985
0.0290638
0.0300651
0.0309954
0.0318487
0.0326193
0.0333029
0.0338975
0.0344044
0.0348298
0.0351865
0.0354956
0.0357874
0.0361022
0.0364875
5.37158e-05
0.000238841
0.000481672
0.000818413
0.00123118
0.00171495
0.00226925
0.00289577
0.00359705
0.00437641
0.0052374
0.00618424
0.00722107
0.00835062
0.00957037
0.0108685
0.012225
0.0136184
0.0150297
0.0164447
0.0178528
0.0192466
0.0206205
0.0219698
0.0232904
0.0245773
0.0258258
0.0270306
0.0281857
0.0292849
0.0303215
0.0312889
0.0321803
0.0329897
0.0337117
0.034343
0.034883
0.0353353
0.0357092
0.0360217
0.0362988
0.0365765
0.0368993
5.43262e-05
0.000238837
0.000478943
0.000813419
0.0012232
0.0017037
0.00225409
0.00287613
0.00357224
0.0043456
0.00519995
0.00613919
0.00716769
0.00828853
0.0095006
0.0107943
0.0121513
0.0135505
0.0149726
0.016402
0.0178276
0.0192411
0.0206365
0.0220089
0.0233537
0.0246667
0.0259428
0.0271767
0.0283627
0.0294945
0.0305654
0.0315687
0.0324974
0.0333449
0.0341054
0.0347741
0.035349
0.0358314
0.0362276
0.0365509
0.0368229
0.0370751
0.0373485
5.49445e-05
0.000238859
0.000476449
0.000808778
0.00121577
0.00169308
0.00223992
0.00285773
0.00354903
0.00431682
0.00516481
0.00609706
0.00711772
0.00823029
0.00943471
0.0107234
0.01208
0.0134839
0.0149153
0.0163582
0.0178002
0.0192325
0.0206485
0.0220431
0.0234116
0.0247496