/*--------------------------------*- C++ -*----------------------------------*\
| =========                 |                                                 |
| \\      /  F ield         | OpenFOAM: The Open Source CFD Toolbox           |
|  \\    /   O peration     | Version:  2.3.0                                 |
|   \\  /    A nd           | Web:      www.OpenFOAM.org                      |
|    \\/     M anipulation  |                                                 |
\*---------------------------------------------------------------------------*/
FoamFile
{
    version     2.0;
    format      ascii;
    class       volScalarField;
    location    "1000";
    object      nut;
}
// * * * * * * * * * * * * * * * * * * * * * * * * * * * * * * * * * * * * * //

dimensions      [0 2 -1 0 0 0 0];

internalField   nonuniform List<scalar> 
38250
(
0.0732938
0.0717256
0.0701514
0.0685702
0.0669833
0.0653919
0.0637966
0.0621984
0.0605977
0.0589956
0.0573923
0.0557888
0.0541855
0.052583
0.050982
0.0493827
0.0477858
0.0461919
0.0446015
0.0430147
0.0414321
0.0398539
0.0382807
0.0367125
0.0351501
0.0335939
0.0320438
0.030501
0.0289659
0.0274393
0.0259229
0.0244184
0.0229278
0.0214543
0.0200031
0.0185806
0.0171966
0.0158631
0.0145971
0.0134105
0.0122858
0.0110688
0.00893454
0.0742991
0.072908
0.0715103
0.0701069
0.0686989
0.0672868
0.0658711
0.0644523
0.0630307
0.0616068
0.0601806
0.0587526
0.0573229
0.0558919
0.05446
0.0530274
0.0515943
0.0501614
0.0487292
0.0472978
0.0458674
0.044439
0.0430131
0.0415902
0.040171
0.0387571
0.037349
0.035948
0.0345569
0.0331777
0.0318142
0.0304703
0.0291513
0.0278647
0.0266193
0.0254263
0.0243006
0.0232598
0.0223246
0.0215177
0.0208644
0.0203839
0.0200878
0.0752415
0.0739983
0.0727516
0.0715002
0.0702447
0.0689851
0.0677218
0.0664549
0.0651845
0.0639107
0.0626336
0.0613533
0.0600696
0.0587827
0.0574931
0.0562007
0.0549057
0.0536088
0.0523101
0.05101
0.0497092
0.0484086
0.0471089
0.0458103
0.0445148
0.0432236
0.0419381
0.0406604
0.0393929
0.0381397
0.0369044
0.0356918
0.0345081
0.0333613
0.0322604
0.0312155
0.0302395
0.0293471
0.0285522
0.0278709
0.0273175
0.0269023
0.0266321
0.0761127
0.0749992
0.0738834
0.0727629
0.0716382
0.0705089
0.0693753
0.0682373
0.0670946
0.0659474
0.0647959
0.0636397
0.0624785
0.0613124
0.0601417
0.0589662
0.0577862
0.0566022
0.0554144
0.0542231
0.0530291
0.0518335
0.0506373
0.049441
0.0482462
0.0470547
0.0458682
0.0446889
0.0435192
0.0423636
0.0412261
0.0401114
0.0390266
0.0379784
0.036975
0.0360264
0.0351437
0.034339
0.0336233
0.033009
0.0325065
0.0321238
0.0318654
0.0769132
0.0759147
0.0749128
0.0739058
0.0728935
0.0718757
0.0708525
0.069824
0.0687897
0.0677496
0.0667038
0.0656517
0.0645933
0.0635284
0.0624572
0.0613793
0.0602951
0.0592049
0.0581089
0.0570077
0.0559016
0.0547921
0.0536802
0.0525669
0.0514543
0.0503437
0.0492368
0.0481358
0.0470437
0.0459645
0.0449023
0.0438623
0.0428505
0.0418738
0.0409399
0.040058
0.0392377
0.0384898
0.0378241
0.0372503
0.0367777
0.0364135
0.0361622
0.0776474
0.0767502
0.0758476
0.0749389
0.0740236
0.0731013
0.0721724
0.0712369
0.0702947
0.0693453
0.0683886
0.0674242
0.0664521
0.0654722
0.0644844
0.0634883
0.0624841
0.061472
0.0604526
0.0594261
0.0583928
0.0573538
0.0563106
0.0552652
0.0542192
0.0531742
0.052132
0.0510945
0.0500647
0.0490458
0.0480424
0.0470602
0.0461044
0.0451815
0.0442993
0.0434665
0.042691
0.0419826
0.0413506
0.0408039
0.0403511
0.039999
0.0397515
0.0783217
0.0775116
0.076695
0.0758716
0.0750406
0.0742003
0.0733515
0.0724953
0.0716316
0.0707594
0.0698783
0.0689881
0.068089
0.0671807
0.0662628
0.0653359
0.0643993
0.0634521
0.0624964
0.0615327
0.0605608
0.0595802
0.0585932
0.0576027
0.0566106
0.055619
0.0546298
0.0536455
0.0526672
0.0516967
0.0507393
0.0498024
0.0488916
0.0480111
0.0471689
0.0463732
0.0456315
0.0449527
0.0443454
0.0438179
0.0433787
0.0430342
0.0427898
0.0789396
0.0782055
0.0774622
0.0767126
0.0759562
0.0751864
0.0744056
0.0736164
0.0728196
0.0720141
0.0711976
0.0703696
0.0695329
0.0686852
0.0678255
0.0669571
0.06608
0.0651859
0.0642829
0.0633728
0.0624539
0.0615229
0.0605818
0.0596361
0.0586878
0.0577391
0.0567929
0.0558525
0.0549193
0.0539902
0.0530677
0.0521661
0.0512924
0.0504463
0.0496361
0.0488694
0.048155
0.047499
0.0469125
0.0463972
0.0459684
0.0456285
0.0453868
0.0795176
0.0788422
0.0781572
0.0774667
0.076779
0.0760724
0.0753494
0.0746139
0.0738721
0.0731232
0.0723636
0.0715862
0.0708015
0.0700064
0.0691973
0.0683699
0.0675523
0.0667036
0.0658439
0.064976
0.0641035
0.0632193
0.0623147
0.0614058
0.0604924
0.0595758
0.0586608
0.0577508
0.0568558
0.0559715
0.0550765
0.0541977
0.0533533
0.0525378
0.0517549
0.051014
0.050324
0.0496858
0.0491209
0.0486108
0.0481962
0.0478579
0.0476224
0.00834138
0.00979088
0.0109935
0.0120545
0.0130849
0.0141344
0.0152177
0.0163393
0.0174944
0.0186802
0.0198925
0.0211263
0.0223813
0.0236527
0.0249398
0.0262407
0.0275535
0.0288784
0.0302134
0.0315581
0.032912
0.0342747
0.0356459
0.0370245
0.0384109
0.0398043
0.0412045
0.0426115
0.0440244
0.0454431
0.0468673
0.0482965
0.0497304
0.0511689
0.0526111
0.0540568
0.0555056
0.056957
0.0584107
0.0598664
0.061324
0.0627836
0.0642446
0.0199746
0.0200332
0.0202578
0.0206375
0.0211583
0.0218021
0.0225518
0.0233897
0.0243002
0.0252696
0.0262863
0.0273425
0.0284299
0.0295438
0.0306791
0.0318319
0.0330002
0.0341812
0.0353733
0.036575
0.0377851
0.0390027
0.0402275
0.0414581
0.0426945
0.0439358
0.0451821
0.0464326
0.0476873
0.0489459
0.050208
0.0514734
0.0527421
0.0540135
0.0552876
0.0565642
0.0578431
0.0591238
0.0604063
0.0616908
0.0629774
0.0642675
0.065566
0.0265016
0.0265094
0.0266541
0.0269317
0.0273327
0.0278467
0.0284596
0.029158
0.0299297
0.0307632
0.0316478
0.0325747
0.0335375
0.0345289
0.0355447
0.0365795
0.0376309
0.0386963
0.0397723
0.040858
0.0419508
0.0430508
0.0441559
0.045266
0.0463796
0.0474967
0.0486168
0.0497395
0.0508645
0.0519915
0.05312
0.0542503
0.0553822
0.0565154
0.0576498
0.0587853
0.0599219
0.0610593
0.0621977
0.063337
0.0644772
0.0656187
0.0667612
0.0317297
0.0317147
0.0318208
0.0320443
0.0323787
0.0328152
0.0333435
0.0339523
0.0346319
0.0353716
0.036162
0.0369954
0.0378641
0.038763
0.0396859
0.0406291
0.0415888
0.042561
0.0435443
0.0445359
0.0455343
0.0465379
0.0475458
0.0485566
0.0495696
0.0505848
0.0516011
0.0526184
0.0536361
0.0546539
0.0556719
0.0566897
0.0577076
0.0587253
0.0597425
0.0607594
0.061776
0.0627922
0.063808
0.0648235
0.0658387
0.0668531
0.0678645
0.0360222
0.0359933
0.0360758
0.0362659
0.0365579
0.0369442
0.0374165
0.0379655
0.0385808
0.0392538
0.0399762
0.04074
0.0415391
0.0423674
0.0432193
0.0440907
0.0449775
0.0458764
0.0467852
0.0477015
0.0486229
0.0495484
0.0504767
0.0514065
0.0523377
0.053269
0.0541999
0.0551299
0.0560588
0.0569863
0.0579119
0.0588362
0.059759
0.0606799
0.0615988
0.0625158
0.0634309
0.0643439
0.0652551
0.0661651
0.0670736
0.0679808
0.068887
0.0396091
0.0395713
0.0396375
0.0398045
0.0400675
0.0404194
0.0408526
0.0413576
0.0419259
0.0425497
0.0432206
0.0439322
0.0446778
0.0454517
0.0462477
0.0470623
0.0478908
0.048731
0.0495798
0.0504347
0.0512936
0.0521551
0.0530181
0.0538819
0.0547454
0.0556077
0.056468
0.0573259
0.0581807
0.0590325
0.0598818
0.060728
0.0615709
0.0624105
0.0632465
0.064079
0.0649077
0.0657328
0.0665549
0.0673746
0.0681918
0.069006
0.0698188
0.0426459
0.0426007
0.042655
0.0428054
0.0430471
0.0433747
0.0437785
0.0442498
0.0447822
0.045368
0.0459997
0.0466705
0.0473748
0.0481058
0.0488574
0.0496251
0.0504071
0.0511999
0.0519996
0.0528039
0.053611
0.0544196
0.0552293
0.0560384
0.0568462
0.0576513
0.0584529
0.05925
0.0600426
0.0608316
0.0616169
0.0623979
0.0631736
0.0639445
0.0647105
0.0654713
0.0662261
0.0669756
0.0677217
0.0684645
0.0692029
0.0699359
0.0706645
0.0452437
0.0451905
0.0452373
0.0453739
0.0455988
0.0459106
0.0462919
0.046733
0.0472384
0.0477947
0.048395
0.0490333
0.0497062
0.0504028
0.0511161
0.0518451
0.0525911
0.0533442
0.0541036
0.0548645
0.0556281
0.0563935
0.0571594
0.0579235
0.0586852
0.059442
0.0601939
0.0609394
0.0616795
0.0624161
0.063149
0.0638745
0.0645926
0.0653065
0.0660122
0.0667127
0.0674027
0.068087
0.0687691
0.0694468
0.070118
0.0707795
0.0714339
0.0474857
0.047418
0.0474677
0.0475885
0.0477999
0.0481091
0.0484682
0.0488746
0.0493641
0.0498922
0.0504681
0.0510809
0.0517314
0.0523931
0.0530734
0.0537701
0.0544943
0.0552061
0.0559352
0.0566545
0.0573861
0.0581146
0.0588446
0.0595688
0.0602938
0.0610065
0.061718
0.0624176
0.0631162
0.0638115
0.0645012
0.0651758
0.0658458
0.0665166
0.067166
0.0678185
0.0684472
0.069079
0.0697111
0.070335
0.0709498
0.0715478
0.0721347
0.0162575
0.0153106
0.0144052
0.0135407
0.012716
0.0119301
0.0111819
0.0104709
0.00979644
0.0091581
0.00855619
0.00799171
0.00746694
0.006986
0.00655634
0.00618286
0.00585465
0.00556043
0.00529265
0.00504633
0.00481792
0.00460456
0.00440365
0.00421287
0.00402999
0.0038529
0.00367961
0.00350822
0.00333697
0.00316422
0.00298837
0.00280799
0.00262174
0.00242833
0.00222659
0.00201552
0.00179423
0.00156206
0.00131891
0.00106542
0.000804004
0.000538876
0.000270976
0.0161787
0.0152996
0.0144589
0.0136534
0.012882
0.0121435
0.0114373
0.0107627
0.010119
0.00950607
0.00892385
0.00837301
0.00785488
0.00737222
0.00693005
0.00653504
0.00618616
0.00587404
0.00559104
0.00533151
0.00509141
0.00486756
0.00465732
0.00445838
0.00426858
0.00408586
0.00390825
0.00373378
0.00356054
0.00338673
0.00321048
0.00303009
0.00284387
0.00265018
0.00244753
0.00223454
0.00201001
0.00177304
0.00152329
0.00126107
0.000986746
0.000696576
0.000404914
0.016105
0.0152957
0.0145171
0.0137683
0.0130478
0.0123549
0.0116888
0.0110491
0.0104352
0.00984692
0.00928424
0.00874748
0.00823752
0.00775617
0.00730666
0.00689439
0.00652493
0.00619379
0.00589347
0.00561832
0.00536417
0.00512767
0.00490603
0.00469687
0.00449804
0.00430753
0.00412332
0.00394351
0.0037661
0.00358915
0.00341062
0.00322858
0.00304099
0.00284593
0.00264149
0.00242584
0.00219737
0.00195477
0.00169721
0.00142431
0.0011337
0.000815428
0.000512722
0.0160424
0.015294
0.0145722
0.013875
0.0132013
0.0125502
0.0119212
0.0113138
0.0107276
0.0101625
0.00961857
0.00909587
0.00859509
0.00811747
0.00766517
0.00724217
0.00685455
0.00650496
0.00618721
0.00589567
0.00562627
0.00537577
0.00514138
0.00492066
0.00471143
0.00451167
0.00431937
0.00413265
0.00394945
0.00376778
0.00358553
0.00340051
0.00321046
0.00301314
0.00280626
0.00258758
0.00235505
0.00210688
0.00184177
0.00155818
0.00125089
0.000905619
0.00060276
0.0159847
0.015293
0.0146228
0.0139725
0.0133413
0.0127283
0.0121331
0.0115553
0.0109947
0.0104512
0.00992484
0.00941577
0.00892457
0.00845207
0.0079999
0.00757096
0.00717011
0.00680344
0.00646895
0.00616122
0.00587629
0.00561115
0.00536317
0.00513001
0.00490947
0.0046995
0.00449813
0.00430342
0.00411338
0.00392592
0.00373889
0.00354993
0.00335662
0.00315643
0.00294671
0.00272488
0.00248843
0.00223513
0.00196306
0.00166947
0.00134633
0.000976847
0.000681324
0.0159313
0.0152921
0.014669
0.0140614
0.0134686
0.0128902
0.0123258
0.0117751
0.011238
0.0107144
0.0102045
0.0097084
0.00922665
0.00876001
0.00830967
0.00787786
0.00746828
0.00708701
0.00673708
0.00641405
0.00611399
0.00583417
0.00557231
0.00532622
0.00509381
0.00487303
0.00466197
0.00445861
0.00426102
0.00406706
0.00387453
0.00368096
0.00348383
0.00328032
0.00306755
0.00284254
0.0026024
0.00234439
0.00206604
0.00176324
0.00142534
0.0010347
0.000752156
0.0158837
0.0152916
0.0147113
0.0141425
0.0135848
0.0130378
0.0125015
0.0119755
0.0114599
0.0109546
0.0104598
0.00997579
0.00950316
0.00904258
0.00859499
0.00816215
0.00774698
0.00735444
0.00699045
0.00665326
0.00633893
0.00604495
0.00576937
0.00551027
0.00526574
0.00503388
0.00481277
0.00460043
0.00439491
0.00419403
0.00399556
0.00379703
0.00359572
0.00338865
0.00317269
0.00294458
0.00270101
0.00243898
0.00215506
0.00184395
0.00149268
0.00108401
0.000817225
0.0158399
0.0152919
0.014751
0.0142179
0.0136925
0.013174
0.0126633
0.0121607
0.0116654
0.011177
0.0106962
0.0102228
0.00975797
0.00930318
0.00885907
0.00842661
0.00800794
0.00760711
0.00722999
0.00687913
0.00655115
0.00624359
0.00595461
0.00568258
0.00542588
0.00518263
0.00495102
0.0047293
0.00451555
0.00430744
0.00410269
0.0038988
0.003693
0.00348216
0.00326294
0.00303162
0.00278449
0.00251807
0.00222935
0.00191134
0.00154704
0.00112281
0.00087868
0.0158125
0.0152968
0.0147913
0.0142922
0.0138003
0.0133073
0.0128188
0.0123405
0.0118697
0.011399
0.0109348
0.0104716
0.0100097
0.00955809
0.00911916
0.00869179
0.00827508
0.00787172
0.00748792
0.0071238
0.00678017
0.00645744
0.00615474
0.0058696
0.0056009
0.00534745
0.00510512
0.00487197
0.00464853
0.00443271
0.00422124
0.00401132
0.00379997
0.00358433
0.00336143
0.00312876
0.00288223
0.00261527
0.00231565
0.00198413
0.00161575
0.00117317
0.000933127
0.000254614
0.000404792
0.000599924
0.000806626
0.00103061
0.0012757
0.00154528
0.00184279
0.00217168
0.00253409
0.00292805
0.00335023
0.00379888
0.00427362
0.00477412
0.00530054
0.00585289
0.00643124
0.00703569
0.00766631
0.00832334
0.00900682
0.00971654
0.0104526
0.0112147
0.0120025
0.0128153
0.0136524
0.0145128
0.0153948
0.0162968
0.0172165
0.0181511
0.0190974
0.0200518
0.02101
0.0219676
0.0229197
0.0238617
0.0247887
0.0256968
0.0265835
0.02745
0.000382492
0.000563186
0.000791805
0.00104356
0.00131953
0.00162159
0.00195125
0.00230935
0.00269604
0.00311062
0.00355191
0.00401967
0.00451352
0.0050326
0.00557543
0.00614118
0.00672925
0.00733935
0.00797132
0.00862488
0.00929985
0.0099961
0.0107134
0.0114512
0.012209
0.0129865
0.0137829
0.0145971
0.0154281
0.0162742
0.017134
0.0180052
0.0188854
0.019772
0.0206617
0.0215512
0.0224368
0.0233147
0.0241815
0.0250337
0.0258688
0.0266852
0.0274821
0.000507923
0.000722349
0.000992185
0.00129462
0.00162703
0.00198878
0.00237902
0.00279631
0.00323889
0.00370512
0.00419429
0.00470615
0.0052406
0.00579707
0.00637497
0.00697348
0.00759165
0.00822877
0.00888401
0.00955677
0.0102466
0.010953
0.0116754
0.0124132
0.0131658
0.0139323
0.0147119
0.0155036
0.0163061
0.0171178
0.0179373
0.0187624
0.0195911
0.0204209
0.0212493
0.0220735
0.0228908
0.0236985
0.024494
0.0252752
0.0260406
0.0267894
0.0275213
0.000628245
0.000879463
0.00119395
0.00154829
0.00193642
0.00235509
0.00280146
0.00327269
0.00376633
0.00428076
0.00481514
0.00536884
0.00594148
0.00653266
0.00714184
0.00776842
0.00841147
0.00907026
0.00974383
0.0104315
0.0111323
0.0118456
0.0125705
0.0133063
0.014052
0.0148067
0.0155694
0.0163389
0.0171139
0.017893
0.0186744
0.0194565
0.0202374
0.0210151
0.0217875
0.0225525
0.0233081
0.0240525
0.024784
0.0255013
0.0262036
0.0268903
0.0275606
0.000743199
0.00103327
0.00139328
0.00179824
0.00223899
0.00271007
0.00320724
0.00372708
0.00426699
0.00482535
0.00540098
0.0059931
0.00660113
0.00722438
0.00786231
0.00851421
0.00917932
0.00985677
0.0105456
0.0112451
0.0119541
0.0126717
0.0133969
0.0141289
0.0148664
0.0156085
0.016354
0.0171017
0.0178502
0.0185981
0.019344
0.0200862
0.0208232
0.0215535
0.0222753
0.0229872
0.0236879
0.024376
0.0250506
0.0257111
0.0263567
0.0269873
0.0276023
0.000853143
0.00118259
0.00158729
0.00204017
0.00252947
0.00304812
0.00359109
0.00415477
0.0047364
0.00533439
0.00594735
0.00657435
0.00721449
0.00786695
0.00853105
0.00920597
0.00989087
0.0105848
0.0112869
0.011996
0.0127112
0.0134314
0.0141555
0.0148824
0.0156109
0.01634
0.0170684
0.0177949
0.0185181
0.0192367
0.0199494
0.0206551
0.0213523
0.0220398
0.0227164
0.0233811
0.024033
0.0246713
0.0252956
0.0259053
0.0265004
0.0270807
0.0276459
0.00095774
0.00132654
0.00177399
0.00227132
0.00280481
0.00336652
0.00395079
0.00455395
0.00517328
0.00580706
0.0064537
0.00711217
0.00778128
0.00846005
0.0091477
0.00984334
0.0105459
0.0112543
0.0119676
0.0126848
0.013405
0.0141266
0.0148484
0.0155693
0.0162883
0.0170044
0.0177163
0.0184225
0.0191218
0.019813
0.0204952
0.0211677
0.0218292
0.0224785
0.0231148
0.0237376
0.0243462
0.0249406
0.0255202
0.0260852
0.0266354
0.0271711
0.0276924
0.00106066
0.00146528
0.0019513
0.00248929
0.00306355
0.00366427
0.00428542
0.00492396
0.00557771
0.00624466
0.00692277
0.00761022
0.00830522
0.00900716
0.00971564
0.0104298
0.0111479
0.0118684
0.012591
0.0133153
0.0140399
0.0147619
0.0154796
0.016193
0.0169022
0.0176066
0.0183032
0.0189903
0.019666
0.0203312
0.0209857
0.0216293
0.0222589
0.0228738
0.0234743
0.0240598
0.0246301
0.0251855
0.0257258
0.026251
0.0267617
0.0272582
0.0277408
0.0011398
0.00158677
0.00211973
0.00270163
0.00330752
0.00393709
0.00458876
0.00526561
0.00595943
0.00666401
0.00737416
0.00808684
0.00879895
0.00951806
0.0102443
0.0109758
0.0117063
0.0124334
0.0131631
0.0138961
0.0146268
0.0153443
0.0160516
0.0167558
0.0174572
0.0181547
0.0188377
0.0195044
0.0201526
0.0207932
0.0214247
0.0220463
0.0226456
0.0232291
0.0237981
0.0243499
0.0248857
0.0254071
0.0259126
0.0264021
0.0268778
0.0273397
0.0277869
0.000779903
0.00261216
0.00441908
0.00619215
0.00794022
0.0096697
0.0113844
0.0130869
0.0147792
0.0164631
0.0181412
0.0198146
0.021485
0.0231538
0.0248222
0.0264912
0.028162
0.0298356
0.0315115
0.0331912
0.0348747
0.0365618
0.0382529
0.0399481
0.041647
0.0433496
0.0450556
0.0467643
0.0484756
0.050189
0.0519039
0.0536192
0.0553346
0.0570498
0.0587635
0.0604751
0.0621835
0.0638881
0.0655879
0.0672816
0.068968
0.070646
0.0723178
3.00827e-05
0.00104795
0.00239869
0.00386769
0.00542098
0.00702758
0.00866832
0.0103328
0.0120131
0.0137046
0.0154045
0.0171109
0.0188227
0.0205393
0.0222606
0.0239858
0.0257159
0.0274502
0.0291886
0.0309315
0.0326788
0.03443
0.0361856
0.037945
0.0397078
0.0414739
0.0432428
0.045014
0.046787
0.0485613
0.0503364
0.052111
0.0538852
0.0556577
0.057428
0.0591949
0.0609576
0.0627155
0.0644673
0.0662117
0.0679477
0.0696738
0.0713952
0.000212737
0.000851065
0.00190091
0.00310225
0.00441889
0.00582228
0.00729283
0.00881674
0.0103841
0.0119868
0.013619
0.0152761
0.0169541
0.0186507
0.020363
0.0220892
0.0238279
0.0255778
0.0273371
0.0291058
0.0308829
0.0326669
0.0344579
0.0362546
0.038057
0.0398638
0.0416743
0.0434881
0.0453041
0.0471221
0.048941
0.0507599
0.052578
0.0543942
0.0562079
0.0580178
0.0598233
0.0616233
0.0634167
0.0652022
0.0669786
0.0687453
0.0705064
0.000323756
0.000789119
0.0016762
0.00271134
0.00386324
0.00511049
0.00643704
0.00783131
0.0092838
0.0107868
0.012334
0.0139197
0.0155394
0.017189
0.0188652
0.0205649
0.0222859
0.0240253
0.0257816
0.0275533
0.0293379
0.0311345
0.0329418
0.0347588
0.0365841
0.0384164
0.0402549
0.0420983
0.0439457
0.0457963
0.0476488
0.0495022
0.0513554
0.0532075
0.0550574
0.0569039
0.058746
0.0605825
0.0624124
0.0642345
0.0660478
0.0678515
0.06965
0.000329012
0.000709468
0.00149592
0.00242235
0.00346187
0.00459717
0.00581557
0.00710707
0.00846357
0.00987823
0.0113453
0.0128596
0.0144163
0.0160116
0.0176415
0.0193032
0.0209933
0.0227089
0.024448
0.0262081
0.027987
0.0297828
0.0315938
0.0334182
0.0352546
0.0371016
0.0389572
0.0408206
0.0426902
0.0445649
0.0464431
0.0483237
0.0502055
0.0520871
0.0539674
0.055845
0.0577187
0.0595873
0.0614498
0.0633048
0.0651515
0.0669895
0.0688233
0.000325493
0.000639883
0.00135305
0.00219995
0.00315558
0.00420519
0.00533811
0.00654603
0.00782168
0.0091596
0.0105547
0.0120021
0.0134977
0.0150379
0.0166189
0.0182378
0.019891
0.0215756
0.0232894
0.0250295
0.0267937
0.0285798
0.0303853
0.0322085
0.0340478
0.0359006
0.0377655
0.0396413
0.0415257
0.0434174
0.045315
0.0472166
0.0491211
0.0510267
0.0529324
0.0548364
0.0567374
0.0586344
0.0605257
0.0624102
0.0642871
0.0661556
0.0680191
0.000320182
0.000585866
0.00124275
0.00202652
0.00291545
0.00389578
0.00495835
0.00609592
0.00730257
0.00857349
0.00990431
0.0112906
0.0127291
0.0142162
0.0157486
0.0173234
0.0189374
0.0205878
0.0222721
0.0239874
0.0257315
0.0275018
0.0292958
0.0311115
0.0329468
0.0347994
0.0366675
0.0385492
0.0404424
0.0423455
0.0442567
0.0461744
0.0480964
0.0500217
0.0519483
0.0538747
0.0557993
0.0577206
0.0596375
0.0615484
0.0634523
0.0653479
0.0672375
0.000315591
0.000543097
0.00115413
0.00188583
0.00271963
0.00364246
0.00464583
0.0057236
0.00687078
0.00808311
0.00935658
0.0106877
0.0120737
0.013511
0.0149969
0.0165286
0.0181033
0.0197182
0.021371
0.0230588
0.0247793
0.0265298
0.0283078
0.0301114
0.031938
0.0337856
0.035652
0.0375348
0.0394321
0.0413419
0.0432625
0.0451913
0.047127
0.0490677
0.0510116
0.0529565
0.0549012
0.0568438
0.0587831
0.0607174
0.0626451
0.0645652
0.0664774
0.000311581
0.000507867
0.00108046
0.00176831
0.00255566
0.0034296
0.00438246
0.0054088
0.0065042
0.00766466
0.00888702
0.0101685
0.0115062
0.0128974
0.0143393
0.0158297
0.0173659
0.0189454
0.0205659
0.0222247
0.0239196
0.025648
0.0274075
0.0291957
0.0310103
0.0328492
0.03471
0.0365902
0.0384877
0.0404004
0.042326
0.0442627
0.0462085
0.048161
0.0501183
0.0520789
0.0540405
0.0560016
0.0579604
0.0599152
0.0618645
0.0638068
0.065743
0.000308125
0.000478581
0.00101829
0.00166867
0.00241622
0.00324806
0.00415715
0.0051384
0.00618782
0.00730237
0.00847917
0.00971558
0.0110092
0.0123574
0.0137581
0.0152092
0.0167083
0.0182532
0.0198414
0.021471
0.0231393
0.0248441
0.0265832
0.0283541
0.0301542
0.0319817
0.0338336
0.035708
0.0376026
0.039515
0.0414428
0.0433842
0.0453365
0.0472979
0.0492662
0.0512391
0.0532149
0.0551916
0.0571674
0.0591403
0.0611087
0.0630711
0.0650281
0.000305083
0.000453735
0.000965103
0.00158294
0.00229597
0.00309101
0.00396146
0.00490276
0.00591159
0.00698492
0.00812043
0.00931577
0.0105689
0.0118775
0.0132396
0.0146537
0.0161174
0.0176286
0.0191856
0.0207859
0.0224273
0.024108
0.0258256
0.0275774
0.0293613
0.0311751
0.0330162
0.0348826
0.0367717
0.038681
0.0406085
0.0425516
0.044508
0.0464755
0.0484518
0.0504347
0.0524223
0.0544122
0.0564025
0.058391
0.0603761
0.0623555
0.0643292
0.000302237
0.000432333
0.000918981
0.00150837
0.00219074
0.00295311
0.00378929
0.00469515
0.00566747
0.00670372
0.00780178
0.0089596
0.0101754
0.0114474
0.0127737
0.0141528
0.0155828
0.017062
0.0185883
0.0201599
0.0217748
0.023431
0.0251261
0.026858
0.0286245
0.0304234
0.0322521
0.0341084
0.0359899
0.0378941
0.0398189
0.0417615
0.0437195
0.0456909
0.0476729
0.0496636
0.0516606
0.0536614
0.0556638
0.057666
0.0596654
0.0616598
0.063649
0.000299703
0.000413787
0.00087868
0.00144298
0.00209769
0.002831
0.00363662
0.0045105
0.00544983
0.0064525
0.00751632
0.00863977
0.00982129
0.0110592
0.0123519
0.0136982
0.0150963
0.0165446
0.0180416
0.0195851
0.0211739
0.0228055
0.0244782
0.0261898
0.027938
0.0297208
0.0315359
0.0333807
0.0352529
0.0371505
0.0390705
0.0410106
0.0429685
0.0449416
0.0469274
0.0489236
0.0509279
0.0529375
0.0549504
0.0569641
0.0589758
0.0609833
0.062985
0.000297409
0.000397553
0.000843137
0.00138507
0.00201483
0.00272194
0.00349989
0.0043449
0.00525433
0.00622621
0.00725881
0.00835051
0.00950016
0.0107063
0.0119677
0.0132831
0.0146511
0.01607
0.0175386
0.0190553
0.0206183
0.0222258
0.0238761
0.025567
0.0272965
0.0290626
0.0308629
0.0326952
0.0345571
0.0364462
0.0383601
0.0402962
0.0422521
0.0442252
0.046213
0.048213
0.0502226
0.0522393
0.0542609
0.056284
0.0583067
0.0603258
0.0623395
0.000295347
0.00038367
0.000811526
0.00133323
0.00194028
0.00262367
0.00337647
0.00419512
0.00507717
0.00602079
0.00702458
0.00808718
0.00920738
0.010384
0.011616
0.0129024
0.0142416
0.0156326
0.0170742
0.0185647
0.0201026
0.0216865
0.0233146
0.024985
0.0266956
0.0284443
0.0302295
0.0320483
0.0338987
0.0357784
0.037685
0.0396156
0.041568
0.0435396
0.0455279
0.04753
0.0495434
0.0515657
0.0535937
0.0556253
0.0576574
0.059687
0.0617123
0.000293864
0.000374388
0.000783114
0.00128634
0.00187278
0.00253452
0.00326441
0.00405895
0.00491582
0.00583354
0.00681079
0.00784627
0.00893895
0.010088
0.0112925
0.0125513
0.0138635
0.0152279
0.0166435
0.018109
0.0196228
0.0211835
0.0227896
0.0244395
0.0261311
0.0278625
0.0296317
0.0314366
0.0332749
0.0351444
0.0370423
0.0389664
0.0409141
0.0428828
0.04487
0.0468729
0.0488888
0.0509148
0.0529485
0.0549871
0.0570273
0.0590664
0.0611021
0.000293282
0.000371376
0.000757551
0.00124382
0.00181122
0.00245314
0.00316195
0.00393432
0.00476804
0.00566172
0.00661429
0.00762457
0.00869161
0.00981493
0.0109935
0.0122265
0.0135129
0.0148519
0.0162428
0.0176841
0.0191744
0.0207127
0.0222975
0.0239271
0.0255998
0.0273136
0.0290668
0.0308573
0.0326829
0.0345412
0.0364297
0.0383464
0.0402882
0.042253
0.044238
0.0462403
0.0482572
0.0502861
0.0523242
0.0543683
0.0564157
0.0584633
0.0605091
0.000293506
0.000372093
0.000734528
0.00120501
0.00175517
0.00237852
0.00306787
0.00381972
0.00463205
0.00550347
0.00643306
0.00741966
0.00846283
0.00956185
0.010716
0.0119245
0.0131867
0.0145016
0.0158687
0.0172866
0.0187544
0.020271
0.0218348
0.0234445
0.0250984
0.0267947
0.0285319
0.0303077
0.03212
0.0339665
0.0358452
0.0377534
0.0396887
0.0416486
0.0436303
0.0456309
0.0476479
0.0496785
0.0517196
0.0537684
0.0558224
0.0578784
0.059935
0.000294185
0.000373851
0.000713773
0.00116968
0.00170396
0.00230992
0.0029811
0.00371391
0.00450627
0.00535701
0.00626507
0.00722977
0.00825054
0.00932665
0.0104577
0.0116431
0.0128822
0.0141742
0.0155185
0.0169141
0.0183601
0.0198554
0.0213989
0.0229891
0.0246243
0.0263034
0.0280244
0.0297853
0.0315839
0.0334186
0.0352865
0.0371859
0.0391138
0.041068
0.0430453
0.0450435
0.0470596
0.0490908
0.0511341
0.0531869
0.0552462
0.05731
0.0593783
0.000294898
0.000375337
0.000694973
0.00113727
0.00165669
0.00224645
0.00290086
0.00361594
0.00438966
0.005221
0.00610895
0.00705303
0.00805252
0.00910717
0.0102165
0.01138
0.012597
0.0138671
0.0151896
0.0165638
0.0179888
0.0194637
0.0209872
0.0225582
0.0241754
0.0258372
0.027542
0.0292879
0.0310731
0.0328952
0.0347523
0.036642
0.0385621
0.0405096
0.042482
0.0444768
0.0464912
0.048522
0.0505666
0.0526219
0.0546853
0.0567539
0.0588243
0.000295404
0.000376387
0.000677762
0.00110741
0.00161302
0.00218764
0.00282636
0.00352479
0.00428113
0.00509428
0.00596344
0.00688799
0.00786761
0.00890188
0.0099905
0.011133
0.0123293
0.0135784
0.01488
0.0162337
0.0176384
0.0190934
0.0205977
0.0221501
0.0237494
0.0253942
0.0270829
0.028814
0.0305853
0.0323948
0.0342407
0.0361205
0.038032
0.0399724
0.0419393
0.04393
0.0459416
0.0479713
0.0500161
0.0520729
0.0541389
0.05621
0.0582829
0.000295749
0.000377008
0.000661915
0.0010797
0.00157231
0.00213272
0.00275667
0.00343962
0.00417961
0.00497565
0.00582707
0.00673332
0.00769421
0.00870916
0.00977812
0.010901
0.0120772
0.0133063
0.0145881
0.0159218
0.0173069
0.0187428
0.0202284
0.0217627
0.0233445
0.0249725
0.0266455
0.0283614
0.0301188
0.0319158
0.0337501
0.0356196
0.0375222
0.0394551
0.0414159
0.0434017
0.04541
0.0474378
0.049482
0.0515396
0.0536072
0.05568
0.0577525
0.000295917
0.000377276
0.000647215
0.00105388
0.00153434
0.0020814
0.00269151
0.00335979
0.00408435
0.00486434
0.005699
0.00658803
0.00753104
0.00852771
0.00957822
0.0106822
0.0118393
0.0130493
0.0143119
0.0156267
0.016993
0.0184103
0.0198775
0.0213942
0.0229589
0.0245706
0.0262276
0.0279289
0.0296725
0.0314566
0.0332791
0.0351383
0.0370316
0.0389564
0.0409106
0.0428912
0.0448955
0.0469209
0.0489641
0.0510223
0.0530926
0.0551723
0.0572642
0.000295997
0.000377257
0.000633721
0.00102981
0.0014989
0.0020335
0.00263031
0.00328483
0.00399499
0.00475979
0.00557861
0.00645125
0.00737728
0.00835663
0.00938942
0.0104754
0.0116143
0.012806
0.0140504
0.0153468
0.016695
0.0180942
0.0195439
0.0210433
0.0225912
0.0241866
0.0258284
0.027515
0.0292448
0.031016
0.0328268
0.0346752
0.0365588
0.0384754
0.0404226
0.0423975
0.0443976
0.04642
0.0484618
0.0505205
0.0525934
0.0546786
0.0567776
0.000296023
0.000377119
0.000622091
0.0010074
0.00146577
0.00198877
0.00257294
0.00321438
0.00391087
0.00466126
0.00546512
0.00632213
0.0072321
0.00819502
0.00921087
0.0102797
0.0114011
0.0125753
0.013802
0.0150808
0.0164113
0.0177932
0.0192259
0.0207084
0.02224
0.0238197
0.0254462
0.0271184
0.0288345
0.0305928
0.0323918
0.0342293
0.0361032
0.0380112
0.039951
0.0419199
0.0439153
0.0459343
0.0479745
0.0500333
0.0521081
0.0541972
0.0563004
0.000296081
0.000377259
0.00061416
0.000986757
0.00143484
0.00194673
0.00251889
0.00314795
0.0038314
0.00456821
0.00535775
0.00619992
0.00709467
0.00804183
0.00904156
0.0100939
0.0111988
0.0123562
0.0135658
0.0148277
0.0161413
0.0175064
0.0189223
0.0203885
0.0219042
0.0234684
0.0250801
0.0267379
0.0284404
0.030186
0.0319731
0.0337996
0.0356637
0.0375629
0.039495
0.0414577
0.0434478
0.0454633
0.0475014
0.0495595
0.0516353
0.0537262
0.0558321
0.000296304
0.000378193
0.000610805
0.000967855
0.00140578
0.00190708
0.00246781
0.00308515
0.00375627
0.00448002
0.00525597
0.00608414
0.00696432
0.00789651
0.00888079
0.00991738
0.0110063
0.0121475
0.0133409
0.0145863
0.0158836
0.0172324
0.0186322
0.0200826
0.0215828
0.0231319
0.0247287
0.0263724
0.0280614
0.0297945
0.0315697
0.0333854
0.0352393
0.0371296
0.039054
0.0410098
0.0429947
0.0450062
0.0470415
0.0490981
0.0511734
0.0532647
0.0553695
0.000296682
0.00037994
0.000610484
0.000950574
0.00137842
0.0018696
0.00241942
0.00302556
0.00368493
0.0043963
0.00515942
0.00597416
0.00684053
0.0077584
0.00872801
0.0097495
0.010823
0.0119486
0.0131263
0.0143559
0.0156373
0.0169704
0.0183546
0.0197896
0.0212746
0.0228088
0.0243913
0.0260211
0.027697
0.0294174
0.0311808
0.0329854
0.0348292
0.0367106
0.0386268
0.0405758
0.042555
0.0445619
0.0465938
0.0486483
0.0507222
0.0528124
0.0549156
0.000297037
0.000382147
0.000611028
0.000934595
0.00135264
0.0018341
0.00237351
0.00296896
0.00361709
0.00431678
0.00506768
0.00586961
0.0067225
0.00762665
0.00858222
0.00958937
0.0106481
0.0117587
0.0129212
0.0141356
0.0154018
0.0167196
0.0180886
0.0195085
0.0209787
0.0224985
0.024067
0.0256831
0.0273457
0.0290537
0.0308054
0.032599
0.0344328
0.0363048
0.0382131
0.0401549
0.0421281
0.04413
0.0461581
0.0482097
0.0502816
0.0523703
0.0544726
0.000297426
0.000384458
0.000611818
0.000919808
0.00132836
0.00180049
0.00233012
0.00291524
0.00355268
0.00424111
0.00498027
0.00576988
0.0066101
0.00750115
0.00844314
0.00943634
0.010481
0.0115772
0.0127251
0.0139248
0.0151762
0.0164791
0.0178334
0.0192386
0.0206944
0.0222
0.0237546
0.0253574
0.0270072
0.0287028
0.0304428
0.0322255
0.0340492
0.0359121
0.0378119
0.0397463
0.0417131
0.0437098
0.0457337
0.047782
0.0498516
0.0519393
0.0540426
0.000297887
0.000386604
0.000612467
0.000905935
0.00130544
0.00176876
0.00228903
0.00286408
0.00349127
0.00416903