/*--------------------------------*- C++ -*----------------------------------*\
| =========                 |                                                 |
| \\      /  F ield         | OpenFOAM: The Open Source CFD Toolbox           |
|  \\    /   O peration     | Version:  2.3.0                                 |
|   \\  /    A nd           | Web:      www.OpenFOAM.org                      |
|    \\/     M anipulation  |                                                 |
\*---------------------------------------------------------------------------*/
FoamFile
{
    version     2.0;
    format      ascii;
    class       surfaceScalarField;
    location    "1000";
    object      phi;
}
// * * * * * * * * * * * * * * * * * * * * * * * * * * * * * * * * * * * * * //

dimensions      [0 3 -1 0 0 0 0];

internalField   nonuniform List<scalar> 
76160
(
0.00100899
-0.00544409
0.00591461
-0.00147949
0.000578323
-0.00523169
0.00566236
0.000186102
-0.00502773
0.00541995
-0.000168963
-0.00483196
0.00518703
-0.000488849
-0.0046436
0.00496349
-0.000774268
-0.00446315
0.00474856
-0.00102739
-0.00428943
0.00454255
-0.00124919
-0.00412295
0.00434475
-0.00144118
-0.00396265
0.00415463
-0.00160449
-0.00380881
0.00397213
-0.00174034
-0.00366095
0.00379681
-0.00184984
-0.00351885
0.00362834
-0.00193445
-0.00338212
0.00346673
-0.00199478
-0.00325091
0.00331124
-0.00203186
-0.00312461
0.00316169
-0.00204689
-0.00300317
0.0030182
-0.00204095
-0.00288624
0.0028803
-0.00201435
-0.00277389
0.00274729
-0.00196798
-0.00266586
0.00261949
-0.00190278
-0.00256179
0.00249659
-0.00181945
-0.00246138
0.00237805
-0.00171813
-0.00236504
0.00226372
-0.00159946
-0.00227208
0.00215342
-0.00146413
-0.0021823
0.00204696
-0.00131219
-0.00209595
0.00194401
-0.00114388
-0.00201257
0.00184426
-0.000959434
-0.00193205
0.0017476
-0.000758717
-0.00185439
0.00165368
-0.000541767
-0.00177928
0.00156233
-0.000308108
-0.00170689
0.00147323
-5.73549e-05
-0.00163698
0.00138622
0.000211109
-0.00156961
0.00130115
0.000498183
-0.00150459
0.00121752
0.000804937
-0.00144224
0.00113549
0.0011326
-0.00138241
0.00105475
0.00148396
-0.00132603
0.000974675
0.00186125
-0.00127294
0.000895647
0.00226819
-0.00122366
0.000816723
0.00270949
-0.00118004
0.000738746
0.00319213
-0.00114237
0.000659726
0.0037282
-0.0011156
0.000579538
0.00434479
-0.00110433
0.00048774
-0.00112427
0.00515524
0.000313814
0.000943401
-0.00501652
-0.00137098
0.000551899
-0.00484019
0.000195558
-0.00467139
-0.000127866
-0.00450854
-0.000418993
-0.00435248
-0.000679888
-0.00420225
-0.000911309
-0.00405801
-0.00111474
-0.00391951
-0.00129118
-0.0037862
-0.00144192
-0.00365807
-0.00156793
-0.00353495
-0.00167031
-0.00341646
-0.00174982
-0.00330261
-0.00180785
-0.00319288
-0.00184491
-0.00308755
-0.00186216
-0.00298592
-0.00186009
-0.00288831
-0.00183986
-0.00279412
-0.00180219
-0.00270353
-0.00174746
-0.00261652
-0.00167649
-0.00253235
-0.00158998
-0.00245155
-0.00148852
-0.00237355
-0.00137224
-0.00229858
-0.00124182
-0.00222636
-0.0010976
-0.00215679
-0.000939836
-0.00208981
-0.000768791
-0.00202544
-0.000584317
-0.00196376
-0.000386703
-0.00190451
-0.000175623
-0.00184806
4.88755e-05
-0.00179411
0.000287597
-0.00174332
0.000541196
-0.00169584
0.000810536
-0.00165175
0.00109602
-0.00161152
0.00139931
-0.00157623
0.00172219
-0.00154653
0.00206473
-0.00152259
0.00242949
-0.00150713
0.00281386
-0.00149997
0.00321317
-0.00150364
-0.00151954
0.00360844
0.000877773
-0.00462801
-0.00126628
0.000522308
-0.00448473
0.000197832
-0.00434691
-9.6215e-05
-0.00421449
-0.000361784
-0.00408691
-0.00059953
-0.0039645
-0.000810998
-0.00384654
-0.000997262
-0.00373325
-0.00115904
-0.00362442
-0.00129763
-0.00351949
-0.00141391
-0.00341867
-0.00150882
-0.00332155
-0.00158315
-0.00322828
-0.00163768
-0.00313836
-0.00167352
-0.0030517
-0.00169112
-0.00296832
-0.00169139
-0.00288804
-0.00167488
-0.00281064
-0.00164237
-0.00273604
-0.00159449
-0.00266439
-0.00153164
-0.0025952
-0.00145456
-0.00252864
-0.00136358
-0.00246453
-0.00125948
-0.00240268
-0.00114231
-0.00234353
-0.00101269
-0.00228641
-0.000870774
-0.00223173
-0.000716942
-0.00217927
-0.000551582
-0.00212912
-0.000374579
-0.00208151
-0.000186475
-0.00203616
1.30345e-05
-0.00199362
0.000223503
-0.00195378
0.000444713
-0.00191705
0.000676776
-0.00188381
0.000919433
-0.00185418
0.00117239
-0.00182919
0.0014347
-0.00180884
0.00170577
-0.00179366
0.00198388
-0.00178523
0.00226667
-0.00178277
0.00255052
-0.00178749
-0.00179812
0.00282909
0.000813833
-0.00427525
-0.0011666
0.000490562
-0.00416145
0.000195289
-0.00405164
-7.28914e-05
-0.00394631
-0.000315068
-0.00384473
-0.000532499
-0.00374707
-0.000726161
-0.00365288
-0.000896821
-0.00356259
-0.00104563
-0.00347562
-0.00117349
-0.00339162
-0.00128109
-0.00331107
-0.00136924
-0.00323339
-0.0014392
-0.00315832
-0.00149132
-0.00308624
-0.00152612
-0.0030169
-0.00154484
-0.0029496
-0.00154764
-0.00288524
-0.00153556
-0.00282272
-0.00150884
-0.00276276
-0.00146823
-0.00270501
-0.00141433
-0.00264909
-0.00134773
-0.00259524
-0.00126861
-0.00254364
-0.00117736
-0.00249393
-0.00107478
-0.00244611
-0.000961089
-0.0024001
-0.000836504
-0.00235632
-0.00070146
-0.00231431
-0.000556153
-0.00227443
-0.000400947
-0.00223672
-0.000235978
-0.00220113
-6.16124e-05
-0.00216798
0.000122221
-0.00213762
0.000315003
-0.00210983
0.000516369
-0.00208518
0.000726449
-0.00206426
0.000944302
-0.00204704
0.00116986
-0.0020344
0.00140214
-0.00202593
0.00163961
-0.00202271
0.00188115
-0.00202431
0.00212493
-0.00203126
-0.00204251
0.00236931
0.000752137
-0.00395479
-0.0010726
0.000457585
-0.0038669
0.000189006
-0.00378306
-5.55568e-05
-0.00370175
-0.000276493
-0.00362379
-0.000475131
-0.00354844
-0.000652049
-0.00347596
-0.000808632
-0.00340601
-0.000945345
-0.0033389
-0.00106301
-0.00327396
-0.00116245
-0.00321163
-0.00124449
-0.00315136
-0.00130957
-0.00309324
-0.00135859
-0.00303722
-0.00139244
-0.00298305
-0.00141103
-0.00293101
-0.00141573
-0.00288054
-0.00140656
-0.00283189
-0.00138431
-0.002785
-0.00134957
-0.00273975
-0.00130275
-0.00269592
-0.00124391
-0.00265408
-0.00117417
-0.00261338
-0.00109386
-0.00257425
-0.00100306
-0.00253691
-0.000902014
-0.00250114
-0.000791516
-0.00246682
-0.000671563
-0.00243427
-0.000542524
-0.00240347
-0.000404791
-0.00237445
-0.000258493
-0.00234743
-0.000103927
-0.00232255
5.83272e-05
-0.00229987
0.000228413
-0.00227992
0.000406051
-0.00226282
0.000590508
-0.00224872
0.000781548
-0.00223808
0.000978569
-0.00223142
0.00118096
-0.00222833
0.00138791
-0.00222965
0.00159883
-0.00223523
0.00181238
-0.00224481
-0.00225762
0.00202749
0.000693056
-0.00366284
-0.000985002
0.000425529
-0.00359938
0.000180446
-0.00353797
-4.23097e-05
-0.00347899
-0.000244105
-0.003422
-0.000425656
-0.00336688
-0.00058768
-0.00331394
-0.000730888
-0.0032628
-0.000856338
-0.00321345
-0.000964346
-0.00316595
-0.00105621
-0.00311977
-0.00113217
-0.0030754
-0.00119283
-0.00303257
-0.00123912
-0.00299093
-0.00127116
-0.00295102
-0.0012899
-0.00291227
-0.00129576
-0.00287467
-0.00128917
-0.00283848
-0.00127071
-0.00280346
-0.00124076
-0.0027697
-0.00119972
-0.00273696
-0.00114839
-0.00270541
-0.00108679
-0.00267498
-0.00101534
-0.0026457
-0.000934618
-0.00261763
-0.000845028
-0.00259074
-0.000746591
-0.00256525
-0.000639798
-0.00254106
-0.000524864
-0.0025184
-0.000402167
-0.00249715
-0.000271851
-0.00247774
-0.000134287
-0.00246011
1.04621e-05
-0.00244462
0.000161815
-0.00243127
0.000319593
-0.00242059
0.000483657
-0.00241278
0.000653268
-0.00240769
0.000828118
-0.00240627
0.00100793
-0.00240813
0.00119188
-0.00241361
0.00137942
-0.00242277
0.00156981
-0.00243519
-0.00245092
0.00176311
0.000638033
-0.00339743
-0.000903442
0.000394054
-0.0033554
0.000170968
-0.00331489
-3.23712e-05
-0.00327565
-0.000216542
-0.00323783
-0.000382035
-0.00320139
-0.000530184
-0.00316579
-0.000661531
-0.00313145
-0.00077651
-0.00309847
-0.000876027
-0.00306643
-0.000960569
-0.00303523
-0.00103076
-0.0030052
-0.00108711
-0.00297622
-0.0011301
-0.00294794
-0.00116058
-0.00292053
-0.001179
-0.00289385
-0.0011855
-0.00286817
-0.00118074
-0.00284324
-0.00116532
-0.00281889
-0.0011394
-0.00279561
-0.00110353
-0.00277283
-0.00105794
-0.00275101
-0.00100326
-0.00272965
-0.000939735
-0.00270923
-0.000867706
-0.00268966
-0.000787623
-0.00267082
-0.000699696
-0.00265318
-0.000604119
-0.00263664
-0.000501304
-0.00262122
-0.000391364
-0.00260709
-0.000274865
-0.00259424
-0.000151662
-0.00258332
-2.21842e-05
-0.0025741
0.000113305
-0.00256676
0.000254588
-0.00256188
0.000400998
-0.00255919
0.000553029
-0.00255972
0.000709466
-0.00256271
0.000870314
-0.00256898
0.00103518
-0.00257847
0.00120332
-0.00259091
0.00137464
-0.00260651
-0.00262502
0.00154874
0.000586051
-0.00315539
-0.000828086
0.000363863
-0.00313321
0.000160376
-0.0031114
-2.48796e-05
-0.0030904
-0.000192713
-0.00306999
-0.00034405
-0.00305005
-0.000479407
-0.00303043
-0.000599466
-0.00301139
-0.000704833
-0.00299311
-0.000796212
-0.00297505
-0.000873871
-0.00295757
-0.000938497
-0.00294058
-0.000990773
-0.00292395
-0.00103089
-0.00290782
-0.00105952
-0.0028919
-0.00107711
-0.00287626
-0.00108394
-0.00286134
-0.00108059
-0.0028466
-0.00106747
-0.002832
-0.00104523
-0.00281786
-0.00101342
-0.00280464
-0.000973182
-0.00279124
-0.000924414
-0.00277842
-0.000867553
-0.00276609
-0.000803202
-0.00275401
-0.000731369
-0.00274265
-0.000652418
-0.00273213
-0.000566751
-0.0027223
-0.000474547
-0.00271342
-0.00037581
-0.00270582
-0.000271015
-0.00269904
-0.000160603
-0.00269373
-4.42438e-05
-0.00269046
7.76053e-05
-0.00268861
0.000204421
-0.00268869
0.000336186
-0.00269096
0.000472397
-0.00269594
0.000613333
-0.00270364
0.000758084
-0.00271373
0.000906052
-0.00272644
0.00105767
-0.00274253
0.00121257
-0.00276141
-0.00278231
0.00136986
0.000537166
-0.000756716
-0.00293584
0.000335074
-0.00293112
0.000150073
-0.0029264
-1.89756e-05
-0.00292135
-0.000172579
-0.00291639
-0.000310513
-0.00291212
-0.000433978
-0.00290697
-0.000543736
-0.00290163
-0.000640235
-0.00289661
-0.000723873
-0.00289141
-0.00079513
-0.00288631
-0.000854807
-0.0028809
-0.000903123
-0.00287563
-0.00094044
-0.00287051
-0.000967049
-0.0028653
-0.000983848
-0.00285946
-0.000991295
-0.00285389
-0.000988806
-0.00284909
-0.000977564
-0.00284324
-0.000957734
-0.00283769
-0.000930115
-0.00283226
-0.000894064
-0.00282729
-0.000850376
-0.00282211
-0.000799494
-0.00281697
-0.000741696
-0.00281181
-0.000676956
-0.00280739
-0.000605827
-0.00280326
-0.000528525
-0.00279961
-0.000445576
-0.00279637
-0.00035678
-0.00279462
-0.000262477
-0.00279334
-0.000162865
-0.00279334
-5.78544e-05
-0.00279547
5.21893e-05
-0.00279865
0.000166369
-0.00280287
0.000285032
-0.00280962
0.000407964
-0.00281887
0.000534944
-0.00283062
0.000665212
-0.002844
0.000798999
-0.00286022
0.000935605
-0.00287913
0.00107544
-0.00290125
0.00121896
-0.00292583
0.00542606
-0.00122967
0.000958858
0.00563766
-0.00139163
0.00118003
0.00580757
-0.00152724
0.00135733
0.00595199
-0.00164524
0.00150082
0.00608066
-0.00174944
0.00162077
0.00619671
-0.00184208
0.00172602
0.00630449
-0.00192726
0.00181949
0.00640575
-0.00200794
0.00190667
0.00650179
-0.00208446
0.00198842
0.00659325
-0.00215897
0.00206751
0.00668032
-0.00223235
0.00214528
0.00676373
-0.00230615
0.00222274
0.00684215
-0.00238023
0.00230181
0.00691527
-0.00245535
0.00238223
0.00698211
-0.00253199
0.00246515
0.0070413
-0.00261027
0.00255107
0.00709229
-0.00269099
0.00264
0.00713389
-0.00277408
0.00273248
0.00716405
-0.00285917
0.00282901
0.00718234
-0.0029476
0.00292931
0.00718705
-0.00303848
0.00303377
0.0071776
-0.00313292
0.00314237
0.00715247
-0.00323037
0.0032555
0.00711071
-0.00333107
0.00337283
0.00705115
-0.00343571
0.00349526
0.006973
-0.00354385
0.003622
0.00687524
-0.00365614
0.00375391
0.00675672
-0.00377235
0.00389087
0.00661651
-0.00389291
0.00403312
0.0064538
-0.0040178
0.00418052
0.0062675
-0.00414764
0.00433393
0.00605661
-0.00428202
0.00449291
0.00582031
-0.00442166
0.00465796
0.00555782
-0.00456673
0.00482923
0.00526739
-0.00471663
0.00500706
0.00494854
-0.0048728
0.00519165
0.00460016
-0.00503469
0.00538308
0.0042208
-0.00520243
0.00558179
0.00380983
-0.00537702
0.00578799
0.00336552
-0.00555771
0.00600202
0.00288719
-0.00574564
0.00622397
0.0023728
-0.00594033
0.00645472
-0.0061427
0.00669364
0.00182186
0.00395166
-0.00157289
0.00422237
-0.00166234
0.00444531
-0.00175018
0.00463757
-0.0018375
0.00480792
-0.00191979
0.004966
-0.00200016
0.00511499
-0.00207625
0.00525634
-0.00214928
0.00539273
-0.00222086
0.00552366
-0.00228991
0.00564897
-0.00235765
0.00576765
-0.00242483
0.00587941
-0.00249199
0.00598291
-0.00255885
0.00607743
-0.00262651
0.00616188
-0.00269472
0.00623548
-0.00276459
0.00629727
-0.00283587
0.0063464
-0.0029083
0.00638196
-0.00298316
0.00640336
-0.00305988
0.00640965
-0.00313921
0.00640021
-0.00322093
0.00637426
-0.00330511
0.00633104
-0.00339249
0.00626974
-0.00348255
0.00618974
-0.00357614
0.00609022
-0.00367284
0.00597038
-0.00377307
0.00582966
-0.00387708
0.00566707
-0.00398504
0.00548181
-0.00409676
0.00527297
-0.00421282
0.00503933
-0.00433309
0.00478076
-0.00445806
0.00449563
-0.00458767
0.00418302
-0.00472208
0.00384241
-0.00486182
0.00347188
-0.00500649
0.00307132
-0.00515715
0.00263883
-0.00531315
0.00217381
-0.0054753
-0.00564382
0.00167493
0.00309515
-0.00183894
0.00334057
-0.00190777
0.00356885
-0.00197845
0.00378037
-0.00204902
0.00397953
-0.00211895
0.00416598
-0.00218661
0.0043418
-0.00225207
0.00450776
-0.00231524
0.00466375
-0.00237685
0.00481043
-0.00243659
0.00494823
-0.00249546
0.00507628
-0.00255288
0.00519456
-0.00261027
0.00530309
-0.00266738
0.0054012
-0.00272462
0.0054887
-0.00278223
0.00556477
-0.00284066
0.00562853
-0.00289964
0.00568082
-0.00296059
0.00571974
-0.00302209
0.00574558
-0.00308572
0.00575726
-0.00315089
0.00575426
-0.00321792
0.00573628
-0.00328714
0.00570213
-0.00335834
0.00565202
-0.00343244
0.00558424
-0.00350837
0.00549885
-0.00358744
0.00539502
-0.00366924
0.00527195
-0.00375401
0.00512861
-0.0038417
0.00496443
-0.00393258
0.00477865
-0.00402705
0.00457048
-0.00412492
0.00433903
-0.00422661
0.00408323
-0.00433187
0.00380243
-0.00444129
0.0034956
-0.00455499
0.00316188
-0.00467276
0.00279999
-0.00479526
0.00240903
-0.00492219
0.00198782
-0.00505409
-0.00519093
0.00153493
0.00260661
-0.00207624
0.00283139
-0.00213255
0.00304373
-0.00219079
0.00324433
-0.00224961
0.00343327
-0.00230789
0.00361177
-0.00236511
0.00378076
-0.00242106
0.00394044
-0.00247493
0.00409133
-0.00252774
0.0042335
-0.00257875
0.00436643
-0.00262839
0.00449081
-0.00267725
0.00460609
-0.00272555
0.00471176
-0.00277305
0.00480782
-0.00282068
0.00489404
-0.00286845
0.00496957
-0.00291618
0.00503429
-0.00296436
0.00508735
-0.00301364
0.00512869
-0.00306342
0.00515746
-0.00311449
0.00517342
-0.00316685
0.00517588
-0.00322038
0.00516417
-0.00327544
0.00513819
-0.00333235
0.0050968
-0.00339106
0.00503986
-0.00345143
0.00496653
-0.00351412
0.00487602
-0.00357873
0.00476788
-0.00364588
0.0046412
-0.00371502
0.00449576
-0.00378713
0.00433015
-0.00386144
0.00414425
-0.00393901
0.00393666
-0.00401902
0.0037072
-0.00410241
0.00345476
-0.00418885
0.00317833
-0.00427856
0.00287724
-0.00437167
0.00255021
-0.00446823
0.00219684
-0.00456883
0.00181567
-0.00467292
-0.00478112
0.00140586
0.00223929
-0.00228804
0.00244257
-0.00233584
0.00263669
-0.00238491
0.00282195
-0.00243488
0.00299833
-0.00248428
0.00316607
-0.00253285
0.00332563
-0.00258062
0.00347695
-0.00262625
0.0036196
-0.00267039
0.00375448
-0.00271363
0.00388122
-0.00275513
0.00399951
-0.00279554
0.00410928
-0.00283532
0.00421042
-0.00287419
0.00430214
-0.0029124
0.00438458
-0.00295089
0.00445705
-0.00298865
0.00451964
-0.00302696
0.00457145
-0.00306545
0.00461257
-0.00310455
0.00464217
-0.00314408
0.00465977
-0.00318445
0.00466523
-0.00322585
0.00465796
-0.00326817
0.00463729
-0.00331167
0.00460261
-0.00335638
0.00455376
-0.00340257
0.00448967
-0.00345004
0.00441017
-0.00349923
0.00431448
-0.00355018
0.00420214
-0.00360268
0.00407223
-0.00365722
0.00392455
-0.00371377
0.0037579
-0.00377236
0.00357171
-0.00383282
0.0033654
-0.0038961
0.003138
-0.00396146
0.00288876
-0.00402932
0.00261693
-0.00409984
0.00232184
-0.00417314
0.00200203
-0.00424903
0.00165724
-0.00432813
-0.00440997
0.00128609
0.00195404
-0.00247897
0.00213817
-0.00251996
0.00231518
-0.00256192
0.00248467
-0.00260437
0.00264721
-0.00264682
0.00280218
-0.00268782
0.00294938
-0.00272782
0.00308977
-0.00276664
0.00322293
-0.00280354
0.00334827
-0.00283898
0.00346647
-0.00287333
0.00357694
-0.00290601
0.00367962
-0.002938
0.00377411
-0.00296868
0.00386037
-0.00299866
0.00393762
-0.00302813
0.00400649
-0.00305752
0.00406575
-0.00308622
0.00411545
-0.00311515
0.00415505
-0.00314414
0.00418431
-0.00317335
0.00420256
-0.0032027
0.00420991
-0.0032332
0.00420526
-0.00326351
0.00418864
-0.00329505
0.00415945
-0.00332719
0.00411726
-0.00336038
0.00406125
-0.00339403
0.00399123
-0.00342921
0.00390637
-0.00346533
0.00380634
-0.00350264
0.00369028
-0.00354117
0.00355767
-0.00358115
0.0034079
-0.0036226
0.00324075
-0.00366567
0.00305487
-0.00371022
0.00284985
-0.00375644
0.0026251
-0.00380456
0.00237945
-0.00385419
0.00211245
-0.00390614
0.00182328
-0.00395986
0.00151102
-0.00401587
-0.00407379
0.00117483
0.00172124
-0.00265147
0.00188796
-0.00268669
0.00204909
-0.00272305
0.00220399
-0.00275926
0.00235234
-0.00279517
0.00249458
-0.00283006
0.00263026
-0.0028635
0.00275943
-0.00289581
0.00288199
-0.00292611
0.00299803
-0.00295502
0.00310709
-0.0029824
0.00320947
-0.00300839
0.00330453
-0.00303306
0.00339225
-0.00305639
0.00347234
-0.00307875
0.00354466
-0.00310045
0.00360856
-0.00312142
0.00366414
-0.0031418
0.00371098
-0.00316199
0.00374849
-0.00318165
0.00377691
-0.00320177
0.0037954
-0.00322119
0.00380328
-0.00324107
0.00380107
-0.0032613
0.00378748
-0.00328147
0.00376255
-0.00330227
0.00372542
-0.00332326
0.00367633
-0.00334494
0.00361401
-0.00336689
0.00353832
-0.00338963
0.00344864
-0.00341296
0.0033448
-0.00343732
0.00322584
-0.0034622
0.00309126
-0.00348802
0.00294054
-0.00351495
0.00277309
-0.00354278
0.00258815
-0.0035715
0.00238488
-0.00360129
0.00216309
-0.00363239
0.00192172
-0.00366477
0.00165998
-0.00369812
0.00137691
-0.0037328
-0.00376921
0.00107234
0.00152633
-0.00280793
0.00167766
-0.00283802
0.00182405
-0.00286944
0.0019648
-0.00290001
0.00210046
-0.00293083
0.0022303
-0.0029599
0.00235467
-0.00298786
0.00247301
-0.00301415
0.0025855
-0.00303859
0.00269215
-0.00306167
0.00279256
-0.00308281
0.00288674
-0.00310257
0.00297439
-0.00312071
0.00305513
-0.00313713
0.00312918
-0.00315281
0.00319595
-0.00316722
0.00325529
-0.00318076
0.00330704
-0.00319356
0.00335066
-0.0032056
0.00338624
-0.00321723
0.00341302
-0.00322855
0.00343093
-0.0032391
0.0034395
-0.00324965
0.00343833
-0.00326013
0.00342729
-0.00327042
0.00340574
-0.00328071
0.00337319
-0.00329071
0.0033295
-0.00330125
0.00327405
-0.00331143
0.00320642
-0.00332201
0.00312605
-0.00333259
0.00303259
-0.00334385
0.0029256
-0.00335521
0.00280466
-0.00336708
0.00266861
-0.0033789
0.00251743
-0.00339159
0.00235032
-0.00340439
0.0021669
-0.00341788
0.00196614
-0.00343163
0.00174741
-0.00344605
0.00151037
-0.00346108
0.00125407
-0.0034765
-0.00349309
0.000977949
0.00135962
-0.00294859
0.00149721
-0.00297561
0.00163004
-0.00300228
0.00175843
-0.0030284
0.00188201
-0.00305441
0.0020002
-0.00307808
0.0021133
-0.00310096
0.00222247
-0.00312332
0.0023257
-0.00314182
0.00242302
-0.00315899
0.00251511
-0.0031749
0.00260172
-0.00318918
0.00268199
-0.00320098
0.00275631
-0.00321145
0.00282419
-0.00322069
0.00288583
-0.00322886
0.00294057
-0.0032355
0.00298837
-0.00324135
0.00302901
-0.00324624
0.00306229
-0.0032505
0.00308724
-0.00325351
0.00310423
-0.00325609
0.00311284
-0.00325826
0.00311265
-0.00325994
0.00310342
-0.00326119
0.00308451
-0.0032618
0.00305601
-0.00326221
0.00301701
-0.00326226
0.00296742
-0.00326184
0.00290656
-0.00326114
0.00283459
-0.00326063
0.00275061
-0.00325987
0.00265429
-0.00325889
0.00254456
-0.00325735
0.00242207
-0.00325641
0.00228553
-0.00325505
0.00213469
-0.00325356
0.00196845
-0.00325164
0.0017868
-0.00324998
0.00158885
-0.00324809
0.00137398
-0.00324621
0.00114169
-0.00324421
0.000890933
-0.00324233
-0.000154938
0.00620573
-0.00675827
0.000707476
0.000355648
0.00598385
-0.00649444
0.000826486
0.00577037
-0.00624121
0.00125873
0.00556514
-0.00599738
0.00165397
0.00536744
-0.00576268
0.00201243
0.00517763
-0.00553609
0.00233747
0.00499388
-0.00531893
0.002629
0.00481736
-0.00510889
0.00288805
0.00464741
-0.00490645
0.00311616
0.004483
-0.0047111
0.00331422
0.00432465
-0.00452271
0.00348326
0.00417132
-0.00434036
0.0036237
0.00402314
-0.00416359
0.00373696
0.00387961
-0.00399286
0.00382374
0.00373997
-0.00382675
0.0038844
0.00360482
-0.00366548
0.00391981
0.00347306
-0.00350847
0.00393095
0.00334519
-0.00335633
0.00391911
0.00321945
-0.00320762
0.00388439
0.00309769
-0.00306297
0.00382796
0.00297817
-0.00292174
0.00375113
0.00286113
-0.0027843
0.00365479
0.00274673
-0.00265039
0.0035401
0.00263457
-0.00251988
0.00340834
0.00252446
-0.00239271
0.00326108
0.0024166
-0.00226933
0.00309964
0.0023104
-0.00214896
0.00292538
0.00220665
-0.00203239
0.00273967
0.00210459
-0.00191888
0.00254425
0.00200414
-0.00180872
0.00234065
0.00190566
-0.00170206
0.00213099
0.00180859
-0.00159892
0.00191595
0.00171294
-0.00149791
0.00169778
0.00161889
-0.00140072
0.00147814
0.00152549
-0.00130585
0.00125912
0.00143224
-0.00121321
0.00104201
0.00133949
-0.00112238
0.000829458
0.00124569
-0.00103314
0.000623316
0.00114939
-0.000943246
0.000427014
0.00104818
-0.000851879
0.000243717
0.000938013
-0.000754717
7.24296e-05
0.000814339
-0.000643048
0.000710487
-0.000140478
-0.000497581
-0.000147009
0.00570523
0.000647506
0.000315596
0.00552125
0.000741643
0.00534432
0.00113276
0.00517402
0.00149038
0.00500982
0.00181572
0.0048523
0.00210939
0.0047002
0.00237314
0.00455361
0.00260801
0.00441254
0.00281477
0.00427623
0.00299473
0.0041447
0.0031482
0.00401784
0.00327645
0.00389489
0.00338056
0.0037755
0.00346048
0.00366006
0.00351747
0.00354782
0.00355224
0.0034383
0.00356558
0.00333185
0.00355726
0.00322778
0.00352918
0.00312578
0.0034816
0.00302575
0.00341543
0.00292731
0.00333121
0.00283095
0.00323034
0.00273543
0.00311352
0.00264129
0.00298213
0.00254798
0.00283658
0.00245595
0.00267904
0.00236418
0.00251028
0.00227335
0.00233166
0.00218275
0.00214443
0.0020929
0.00195044
0.00200258
0.00175058
0.0019128
0.00154759
0.00182189
0.00134225
0.00173083
0.00113606
0.00163843
0.000931518
0.00154403
0.000730799
0.00144641
0.000536139
0.00134405
0.000351084
0.00123324
0.000178166
0.00111093
1.42716e-05
0.000978235
0.000906723
-0.000181965
-0.000138962
0.00525218
0.000592016
0.000280076
0.00510221
0.000666222
0.00495818
0.00102051
0.00481972
0.0013441
0.00468623
0.00163879
0.0045576
0.001905
0.004434
0.00214391
0.0043147
0.00235651
0.00419994
0.00254396
0.00408878
0.0027071
0.00398156
0.0028466
0.00387835
0.00296364
0.00377784
0.00305835
0.0036808
0.00313171
0.00358669
0.00318452
0.00349502
0.00321697
0.00340585
0.00323036
0.00331845
0.00322523
0.00323291
0.00320155
0.00314946
0.00316041
0.00306689
0.00310256
0.00298516
0.0030287
0.00290481
0.00293902
0.00282511
0.00283478
0.00274553
0.00271692
0.00266585
0.00258616
0.00258671
0.00244355
0.00250679
0.0022903
0.0024266
0.0021271
0.00234595
0.00195599
0.00226401
0.00177773
0.00218084
0.00159383
0.0020967
0.00140549
0.00201022
0.00121488
0.00192144
0.00102329
0.00183002
0.00083268
0.00173464
0.000645026
0.00163406
0.000463459
0.00152561
0.000290549
0.00140615
0.000128951
0.00127253
-2.68841e-05
0.00113407
0.00109259
-0.000212755
-0.000130568
0.00484098
0.000541768
0.000249036
0.0047226
0.000598761
0.00460845
0.000920032
0.00449845
0.00121322
0.00439304
0.00147974
0.00429109
0.0017212
0.00419254
0.00193746
0.00409844
0.00213026
0.00400715
0.00230017
0.00391887
0.0024481
0.00383363
0.00257468
0.00375177
0.00268066
0.00367185
0.0027667
0.00359476
0.0028336
0.00351979
0.00288216
0.00344646
0.00291261
0.0033754
0.00292566
0.0033054
0.00292156
0.00323701
0.00290153
0.00316948
0.00286576
0.00310265
0.00281427
0.00303665
0.00274829
0.00297079
0.0026687
0.0029047
0.00257567
0.00283856
0.00246965
0.00277187
0.00235213
0.00270422
0.00222332
0.0026356
0.00208443
0.0025655
0.00193643
0.00249394
0.00178059
0.00241986
0.00161728
0.00234415
0.00144871
0.00226527
0.001276
0.00218294
0.00109991
0.00209753
0.000923144
0.00200678
0.000746841
0.00191095
0.000573437
0.00180747
0.000405197
0.00169385
0.00024497
0.00156638
9.50594e-05
0.00142244
-5.13286e-05
0.00128046
0.00126461
-0.000223347
-0.000122404
0.00446872
0.000494661
0.000221583
0.00437862
0.000538764
0.00429127
0.000829702
0.00420751
0.00109563
0.00412712
0.00133781
0.0040489
0.00155593
0.00397441
0.00175241
0.00390197
0.00192709
0.00383247
0.00208123
0.00376473
0.00221494
0.00369991
0.00232996
0.00363675
0.00242611
0.00357571
0.00250468
0.00351619
0.00256574
0.00345872
0.00261003
0.00340217
0.00263807
0.00334736
0.00265067
0.00329281
0.00264788
0.00323979
0.00263054
0.00318682
0.00259892
0.00313427
0.0025536
0.00308197
0.00249517
0.00302923
0.00242387
0.002976
0.00234049
0.00292193
0.0022453
0.00286706
0.0021393
0.00281023
0.00202271
0.00275219
0.0018971
0.00269111
0.00176287
0.00262818
0.00162056
0.00256217
0.00147198
0.00249273
0.00131789
0.00241935
0.00115927
0.00234156
0.00099809
0.00225871
0.000835373
0.0021695
0.000673083
0.00207324
0.000513021
0.00196753
0.000357925
0.00184895
0.000210146
0.00171415
7.14508e-05
0.00156113
-6.46414e-05
0.00141655
0.00142313
-0.000223163
-0.000114491
0.00413096
0.000452251
0.000197973
0.00406615
0.00048524
0.00400401
0.000748988
0.00394377
0.000990153
0.00388595
0.00120942
0.00382964
0.00140767
0.00377616
0.00158566
0.00372398
0.00174431
0.00367382
0.00188359
0.00362544
0.00200538
0.00357812
0.00210946
0.00353267
0.00219695
0.00348822
0.00226836
0.00344478
0.00232384
0.00340324
0.00236434
0.00336167
0.00239053
0.00332117
0.00240212
0.00328121
0.00240022
0.0032417
0.00238535
0.00320169
0.00235723
0.0031624
0.00231669
0.00312251
0.00226471
0.00308121
0.00220091
0.0030398
0.00212583
0.00299702
0.00204051
0.00295237
0.00194494
0.0029058
0.00184013
0.002857
0.00172622
0.00280502
0.00160421
0.00275019
0.00147499
0.00269139
0.00133941
0.00262831
0.00119865
0.00256011
0.00105366
0.00248656
0.000905823
0.00240654
0.000756786
0.00231854
0.000607561
0.00222246
0.000460786
0.0021143
0.000317805
0.00199193
0.000181759
0.0018502
5.36256e-05
0.00168927
-7.23426e-05
0.00154252
0.00156916
-0.000218367
-0.000106746
0.00382434
0.000413366
0.000176392
0.00378301
0.000437346
0.00374305
0.000676685
0.00370443
0.000895481
0.00366716
0.00109406
0.00363106
0.00127417
0.00359605
0.00143538
0.00356276
0.00157902
0.00353018
0.00170626
0.00349821
0.00181648
0.0034679
0.00191121
0.00343794
0.00199052
0.00340891
0.00205514
0.00338016
0.00210606
0.00335232
0.00214274
0.003325
0.00216651
0.00329739
0.00217787
0.00326986
0.0021764
0.00324317
0.00216285
0.00321523
0.00213815
0.0031871
0.00210241
0.00315825
0.00205553
0.00312809
0.00199837
0.00309696
0.00193141
0.00306397
0.00185432
0.00302947
0.00176806
0.00299206
0.00167317
0.00295188
0.00157021
0.00290798
0.00145936
0.00286103
0.00134205
0.0028087
0.00121889
0.00275146
0.00109035
0.00268865
0.000958048
0.00261886
0.000822989
0.0025416
0.000686184
0.00245534
0.000550497
0.00235815
0.000416087
0.00224871
0.000285184
0.00212283
0.000159774
0.00197561
4.19719e-05
0.00180707
-7.54937e-05
0.00165999
0.001704
-0.000210332
-9.92561e-05
0.00354645
0.000377143
0.000157443
0.00352632
0.000394237
0.00350626
0.000611359
0.00348731
0.000810044
0.00346847
0.000990429
0.00345067
0.00115351
0.00343297
0.00130021
0.00341606
0.00143097
0.00339941
0.0015456
0.00338357
0.001646
0.00336751
0.00173171
0.00335224
0.00180383
0.00333679
0.00186265
0.00332134
0.00190867
0.00330631
0.00194264
0.00329102
0.00196452
0.00327552
0.00197427
0.00326011
0.0019737
0.00324373
0.00196197
0.00322696
0.00193971
0.00320935
0.00190726
0.00319071
0.00186517
0.00317019
0.00181375
0.00314837
0.00175308
0.00312464
0.00168387
0.00309867
0.0016061
0.00306984
0.00152042
0.00303757
0.00142677
0.00300163
0.0013265
0.0029613
0.00121993
0.00291527
0.00110741
0.00286398
0.000990326
0.00280574
0.00086942
0.00273977
0.000745804
0.00266521
0.000621506
0.00257964
0.000497154
0.0024825
0.000375057
0.00237081
0.000255797
0.0022421
0.000140113
0.00209129
3.05862e-05
0.0019166
-7.95688e-05
0.00177014
0.0018275
-0.000203069
-9.22111e-05
0.000344517
0.00329415
0.000141342
0.00329276
0.000356
0.0032916
0.000553001
0.0032903
0.000733122
0.00328835
0.000897045
0.00328675
0.00104483
0.00328519
0.00117794
0.00328295
0.00129611
0.00328124
0.00140087
0.00327882
0.00149179
0.00327658
0.00156991
0.00327411
0.00163532
0.00327138
0.00168852
0.00326813
0.00173049
0.00326434
0.00176133
0.00326018
0.00178136
0.00325548
0.00179126
0.00325022
0.00179041
0.00324458
0.00178022
0.00323715
0.00176031
0.00322926
0.00173148
0.00321954
0.0016936
0.00320807
0.00164717
0.00319481
0.001593
0.00317881
0.00153111
0.00316056
0.00146118
0.00313977
0.00138366
0.00311509
0.00129936
0.00308592
0.00120847
0.00305219
0.0011115
0.00301223
0.00100994
0.00296554
0.000903855
0.00291183
0.000792592
0.00285103
0.000679379
0.00277843
0.000565459
0.00269356
0.000452774
0.00259518
0.000343641
0.00247994
0.000235672
0.00235006
0.000126899
0.00220007
3.04708e-05
0.00201302
-7.63214e-05
0.00187693
-0.000192321
0.0019435
-0.000351256
0.000884343
-0.000673563
-0.000577843
0.00103599
-0.000809401
-0.000808752
0.00112794
-0.000897034
-0.00103913
0.0011977
-0.000967322
-0.0012664
0.0012583
-0.00103103
-0.00148933
0.00131519
-0.00109225
-0.00170681
0.00137015
-0.00115267
-0.00191855
0.00142514
-0.0012134
-0.00212355
0.00147995
-0.00127495
-0.00232147
0.00153576
-0.00133784
-0.0025119
0.00159319
-0.00140275
-0.00269426
0.00165217
-0.0014698
-0.00286806
0.00171272
-0.00153892
-0.00303326
0.00177611
-0.00161091
-0.0031887
0.00184104
-0.0016856
-0.00333449
0.00190908
-0.00176328
-0.00346977
0.00197964
-0.00184436
-0.00359419
0.00205298
-0.00192856
-0.00370685
0.00212928
-0.00201662
-0.00380727
0.00220867
-0.00210825
-0.00389481
0.00229182
-0.00220427