/*--------------------------------*- C++ -*----------------------------------*\
| =========                 |                                                 |
| \\      /  F ield         | OpenFOAM: The Open Source CFD Toolbox           |
|  \\    /   O peration     | Version:  2.3.0                                 |
|   \\  /    A nd           | Web:      www.OpenFOAM.org                      |
|    \\/     M anipulation  |                                                 |
\*---------------------------------------------------------------------------*/
FoamFile
{
    version     2.0;
    format      ascii;
    class       volVectorField;
    location    "1000";
    object      U;
}
// * * * * * * * * * * * * * * * * * * * * * * * * * * * * * * * * * * * * * //

dimensions      [0 1 -1 0 0 0 0];

internalField   nonuniform List<vector> 
38250
(
(18.3605 1.18182 -1.88463e-21)
(18.2921 1.14899 -3.44177e-21)
(18.2202 1.11978 0)
(18.1468 1.08819 -8.84452e-21)
(18.0722 1.05429 2.53816e-20)
(17.9962 1.018 2.10403e-20)
(17.919 0.979175 -4.02023e-21)
(17.8402 0.937669 -1.18442e-20)
(17.76 0.893335 0)
(17.6781 0.846021 1.52413e-20)
(17.5944 0.795588 -1.72664e-20)
(17.5087 0.741825 1.20126e-20)
(17.421 0.684557 0)
(17.3311 0.623571 -1.81867e-20)
(17.2388 0.558559 0)
(17.144 0.489233 8.37174e-20)
(17.0464 0.415187 -9.49663e-20)
(16.946 0.335972 -1.38236e-19)
(16.8424 0.251036 9.74461e-20)
(16.7354 0.159714 -3.33778e-20)
(16.6247 0.061223 -2.03125e-20)
(16.5098 -0.045327 0)
(16.3903 -0.161052 0)
(16.2658 -0.287197 -2.01621e-20)
(16.1359 -0.425367 0)
(15.9999 -0.57734 -1.1869e-20)
(15.8571 -0.745053 4.78475e-21)
(15.7073 -0.931236 0)
(15.5497 -1.13868 1.52865e-20)
(15.384 -1.37097 -2.45665e-20)
(15.2102 -1.63219 -1.18795e-19)
(15.0285 -1.92724 1.54582e-19)
(14.8396 -2.26169 -1.22853e-19)
(14.645 -2.64169 2.19324e-20)
(14.4475 -3.07525 -2.28485e-20)
(14.2515 -3.57141 -2.40261e-20)
(14.0638 -4.13982 0)
(13.8953 -4.79226 0)
(13.7645 -5.54044 -1.0651e-20)
(13.7043 -6.39784 9.14165e-21)
(13.7808 -7.38595 4.53691e-20)
(14.1414 -8.51461 4.21843e-20)
(15.1806 -9.85444 3.15383e-19)
(18.3968 1.10389 -1.20944e-21)
(18.3368 1.07363 0)
(18.2752 1.04407 1.45645e-21)
(18.213 1.01197 8.94125e-21)
(18.1502 0.97758 -6.56976e-21)
(18.0867 0.940911 0)
(18.0226 0.901844 0)
(17.9577 0.860233 7.65585e-21)
(17.8921 0.815936 0)
(17.8257 0.768775 1.43365e-20)
(17.7583 0.718625 -1.07426e-20)
(17.69 0.665289 -5.68554e-20)
(17.6207 0.608594 4.35149e-20)
(17.5503 0.54836 1.80902e-20)
(17.4788 0.484329 -8.18347e-21)
(17.4062 0.416286 1.06625e-20)
(17.3326 0.343929 -9.59371e-21)
(17.2578 0.266945 1.24679e-20)
(17.1821 0.184926 1.34616e-20)
(17.1054 0.0974731 1.45276e-20)
(17.0279 0.00406169 4.8923e-20)
(16.9497 -0.0958959 -6.30356e-20)
(16.8711 -0.203138 0)
(16.7924 -0.318453 1.97424e-20)
(16.7139 -0.442806 -1.74292e-20)
(16.6361 -0.577324 1.15383e-20)
(16.5598 -0.723292 3.27111e-20)
(16.4857 -0.882143 1.08788e-19)
(16.4151 -1.05561 -1.27841e-19)
(16.3496 -1.2456 -6.41576e-20)
(16.2913 -1.45419 9.77401e-20)
(16.2429 -1.6838 -7.51172e-20)
(16.208 -1.93709 1.01804e-19)
(16.1912 -2.217 1.09952e-20)
(16.1986 -2.52645 2.081e-20)
(16.2376 -2.86806 4.78083e-21)
(16.3181 -3.24376 1.13044e-20)
(16.4526 -3.65451 0)
(16.6562 -4.09913 9.08266e-21)
(16.9485 -4.57289 -1.75618e-20)
(17.3533 -5.06462 -5.51577e-21)
(17.8986 -5.5474 0)
(18.5959 -5.95934 4.18076e-21)
(18.4293 1.04077 -1.00911e-21)
(18.3773 1.00965 -1.02249e-21)
(18.3239 0.979682 -1.68338e-21)
(18.27 0.947319 -2.25719e-21)
(18.2157 0.912798 -6.0536e-21)
(18.1609 0.876116 5.6793e-21)
(18.1059 0.837185 -2.46948e-21)
(18.0504 0.795842 -1.4835e-20)
(17.9946 0.751963 7.13933e-21)
(17.9383 0.705345 2.87959e-20)
(17.8816 0.655846 2.31052e-21)
(17.8244 0.603273 -4.38525e-20)
(17.7666 0.54745 9.26104e-21)
(17.7083 0.488156 0)
(17.6494 0.425151 1.46005e-20)
(17.59 0.358177 -6.99503e-21)
(17.5302 0.286936 9.55942e-21)
(17.4699 0.211097 0)
(17.4093 0.130286 0)
(17.3486 0.0440758 9.40117e-21)
(17.2877 -0.047986 2.29705e-20)
(17.2272 -0.146424 -3.75327e-20)
(17.1671 -0.251881 -2.15166e-21)
(17.1079 -0.364986 5.26884e-20)
(17.0501 -0.486553 -4.09209e-20)
(16.9942 -0.617373 7.38564e-20)
(16.941 -0.758416 -8.53421e-20)
(16.8915 -0.910612 1.36602e-19)
(16.8469 -1.07504 -8.80986e-20)
(16.8088 -1.25283 2.92701e-20)
(16.7792 -1.44502 -6.17469e-20)
(16.7605 -1.65272 9.3523e-21)
(16.7558 -1.87664 1.46017e-20)
(16.7691 -2.11719 -2.00155e-20)
(16.8048 -2.37422 -1.4976e-20)
(16.8685 -2.64675 -1.84057e-21)
(16.9666 -2.93238 7.38615e-21)
(17.1063 -3.22676 -1.55071e-21)
(17.2955 -3.52336 0)
(17.5419 -3.81158 1.10875e-20)
(17.8527 -4.07638 1.10095e-21)
(18.2322 -4.29679 5.56959e-20)
(18.6775 -4.44516 -5.91209e-20)
(18.4614 0.987215 -2.04767e-21)
(18.4164 0.956447 0)
(18.3702 0.926887 0)
(18.3238 0.895171 1.12445e-21)
(18.2771 0.861521 3.27864e-21)
(18.2302 0.825909 -1.63348e-21)
(18.1831 0.788285 -2.24555e-21)
(18.136 0.748504 2.22088e-21)
(18.0888 0.706424 0)
(18.0415 0.66187 5.90273e-21)
(17.9941 0.614677 0)
(17.9466 0.564692 0)
(17.8989 0.511743 0)
(17.8512 0.45565 -1.7598e-20)
(17.8034 0.396204 1.58523e-20)
(17.7556 0.333184 3.33354e-20)
(17.7079 0.266352 -5.49098e-20)
(17.6605 0.195411 6.59e-20)
(17.6135 0.120059 -6.38893e-20)
(17.5671 0.039964 1.62975e-20)
(17.5215 -0.0452465 -1.01012e-20)
(17.477 -0.135947 -1.08103e-20)
(17.4343 -0.2326 -9.34585e-21)
(17.3936 -0.335728 9.9575e-21)
(17.3555 -0.445859 0)
(17.3209 -0.563639 -6.57918e-20)
(17.2904 -0.689638 6.89872e-20)
(17.2651 -0.824518 -5.71665e-20)
(17.2462 -0.968889 7.65577e-20)
(17.2353 -1.12328 -2.27581e-20)
(17.2341 -1.28821 8.95125e-21)
(17.2448 -1.46399 -2.34677e-20)
(17.2699 -1.65063 0)
(17.3125 -1.8478 1.37955e-20)
(17.3757 -2.05461 0)
(17.4635 -2.26933 -1.16437e-20)
(17.5797 -2.48911 -7.15041e-21)
(17.7285 -2.70973 1.41191e-23)
(17.9132 -2.92549 0)
(18.1366 -3.12854 -2.50558e-21)
(18.3992 -3.30914 9.55715e-21)
(18.6986 -3.45572 1.66488e-20)
(19.0269 -3.55604 -2.90889e-20)
(18.4922 0.942684 2.0508e-21)
(18.4532 0.912219 0)
(18.4131 0.883166 1.09528e-21)
(18.3728 0.852367 2.30352e-22)
(18.3323 0.819887 -3.99935e-22)
(18.2916 0.785646 -2.24028e-21)
(18.2509 0.7496 0)
(18.2103 0.711637 2.72215e-21)
(18.1697 0.671576 0)
(18.1292 0.62926 -5.8997e-21)
(18.0888 0.584513 -6.29996e-21)
(18.0485 0.537195 9.15785e-21)
(18.0082 0.487136 0)
(17.968 0.434151 4.01205e-21)
(17.9279 0.378079 -8.73632e-21)
(17.8879 0.31872 4.43237e-21)
(17.8484 0.255843 2.25176e-20)
(17.8093 0.189218 -2.93211e-20)
(17.7709 0.118562 2.60951e-20)
(17.7333 0.0435644 -4.06216e-20)
(17.6966 -0.0360771 2.83886e-20)
(17.6614 -0.120602 0)
(17.628 -0.21037 9.40769e-21)
(17.597 -0.305762 -1.00209e-20)
(17.5689 -0.407157 8.36746e-21)
(17.5445 -0.51506 0)
(17.5246 -0.629868 1.19013e-20)
(17.51 -0.752038 -3.12986e-20)
(17.5018 -0.881885 2.23792e-20)
(17.5015 -1.01966 -1.02296e-20)
(17.5107 -1.16555 0)
(17.5311 -1.31955 1.41666e-20)
(17.5648 -1.48131 -1.00684e-20)
(17.6141 -1.65013 -4.27702e-21)
(17.6816 -1.82468 8.45451e-21)
(17.77 -2.00301 -7.05048e-21)
(17.882 -2.18241 -3.08111e-21)
(18.0201 -2.35893 5.49632e-21)
(18.186 -2.52767 -3.36181e-21)
(18.3807 -2.68253 5.17285e-21)
(18.6035 -2.81648 -2.2304e-20)
(18.8513 -2.92204 1.88218e-20)
(19.1182 -2.9922 7.48053e-21)
(18.5224 0.903346 -3.25045e-21)
(18.488 0.874345 0)
(18.4528 0.846496 7.63502e-22)
(18.4175 0.817027 1.36782e-21)
(18.3821 0.786053 3.17638e-22)
(18.3467 0.753414 -2.47419e-22)
(18.3111 0.719116 2.44865e-22)
(18.2757 0.683158 -3.95929e-21)
(18.2405 0.645291 -3.76048e-22)
(18.2056 0.605365 3.02653e-21)
(18.1708 0.563211 4.64599e-21)
(18.1362 0.518704 -9.63145e-21)
(18.1018 0.471676 0)
(18.0676 0.421931 2.7827e-21)
(18.0337 0.369326 -3.12078e-21)
(18.0001 0.313723 -4.45536e-21)
(17.9669 0.254887 0)
(17.9344 0.192611 -4.15718e-21)
(17.9028 0.126716 -5.99269e-21)
(17.8722 0.0568477 1.58013e-20)
(17.8428 -0.017318 -1.14703e-20)
(17.8148 -0.0959231 0)
(17.7887 -0.179178 0)
(17.765 -0.26732 0)
(17.7445 -0.360671 -8.42221e-21)
(17.7278 -0.459583 0)
(17.7157 -0.56441 -7.36705e-21)
(17.7089 -0.675426 9.67646e-21)
(17.7086 -0.792819 7.82523e-21)
(17.7158 -0.9167 1.91214e-20)
(17.7319 -1.04698 -1.71013e-20)
(17.7588 -1.18349 0)
(17.7979 -1.32592 5.94197e-21)
(17.851 -1.47334 -8.89216e-21)
(17.9202 -1.62425 -1.02522e-20)
(18.0076 -1.7768 2.78697e-21)
(18.115 -1.92864 6.31298e-21)
(18.2439 -2.07638 1.5562e-21)
(18.3949 -2.21578 0)
(18.5685 -2.34192 0)
(18.7637 -2.44948 -2.89522e-20)
(18.9775 -2.53332 1.43177e-20)
(19.205 -2.58902 1.6344e-20)
(18.5507 0.869988 3.28557e-21)
(18.5202 0.841855 0)
(18.4889 0.815557 -2.08428e-21)
(18.4578 0.787637 -1.18886e-21)
(18.4266 0.758354 -9.23246e-22)
(18.3957 0.727406 0)
(18.3643 0.694784 0)
(18.333 0.660793 0)
(18.3021 0.625061 5.10061e-22)
(18.2715 0.587438 -1.43455e-21)
(18.2412 0.547727 3.21825e-21)
(18.211 0.505848 -1.09366e-21)
(18.1812 0.461678 -2.7577e-21)
(18.1517 0.414931 1.69348e-21)
(18.1224 0.365474 3.133e-21)
(18.0935 0.313315 6.38306e-21)
(18.0652 0.258141 -6.42652e-21)
(18.0375 0.199652 7.41943e-21)
(18.0106 0.137944 -4.53952e-21)
(17.9852 0.0727013 -3.85073e-21)
(17.9611 0.00334532 0)
(17.9382 -0.070244 4.46765e-21)
(17.9171 -0.148063 1.09049e-20)
(17.8982 -0.230252 3.75219e-22)
(17.8824 -0.317013 -6.48018e-21)
(17.8705 -0.408578 0)
(17.8631 -0.505287 7.38477e-21)
(17.861 -0.60728 -6.70304e-21)
(17.8651 -0.71466 -9.12153e-22)
(17.8763 -0.827634 0)
(17.896 -0.945866 1.38099e-20)
(17.9259 -1.06884 3.11412e-21)
(17.9674 -1.19656 -3.21922e-21)
(18.0213 -1.32824 0)
(18.0894 -1.46201 2.11238e-21)
(18.1738 -1.59599 2.086e-21)
(18.2759 -1.72857 -1.99178e-21)
(18.3962 -1.85654 -2.91288e-21)
(18.5348 -1.97656 5.08928e-21)
(18.6917 -2.08376 0)
(18.8665 -2.17451 8.75672e-21)
(19.0569 -2.24465 0)
(19.2582 -2.29149 3.22834e-22)
(18.5754 0.840315 0)
(18.5491 0.813947 0)
(18.5216 0.789269 1.67371e-21)
(18.4941 0.762962 -1.2802e-21)
(18.4662 0.735554 6.1001e-22)
(18.4393 0.70646 0)
(18.4114 0.675269 5.70993e-22)
(18.3836 0.643069 -1.01709e-22)
(18.356 0.609293 -4.52112e-22)
(18.3288 0.573874 -2.3171e-22)
(18.302 0.536445 0)
(18.2754 0.496892 0)
(18.2491 0.455392 -1.72932e-21)
(18.2234 0.411443 -2.36866e-21)
(18.1977 0.364705 3.68951e-21)
(18.1724 0.315626 1.83897e-21)
(18.1476 0.26405 -5.38467e-21)
(18.124 0.208878 -2.20522e-22)
(18.1006 0.150566 0)
(18.079 0.0895189 -3.18137e-21)
(18.0591 0.0245689 7.1518e-21)
(18.0404 -0.0445645 -1.03049e-21)
(18.0231 -0.117821 0)
(18.0079 -0.19507 -3.90263e-21)
(17.9954 -0.276459 4.19298e-21)
(17.9866 -0.362093 -9.74242e-21)
(17.9824 -0.452268 0)
(17.9832 -0.546998 4.52674e-21)
(17.9899 -0.646051 0)
(18.0034 -0.749882 5.11423e-21)
(18.0246 -0.859024 -1.11529e-20)
(18.0558 -0.970889 -4.03777e-21)
(18.0988 -1.08717 -3.63072e-21)
(18.1522 -1.20686 2.92593e-21)
(18.218 -1.32842 3.38566e-21)
(18.2989 -1.44772 1.39713e-21)
(18.396 -1.56688 -7.41045e-22)
(18.5093 -1.67972 -7.19282e-22)
(18.6374 -1.78722 -3.94458e-21)
(18.7814 -1.88019 0)
(18.9412 -1.96047 1.01748e-20)
(19.1153 -2.02066 -1.71671e-21)
(19.2988 -2.06241 -1.94333e-20)
(18.5952 0.819466 2.70432e-21)
(18.5737 0.791624 0)
(18.5505 0.767191 -2.60001e-21)
(18.5269 0.741914 2.36224e-21)
(18.5015 0.716777 0)
(18.4784 0.690075 0)
(18.4533 0.659836 -9.06742e-22)
(18.4287 0.629103 5.54364e-22)
(18.4045 0.596881 1.3364e-23)
(18.3804 0.563492 5.51262e-23)
(18.3566 0.528481 0)
(18.3329 0.490884 0)
(18.3094 0.451734 8.51638e-22)
(18.2873 0.410582 -3.27206e-21)
(18.2646 0.366215 5.81891e-23)
(18.2425 0.318825 -1.87235e-21)
(18.22 0.271511 -4.94466e-21)
(18.1998 0.220033 5.96318e-21)
(18.1785 0.163916 4.61971e-21)
(18.1597 0.105976 -1.20572e-20)
(18.1432 0.0447628 5.22336e-21)
(18.1275 -0.0199672 -3.05154e-21)
(18.1132 -0.0893297 -6.37995e-21)
(18.1009 -0.162409 7.27119e-21)
(18.0909 -0.239634 0)
(18.0847 -0.320838 3.81182e-22)
(18.0831 -0.406465 -7.54294e-21)
(18.0859 -0.496305 -6.41596e-22)
(18.0938 -0.589535 -3.72056e-21)
(18.1088 -0.684224 6.73195e-21)
(18.1294 -0.786887 4.29544e-21)
(18.1585 -0.88917 4.86286e-21)
(18.2017 -0.998942 3.60228e-21)
(18.2534 -1.10894 -1.32446e-21)
(18.3147 -1.22347 -4.51151e-22)
(18.3914 -1.32805 -5.20295e-22)
(18.4834 -1.44104 -3.67977e-21)
(18.5893 -1.53912 8.12487e-22)
(18.7066 -1.64155 1.08306e-21)
(18.8384 -1.71905 -3.08463e-21)
(18.9881 -1.79445 -9.86639e-21)
(19.1491 -1.84526 -2.67829e-20)
(19.3225 -1.88569 3.01747e-20)
(18.2674 -10.1117 -2.84342e-19)
(20.5302 -9.30627 0)
(22.0145 -8.32682 -2.34502e-20)
(22.9967 -7.45611 -5.68207e-20)
(23.6115 -6.66924 -5.08923e-20)
(23.9577 -5.94656 0)
(24.1214 -5.28864 0)
(24.1643 -4.69541 8.05063e-20)
(24.1289 -4.15994 -6.94943e-19)
(24.0439 -3.6769 6.56889e-19)
(23.9295 -3.24163 -6.44006e-19)
(23.7991 -2.84883 5.82731e-19)
(23.6611 -2.49505 6.0615e-19)
(23.5217 -2.1758 -5.51798e-19)
(23.384 -1.88775 0)
(23.2502 -1.62767 -2.91368e-20)
(23.1214 -1.39246 -3.34084e-20)
(22.9976 -1.17973 -2.63644e-20)
(22.8791 -0.986854 -8.82873e-19)
(22.7655 -0.811666 1.60913e-18)
(22.6565 -0.652221 -1.58563e-18)
(22.5516 -0.506802 8.41556e-19)
(22.4504 -0.373928 -6.57492e-19)
(22.3526 -0.252081 7.37318e-19)
(22.2578 -0.140125 0)
(22.1656 -0.0370131 3.84134e-20)
(22.076 0.0581586 3.7305e-20)
(21.9886 0.146142 5.56356e-19)
(21.9033 0.227663 -1.16951e-18)
(21.82 0.303267 1.07197e-18)
(21.7386 0.373446 -4.92588e-19)
(21.6589 0.438657 5.35148e-19)
(21.581 0.499243 -7.93591e-20)
(21.5046 0.555488 -4.6919e-19)
(21.4299 0.607726 3.22254e-19)
(21.3567 0.656168 -2.58242e-19)
(21.285 0.701043 0)
(21.2148 0.742531 2.43769e-19)
(21.146 0.780782 -1.22527e-19)
(21.0786 0.81596 2.35358e-19)
(21.0124 0.848151 -1.21151e-19)
(20.9471 0.877559 2.28167e-19)
(20.8822 0.904452 0)
(19.4079 -6.17566 1.14296e-20)
(20.1361 -6.14811 0)
(20.7291 -5.90874 1.94163e-20)
(21.2072 -5.54904 0)
(21.5868 -5.13067 0)
(21.8798 -4.69088 0)
(22.0996 -4.25343 6.01849e-19)
(22.2598 -3.83314 -6.23481e-19)
(22.3721 -3.43788 0)
(22.4461 -3.07143 6.92755e-20)
(22.4899 -2.73493 0)
(22.5099 -2.42761 3.47756e-20)
(22.5111 -2.14774 -3.31148e-20)
(22.4973 -1.89313 -2.70594e-20)
(22.4719 -1.66149 0)
(22.4373 -1.45042 2.85665e-20)
(22.3955 -1.25778 0)
(22.3478 -1.08149 4.19246e-19)
(22.2957 -0.919742 -3.79153e-19)
(22.2401 -0.770962 3.60712e-19)
(22.1818 -0.633688 -3.08644e-19)
(22.1214 -0.506762 3.29451e-19)
(22.0595 -0.389094 -3.7138e-19)
(21.9965 -0.279782 3.11249e-19)
(21.9328 -0.178023 -3.44996e-19)
(21.8688 -0.0831579 -3.83393e-20)
(21.8047 0.00536836 -3.22879e-19)
(21.7407 0.0880721 6.00237e-19)
(21.6771 0.165371 -2.78938e-19)
(21.6138 0.23765 -2.63382e-19)
(21.5511 0.305232 5.31268e-19)
(21.489 0.368435 -3.9467e-19)
(21.4275 0.427501 6.57845e-20)
(21.3667 0.482712 1.86527e-19)
(21.3067 0.534281 -4.40935e-19)
(21.2474 0.582397 4.96553e-19)
(21.1888 0.627253 -5.6237e-21)
(21.1311 0.669018 -5.57946e-21)
(21.0741 0.707838 -4.79632e-19)
(21.0178 0.743821 2.39306e-19)
(20.9624 0.777045 -2.39412e-21)
(20.9076 0.807863 -4.59531e-19)
(20.8552 0.832634 0)
(19.1748 -4.49657 -1.09495e-20)
(19.6793 -4.44682 -1.51366e-19)
(20.1491 -4.31332 1.67543e-19)
(20.5645 -4.1202 -2.07416e-20)
(20.9195 -3.88795 -2.0677e-19)
(21.2142 -3.63239 6.31464e-19)
(21.4527 -3.36593 -4.18085e-19)
(21.6412 -3.09791 0)
(21.7861 -2.83472 0)
(21.8938 -2.58055 -3.06387e-20)
(21.9707 -2.33809 0)
(22.0221 -2.10878 0)
(22.0525 -1.89314 3.99586e-19)
(22.0659 -1.69115 -3.37951e-19)
(22.0655 -1.50246 0)
(22.0541 -1.32644 3.62662e-19)
(22.0338 -1.16238 -2.89588e-21)
(22.0063 -1.00952 -7.22835e-19)
(21.9733 -0.867031 3.76357e-19)
(21.9357 -0.734174 0)
(21.8948 -0.6102 -2.71201e-19)
(21.851 -0.494475 2.64074e-19)
(21.8052 -0.386335 3.55076e-20)
(21.7579 -0.28525 0)
(21.7094 -0.19066 3.13727e-19)
(21.6602 -0.102118 -2.7547e-19)
(21.6103 -0.019199 2.97885e-19)
(21.5602 0.0584706 2.74083e-20)
(21.5097 0.131248 -2.6043e-19)
(21.4592 0.199477 6.55375e-20)
(21.4088 0.263449 -2.48528e-19)
(21.3583 0.323443 3.13667e-19)
(21.3081 0.379705 0)
(21.258 0.432486 -5.95109e-20)
(21.2082 0.481971 -6.1469e-20)
(21.1588 0.528371 2.36757e-19)
(21.1097 0.571818 -4.74574e-19)
(21.0609 0.612506 2.37797e-19)
(21.0126 0.650543 -5.75964e-20)
(20.9647 0.686074 5.73881e-20)
(20.9172 0.71923 5.29689e-23)
(20.87 0.750466 1.13605e-19)
(20.8246 0.775886 0)
(19.3721 -3.60032 0)
(19.7185 -3.5847 1.2988e-20)
(20.05 -3.51301 -1.80891e-20)
(20.3547 -3.39482 2.05582e-20)
(20.6261 -3.24107 1.92884e-20)
(20.8616 -3.06229 1.60065e-19)
(21.0612 -2.86774 -3.84817e-19)
(21.227 -2.66509 1.60098e-19)
(21.3617 -2.46019 1.70005e-19)
(21.469 -2.25742 -1.86746e-19)
(21.5522 -2.0599 0)
(21.6148 -1.86965 -3.72985e-19)
(21.6599 -1.68797 3.62257e-19)
(21.6899 -1.51553 -2.32838e-20)
(21.7074 -1.35261 -3.87953e-19)
(21.7144 -1.19917 3.77975e-19)
(21.7125 -1.05494 3.27051e-19)
(21.7033 -0.919583 -2.78252e-19)
(21.6879 -0.792636 0)
(21.6675 -0.673597 3.62086e-20)
(21.6429 -0.562007 -7.31366e-20)
(21.6149 -0.457373 3.17749e-19)
(21.5841 -0.359223 -3.92889e-20)
(21.551 -0.267128 -2.73118e-19)
(21.5161 -0.180671 0)
(21.4797 -0.0994919 2.58114e-19)
(21.4421 -0.023232 -3.20724e-19)
(21.4035 0.0484111 2.47295e-19)
(21.3641 0.115751 -2.4884e-19)
(21.3241 0.17909 0)
(21.2836 0.238671 0)
(21.2428 0.294755 2.94926e-19)
(21.2017 0.347552 -2.3828e-19)
(21.1606 0.397257 1.17353e-19)
(21.1194 0.444049 -5.73253e-20)
(21.0782 0.488078 0)
(21.037 0.529483 -1.71308e-19)
(20.996 0.568425 1.15804e-19)
(20.9551 0.605 5.77771e-20)
(20.9143 0.639345 2.25787e-19)
(20.8737 0.671584 -1.69139e-19)
(20.833 0.701935 5.70981e-20)
(20.7921 0.728921 1.63452e-19)
(19.3959 -3.02236 -4.66824e-20)
(19.6758 -3.01072 4.55887e-20)
(19.9478 -2.95901 -1.28086e-19)
(20.2033 -2.87227 9.3588e-20)
(20.4364 -2.75708 -1.37422e-19)
(20.6437 -2.62038 1.70389e-19)
(20.8239 -2.46868 -1.46023e-19)
(20.9776 -2.30771 2.25522e-19)
(21.1062 -2.14229 2.24995e-20)
(21.2118 -1.97609 4.10459e-20)
(21.2968 -1.81196 0)
(21.3636 -1.65199 0)
(21.4145 -1.49754 -4.00771e-20)
(21.4516 -1.34953 -3.94018e-20)
(21.4768 -1.20846 4.18418e-20)
(21.4918 -1.07451 -1.5924e-19)
(21.4983 -0.947682 1.49575e-22)
(21.4975 -0.827867 4.30779e-22)
(21.4907 -0.714821 4.34832e-19)
(21.4787 -0.608247 -3.20601e-19)
(21.4626 -0.507842 3.57589e-20)
(21.443 -0.41329 -6.77356e-20)
(21.4204 -0.324243 -3.2169e-20)
(21.3955 -0.240385 0)
(21.3686 -0.16142 0)
(21.34 -0.0870463 2.47361e-19)
(21.3101 -0.017007 -4.2799e-19)
(21.2791 0.0489569 -2.79271e-20)
(21.247 0.111114 2.39244e-19)
(21.2142 0.169711 -2.88124e-20)
(21.1807 0.225006 0)
(21.1467 0.277193 -5.87716e-20)
(21.1124 0.326463 1.1376e-19)
(21.0779 0.372956 -1.726e-19)
(21.0432 0.416831 5.75813e-20)
(21.0084 0.458215 0)
(20.9734 0.497258 5.70608e-20)
(20.9385 0.534092 1.1146e-19)
(20.9036 0.5688 -1.66185e-21)
(20.8687 0.601478 -1.13333e-19)
(20.8337 0.632248 -5.58156e-20)
(20.7989 0.660977 -5.52471e-20)
(20.7636 0.68839 5.44287e-20)
(19.4398 -2.61337 0)
(19.676 -2.60507 6.37818e-20)
(19.9066 -2.56547 7.75323e-21)
(20.1251 -2.49757 -2.61085e-20)
(20.3269 -2.40585 -3.51739e-20)
(20.5089 -2.29535 -3.487e-20)
(20.6695 -2.17089 -3.6425e-20)
(20.8088 -2.037 -1.98731e-19)
(20.9275 -1.89778 1.54237e-19)
(21.0271 -1.75639 -4.13253e-20)
(21.1091 -1.61538 1.60807e-19)
(21.1754 -1.4767 -3.15879e-19)
(21.2275 -1.34179 1.95638e-19)
(21.2672 -1.21157 -1.52333e-19)
(21.2961 -1.08663 1.50816e-19)
(21.3156 -0.967276 -3.82825e-20)
(21.3272 -0.853678 0)
(21.332 -0.74584 0)
(21.331 -0.643677 3.38727e-20)
(21.3252 -0.547017 0)
(21.3153 -0.455681 -1.00041e-19)
(21.302 -0.369423 2.93296e-19)
(21.2858 -0.28798 3.16613e-20)
(21.2671 -0.211104 -1.01869e-21)
(21.2464 -0.13855 -2.45017e-19)
(21.224 -0.0701006 1.20995e-19)
(21.2 -0.00556708 -5.93214e-20)
(21.1748 0.0552944 -1.1628e-19)
(21.1484 0.112747 1.44429e-19)
(21.1211 0.167029 2.90644e-20)
(21.0931 0.218341 2.78366e-20)
(21.0645 0.266903 0)
(21.0357 0.312831 -1.10972e-19)
(21.0064 0.356209 1.9487e-19)
(20.9769 0.397207 -2.21522e-19)
(20.9472 0.435942 1.11178e-19)
(20.9173 0.472574 0)
(20.8874 0.507201 0)
(20.8574 0.539892 5.47766e-20)
(20.8273 0.570766 -1.6557e-19)
(20.7971 0.600004 0)
(20.767 0.627338 -5.38566e-20)
(20.7359 0.655116 6.13402e-22)
(19.4642 -2.31217 0)
(19.6721 -2.30524 4.97658e-20)
(19.8755 -2.27256 -4.96699e-20)
(20.0693 -2.21583 0)
(20.2497 -2.13862 6.62904e-20)
(20.4136 -2.04495 3.96974e-20)
(20.5596 -1.93838 -3.19548e-20)
(20.688 -1.82275 1.48765e-19)
(20.7986 -1.70186 -1.45106e-19)
(20.8928 -1.5782 -1.15442e-19)
(20.9715 -1.45394 -4.04407e-20)
(21.0364 -1.33097 1.47952e-19)
(21.0883 -1.21078 0)
(21.1288 -1.09414 1.89617e-21)
(21.1593 -0.981652 3.52869e-20)
(21.1813 -0.873693 0)
(21.1958 -0.770618 -1.39419e-19)
(21.204 -0.67243 -1.22706e-22)
(21.2067 -0.579183 9.95284e-20)
(21.205 -0.490733 0)
(21.1992 -0.407032 -1.34311e-21)
(21.1901 -0.327764 0)
(21.1782 -0.252777 -3.02805e-20)
(21.1638 -0.181823 2.97382e-20)
(21.1474 -0.114743 0)
(21.1293 -0.0514357 1.16636e-19)
(21.1095 0.00825053 5.67849e-20)
(21.0884 0.06463 -1.42443e-19)
(21.0662 0.11791 -2.86077e-20)
(21.043 0.168347 -2.74613e-20)
(21.0191 0.216129 -2.80457e-20)
(20.9947 0.261459 8.21278e-20)
(20.9701 0.304318 -1.09769e-19)
(20.9449 0.344782 1.35724e-19)
(20.9195 0.383083 -1.09061e-19)
(20.8938 0.41932 2.67884e-20)
(20.8681 0.453605 -1.07623e-19)
(20.8423 0.486007 1.0879e-19)
(20.8162 0.516624 8.14943e-20)
(20.7899 0.54567 -6.25945e-22)
(20.7636 0.573324 -7.26134e-22)
(20.7376 0.599224 5.33136e-20)
(20.7111 0.625598 -5.1126e-20)
(19.4821 -2.08142 -4.99653e-21)
(19.671 -2.07435 1.9043e-20)
(19.8546 -2.04637 0)
(20.03 -1.99676 0)
(20.1946 -1.92936 3.31107e-20)
(20.3441 -1.84789 -9.23514e-20)
(20.4781 -1.75375 -3.24659e-20)
(20.5984 -1.65115 0)
(20.7015 -1.54443 0)
(20.7909 -1.43357 -3.6332e-20)
(20.866 -1.32142 3.65043e-20)
(20.9292 -1.21031 0)
(20.9798 -1.10153 1.42604e-19)
(21.02 -0.995282 -1.0338e-19)
(21.0508 -0.892328 -6.94557e-20)
(21.0744 -0.793405 3.35326e-20)
(21.0903 -0.698736 -1.34354e-19)
(21.101 -0.608396 1.31577e-19)
(21.1062 -0.52238 0)
(21.1076 -0.44072 1.2682e-19)
(21.1046 -0.363416 -1.56384e-19)
(21.0985 -0.28992 -1.2197e-19)
(21.0895 -0.220274 1.8037e-19)
(21.0783 -0.154233 -2.99831e-20)
(21.0651 -0.0916747 0)
(21.0504 -0.0328136 0)
(21.0337 0.0227115 -8.097e-22)
(21.0158 0.075188 2.82417e-20)
(20.9967 0.124839 -2.7177e-20)
(20.9767 0.17196 7.15234e-22)
(20.9559 0.216708 -1.34481e-19)
(20.9349 0.259205 2.42315e-19)
(20.9138 0.29924 -2.74322e-20)
(20.8918 0.337113 2.5393e-20)
(20.8697 0.37303 -2.73436e-20)
(20.8474 0.40699 -1.07207e-19)
(20.8249 0.438861 2.58034e-20)
(20.8024 0.469033 -5.34855e-20)
(20.7794 0.497674 4.33342e-22)
(20.7562 0.525024 0)
(20.733 0.551329 -7.98963e-20)
(20.7103 0.576067 -2.645e-20)
(20.6872 0.601752 7.61888e-20)
(19.4878 -1.90294 -1.56949e-20)
(19.6666 -1.89228 0)
(19.8338 -1.86895 -5.15593e-20)
(19.9956 -1.82297 2.17055e-20)
(20.1493 -1.76301 2.43925e-20)
(20.2855 -1.69145 1.49398e-19)
(20.4101 -1.60451 3.60292e-20)
(20.5274 -1.5119 -3.07517e-20)
(20.6272 -1.41671 -6.57744e-20)
(20.7148 -1.31323 -2.31834e-21)
(20.786 -1.21017 6.73977e-20)
(20.8478 -1.10902 0)
(20.8959 -1.0094 0)
(20.9361 -0.911192 6.85657e-20)
(20.9663 -0.8157 -3.30847e-20)
(20.9911 -0.724551 3.30453e-20)
(21.0067 -0.63627 -6.50747e-20)
(21.0203 -0.552859 6.46115e-20)
(21.0262 -0.472538 -6.3599e-20)
(21.0304 -0.397038 -6.26157e-20)
(21.0279 -0.325007 6.11869e-20)
(21.0241 -0.256348 0)
(21.0167 -0.191253 -2.96529e-20)
(21.0077 -0.129312 0)
(20.997 -0.0702423 0)
(20.985 -0.015656 0)
(20.9701 0.0365142 -2.83868e-20)
(20.9548 0.0853258 0)
(20.9376 0.132135 2.76828e-20)
(20.92 0.176396 -2.62686e-20)
(20.9015 0.218561 1.33487e-19)
(20.8833 0.258406 -8.05313e-20)
(20.865 0.295957 2.73414e-20)
(20.8451 0.332177 2.66828e-20)
(20.8264 0.365841 -2.97767e-22)
(20.8065 0.397423 2.67006e-20)
(20.787 0.426451 2.64599e-20)
(20.7672 0.454926 -5.41938e-20)
(20.7466 0.482163 3.92482e-22)
(20.7259 0.508134 5.25814e-20)
(20.7053 0.5333 2.5958e-20)
(20.6854 0.556682 -1.05444e-19)
(20.6639 0.58133 2.05732e-22)
(20.363 -2.64036 5.19747e-19)
(20.3447 -2.66793 0)
(20.3249 -2.69874 0)
(20.3043 -2.72835 0)
(20.2825 -2.75754 0)
(20.2591 -2.78617 0)
(20.2339 -2.81417 1.34236e-19)
(20.2063 -2.8415 -5.373e-19)
(20.1758 -2.86809 0)
(20.1417 -2.89385 0)
(20.1032 -2.91869 0)
(20.0593 -2.94251 0)
(20.0089 -2.9652 0)
(19.9507 -2.98661 5.31555e-19)
(19.8833 -3.00661 -6.06835e-19)
(19.8054 -3.025 -4.6706e-19)
(19.7157 -3.04162 5.43787e-19)
(19.6128 -3.05629 0)
(19.4955 -3.06881 7.06113e-20)
(19.3624 -3.079 0)
(19.2124 -3.08664 -7.0857e-20)
(19.0444 -3.0915 0)
(18.8576 -3.09339 0)
(18.651 -3.09214 -3.84112e-20)
(18.4241 -3.08747 0)
(18.1762 -3.07925 0)
(17.907 -3.06726 6.17488e-19)
(17.6159 -3.05133 -6.90216e-19)
(17.3024 -3.03127 -4.53977e-20)
(16.9659 -3.00683 -3.91183e-19)
(16.6057 -2.97781 3.67463e-19)
(16.2204 -2.94383 0)
(15.8086 -2.9047 4.38584e-19)
(15.368 -2.85968 -5.04052e-19)
(14.8952 -2.80819 2.37578e-19)
(14.3856 -2.74917 -1.9489e-19)
(13.8322 -2.68104 -7.36114e-20)
(13.2242 -2.60137 1.30471e-19)
(12.544 -2.50659 0)
(11.7601 -2.38975 4.67536e-19)
(10.8106 -2.23579 -1.22316e-18)
(9.59085 -1.99166 8.12308e-19)
(8.26207 -1.66659 -2.21e-18)
(20.3321 -2.61735 -1.96807e-21)
(20.3149 -2.64223 -1.42391e-19)
(20.2961 -2.66981 1.4174e-19)
(20.2767 -2.69633 -3.5282e-20)
(20.2564 -2.72245 1.74954e-19)
(20.2349 -2.7481 0)
(20.2119 -2.77325 1.39471e-19)
(20.1871 -2.79785 -1.36318e-19)
(20.1601 -2.82187 2.76148e-19)
(20.1304 -2.84524 0)
(20.0973 -2.8679 2.0535e-19)
(20.0603 -2.88978 -5.50707e-19)
(20.0183 -2.91079 8.28361e-19)
(19.9705 -2.93083 -5.58349e-19)
(19.9157 -2.94975 5.58054e-19)
(19.8526 -2.96742 -6.37408e-19)
(19.78 -2.98366 7.10288e-20)
(19.6966 -2.99832 -5.73662e-19)
(19.6012 -3.01118 5.85477e-19)
(19.4923 -3.02205 0)
(19.3685 -3.03072 7.3672e-20)
(19.2285 -3.03691 -6.08333e-19)
(19.0709 -3.04042 6.65263e-19)
(18.8944 -3.04099 0)
(18.6979 -3.03835 0)
(18.48 -3.03223 3.34249e-19)
(18.2398 -3.02234 -3.48416e-19)
(17.9761 -3.00843 -3.11731e-19)
(17.6878 -2.99018 3.74499e-19)
(17.3735 -2.96721 -3.39065e-19)
(17.032 -2.93918 -4.5667e-20)
(16.6614 -2.90559 4.30973e-19)
(16.2597 -2.86594 2.25233e-19)
(15.824 -2.8195 -4.54432e-19)
(15.3506 -2.76531 2.30319e-19)
(14.8341 -2.70215 3.50497e-20)
(14.267 -2.62833 -1.56466e-19)
(13.6374 -2.54131 4.3033e-20)
(12.9264 -2.43723 -4.98087e-20)
(12.1007 -2.30916 -5.81601e-20)
(11.1064 -2.14546 7.12849e-20)
(9.92564 -1.92255 9.36716e-20)
(9.20106 -1.66299 -1.76623e-18)
(20.305 -2.59648 -1.33868e-21)
(20.2887 -2.6187 -7.36128e-20)
(20.2711 -2.64331 -2.208e-19)
(20.253 -2.66704 -1.80656e-19)
(20.234 -2.69046 -1.088e-19)
(20.214 -2.71351 0)
(20.1928 -2.73617 -1.41363e-19)
(20.1701 -2.75841 0)
(20.1456 -2.7802 2.80918e-19)
(20.1189 -2.8015 -2.82438e-19)
(20.0895 -2.82225 7.06896e-20)
(20.0569 -2.84241 0)
(20.0204 -2.8619 0)
(19.9791 -2.88062 -2.84055e-19)
(19.9322 -2.89846 6.46825e-19)
(19.8786 -2.91528 -2.91144e-19)
(19.817 -2.93092 -1.46239e-19)
(19.7464 -2.94522 7.35464e-20)
(19.6655 -2.95796 0)
(19.5729 -2.96896 7.54942e-20)
(19.4672 -2.97798 0)
(19.3468 -2.98476 7.80551e-20)
(19.2103 -2.98904 3.5952e-19)
(19.0561 -2.99053 -2.89793e-19)
(18.8826 -2.98893 3.35577e-19)
(18.6882 -2.98393 -3.9115e-19)
(18.4714 -2.97519 -3.11175e-19)
(18.2305 -2.96237 -4.21765e-20)
(17.9639 -2.94507 7.66052e-19)
(17.6699 -2.92287 -4.01202e-19)
(17.3465 -2.89531 4.66666e-19)
(16.9915 -2.86182 -4.4101e-19)
(16.6022 -2.82174 5.71694e-20)
(16.1754 -2.77429 1.83712e-19)
(15.7068 -2.71842 -3.30914e-19)
(15.1905 -2.65282 7.13114e-20)
(14.618 -2.57572 0)
(13.9767 -2.48459 -4.30341e-20)
(13.2455 -2.37545 2.44293e-19)
(12.3911 -2.24085 -5.96018e-20)
(11.3725 -2.06818 -6.87611e-20)
(10.2475 -1.85406 -8.66796e-20)
(9.90397 -1.64157 -1.89999e-19)
(20.2811 -2.57691 0)
(20.2657 -2.59683 2.23385e-19)
(20.2491 -2.61887 -9.40195e-20)
(20.2319 -2.64014 1.68329e-19)
(20.214 -2.66114 0)
(20.1953 -2.68186 -1.45717e-19)
(20.1754 -2.70226 1.46168e-19)
(20.1543 -2.72231 -1.44102e-19)
(20.1316 -2.74201 2.88062e-19)
(20.107 -2.7613 -7.26906e-20)
(20.0801 -2.78014 2.86317e-19)
(20.0505 -2.79851 -3.60593e-19)
(20.0176 -2.81635 -2.87805e-19)
(19.9807 -2.83357 2.91721e-19)
(19.9391 -2.85008 -7.29047e-20)
(19.8918 -2.86577 2.94154e-19)
(19.8378 -2.88049 -5.21689e-19)
(19.7761 -2.89408 2.27107e-19)
(19.7053 -2.90638 3.04172e-19)
(19.6243 -2.91718 -8.09433e-20)
(19.5315 -2.92627 -3.16041e-19)
(19.4256 -2.93339 -8.07313e-20)
(19.3048 -2.93826 1.6093e-19)
(19.1675 -2.94057 -3.76785e-19)
(19.0118 -2.94 0)
(18.8359 -2.93619 8.7753e-20)
(18.6378 -2.92876 -4.03287e-19)
(18.4156 -2.91732 4.22504e-21)
(18.1671 -2.90141 3.86504e-19)
(17.8901 -2.88056 4.96831e-20)
(17.5822 -2.85423 2.06912e-19)
(17.2408 -2.82178 -2.73651e-21)
(16.8626 -2.78248 -2.32274e-19)
(16.4439 -2.73545 -1.2005e-19)
(15.9799 -2.67959 3.2605e-19)
(15.464 -2.61345 -7.13996e-20)
(14.8871 -2.53515 -7.59965e-20)
(14.2349 -2.44195 0)
(13.4855 -2.32971 0)
(12.6052 -2.19082 -2.1914e-19)
(11.5671 -2.01161 2.63697e-19)
(10.493 -1.80122 -6.3644e-19)
(10.4062 -1.62894 6.74166e-19)
(20.26 -2.55901 7.32129e-20)
(20.2455 -2.57681 -2.31075e-19)
(20.2299 -2.59658 0)
(20.2138 -2.6157 5.68622e-20)
(20.197 -2.63463 1.89311e-20)
(20.1794 -2.65336 1.50407e-19)
(20.1609 -2.67182 1.48177e-19)
(20.1412 -2.69005 -7.4669e-20)
(20.1202 -2.708 0)
(20.0976 -2.72562 7.26232e-20)
(20.0731 -2.74286 -2.20513e-19)
(20.0461 -2.75974 -1.45932e-19)
(20.0164 -2.7762 2.23063e-21)
(19.9834 -2.79219 2.30445e-21)
(19.9463 -2.80764 3.75445e-19)
(19.9044 -2.82242 7.53114e-20)
(19.8568 -2.8364 7.61361e-20)
(19.8024 -2.84944 -3.07568e-19)
(19.7401 -2.86139 2.79783e-21)
(19.6686 -2.87206 3.18774e-19)
(19.5866 -2.88127 -8.0409e-20)
(19.4926 -2.88876 3.26117e-19)
(19.385 -2.89426 -5.83953e-19)
(19.2618 -2.89743 4.27524e-19)
(19.1212 -2.89789 -3.46557e-19)
(18.9611 -2.89529 3.14194e-19)
(18.7792 -2.88918 0)
(18.5731 -2.87916 0)
(18.3405 -2.86472 0)
(18.0786 -2.84535 2.00606e-19)
(17.7847 -2.82047 -4.20461e-19)
(17.4555 -2.7894 1.66162e-19)
(17.0874 -2.75134 5.66057e-20)
(16.6761 -2.70535 -6.13626e-20)
(16.2162 -2.65027 0)
(15.7007 -2.58458 -6.97074e-20)
(15.1196 -2.50625 7.55246e-20)
(14.4579 -2.41236 2.05097e-20)
(13.6917 -2.29836 6.89956e-20)
(12.788 -2.15658 -3.16023e-19)
(11.7329 -1.97321 2.51633e-19)
(10.7013 -1.76539 0)
(10.792 -1.62563 6.0149e-19)
(20.2416 -2.54286 1.51212e-19)
(20.2279 -2.55858 0)