/*--------------------------------*- C++ -*----------------------------------*\
| =========                 |                                                 |
| \\      /  F ield         | OpenFOAM: The Open Source CFD Toolbox           |
|  \\    /   O peration     | Version:  2.3.0                                 |
|   \\  /    A nd           | Web:      www.OpenFOAM.org                      |
|    \\/     M anipulation  |                                                 |
\*---------------------------------------------------------------------------*/
FoamFile
{
    version     2.0;
    format      ascii;
    class       volScalarField;
    location    "3000";
    object      nuTilda;
}
// * * * * * * * * * * * * * * * * * * * * * * * * * * * * * * * * * * * * * //

dimensions      [0 2 -1 0 0 0 0];

internalField   nonuniform List<scalar> 
38977
(
0.0622252
0.0605557
0.0588962
0.0572428
0.0555955
0.0539547
0.0523213
0.050696
0.04908
0.0474741
0.045879
0.044296
0.0427257
0.0411693
0.0396279
0.0381016
0.0365916
0.0350992
0.033625
0.0321699
0.0307352
0.0293227
0.0279338
0.0265706
0.025236
0.0239338
0.0226689
0.0214459
0.020267
0.0191365
0.0180642
0.0170597
0.0161304
0.0152531
0.0143877
0.013515
0.0126305
0.0117298
0.0108027
0.00982835
0.00877023
0.00760792
0.00656146
0.063724
0.0622658
0.0608105
0.0593586
0.0579117
0.0564701
0.0550344
0.0536054
0.0521836
0.0507692
0.049363
0.0479656
0.0465777
0.0452
0.043833
0.0424776
0.0411338
0.0398026
0.0384849
0.0371813
0.0358923
0.0346194
0.033363
0.0321254
0.0309067
0.0297089
0.0285345
0.0273861
0.0262655
0.0251759
0.0241211
0.0231068
0.0221383
0.021223
0.0203655
0.019574
0.0188613
0.0182403
0.0177266
0.0173361
0.0170858
0.0169908
0.0170662
0.0651001
0.0638189
0.0625343
0.061251
0.0599711
0.0586951
0.0574235
0.0561566
0.0548947
0.0536377
0.0523863
0.0511408
0.0499019
0.0486698
0.0474449
0.0462281
0.0450201
0.0438208
0.0426316
0.0414522
0.0402846
0.0391295
0.0379879
0.0368613
0.0357514
0.0346593
0.0335886
0.0325409
0.0315197
0.0305291
0.0295719
0.0286543
0.0277832
0.0269642
0.0262059
0.025518
0.0249102
0.0243952
0.0239842
0.0236879
0.0235175
0.0234797
0.0235777
0.0663751
0.0652311
0.0640883
0.0629472
0.061808
0.0606713
0.0595372
0.058406
0.0572775
0.0561519
0.0550289
0.0539093
0.0527934
0.0516815
0.0505739
0.0494712
0.0483741
0.0472833
0.0461989
0.0451221
0.0440535
0.0429948
0.0419469
0.0409108
0.0398889
0.0388831
0.0378953
0.0369296
0.0359883
0.0350759
0.0341969
0.0333558
0.0325587
0.0318137
0.0311272
0.0305087
0.0299671
0.0295121
0.0291541
0.028902
0.0287631
0.0287427
0.028842
0.0675283
0.0665081
0.065488
0.064468
0.0634483
0.0624294
0.0614112
0.060394
0.0593775
0.0583616
0.0573462
0.0563316
0.0553179
0.0543056
0.0532951
0.0522866
0.0512811
0.0502789
0.049281
0.0482878
0.047301
0.0463208
0.0453492
0.0443869
0.0434361
0.0424995
0.0415789
0.0406775
0.0397991
0.0389481
0.0381281
0.0373451
0.0366043
0.0359122
0.0352772
0.034706
0.034208
0.0337924
0.0334668
0.03324
0.0331182
0.0331052
0.0332032
0.0685736
0.0676619
0.0667483
0.0658321
0.0649138
0.0639947
0.0630746
0.0621535
0.0612312
0.0603077
0.0593825
0.0584559
0.0575276
0.0565983
0.0556685
0.0547386
0.0538087
0.0528799
0.0519531
0.0510291
0.0501092
0.049194
0.0482848
0.047383
0.0464904
0.04561
0.0447437
0.0438944
0.0430658
0.0422627
0.0414891
0.0407502
0.0400524
0.0394013
0.0388033
0.0382667
0.0377995
0.0374103
0.0371066
0.036896
0.0367839
0.036774
0.0368696
0.0695194
0.068704
0.0678834
0.0670562
0.0662238
0.065389
0.0645527
0.0637131
0.0628699
0.0620243
0.0611756
0.060323
0.0594667
0.058607
0.0577448
0.0568805
0.056014
0.0551461
0.0542781
0.0534113
0.0525469
0.0516854
0.0508281
0.0499763
0.0491322
0.0482977
0.0474758
0.046669
0.045881
0.0451157
0.0443784
0.0436747
0.0430102
0.0423911
0.0418225
0.0413119
0.0408676
0.040497
0.0402084
0.0400092
0.0399038
0.0398956
0.0399876
0.07038
0.0696458
0.0689056
0.0681566
0.0673955
0.0666314
0.0658666
0.0650976
0.0643202
0.0635403
0.0627561
0.061967
0.061172
0.0603706
0.059565
0.058756
0.0579432
0.0571265
0.0563071
0.0554874
0.0546689
0.0538528
0.0530389
0.0522285
0.0514248
0.0506293
0.0498442
0.0490724
0.0483178
0.0475836
0.0468753
0.0461986
0.0455612
0.0449682
0.0444241
0.0439347
0.0435073
0.04315
0.0428732
0.0426829
0.0425832
0.0425759
0.0426642
0.0711514
0.0704873
0.0698148
0.0691413
0.0684396
0.0677324
0.0670225
0.0663164
0.0655934
0.0648687
0.0641373
0.0634016
0.0626598
0.0619076
0.0611485
0.0603854
0.0596168
0.0588449
0.0580655
0.0572828
0.0565014
0.0557233
0.0549484
0.0541728
0.0534022
0.0526396
0.0518856
0.0511443
0.0504188
0.0497122
0.0490298
0.0483753
0.0477594
0.0471899
0.0466689
0.0461991
0.0457888
0.0454405
0.0451733
0.0449927
0.0449015
0.0448937
0.0449827
0.00732944
0.00925033
0.0104358
0.0115836
0.0127995
0.0140885
0.0154359
0.0168267
0.0182496
0.019696
0.0211605
0.0226392
0.024129
0.0256289
0.0271365
0.0286518
0.0301737
0.0317014
0.0332347
0.0347734
0.036317
0.037865
0.0394177
0.0409746
0.0425354
0.0440997
0.0456679
0.0472389
0.0488127
0.0503892
0.0519677
0.053548
0.0551295
0.0567119
0.058295
0.0598779
0.0614601
0.0630409
0.0646198
0.0661958
0.0677683
0.0693363
0.0708961
0.0173189
0.0177515
0.0183541
0.0191119
0.0200042
0.0210094
0.022106
0.0232755
0.024502
0.0257735
0.0270794
0.0284112
0.0297643
0.0311326
0.0325132
0.0339029
0.0353
0.0367024
0.0381089
0.0395184
0.0409305
0.042344
0.043759
0.0451751
0.0465915
0.0480083
0.0494254
0.0508421
0.0522586
0.0536748
0.0550905
0.0565054
0.0579194
0.0593323
0.0607443
0.0621549
0.0635637
0.0649703
0.0663745
0.0677759
0.0691738
0.0705679
0.0719542
0.0238096
0.0241787
0.0246869
0.0253255
0.026082
0.0269422
0.0278909
0.028914
0.0299986
0.0311332
0.0323072
0.0335128
0.0347426
0.0359917
0.0372552
0.0385292
0.0398109
0.0410983
0.0423893
0.0436825
0.0449768
0.0462708
0.0475644
0.048857
0.0501477
0.0514366
0.0527232
0.0540074
0.0552892
0.0565685
0.0578451
0.0591189
0.0603902
0.0616589
0.062925
0.0641885
0.0654493
0.0667069
0.0679613
0.0692124
0.07046
0.0717034
0.0729397
0.0290604
0.0293989
0.0298582
0.0304321
0.0311111
0.0318853
0.0327426
0.0336711
0.0346593
0.0356966
0.0367745
0.0378846
0.0390193
0.0401739
0.0413436
0.0425237
0.0437112
0.0449038
0.0460988
0.0472949
0.0484906
0.0496845
0.0508764
0.0520651
0.0532503
0.0544317
0.0556087
0.0567813
0.0579495
0.0591132
0.0602725
0.0614272
0.0625777
0.0637241
0.0648665
0.066005
0.0671394
0.0682698
0.0693958
0.0705176
0.071635
0.0727479
0.0738538
0.0334115
0.0337303
0.0341586
0.0346917
0.0353216
0.0360394
0.0368348
0.0376974
0.0386168
0.0395836
0.0405893
0.0416265
0.0426879
0.0437681
0.0448628
0.0459673
0.0470785
0.0481932
0.0493088
0.0504244
0.0515387
0.0526498
0.0537568
0.0548591
0.0559561
0.0570475
0.0581328
0.0592117
0.0602844
0.061351
0.0624113
0.0634656
0.0645141
0.065557
0.0665947
0.067627
0.0686537
0.0696749
0.0706907
0.0717012
0.0727063
0.073706
0.074701
0.0370695
0.0373737
0.0377804
0.0382851
0.0388809
0.0395587
0.0403092
0.0411235
0.0419923
0.042906
0.0438563
0.0448363
0.0458397
0.0468617
0.0478963
0.0489397
0.0499881
0.0510385
0.0520891
0.0531386
0.0541855
0.0552279
0.0562645
0.0572946
0.0583178
0.0593338
0.0603422
0.0613428
0.0623354
0.0633201
0.064297
0.0652662
0.0662285
0.0671842
0.068133
0.0690749
0.0700096
0.0709374
0.0718583
0.0727727
0.0736806
0.0745819
0.075479
0.0401799
0.0404725
0.0408634
0.0413472
0.041917
0.0425646
0.0432816
0.0440595
0.0448892
0.0457614
0.0466679
0.0476024
0.0485599
0.0495349
0.0505213
0.0515144
0.0525105
0.0535065
0.054503
0.0554991
0.0564903
0.0574748
0.0584522
0.0594221
0.0603836
0.0613364
0.0622803
0.0632149
0.0641397
0.0650548
0.0659608
0.0668582
0.0677478
0.0686298
0.069503
0.0703678
0.0712237
0.072071
0.0729102
0.0737416
0.0745651
0.0753802
0.0761889
0.0428476
0.0431303
0.0435095
0.0439778
0.0445273
0.0451504
0.045841
0.0465909
0.0473914
0.0482298
0.0490997
0.0499972
0.0509184
0.0518563
0.0528019
0.0537537
0.0547041
0.0556525
0.056605
0.0575603
0.0585038
0.0594383
0.0603663
0.0612854
0.0621947
0.0630943
0.0639841
0.0648624
0.0657292
0.0665852
0.0674309
0.0682675
0.0690958
0.0699163
0.0707236
0.0715232
0.0723109
0.0730885
0.0738575
0.0746174
0.075368
0.0761075
0.0768395
0.0451529
0.0454277
0.0457986
0.0462548
0.046786
0.0473882
0.0480563
0.0487857
0.0495658
0.0503707
0.051208
0.0520767
0.0529739
0.0538833
0.054787
0.0557033
0.0566093
0.057518
0.0584393
0.0593668
0.0602575
0.06115
0.0620383
0.0629141
0.0637791
0.0646334
0.0654788
0.0663083
0.0671257
0.0679318
0.0687268
0.0695132
0.0702916
0.0710649
0.0718081
0.0725551
0.0732816
0.0740007
0.074711
0.0754103
0.0760997
0.076772
0.0774396
0.0500435
0.0481316
0.0461986
0.0442477
0.0422841
0.0403135
0.0383424
0.0363775
0.0344263
0.0324968
0.0305974
0.028737
0.026924
0.0251663
0.0234708
0.0218428
0.0202854
0.0188005
0.017388
0.016047
0.0147757
0.0135719
0.0124332
0.011357
0.0103409
0.00938252
0.00847939
0.00762939
0.00683048
0.00608079
0.00537845
0.00472215
0.00411041
0.00354214
0.00301651
0.00253285
0.00209095
0.00169055
0.00133187
0.00101435
0.00073947
0.000548568
0.00039701
0.050108
0.0483578
0.0465842
0.0447931
0.0429888
0.0411756
0.0393579
0.0375407
0.0357291
0.033929
0.0321466
0.0303884
0.0286611
0.0269715
0.0253257
0.0237294
0.0221871
0.0207019
0.0192759
0.0179098
0.0166038
0.0153571
0.0141685
0.0130366
0.0119599
0.0109368
0.00996561
0.00904498
0.00817364
0.0073502
0.00657367
0.00584316
0.00515785
0.00451717
0.00392086
0.00336886
0.00286055
0.00239305
0.00196489
0.00158396
0.00128001
0.00100985
0.000738299
0.0501916
0.0485842
0.0469593
0.0453181
0.0436629
0.0419971
0.0403237
0.0386459
0.0369677
0.035293
0.0336263
0.0319723
0.030336
0.0287228
0.0271377
0.025586
0.0240719
0.0225996
0.0211723
0.0197922
0.0184611
0.0171796
0.0159484
0.0147672
0.0136357
0.0125533
0.0115195
0.0105337
0.0095951
0.00870333
0.00785818
0.00705947
0.00630681
0.00559972
0.00493645
0.00431339
0.00372509
0.00316989
0.00266663
0.00224263
0.0018558
0.00147841
0.00106473
0.0502636
0.0487971
0.0473088
0.0458031
0.0442823
0.0427489
0.041205
0.0396532
0.0380959
0.0365363
0.0349773
0.0334225
0.0318756
0.0303405
0.0288213
0.0273225
0.0258477
0.0244011
0.0229863
0.0216064
0.0202642
0.0189616
0.0177004
0.0164816
0.0153062
0.0141748
0.0130878
0.0120456
0.0110484
0.0100963
0.00918943
0.00832726
0.00750857
0.00673136
0.00599166
0.0052839
0.00460302
0.00396291
0.00338313
0.00289035
0.00241555
0.00192811
0.00138139
0.0503509
0.0490013
0.0476338
0.0462488
0.0448478
0.0434321
0.0420036
0.0405638
0.0391147
0.0376584
0.0361972
0.0347335
0.0332702
0.0318103
0.030357
0.0289137
0.0274838
0.0260709
0.0246784
0.02331
0.0219688
0.0206577
0.019379
0.0181349
0.0169273
0.0157576
0.0146269
0.0135366
0.0124872
0.0114794
0.0105131
0.00958736
0.00870039
0.00784915
0.00702864
0.00623304
0.00546239
0.00474771
0.00411459
0.0035318
0.00295906
0.0023601
0.00168772
0.0504337
0.0491937
0.0479344
0.0466569
0.0453621
0.0440511
0.0427247
0.041384
0.0400307
0.0386661
0.0372921
0.0359107
0.0345238
0.0331337
0.0317428
0.0303539
0.0289699
0.0275936
0.0262285
0.0248782
0.0235459
0.022235
0.0209483
0.0196886
0.0184583
0.0172591
0.0160931
0.0149614
0.0138657
0.0128065
0.011784
0.010797
0.00984336
0.00891934
0.00801954
0.00713929
0.00628917
0.00550182
0.00480898
0.0041447
0.00347825
0.00277234
0.00198127
0.0505153
0.0493735
0.0482107
0.0470287
0.0458284
0.0446101
0.0433739
0.0421207
0.0408516
0.039568
0.0382712
0.0369629
0.035645
0.0343186
0.0329854
0.031648
0.0303082
0.0289687
0.0276325
0.026303
0.0249837
0.0236784
0.0223902
0.0211219
0.0198762
0.0186551
0.0174607
0.0162942
0.0151577
0.0140523
0.0129784
0.0119348
0.0109189
0.00992642
0.00895204
0.00799263
0.00707188
0.00621757
0.00546067
0.00472143
0.00396887
0.00316337
0.00226038
0.050599
0.0495417
0.0484632
0.047365
0.046249
0.0451137
0.0439571
0.042781
0.0415857
0.0403732
0.039144
0.0378998
0.0366443
0.0353762
0.0340959
0.032806
0.0315084
0.0302037
0.0288957
0.0275879
0.0262835
0.0249868
0.0237012
0.022429
0.0211738
0.0199378
0.0187216
0.0175255
0.0163527
0.0152059
0.0140865
0.0129921
0.01192
0.0108647
0.00982155
0.00879074
0.00780756
0.00689294
0.00607367
0.00526377
0.00443149
0.00353364
0.00252317
0.0506774
0.0496979
0.0486916
0.0476649
0.0466249
0.0455675
0.0444802
0.043372
0.0422414
0.0410907
0.039921
0.0387297
0.0375307
0.036318
0.0350865
0.0338406
0.0325836
0.0313103
0.0300272
0.0287414
0.027453
0.0261656
0.0248863
0.0236129
0.0223523
0.021109
0.0198791
0.018657
0.0174499
0.0162648
0.0151058
0.0139669
0.012846
0.0117345
0.0106277
0.00953716
0.00849999
0.00753577
0.00665312
0.00577498
0.00487308
0.00389836
0.0028036
0.000387187
0.000529335
0.000760082
0.000981648
0.00119243
0.00139321
0.00158538
0.00177052
0.00194993
0.00212554
0.0022992
0.00247298
0.00264967
0.00283294
0.00302818
0.00324266
0.00348657
0.00376891
0.00409038
0.00444781
0.00483753
0.00525708
0.00570535
0.00618195
0.00668687
0.00722039
0.00778303
0.00837533
0.00899786
0.00965119
0.0103358
0.0110523
0.0118015
0.0125844
0.0134019
0.0142552
0.0151451
0.0160729
0.0170397
0.018046
0.0190929
0.0201806
0.021309
0.000573918
0.000701972
0.000934064
0.00116493
0.00138447
0.00159285
0.00179173
0.00198312
0.00216916
0.00235236
0.00253581
0.00272293
0.00291832
0.00312773
0.00335819
0.00361796
0.00391517
0.004249
0.00461446
0.00500809
0.00542761
0.00587198
0.00634075
0.00683357
0.00735067
0.00789249
0.00845907
0.00905101
0.00966847
0.010312
0.0109817
0.0116787
0.0124033
0.0131566
0.0139392
0.014752
0.0155958
0.0164716
0.0173801
0.0183221
0.0192979
0.0203082
0.0213537
0.000769296
0.000857255
0.00108869
0.00132828
0.00155665
0.00177292
0.00197923
0.00217834
0.00237347
0.00256836
0.00276742
0.00297577
0.00319925
0.00344434
0.00371739
0.00402507
0.00437007
0.00474515
0.00514551
0.00556884
0.00601359
0.00647927
0.00696566
0.00747241
0.00799993
0.00854833
0.00911763
0.00970796
0.0103195
0.0109527
0.0116079
0.0122856
0.0129864
0.0137107
0.0144595
0.0152332
0.0160324
0.0168579
0.0177102
0.0185901
0.019498
0.0204346
0.0214001
0.000960515
0.00099462
0.00122286
0.00146981
0.00170633
0.00193044
0.00214491
0.00235348
0.00256061
0.00277147
0.00299188
0.00322777
0.00348501
0.00376887
0.00408443
0.00443649
0.00482001
0.00522753
0.00565597
0.0061034
0.00656918
0.00705267
0.00755364
0.00807211
0.00860789
0.0091612
0.00973182
0.0103196
0.010925
0.0115478
0.0121887
0.0128481
0.0135263
0.0142237
0.0149408
0.0156782
0.0164362
0.0172152
0.018016
0.0188391
0.0196853
0.0205572
0.0214613
0.00114337
0.00111644
0.00133953
0.0015929
0.00183688
0.00206885
0.00229231
0.00251218
0.00273434
0.0029652
0.00321105
0.00347792
0.00377039
0.00409219
0.0044471
0.00483636
0.00525075
0.00568494
0.00613661
0.00660453
0.00708806
0.00758667
0.00810003
0.00862803
0.0091705
0.00972713
0.0102979
0.0108827
0.0114815
0.0120945
0.0127221
0.0133642
0.0140215
0.014694
0.0153819
0.0160858
0.016806
0.0175426
0.0182965
0.019068
0.0198584
0.0206688
0.0215
0.00131687
0.00122531
0.0014414
0.00170036
0.0019515
0.00219156
0.00242498
0.00265809
0.00289786
0.00315141
0.00342504
0.00372349
0.00404987
0.00440648
0.00479689
0.00521638
0.00565642
0.00611321
0.00658485
0.00707019
0.007569
0.00808063
0.00860462
0.00914071
0.00968844
0.0102475
0.0108177
0.0113991
0.0119918
0.0125954
0.0132102
0.0138365
0.0144742
0.0151236
0.0157849
0.0164582
0.0171437
0.0178419
0.0185531
0.0192778
0.0200166
0.0207695
0.0215351
0.00148042
0.00132282
0.00153054
0.00179465
0.00205293
0.00230162
0.00254613
0.002794
0.00305324
0.00333085
0.00363249
0.00396132
0.00431897
0.00470707
0.00512826
0.00557319
0.00603502
0.00651104
0.0070001
0.00750106
0.00801322
0.00853618
0.0090692
0.00961196
0.010164
0.0107248
0.0112943
0.0118725
0.012459
0.0130538
0.0136566
0.0142681
0.014888
0.0155163
0.016153
0.0167983
0.0174524
0.0181155
0.0187878
0.0194695
0.0201608
0.0208615
0.0215711
0.00163069
0.00141194
0.00161277
0.00188052
0.00214462
0.00240134
0.00265738
0.00292107
0.00320031
0.0035021
0.00383084
0.00418793
0.00457414
0.00499159
0.00543898
0.00590515
0.00638543
0.00687849
0.00738335
0.00789875
0.00842317
0.00895622
0.00949722
0.0100457
0.0106012
0.0111633
0.0117324
0.0123081
0.0128888
0.0134741
0.0140653
0.0146631
0.0152671
0.0158758
0.0164892
0.0171086
0.0177344
0.0183653
0.0190021
0.0196443
0.020292
0.0209442
0.0216008
0.00179802
0.0014873
0.00166508
0.00194074
0.0022172
0.00248885
0.00276111
0.0030409
0.00334257
0.00367192
0.00402663
0.00441043
0.00482651
0.00527214
0.00573601
0.00621274
0.00670655
0.00722121
0.0077472
0.00827677
0.00881122
0.00935257
0.00989974
0.0104527
0.0110101
0.0115732
0.0121455
0.012721
0.0132909
0.0138602
0.0144404
0.015028
0.0156193
0.016207
0.0167952
0.0173909
0.0179935
0.0185936
0.0191982
0.0198032
0.0204117
0.0210178
0.0216306
0.000376055
0.00136952
0.00282894
0.00427078
0.00563455
0.00692078
0.00813689
0.0092908
0.0103907
0.0114465
0.0124725
0.013489
0.0145153
0.015561
0.0166246
0.0176943
0.018769
0.0199268
0.0211902
0.0225359
0.0239429
0.025397
0.0268896
0.0284158
0.0299707
0.0315512
0.0331545
0.0347786
0.036422
0.0380828
0.0397598
0.0414521
0.0431583
0.0448771
0.0466077
0.0483486
0.0500991
0.0518579
0.0536239
0.0553964
0.0571751
0.0589611
0.06076
0.000305385
0.00100053
0.00224658
0.00342721
0.00452266
0.0055752
0.00660831
0.00762715
0.00863364
0.0096295
0.0106175
0.0116026
0.0125914
0.0135904
0.0146038
0.0156337
0.0166874
0.0177878
0.0189515
0.0201725
0.0214313
0.022744
0.0241703
0.025684
0.0272593
0.0288818
0.0305417
0.0322317
0.0339471
0.0356842
0.0374396
0.0392114
0.0409976
0.0427964
0.0446064
0.046426
0.0482541
0.0500893
0.0519306
0.0537771
0.0556286
0.0574856
0.0593498
0.000205021
0.000680018
0.0015536
0.00267998
0.00395537
0.00512461
0.00619158
0.00718639
0.00813121
0.00904259
0.00993381
0.010816
0.0116991
0.0125917
0.0135021
0.0144379
0.0154075
0.01642
0.0174845
0.0186049
0.0197801
0.0210155
0.0223217
0.0236857
0.02511
0.0266531
0.0282857
0.0299814
0.0317241
0.0335026
0.0353089
0.0371377
0.0389846
0.0408464
0.0427207
0.0446054
0.0464984
0.0483981
0.0503034
0.0522132
0.0541268
0.0560439
0.0579638
0.00021634
0.000584052
0.00132639
0.00228389
0.00345398
0.00468821
0.00585475
0.00694042
0.00795238
0.00890009
0.00979427
0.010647
0.0114717
0.012282
0.013092
0.0139155
0.0147658
0.0156551
0.0165942
0.017592
0.0186549
0.019787
0.0209895
0.0222597
0.0235975
0.0250093
0.0264831
0.0280665
0.0297561
0.0315204
0.0333383
0.0351953
0.0370813
0.0389897
0.0409152
0.0428539
0.0448028
0.0467594
0.048722
0.050689
0.0526591
0.0546311
0.0566033
0.000201593
0.00052387
0.00118947
0.00204377
0.00308617
0.00429281
0.00551541
0.00667827
0.00777023
0.00879429
0.00975466
0.0106562
0.0115056
0.0123123
0.0130886
0.013849
0.0146101
0.0153886
0.0162016
0.0170644
0.0179903
0.0189889
0.0200659
0.0212234
0.0224611
0.0237758
0.0251633
0.0266291
0.0281658
0.0298141
0.0315736
0.0334113
0.0353035
0.0372347
0.039194
0.0411736
0.043168
0.0451733
0.0471863
0.0492045
0.051226
0.0532486
0.05527
0.000200848
0.000490441
0.00111045
0.00190198
0.00286496
0.0039965
0.00522241
0.00643251
0.00758696
0.00867845
0.0097074
0.0106753
0.011584
0.0124369
0.0132398
0.0140016
0.0147349
0.0154555
0.0161819
0.0169335
0.0177299
0.0185885
0.0195233
0.0205437
0.0216546
0.0228559
0.024145
0.0255175
0.0269676
0.0284986
0.0301075
0.0318458
0.0336892
0.0356058
0.0375726
0.0395745
0.0416009
0.0436444
0.0456994
0.0477624
0.0498297
0.0518991
0.0539675
0.000197453
0.000465142
0.00105175
0.00179884
0.00270523
0.00377089
0.00497032
0.00620513
0.00740826
0.00855712
0.00964696
0.0106774
0.0116488
0.0125613
0.0134166
0.0142182
0.0149724
0.0156893
0.0163834
0.0170723
0.017777
0.0185194
0.0193205
0.0201984
0.0211665
0.0222325
0.0233989
0.0246631
0.0260198
0.0274627
0.0289857
0.0305952
0.0323038
0.0341438
0.0360771
0.0380732
0.040112
0.0421795
0.0442664
0.0463659
0.0484732
0.0505842
0.0526963
0.000196682
0.000448772
0.00101068
0.00172561
0.0025909
0.00360669
0.00476597
0.00600376
0.00724021
0.00843647
0.00957963
0.0106665
0.0116959
0.0126673
0.01358
0.0144345
0.015233
0.01598
0.0166841
0.017358
0.0180186
0.0186868
0.0193861
0.02014
0.02097
0.0218929
0.0229198
0.0240552
0.0252977
0.0266417
0.0280795
0.0296043
0.0312127
0.0329109
0.0347482
0.0366956
0.0387176
0.0407893
0.0428939
0.0450199
0.0471593
0.049306
0.0514544
0.000195758
0.000435765
0.000978373
0.00166855
0.00250221
0.00347921
0.00459864
0.00582523
0.00708224
0.00831724
0.00950753
0.0106454
0.0117283
0.0127546
0.0137231
0.0146326
0.0154828
0.016275
0.017013
0.0177043
0.0183602
0.018997
0.0196355
0.0202998
0.0210155
0.0218065
0.0226928
0.0236879
0.0247986
0.0260245
0.0273602
0.0287968
0.0303252
0.0319387
0.0336458
0.0354818
0.037443
0.0394894
0.0415919
0.0437307
0.0458928
0.0480693
0.0502561
0.000195313
0.000425634
0.000953176
0.0016238
0.00243253
0.00337881
0.00446371
0.0056702
0.00693612
0.00820096
0.00943219
0.0106163
0.0117483
0.0128257
0.0138468
0.0148096
0.0157125
0.0165549
0.0173375
0.0180638
0.0187404
0.0193782
0.019993
0.0206057
0.021241
0.0219258
0.0226861
0.0235443
0.0245159
0.0256094
0.0268253
0.0281578
0.0295978
0.0311344
0.0327611
0.0344817
0.0363242
0.0383029
0.0403749
0.0425075
0.0446791
0.0468756
0.0490877
0.000194929
0.000417291
0.000932576
0.00158733
0.00237569
0.00329698
0.00435272
0.00553575
0.00680142
0.00808791
0.00935418
0.0105801
0.0117575
0.0128827
0.0139531
0.0149665
0.0159208
0.0168139
0.0176449
0.0184145
0.0191259
0.0197853
0.0204037
0.020997
0.0215861
0.0221968
0.0228568
0.0235941
0.0244323
0.025389
0.0264735
0.0276865
0.0290224
0.0304711
0.0320214
0.0336649
0.0354024
0.0372612
0.0392628
0.0413627
0.0435261
0.0457306
0.0479626
0.000194687
0.000410412
0.000915463
0.0015571
0.00232859
0.00322906
0.00426025
0.0054198
0.0066784
0.007979
0.00927437
0.0105379
0.0117573
0.012927
0.0140439
0.0151052
0.0161085
0.0170512
0.0179311
0.0187473
0.0195004
0.0201933
0.020833
0.0214304
0.0220019
0.0225691
0.0231584
0.0237992
0.0245203
0.0253468
0.026297
0.0273807
0.0285987
0.0299448
0.0314082
0.0329766
0.03464
0.0363986
0.038283
0.0403135
0.0424442
0.0446391
0.0468729
0.000194461
0.000404585
0.000901013
0.0015315
0.00228874
0.00317165
0.00418185
0.00531945
0.00656656
0.00787469
0.00919346
0.0104904
0.0117485
0.0129599
0.0141205
0.0152273
0.0162773
0.0172677
0.0181956
0.019059
0.0198568
0.0205896
0.0212611
0.0218784
0.0224531
0.0230022
0.0235487
0.02412
0.0247466
0.0254583
0.0262811
0.0272335
0.028325
0.0295558
0.0309189
0.0324023
0.0339928
0.0356797
0.0374644
0.039383
0.0414482
0.0436126
0.0458416
0.000194251
0.000399576
0.000888601
0.00150947
0.0022545
0.00312235
0.00411444
0.00523212
0.00646534
0.00777543
0.00911219
0.0104382
0.0117319
0.0129825
0.0141844
0.0153342
0.0164286
0.0174646
0.0184391
0.019349
0.0201923
0.020968
0.0216773
0.0223242
0.0229165
0.0234668
0.0239936
0.0245209
0.0250777
0.0256953
0.0264046
0.0272317
0.0281948
0.0293024
0.0305537
0.0319402
0.0334488
0.0350654
0.0367794
0.0385953
0.0405567
0.0426608
0.0448577
0.000194015
0.000395199
0.000877735
0.00149021
0.00222453
0.00307928
0.00405555
0.00515536
0.00637353
0.00768134
0.00903112
0.010382
0.0117081
0.0129953
0.0142364
0.0154271
0.0165639
0.0176435
0.0186628
0.0196181
0.0205065
0.0213261
0.0220763
0.0227587
0.0233779
0.023943
0.024468
0.0249727
0.0254829
0.0260289
0.0266434
0.0273575
0.0281971
0.0291794
0.0303114
0.0315903
0.0330061
0.0345446
0.0361911
0.0379361
0.0397889
0.0418001
0.0439458
0.000193704
0.000391277
0.000868051
0.00147312
0.00219802
0.00304112
0.00400343
0.0050872
0.0062904
0.00759237
0.00895074
0.0103226
0.0116778
0.0129992
0.0142772
0.0155069
0.0166842
0.0178056
0.0188678
0.019867
0.0207997
0.0216632
0.0224556
0.0231768
0.0238289
0.024418
0.0249542
0.0254532
0.0259368
0.0264327
0.0269727
0.0275904
0.0283171
0.0291776
0.0301875
0.0313515
0.0326647
0.0341153
0.0356879
0.0373679
0.0391478
0.041047
0.0431178
0.000193337
0.000387759
0.000859384
0.00145783
0.00217426
0.00300696
0.00395682
0.00502618
0.00621488
0.00750879
0.0088716
0.0102604
0.0116418
0.0129948
0.0143078
0.0155745
0.0167905
0.017952
0.0190555
0.020097
0.0210728
0.0219795
0.0228144
0.0235759
0.0242646
0.0248837
0.0254404
0.0259465
0.0264199
0.0268844
0.0273697
0.0279093
0.0285375
0.0292849
0.030175
0.0312206
0.0324237
0.0337772
0.0352672
0.0368776
0.0385945
0.0404147
0.0423731
0.000192902
0.000384567
0.000851502
0.00144396
0.00215278
0.00297603
0.00391464
0.00497097
0.00614592
0.0074303
0.00879426
0.0101964
0.0116005
0.0129828
0.0143289
0.0156309
0.0168839
0.0180838
0.0192268
0.0203091
0.0213267
0.0222756
0.0231526
0.0239552
0.0246823
0.0253354
0.025919
0.0264416
0.0269172
0.0273662
0.0278146
0.0282944
0.0288403
0.0294869
0.0302638
0.0311919
0.0322809
0.0335298
0.0349286
0.0364619
0.038113
0.0398686
0.0417288
0.000192366
0.00038163
0.000844285
0.00143122
0.00213313
0.00294783
0.00387614
0.00492053
0.0060826
0.00735666
0.00871903
0.0101309
0.0115549
0.0129638
0.0143409
0.0156767
0.016965
0.0182018
0.0193828
0.0205044
0.0215623
0.0225524
0.0234708
0.0243143
0.0250808
0.0257703
0.0263849
0.0269308
0.0274184
0.0278642
0.0282911
0.0287278
0.0292083
0.0297684
0.0304423
0.0312576
0.0322319
0.0333715
0.0346717
0.03612
0.0376992
0.0393921
0.0411874
0.00019175
0.000378898
0.000837642
0.00141953
0.00211498
0.00292188
0.00384081
0.00487419
0.00602411
0.00728747
0.00864604
0.0100646
0.0115053
0.0129384
0.0143446
0.0157123
0.0170347
0.0183067
0.0195245
0.0206839
0.0217808
0.0228107
0.0237695
0.0246535
0.0254598
0.0261868
0.0268353
0.0274091
0.0279159
0.0283686
0.0287865
0.0291949
0.0296257
0.0301144
0.0306976
0.0314081
0.0322707
0.0332991
0.0344955
0.0358516
0.0373521
0.0389791
0.0407171
0.000191097
0.000376378
0.000831391
0.00140863
0.00209813
0.00289772
0.00380805
0.00483124
0.00596974
0.00722238
0.00857545
0.009998
0.0114525
0.0129074
0.0143406
0.0157386
0.0170935
0.0183996
0.0196526
0.0208485
0.021983
0.0230516
0.0240497
0.0249734
0.0258192
0.0265845
0.0272686
0.0278736
0.0284046
0.0288718
0.0292908
0.0296836
0.030079
0.030511
0.0310169
0.0316328
0.0323896
0.0333082
0.0343979
0.0356563
0.0370717
0.0386276
0.0403081
0.000190384
0.000374022
0.000825588
0.00139843
0.00208239
0.00287522
0.00377747
0.00479115
0.00591896
0.00716101
0.00850734
0.00993145
0.0113971
0.0128711
0.0143295
0.0157562
0.0171421
0.0184809
0.019768
0.020999
0.0221698
0.0232757
0.0243121
0.0252747
0.0261595
0.0269631
0.0276838
0.028322
0.0288811
0.0293684
0.0297965
0.0301842
0.0305567
0.0309458
0.0313879
0.031921
0.0325801
0.0333927
0.0343754
0.0355325
0.0368574
0.0383361
0.0399517
0.000189625
0.000371808
0.000820139
0.00138885
0.00206759
0.00285409
0.00374878
0.00475355
0.00587133
0.00710302
0.00844174
0.00986532
0.0113396
0.0128304
0.0143117
0.0157656
0.0171811
0.0185514
0.0198712
0.0211361
0.022342
0.023484
0.0245576
0.0255581
0.0264811
0.0273227
0.0280805
0.0287533
0.029343
0.0298548
0.0302983
0.0306893
0.0310496
0.0314081
0.0317994
0.0322618
0.0328331
0.033546
0.0344238
0.0354781
0.0367083
0.0381052
0.0396578
0.000188796
0.000369693
0.00081496
0.0013797
0.00205353
0.00283408
0.00372162
0.00471802
0.00582621
0.00704792
0.00837849
0.0097998
0.0112803
0.0127857
0.0142879
0.0157672
0.017211
0.0186114
0.0199629
0.0212606
0.0225003
0.0236774
0.0247871
0.0258244
0.0267848
0.027664
0.0284587
0.029167
0.0297891
0.0303284
0.0307922
0.0311931
0.0315501
0.0318888
0.0322414
0.0326452
0.0331394
0.0337604
0.0345377
0.0354895
0.036622
0.0379304
0.039401
0.000187885
0.00036763
0.000809954
0.00137092
0.00204003
0.00281495
0.00369571
0.00468422
0.00578332
0.00699528
0.00831743
0.00973502
0.0112196
0.0127373
0.0142584
0.0157615
0.0172323
0.0186616
0.0200436
0.021373
0.0226455
0.0238565
0.0250011
0.0260743
0.0270713
0.0279875
0.0288189
0.0295629
0.0302185
0.0307875
0.0312752
0.0316915
0.0320525
0.0323806
0.0327052
0.033062
0.03349
0.0340283
0.0347109
0.0355627
0.0365962
0.0378117
0.0391976
0.000186912
0.000365639
0.000805132
0.00136251
0.00202715
0.00279662
0.00367097
0.00465199
0.00574247
0.00694498
0.00825835
0.00967121
0.011158
0.0126858
0.0142239
0.015749
0.0172454
0.0187026
0.0201139
0.021474
0.0227782
0.024022
0.0252005
0.0263086
0.0273412
0.0282936
0.0291614
0.0299411
0.0306309
0.0312311
0.0317453
0.0321813
0.0325522
0.0328775
0.0331837
0.0335041
0.0338767
0.0343419
0.0349372
0.0356929
0.0366281
0.0377486
0.039047
0.000185879
0.00036371
0.000800482
0.00135443
0.00201474
0.00277894
0.00364716
0.00462109
0.00570338
0.00689684
0.00820141
0.00960842
0.0110957
0.0126316
0.0141848
0.0157304
0.0172509
0.0187348
0.0201742
0.021564
0.0228989
0.0241745
0.0253858
0.0265278
0.0275952
0.028583
0.0294865
0.0303017
0.0310259
0.0316585
0.0322013
0.0326602
0.0330458
0.0333749
0.0336709
0.0339644
0.034292
0.0346938
0.03521
0.0358751
0.0367144
0.0377404
0.0389538
0.000184781
0.000361821
0.000795975
0.00134655
0.00200275
0.00276191
0.00362416
0.00459129
0.00566579
0.0068505
0.0081463
0.00954682
0.011033
0.0125751
0.0141416
0.015706
0.0172492
0.0187586
0.0202253
0.0216436
0.0230083
0.0243147
0.0255578
0.0267327
0.0278339
0.0288564
0.0297949
0.0306453
0.0314039
0.0320694
0.0326423
0.0331265
0.0335307
0.0338689
0.0341617
0.0344369
0.0347289
0.0350772
0.0355228
0.036104
0.0368511
0.037783
0.0389054
0.000183602
0.000359957
0.000791613
0.00133896
0.00199111
0.00274548
0.00360206
0.00456259
0.00562953
0.00680578
0.00809289
0.00948634
0.0109703
0.0125169
0.0140947
0.0156761
0.0172409
0.0187744
0.0202674
0.0217133
0.0231068
0.024443
0.0257171
0.0269239
0.028058
0.0291142
0.0300871
0.0309721
0.0317651
0.0324638
0.0330677
0.0335792
0.0340049
0.0343567
0.0346523
0.0349166
0.0351817
0.0354855
0.0358694
0.0363739
0.0370336
0.0378729
0.0389023
0.000182377
0.000358105
0.000787323
0.00133157
0.00197981
0.00272947
0.00358063
0.00453479
0.00559445
0.00676256
0.00804113
0.0094272
0.0109076
0.0124571
0.0140445
0.0156415
0.0172261
0.0187828
0.020301
0.0217736
0.023195
0.0245602
0.0258641
0.027102
0.0282681
0.0293572
0.0303638
0.0312828
0.0321099
0.0328418
0.0334773
0.0340174
0.0344672
0.034836
0.0351393
0.0353992
0.0356452
0.0359132
0.036244
0.0366794
0.0372575
0.0380075
0.0389459
0.000181133
0.000356345
0.000783185
0.00132437
0.00196882
0.00271396
0.0035598
0.00450778
0.0055604
0.00672064
0.00799083
0.0093693
0.0108453
0.012396
0.0139916
0.0156025
0.0172057
0.0187842
0.0203266
0.0218249
0.0232733
0.0246664
0.0259996
0.0272674
0.0284648
0.0295859
0.0306254
0.0315778
0.0324385
0.0332036