/*--------------------------------*- C++ -*----------------------------------*\
| =========                 |                                                 |
| \\      /  F ield         | OpenFOAM: The Open Source CFD Toolbox           |
|  \\    /   O peration     | Version:  2.3.0                                 |
|   \\  /    A nd           | Web:      www.OpenFOAM.org                      |
|    \\/     M anipulation  |                                                 |
\*---------------------------------------------------------------------------*/
FoamFile
{
    version     2.0;
    format      ascii;
    class       volScalarField;
    location    "5000";
    object      p;
}
// * * * * * * * * * * * * * * * * * * * * * * * * * * * * * * * * * * * * * //

dimensions      [0 2 -2 0 0 0 0];

internalField   nonuniform List<scalar> 
14050
(
0.00272718
-1.2543
-2.43768
-3.54617
-4.55714
-5.44167
-6.18309
-6.75605
-7.15645
-7.36566
-7.35179
-7.08155
-6.48931
-5.47253
-3.86007
-1.4729
1.85954
6.32144
12.0887
20.0295
30.793
41.8596
48.9098
65.1891
10.0412
10.0399
10.1677
10.4587
10.9124
11.5464
12.3814
13.4718
14.8795
16.6979
19.0356
22.0136
25.7593
30.4084
36.1064
43.027
51.3154
61.1083
72.5269
85.6963
100.678
117.387
135.858
155.83
18.7282
19.506
20.4235
21.5751
22.9618
24.6076
26.5279
28.7468
31.2868
34.1788
37.4579
41.1694
45.3564
50.0754
55.3789
61.3184
67.9374
75.2574
83.2933
92.0078
101.332
111.153
121.38
131.826
26.1238
27.3819
28.7781
30.4026
32.2488
34.3398
36.6957
39.3453
42.3261
45.6684
49.412
53.595
58.2521
63.4189
69.1216
75.3754
82.1896
89.543
97.3998
105.689
114.311
123.116
131.939
140.567
32.1367
33.8534
35.574
37.4696
39.5633
41.8684
44.4062
47.1924
50.2535
53.6033
57.27
61.2768
65.6453
70.3963
75.5442
81.0979
87.0596
93.4087
100.111
107.111
114.333
121.67
129.011
136.219
37.774
39.384
41.1916
43.1713
45.3457
47.717
50.2981
53.1065
56.1607
59.4784
63.0807
66.9891
71.2163
75.772
80.662
85.8937
91.4604
97.3408
103.494
109.875
116.409
123.02
129.606
136.065
42.345
43.9539
45.8011
47.7976
49.9727
52.3269
54.8667
57.616
60.5767
63.7684
67.2091
70.9207
74.9196
79.2112
83.7827
88.6494
93.8081
99.247
104.916
110.778
116.769
122.826
128.863
134.793
46.1939
47.7939
49.6574
51.6391
53.771
56.0484
58.4984
61.1699
64.039
67.1221
70.4236
73.949
77.7391
81.8222
86.1634
90.7581
95.5948
100.674
105.97
111.438
117.025
122.676
128.319
133.864
49.6504
51.0744
52.8019
54.6805
56.7878
59.0329
61.442
63.985
66.689
69.6456
72.8298
76.2161
79.8729
83.7712
87.8806
92.2048
96.8106
101.646
106.743
111.859
117.134
122.537
127.894
133.145
52.7749
53.7547
54.9437
56.3911
58.5463
61.325
63.7692
66.2126
68.5694
71.235
74.1505
77.3651
81.0407
85.2705
88.6482
92.4137
96.8028
102.227
107.453
112.281
117.362
122.824
128.015
132.998
125.223
156.323
175.11
188.946
200.288
209.517
216.909
222.682
227.079
230.273
232.416
233.641
234.056
233.758
232.847
231.409
229.53
227.298
224.792
222.08
219.213
216.22
213.295
210.848
174.235
188.501
199.848
209.007
216.288
221.869
225.941
228.693
230.319
231.001
230.914
230.221
229.063
227.565
225.827
223.927
221.917
219.828
217.679
215.474
213.206
210.863
208.568
206.595
142.207
152.264
161.721
170.36
178.095
184.897
190.775
195.764
199.917
203.296
205.968
208
209.456
210.396
210.875
210.947
210.66
210.059
209.186
208.081
206.771
205.282
203.727
202.346
148.859
156.744
164.143
170.939
177.062
182.474
187.173
191.176
194.52
197.251
199.424
201.095
202.32
203.153
203.643
203.835
203.767
203.471
202.975
202.301
201.462
200.463
199.381
198.471
143.231
150.017
156.491
162.557
168.144
173.203
177.718
181.685
185.122
188.05
190.507
192.526
194.146
195.403
196.335
196.974
197.35
197.492
197.425
197.172
196.748
196.162
195.501
195.054
142.337
148.394
154.167
159.596
164.617
169.193
173.306
176.954
180.142
182.895
185.239
187.202
188.818
190.12
191.137
191.898
192.432
192.761
192.907
192.89
192.716
192.389
191.997
191.805
140.566
146.145
151.462
156.475
161.143
165.414
169.287
172.742
175.785
178.441
180.731
182.681
184.319
185.672
186.768
187.632
188.29
188.762
189.066
189.226
189.24
189.111
188.93
189.014
139.267
144.494
149.447
154.126
158.546
162.564
166.254
169.551
172.458
175.017
177.241
179.145
180.763
182.12
183.24
184.149
184.871
185.42
185.813
186.098
186.244
186.246
186.219
186.587
138.291
143.276
147.975
152.452
156.802
160.537
164.095
167.211
169.914
172.349
174.478
176.3
177.873
179.199
180.314
181.233
181.988
182.589
183.05
183.474
183.72
183.78
183.841
184.506
137.954
142.732
147.223
151.558
155.938
159.497
163.09
165.912
168.182
170.392
172.335
174.002
175.531
176.775
177.84
178.746
179.559
180.252
180.823
181.406
181.587
181.362
181.55
182.331
29.5187
29.0917
28.6671
28.2322
27.7876
27.3366
26.8838
26.4359
25.9997
25.5828
25.1929
24.8373
24.5238
24.261
24.0608
23.9363
23.9095
24.0108
24.2685
24.7107
25.3729
26.3021
27.841
31.5754
30.7718
30.4487
29.9872
29.5376
29.1066
28.6917
28.2928
27.9096
27.5416
27.1899
26.8579
26.553
26.2867
26.0772
25.9475
25.9269
26.0564
26.3971
27.0369
28.0872
29.6996
32.0839
35.3789
39.4323
32.4086
32.0033
31.5514
31.1124
30.6821
30.2585
29.8434
29.4401
29.0539
28.6919
28.3643
28.085
27.872
27.7498
27.7488
27.908
28.271
28.8916
29.844
31.2222
33.136
35.6752
38.8298
42.3967
33.8653
33.4247
33.0403
32.6386
32.239
31.8499
31.475
31.1183
30.7858
30.4855
30.2281
30.0281
29.9068
29.8883
30.0022
30.2816
30.7673
31.5127
32.5782
34.03
35.9281
38.2942
41.0792
44.1313
35.3375
34.8273
34.4653
34.0969
33.7297
33.3727
33.0316
32.7127
32.4222
32.1698
31.9668
31.8287
31.7769
31.8343
32.0271
32.3856
32.9494
33.7629
34.8762
36.3359
38.1842
40.4278
43.0145
45.8162
36.3806
36.141
35.7969
35.4618
35.1346
34.8126
34.5058
34.2229
33.9714
33.7603
33.6013
33.5108
33.51
33.6185
33.8626
34.2671
34.8684
35.7108
36.8303
38.2664
40.0567
42.1985
44.6545
47.3091
37.6728
37.3614
37.0462
36.7425
36.4497
36.1542
35.872
35.6161
35.3944
35.2121
35.0872
35.0305
35.0702
35.2159
35.5079
35.9485
36.5698
37.4347
38.5645
39.9651
41.6898
43.7562
46.1341
48.6965
38.7474
38.4294
38.1956
37.9262
37.6715
37.3963
37.1281
36.889
36.6924
36.526
36.4249
36.3786
36.4522
36.6069
36.9365
37.3976
37.9881
38.8646
40.0196
41.3508
42.9833
44.9415
47.2548
49.7328
39.5435
39.4808
39.2742
39.0181
38.8268
38.5591
38.2675
38.0049
37.8418
37.6755
37.6198
37.5583
37.7095
37.8624
38.2926
38.8678
39.3831
40.3054
41.6902
42.9272
44.4111
46.3282
48.7748
51.2751
39.9032
40.2395
40.1981
39.979
40.0767
39.872
39.5143
39.1172
38.8262
38.5603
38.2939
37.9601
37.718
37.2323
37.4923
38.3333
38.1367
38.9067
41.1334
42.7222
43.5636
44.3953
46.8471
50.2304
39.9089
43.797
46.2704
48.5256
50.6761
52.6917
54.5733
56.3311
57.9838
59.5539
61.0658
62.5447
64.0139
65.4893
66.9806
68.4927
70.0263
71.5796
73.149
74.7322
76.3269
77.9208
79.5004
81.2437
43.9924
46.5798
48.0175
49.3811
50.8512
52.4233
54.0639
55.7412
57.4315
59.1165
60.7837
62.4248
64.035
65.6136
67.1626
68.6859
70.1877
71.6734
73.1471
74.6133
76.0771
77.5292
78.9685
80.5449
45.9825
49.0598
50.845
52.1609
53.4612
54.8155
56.2178
57.6546
59.1126
60.5803
62.0497
63.5121
64.963
66.3979
67.8155
69.2151
70.5975
71.9644
73.3177
74.6608
75.9978
77.3231
78.6386
80.0452
47.2436
50.2217
52.1969
53.5912
54.9322
56.2862
57.6527
59.0217
60.3861
61.7411
63.0849
64.4156
65.7331
67.0381
68.3309
69.6124
70.8839
72.1468
73.4017
74.65
75.8943
77.1308
78.3605
79.642
48.6656
51.3881
53.371
54.7561
56.0738
57.3937
58.72
60.041
61.3502
62.6442
63.922
65.1823
66.4255
67.6523
68.8639
70.0613
71.2462
72.42
73.5844
74.7412
75.8916
77.0334
78.1696
79.3384
50.0073
52.5743
54.5616
55.9619
57.2635
58.5469
59.8243
61.0883
62.3363
63.567
64.7798
65.9743
67.1504
68.308
69.4481
70.5714
71.6794
72.7737
73.8549
74.9246
75.9838
77.031
78.0736
79.1482
51.2798
53.7287
55.7057
57.1261
58.4127
59.6596
60.8861
62.0917
63.2792
64.4491
65.6011
66.7343
67.8487
68.9432
70.0175
71.0733
72.1125
73.1361
74.144
75.1362
76.1135
77.0712
78.0216
79.0009
52.2238
54.6134
56.6638
58.1661
59.4599
60.6636
61.8317
62.9775
64.109
65.2285
66.332
67.4151
68.4796
69.5232
70.5414
71.5402
72.5233
73.4891
74.4348
75.3598
76.2668
77.1451
78.0164
78.9345
53.637
55.8729
57.9409
59.4254
60.546
61.6085
62.6754
63.7503
64.8318
65.914
66.9839
68.0273
69.0571
70.0634
71.0292
71.9785
72.9129
73.8294
74.7198
75.5824
76.4276
77.2269
78.037
78.9133
52.728
54.9671
58.3169
60.2636
61.4098
62.364
63.369
64.3941
65.4453
66.513
67.5728
68.5688
69.5713
70.5512
71.4346
72.3481
73.2672
74.1639
75.0176
75.8311
76.646
77.3645
78.1349
78.9747
-207.045
-194.541
-181.273
-170.273
-158.44
-145.385
-132.201
-119.425
-107.073
-95.2066
-83.9847
-73.5258
-63.9304
-55.2902
-47.6454
-40.9748
-35.2188
-30.2909
-26.0543
-22.3613
-19.0812
-16.1082
-13.3569
-10.6681
-121.215
-121.044
-119.793
-117.997
-116.427
-115.212
-113.771
-111.595
-108.549
-104.638
-99.8842
-94.3235
-88.0205
-81.1385
-73.8928
-66.5287
-59.2886
-52.3838
-45.9546
-40.068
-34.7264
-29.8834
-25.5046
-21.4815
-131.879
-131.749
-131.821
-131.755
-131.192
-129.907
-127.954
-125.511
-122.592
-119.063
-114.824
-109.888
-104.284
-98.0588
-91.3025
-84.1325
-76.7233
-69.2698
-61.9727
-54.9916
-48.4309
-42.3314
-36.7134
-31.3926
-121.49
-121.423
-121.244
-120.976
-120.613
-120.131
-119.484
-118.602
-117.44
-116.015
-114.24
-111.927
-108.921
-105.1
-100.418
-94.8893
-88.6225
-81.7957
-74.6427
-67.4051
-60.2971
-53.4712
-47.0375
-40.9449
-121.341
-121.317
-121.302
-121.251
-121.138
-120.933
-120.591
-120.051
-119.253
-118.14
-116.687
-114.856
-112.553
-109.683
-106.148
-101.862
-96.7814
-90.9393
-84.4568
-77.5313
-70.3955
-63.2771
-56.36
-49.8255
-118.426
-118.403
-118.355
-118.275
-118.154
-117.982
-117.742
-117.412
-116.961
-116.348
-115.521
-114.42
-112.982
-111.102
-108.669
-105.571
-101.708
-97.0232
-91.5277
-85.3277
-78.6039
-71.5933
-64.5031
-57.7408
-117.162
-117.146
-117.123
-117.082
-117.014
-116.909
-116.754
-116.529
-116.212
-115.771
-115.171
-114.363
-113.294
-111.895
-110.073
-107.724
-104.734
-101.005
-96.4652
-91.1167
-85.0486
-78.4421
-71.471
-64.7498
-115.619
-115.605
-115.582
-115.542
-115.481
-115.394
-115.271
-115.102
-114.87
-114.557
-114.134
-113.568
-112.812
-111.807
-110.477
-108.725
-106.438
-103.5
-99.8098
-95.2999
-89.9779
-83.9469
-77.2974
-70.8263
-114.421
-114.41
-114.392
-114.362
-114.316
-114.25
-114.156
-114.026
-113.847
-113.606
-113.28
-112.845
-112.264
-111.492
-110.471
-109.119
-107.338
-105.012
-102.023
-98.2607
-93.6714
-88.285
-82.0822
-76.011
-113.255
-113.245
-113.229
-113.202
-113.163
-113.107
-113.029
-112.923
-112.779
-112.588
-112.332
-111.992
-111.541
-110.94
-110.143
-109.086
-107.683
-105.832
-103.411
-100.298
-96.3874
-91.6597
-86.0031
-80.4741
-112.194
-112.186
-112.172
-112.149
-112.116
-112.069
-112.004
-111.916
-111.797
-111.64
-111.431
-111.154
-110.788
-110.304
-109.663
-108.813
-107.685
-106.191
-104.219
-101.644
-98.3398
-94.245
-89.183
-84.2675
-111.183
-111.175
-111.163
-111.142
-111.112
-111.071
-111.015
-110.94
-110.839
-110.706
-110.531
-110.302
-110
-109.602
-109.075
-108.379
-107.457
-106.233
-104.611
-102.475
-99.6934
-96.1753
-91.6985
-87.3107
-110.22
-110.214
-110.203
-110.184
-110.158
-110.121
-110.072
-110.007
-109.919
-109.805
-109.655
-109.46
-109.205
-108.87
-108.429
-107.848
-107.079
-106.061
-104.712
-102.928
-100.583
-97.5754
-93.6694
-89.8426
-109.298
-109.292
-109.282
-109.265
-109.24
-109.208
-109.164
-109.105
-109.028
-108.928
-108.797
-108.628
-108.408
-108.122
-107.747
-107.253
-106.604
-105.745
-104.608
-103.103
-101.118
-98.5465
-95.1533
-91.8954
-108.41
-108.405
-108.395
-108.379
-108.356
-108.326
-108.286
-108.234
-108.165
-108.075
-107.96
-107.811
-107.619
-107.37
-107.046
-106.622
-106.064
-105.331
-104.362
-103.08
-101.384
-99.1702
-96.2036
-93.3252
-107.549
-107.544
-107.535
-107.52
-107.5
-107.472
-107.436
-107.388
-107.326
-107.245
-107.142
-107.01
-106.84
-106.621
-106.337
-105.968
-105.485
-104.851
-104.016
-102.912
-101.451
-99.5286
-96.9245
-94.5253
-106.714
-106.709
-106.701
-106.687
-106.668
-106.642
-106.609
-106.566
-106.509
-106.436
-106.344
-106.225
-106.074
-105.88
-105.63
-105.306
-104.884
-104.331
-103.606
-102.65
-101.389
-99.718
-97.4085
-95.4893
-105.894
-105.89
-105.882
-105.87
-105.852
-105.829
-105.799
-105.76
-105.709
-105.643
-105.56
-105.453
-105.318
-105.145
-104.923
-104.637
-104.264
-103.777
-103.139
-102.296
-101.179
-99.7098
-97.6839
-94.1446
-105.086
-105.083
-105.076
-105.065
-105.05
-105.029
-105.002
-104.966
-104.921
-104.862
-104.787
-104.691
-104.57
-104.416
-104.218
-103.963
-103.633
-103.202
-102.637
-101.893
-100.907
-99.5974
-97.8846
-95.6201
-104.29
-104.287
-104.28
-104.269
-104.255
-104.236
-104.212
-104.18
-104.139
-104.086
-104.019
-103.933
-103.825
-103.687
-103.51
-103.282
-102.988
-102.603
-102.1
-101.436
-100.557
-99.3843
-97.8267
-95.4906
-103.489
-103.486
-103.48
-103.471
-103.458
-103.442
-103.42
-103.392
-103.356
-103.309
-103.249
-103.173
-103.076
-102.952
-102.793
-102.589
-102.324
-101.979
-101.525
-100.927
-100.133
-99.0677
-97.6363
-95.371
-102.685
-102.683
-102.678
-102.67
-102.659
-102.644
-102.625
-102.6
-102.568
-102.526
-102.472
-102.404
-102.317
-102.205
-102.062
-101.878
-101.638
-101.325
-100.913
-100.367
-99.6377
-98.6513
-97.3203
-95.1724
-101.875
-101.873
-101.868
-101.861
-101.851
-101.838
-101.821
-101.799
-101.77
-101.733
-101.685
-101.624
-101.545
-101.445
-101.315
-101.147
-100.929
-100.643
-100.266
-99.768
-99.1048
-98.2115
-97.0103
-95.0729
-101.053
-101.051
-101.047
-101.041
-101.032
-101.02
-101.005
-100.985
-100.96
-100.927
-100.884
-100.829
-100.758
-100.667
-100.549
-100.396
-100.196
-99.9347
-99.59
-99.1336
-98.5288
-97.7259
-96.6896
-94.9717
-100.217
-100.216
-100.212
-100.207
-100.199
-100.189
-100.176
-100.158
-100.136
-100.106
-100.068
-100.018
-99.9546
-99.8719
-99.7645
-99.6246
-99.4415
-99.201
-98.8839
-98.4644
-97.91
-97.1723
-96.2054
-94.7487
-99.3684
-99.3674
-99.3642
-99.3594
-99.3528
-99.3439
-99.3322
-99.3169
-99.2968
-99.2704
-99.2359
-99.1913
-99.1335
-99.0584
-98.9605
-98.8323
-98.664
-98.4426
-98.1504
-97.763
-97.2506
-96.5661
-95.6487
-94.3596
-98.5068
-98.5056
-98.5027
-98.4983
-98.4924
-98.4846
-98.4742
-98.4605
-98.4425
-98.4188
-98.3878
-98.3474
-98.2948
-98.2262
-98.1362
-98.0179
-97.8622
-97.6565
-97.384
-97.0216
-96.5398
-95.8937
-95.0003
-93.4448
-97.6295
-97.6287
-97.6263
-97.6226
-97.6174
-97.6106
-97.6014
-97.5892
-97.5731
-97.5517
-97.5235
-97.4867
-97.4386
-97.3756
-97.2927
-97.1832
-97.0384
-96.8467
-96.5924
-96.2537
-95.8017
-95.1921
-94.3651
-93.1237
-96.7404
-96.7396
-96.7374
-96.7341
-96.7296
-96.7235
-96.7153
-96.7044
-96.6898
-96.6706
-96.645
-96.6114
-96.5674
-96.5095
-96.4331
-96.3321
-96.1983
-96.0212
-95.7869
-95.4765
-95.0677
-94.5331
-93.8407
-92.9385
-95.838
-95.8373
-95.8355
-95.8326
-95.8287
-95.8233
-95.8161
-95.8064
-95.7933
-95.7757
-95.7524
-95.7215
-95.6808
-95.6273
-95.5563
-95.4618
-95.3362
-95.1694
-94.9473
-94.6508
-94.2573
-93.7508
-93.074
-91.3404
-94.9242
-94.9237
-94.9221
-94.9197
-94.9163
-94.9117
-94.9053
-94.8966
-94.8849
-94.8691
-94.8478
-94.8195
-94.7821
-94.7325
-94.6665
-94.5786
-94.4614
-94.3054
-94.0983
-93.8228
-93.4564
-92.9732
-92.3452
-91.6679
-93.9998
-93.9993
-93.998
-93.996
-93.9931
-93.9892
-93.9837
-93.9762
-93.9657
-93.9515
-93.9322
-93.9064
-93.872
-93.8262
-93.7649
-93.6829
-93.5733
-93.427
-93.2325
-92.9738
-92.6306
-92.1882
-91.6257
-90.7026
-93.0648
-93.0644
-93.0634
-93.0618
-93.0595
-93.0563
-93.0518
-93.0454
-93.0364
-93.0239
-93.0067
-92.9834
-92.9522
-92.9102
-92.8537
-92.7777
-92.6754
-92.5386
-92.3564
-92.1137
-91.7911
-91.3684
-90.8159
-90.0859
-92.1191
-92.1189
-92.1182
-92.1171
-92.1155
-92.1131
-92.1096
-92.1044
-92.097
-92.0864
-92.0715
-92.051
-92.0231
-91.9851
-91.9334
-91.8633
-91.7686
-91.6412
-91.4708
-91.2441
-90.9423
-90.5423
-90.0145
-89.354
-91.1626
-91.1625
-91.1621
-91.1614
-91.1605
-91.159
-91.1566
-91.1529
-91.1472
-91.1386
-91.1263
-91.1087
-91.0843
-91.0507
-91.0045
-90.9409
-90.8539
-90.7363
-90.5784
-90.3678
-90.0878
-89.7131
-89.2052
-88.5711
-90.1938
-90.1938
-90.1938
-90.1937
-90.1935
-90.193
-90.1918
-90.1895
-90.1857
-90.1794
-90.1698
-90.1556
-90.1351
-90.1061
-90.0653
-90.0083
-89.9295
-89.8215
-89.6757
-89.4805
-89.2203
-88.8678
-88.3772
-87.8599
-89.2124
-89.2124
-89.2128
-89.2132
-89.2137
-89.2141
-89.2141
-89.2134
-89.2113
-89.2073
-89.2004
-89.1895
-89.173
-89.1488
-89.1138
-89.0634
-88.9923
-88.8934
-88.7579
-88.5735
-88.3248
-87.9996
-87.5677
-86.7466
-88.217
-88.217
-88.2177
-88.2187
-88.2199
-88.2211
-88.2223
-88.2229
-88.2227
-88.2209
-88.2168
-88.2093
-88.197
-88.1779
-88.1489
-88.1061
-88.044
-87.956
-87.8344
-87.669
-87.4459
-87.1534
-86.8166
-86.6447
-87.2069
-87.207
-87.208
-87.2094
-87.2111
-87.2132
-87.2152
-87.2171
-87.2183
-87.2184
-87.2167
-87.2121
-87.2034
-87.1889
-87.1657
-87.1298
-87.0759
-86.9978
-86.8879
-86.7368
-86.5317
-86.2561
-85.8975
-85.5678
-86.1821
-86.1823
-86.1835
-86.1852
-86.1875
-86.19
-86.1928
-86.1955
-86.1979
-86.1993
-86.1993
-86.1969
-86.1911
-86.1801
-86.1613
-86.1309
-86.0837
-86.0134
-85.9122
-85.7704
-85.5738
-85.3028
-84.9526
-84.6523
-85.1437
-85.1439
-85.1453
-85.1473
-85.1498
-85.1527
-85.1559
-85.1591
-85.162
-85.1641
-85.165
-85.1638
-85.1594
-85.1505
-85.1345
-85.1078
-85.0654
-85.0013
-84.9084
-84.778
-84.5979
-84.3528
-84.07
-84.147
-84.0938
-84.094
-84.0956
-84.0977
-84.1004
-84.1035
-84.1068
-84.1101
-84.113
-84.1153
-84.1161
-84.1148
-84.1103
-84.1009
-84.0842
-84.0564
-84.0117
-83.9427
-83.8391
-83.6856
-83.46
-83.1394
-82.6869
-81.4578
-83.036
-83.0362
-83.0378
-83.04
-83.0428
-83.046
-83.0494
-83.0528
-83.0559
-83.0582
-83.0591
-83.0577
-83.053
-83.0434
-83.0265
-82.9983
-82.9534
-82.8842
-82.7812
-82.6328
-82.4208
-82.0838
-81.4771
-80.7964
-81.9716
-81.9718
-81.9736
-81.976
-81.979
-81.9824
-81.9862
-81.9899
-81.9934
-81.9962
-81.9977
-81.997
-81.9932
-81.9847
-81.9692
-81.9433
-81.9019
-81.8388
-81.7469
-81.6181
-81.4428
-81.201
-80.9141
-80.8968
-80.9022
-80.9024
-80.9042
-80.9069
-80.9102
-80.914
-80.9182
-80.9226
-80.9269
-80.9305
-80.9331
-80.9338
-80.9315
-80.925
-80.912
-80.8893
-80.8523
-80.795
-80.7106
-80.5912
-80.4271
-80.2005
-79.8929
-79.6027
-79.8272
-79.8275
-79.8295
-79.8325
-79.8362
-79.8405
-79.8454
-79.8506
-79.8558
-79.8606
-79.8646
-79.867
-79.8669
-79.8631
-79.8534
-79.835
-79.8034
-79.7534
-79.6785
-79.571
-79.4221
-79.2143
-78.9071
-78.6084
-78.7471
-78.7474
-78.7496
-78.7528
-78.7569
-78.7617
-78.7673
-78.7732
-78.7795
-78.7856
-78.7911
-78.7954
-78.7975
-78.7963
-78.7899
-78.7753
-78.7483
-78.7033
-78.6333
-78.5295
-78.3802
-78.173
-77.8706
-77.2092
-77.6603
-77.6608
-77.6633
-77.6669
-77.6714
-77.6769
-77.6831
-77.6899
-77.6972
-77.7047
-77.7118
-77.7181
-77.7226
-77.7244
-77.7217
-77.7117
-77.6906
-77.6534
-77.594
-77.5057
-77.379
-77.1994
-76.9669
-76.9546
-76.5686
-76.5689
-76.5714
-76.5752
-76.58
-76.5858
-76.5926
-76.6001
-76.6083
-76.6169
-76.6254
-76.6333
-76.64
-76.6443
-76.6446
-76.6385
-76.622
-76.59
-76.5364
-76.4535
-76.3313
-76.1597
-75.9405
-75.6593
-75.4689
-75.4694
-75.4723
-75.4764
-75.4816
-75.4879
-75.4951
-75.5033
-75.5123
-75.5218
-75.5316
-75.541
-75.5495
-75.556
-75.5592
-75.5564
-75.544
-75.5171
-75.4693
-75.3936
-75.2805
-75.122
-74.9089
-74.5863
-74.3652
-74.3655
-74.3683
-74.3724
-74.3777
-74.3841
-74.3917
-74.4002
-74.4097
-74.4199
-74.4305
-74.441
-74.4508
-74.459
-74.4642
-74.464
-74.4549
-74.4317
-74.3884
-74.3174
-74.2099
-74.0557
-73.8399
-73.5253
-73.2539
-73.2543
-73.2574
-73.2618
-73.2674
-73.2741
-73.282
-73.291
-73.3009
-73.3116
-73.3228
-73.3341
-73.3449
-73.3543
-73.3611
-73.3629
-73.3561
-73.3358
-73.2957
-73.2284
-73.1243
-72.9716
-72.755
-72.4575
-72.1398
-72.1404
-72.1435
-72.148
-72.1537
-72.1605
-72.1685
-72.1777
-72.1878
-72.1988
-72.2103
-72.222
-72.2334
-72.2437
-72.2515
-72.2548
-72.2501
-72.2326
-72.196
-72.133
-72.035
-71.8913
-71.6848
-71.3974
-71.0236
-71.0238
-71.0269
-71.0313
-71.037
-71.0439
-71.0519
-71.061
-71.0712
-71.0823
-71.094
-71.1061
-71.1179
-71.1286
-71.1371
-71.1415
-71.1382
-71.1225
-71.0885
-71.0288
-70.9347
-70.793
-70.5796
-70.2822
-69.9038
-69.9046
-69.908
-69.9127
-69.9186
-69.9256
-69.9337
-69.943
-69.9533
-69.9644
-69.9762
-69.9882
-70.0001
-70.011
-70.02
-70.0251
-70.0231
-70.0093
-69.978
-69.9219
-69.8327
-69.6957
-69.4826
-69.235
-68.7892
-68.7893
-68.7921
-68.7964
-68.8019
-68.8086
-68.8165
-68.8255
-68.8355
-68.8464
-68.858
-68.87
-68.8818
-68.8929
-68.902
-68.9074
-68.9061
-68.8936
-68.8638
-68.81
-68.723
-68.589
-68.3898
-68.1465
-67.6701
-67.6707
-67.6739
-67.6785
-67.6843
-67.6912
-67.6992
-67.7084
-67.7184
-67.7294
-67.7409
-67.7529
-67.7647
-67.7757
-67.7848
-67.7906
-67.79
-67.7788
-67.7516
-67.7014
-67.6199
-67.4988
-67.3292
-67.0881
-66.5564
-66.557
-66.5603
-66.5649
-66.5707
-66.5776
-66.5855
-66.5945
-66.6045
-66.6153
-66.6268
-66.6386
-66.6503
-66.6613
-66.6706
-66.6765
-66.6764
-66.6662
-66.64
-66.5911
-66.5113
-66.3901
-66.2124
-65.9335
-65.4472
-65.4475
-65.4506
-65.455
-65.4607
-65.4674
-65.4753
-65.4842
-65.4942
-65.505
-65.5165
-65.5283
-65.5401
-65.5513
-65.5609
-65.5672
-65.5681
-65.5593
-65.536
-65.4921
-65.4203
-65.3083
-65.1359
-64.9543
-64.34
-64.3405
-64.3437
-64.3483
-64.3541
-64.361
-64.3689
-64.3779
-64.388
-64.3989
-64.4104
-64.4224
-64.4343
-64.4456
-64.4556
-64.4627
-64.4644
-64.4571
-64.4359
-64.3945
-64.3253
-64.2196
-64.0713
-63.8543
-63.2396
-63.24
-63.243
-63.2474
-63.253
-63.2598
-63.2677
-63.2767
-63.2867
-63.2977
-63.3095
-63.3216
-63.3338
-63.3457
-63.3563
-63.3641
-63.3672
-63.362
-63.3437
-63.307
-63.2453
-63.1533
-63.025
-62.8259
-62.141
-62.1413
-62.1445
-62.149
-62.1548
-62.1617
-62.1698
-62.179
-62.1893
-62.2006
-62.2126
-62.2251
-62.2379
-62.2502
-62.2614
-62.2703
-62.2746
-62.2711
-62.2554
-62.2217
-62.1641
-62.0756
-61.9473
-61.7553
-61.0462
-61.0469
-61.0505
-61.0554
-61.0614
-61.0686
-61.0769
-61.0864
-61.097
-61.1086
-61.1209
-61.1339
-61.1471
-61.16
-61.172
-61.1818
-61.1873
-61.1854
-61.1714
-61.1399
-61.0839
-60.9944
-60.8601
-60.6552
-59.9607
-59.9607
-59.9636
-59.9681
-59.9738
-59.9807
-59.989
-59.9985
-60.0092
-60.0209
-60.0336
-60.047
-60.0608
-60.0747
-60.0877
-60.0987
-60.1061
-60.1066
-60.0961
-60.0698
-60.0221
-59.9431
-59.8162
-59.709
-58.8725
-58.873
-58.8763
-58.8812
-58.8873
-58.8947
-58.9034
-58.9133
-58.9244
-58.9367
-58.9499
-58.9641
-58.9787
-58.9932
-59.0072
-59.0196
-59.0283
-59.0305
-59.022
-58.9975
-58.9502
-58.8731
-58.7612
-58.5694
-57.7895
-57.7902
-57.7939
-57.7989
-57.8053
-57.8129
-57.8219
-57.8321
-57.8436
-57.8564
-57.8701
-57.8848
-57.9001
-57.9158
-57.9311
-57.9449
-57.9557
-57.9607
-57.9556
-57.9359
-57.896
-57.8309
-57.7344
-57.5828
-56.7125
-56.7126
-56.716
-56.7208
-56.7271
-56.7347
-56.7437
-56.7541
-56.7659
-56.779
-56.7933
-56.8087
-56.8249
-56.8414
-56.8577
-56.873
-56.8855
-56.8925
-56.8903
-56.8737
-56.8375
-56.7735
-56.6665
-56.4983
-55.6339
-55.6346
-55.6383
-55.6436
-55.6501
-55.6581
-55.6675
-55.6783
-55.6905
-55.7041
-55.719
-55.735
-55.7519
-55.7694
-55.7871
-55.8039
-55.8181
-55.8274
-55.8278
-55.8147
-55.7828
-55.7234
-55.6186
-55.4712
-54.5622
-54.5623
-54.5656
-54.5705
-54.5769
-54.5848
-54.5942
-54.6051
-54.6175
-54.6314
-54.6467
-54.6634
-54.6811
-54.6995
-54.7182
-54.7362
-54.7523
-54.7636
-54.7666
-54.7567
-54.7286
-54.6752
-54.5814
-54.4097
-53.4869
-53.4876
-53.4913
-53.4966
-53.5034
-53.5116
-53.5214
-53.5328
-53.5456
-53.56
-53.5759
-53.5932
-53.6117
-53.631
-53.6507
-53.6702
-53.6877
-53.7011
-53.7068
-53.7002
-53.6763
-53.629
-53.5427
-53.4037
-52.4162
-52.4168
-52.4206
-52.426
-52.4329
-52.4413
-52.4512
-52.4627
-52.4757
-52.4905
-52.5068
-52.5245
-52.5436
-52.5638
-52.5845
-52.605
-52.6241
-52.6393
-52.6469
-52.6424
-52.6212
-52.5784
-52.5008
-52.2852
-51.3476
-51.3479
-51.3516
-51.357
-51.3639
-51.3723
-51.3824
-51.394
-51.4074
-51.4224
-51.4391
-51.4573
-51.477
-51.4979
-51.5195
-51.541
-51.5615
-51.5785
-51.5891
-51.5889
-51.5734
-51.5355
-51.4712
-51.5099
-50.2791
-50.2797
-50.2835
-50.289
-50.2961
-50.3047
-50.315
-50.3269
-50.3405
-50.3558
-50.3727
-50.3913
-50.4113
-50.4325
-50.4547
-50.4769
-50.4979
-50.5154
-50.5254
-50.5227
-50.5013
-50.4564
-50.3683
-50.0409
-49.2142
-49.2146
-49.2184
-49.2239
-49.2308
-49.2395
-49.2498
-49.2618
-49.2755
-49.291
-49.3083
-49.3273
-49.3478
-49.3697
-49.3925
-49.4155
-49.4376
-49.4567
-49.469
-49.4702
-49.4555
-49.4188
-49.3349
-49.1779
-48.1491
-48.1495
-48.1534
-48.159
-48.1662
-48.175
-48.1856
-48.1979
-48.212
-48.2279
-48.2455
-48.265
-48.2861
-48.3085
-48.332
-48.356
-48.3791
-48.3991
-48.4129
-48.4152
-48.4002
-48.3605
-48.2717
-48.0446
-47.0845
-47.0853
-47.0895
-47.0954
-47.1029
-47.1121
-47.123
-47.1356
-47.1501
-47.1665
-47.1847
-47.2047
-47.2265
-47.2499
-47.2745
-47.2998
-47.3248
-47.3477
-47.3655
-47.3742
-47.3698
-47.3478
-47.3163
-47.3848
-46.024
-46.0244
-46.0284
-46.0343
-46.0418
-46.051
-46.0621
-46.075
-46.0898
-46.1065
-46.1252
-46.1458
-46.1682
-46.1924
-46.2179
-46.2442
-46.2703
-46.2944
-46.313
-46.3216
-46.314
-46.2842
-46.2284
-46.095
-44.9622
-44.9628
-44.9671
-44.9732
-44.981
-44.9905
-45.0019
-45.0151
-45.0303
-45.0475
-45.0668
-45.088
-45.1112
-45.1362
-45.1628
-45.1904
-45.2181
-45.2441
-45.2655
-45.2783
-45.278
-45.2605
-45.2131
-45.1133
-43.9032
-43.9037
-43.9078
-43.9138
-43.9216
-43.9313
-43.9428
-43.9563
-43.9718
-43.9894
-44.0092
-44.031
-44.055
-44.0809
-44.1085
-44.137
-44.1658
-44.1929
-44.2148
-44.2267
-44.2225
-44.1958
-44.1284
-43.8644
-42.842
-42.8426
-42.8469
-42.8532
-42.8613
-42.8713
-42.8832
-42.8971
-42.9131
-42.9314
-42.9519
-42.9746
-42.9996
-43.0266
-43.0555
-43.0859
-43.1169
-43.1468
-43.1732
-43.192
-43.1988
-43.1866
-43.1551
-43.2364
-41.7808
-41.7817
-41.7864
-41.793
-41.8014
-41.8118
-41.824
-41.8384
-41.8549
-41.8737
-41.8948
-41.9183
-41.9441
-41.9723
-42.0026
-42.0344
-42.0673
-42.0996
-42.1285
-42.15
-42.16
-42.1592
-42.1496
-42.0046
-40.7232
-40.7234
-40.7278
-40.7341
-40.7424
-40.7526
-40.765
-40.7796
-40.7964
-40.8156
-40.8373
-40.8615
-40.8882
-40.9174
-40.9488
-40.9822
-41.0169
-41.0514
-41.0829
-41.1074
-41.1205
-41.1186
-41.0954
-41.0144
-39.6599
-39.6606
-39.6653
-39.6722
-39.6809
-39.6916
-39.7044
-39.7194
-39.7368
-39.7565
-39.7788
-39.8037
-39.8312
-39.8612
-39.8936
-39.9283
-39.9644
-40.0006
-40.0343
-40.062
-40.0793
-40.0807
-40.0476
-39.9827
-38.5991
-38.5998
-38.6046
-38.6115
-38.6203
-38.6311
-38.6441
-38.6594
-38.677
-38.6972
-38.7199
-38.7452
-38.7733
-38.8041
-38.8373
-38.8727
-38.9095
-38.9463
-38.98
-39.0057
-39.0169
-39.0071
-38.9551
-38.6778
-37.5377
-37.5382
-37.543
-37.55
-37.5589
-37.5699
-37.5832
-37.5987
-37.6167
-37.6373
-37.6606
-37.6866
-37.7155
-37.7471
-37.7813
-37.818
-37.8566
-37.8957
-37.9332
-37.9656
-37.9883
-37.9957
-37.9858
-38.0678
-36.4743
-36.4752
-36.4804
-36.4876
-36.4969
-36.5082
-36.5218
-36.5378
-36.5562
-36.5773
-36.601
-36.6276
-36.657
-36.6894
-36.7246
-36.7625
-36.8022
-36.8429
-36.8821
-36.916
-36.9407
-36.9563
-36.9596
-36.8153
-35.4145
-35.4149
-35.4198
-35.4268
-35.4359
-35.4473
-35.4609
-35.4769
-35.4956
-35.5169
-35.5411
-35.5682
-35.5984
-35.6315
-35.6676
-35.7063
-35.7473
-35.7893
-35.8302
-35.8664
-35.8937
-35.9067
-35.8914
-35.841
-34.3498
-34.3506
-34.3559
-34.3633
-34.3728
-34.3845
-34.3986
-34.415
-34.4341
-34.4559
-34.4806
-34.5083
-34.5391
-34.5729
-34.6097
-34.6493
-34.6912
-34.7344
-34.7766
-34.8144
-34.8429
-34.8557
-34.8395
-34.7822
-33.2877
-33.2884
-33.2938
-33.3013
-33.311
-33.3229
-33.3371
-33.3538
-33.3731
-33.3953
-33.4205
-33.4486
-33.48
-33.5145
-33.5521
-33.5926
-33.6355
-33.6799
-33.7233
-33.7625
-33.7932
-33.8098
-33.8026
-33.7529
-32.2266
-32.2272
-32.2324
-32.2399
-32.2496
-32.2615
-32.2759
-32.2928
-32.3124
-32.3349
-32.3605
-32.3891
-32.421
-32.4563
-32.4947
-32.536
-32.5801
-32.6256
-32.6706
-32.7119
-32.7452
-32.7641
-32.7577
-32.7162
-31.1648
-31.1655
-31.1709
-31.1786
-31.1885
-31.2006
-31.2151
-31.2322
-31.2521
-31.2749
-31.3008
-31.3299
-31.3623
-31.3981
-31.4372
-31.4797
-31.5249
-31.572
-31.619
-31.6631
-31.6998
-31.7193
-31.7017
-31.6994
-30.1056
-30.1062
-30.1116
-30.1192
-30.129
-30.1411
-30.1557
-30.1729
-30.1929
-30.2158
-30.2419
-30.2713
-30.304
-30.3404
-30.3803
-30.4235
-30.4698
-30.5185
-30.5675
-30.6147
-30.6556
-30.6782
-30.6651
-30.8261
-29.0463
-29.047
-29.0525
-29.0602
-29.0701
-29.0824
-29.0971
-29.1144
-29.1345
-29.1576
-29.1838
-29.2134
-29.2464
-29.2829
-29.3229
-29.3665
-29.413
-29.4618
-29.5108
-29.5561
-29.5927
-29.6236
-29.6601
-29.4895
-27.989
-27.9899
-27.9957
-28.0037
-28.0138
-28.0262
-28.041
-28.0584
-28.0786
-28.1018
-28.128
-28.1576
-28.1906
-28.2271
-28.2672
-28.3107
-28.3574
-28.4063
-28.4555
-28.5011
-28.5389
-28.57
-28.5952
-28.4759
-26.9385
-26.9388
-26.9442
-26.9518
-26.9616
-26.9738
-26.9884
-27.0057
-27.0258
-27.0488
-27.0751
-27.1046
-27.1376
-27.1741
-27.2142
-27.2576
-27.3042
-27.3529
-27.4018
-27.4473
-27.4843
-27.5083
-27.5076
-27.3885
-25.8865
-25.8871
-25.8928
-25.9007
-25.9108
-25.9232
-25.9381
-25.9556
-25.9758
-25.9991
-26.0254
-26.0552
-26.0883
-26.1249
-26.165
-26.2087
-26.2555
-26.3047
-26.3547
-26.4027
-26.4437
-26.4699
-26.4834
-26.6089
-24.8396
-24.8405
-24.8464
-24.8545
-24.8647
-24.8772
-24.8922
-24.9098
-24.9301
-24.9535
-24.98
-25.0097
-25.043
-25.0798
-25.1202
-25.164
-25.211
-25.2603
-25.31
-25.3568
-25.3946
-25.4174
-25.4294
-25.41
-23.7991
-23.7995
-23.8052
-23.8131
-23.8232
-23.8356
-23.8506
-23.8682
-23.8886
-23.9121
-23.9388
-23.9688
-24.0024
-24.0395
-24.0803
-24.1247
-24.1725
-24.2229
-24.2747
-24.3252
-24.3705
-24.4069
-24.4335
-24.47
-22.7595
-22.7604
-22.7663
-22.7745
-22.7848
-22.7975
-22.8126
-22.8305
-22.8512
-22.8748
-22.9017
-22.932
-22.9658
-23.0032
-23.0445
-23.0894
-23.1377
-23.1887
-23.241
-23.2913
-23.3351
-23.3685
-23.3944
-23.381
-21.7275
-21.7279
-21.7336
-21.7415
-21.7517
-21.7643
-21.7794
-21.7973
-21.818
-21.8418
-21.8689
-21.8995
-21.9336
-21.9716
-22.0133
-22.0587
-22.1078
-22.1598
-22.2134
-22.2657
-22.3126
-22.3496
-22.3752
-22.3791
-20.6955
-20.6963
-20.7023
-20.7105
-20.721
-20.7339
-20.7493
-20.7674
-20.7885
-20.8126
-20.84
-20.8709
-20.9054
-20.9437
-20.9858
-21.0319
-21.0815
-21.1342
-21.1888
-21.2422
-21.29
-21.3272
-21.3499
-21.3483
-19.6696
-19.6704
-19.6764
-19.6847