/*--------------------------------*- C++ -*----------------------------------*\
| =========                 |                                                 |
| \\      /  F ield         | OpenFOAM: The Open Source CFD Toolbox           |
|  \\    /   O peration     | Version:  2.3.0                                 |
|   \\  /    A nd           | Web:      www.OpenFOAM.org                      |
|    \\/     M anipulation  |                                                 |
\*---------------------------------------------------------------------------*/
FoamFile
{
    version     2.0;
    format      ascii;
    class       volScalarField;
    location    "4000";
    object      nut;
}
// * * * * * * * * * * * * * * * * * * * * * * * * * * * * * * * * * * * * * //

dimensions      [0 2 -1 0 0 0 0];

internalField   nonuniform List<scalar> 
37387
(
0.0672272
0.0654923
0.0637599
0.0620274
0.0602948
0.0585623
0.0568306
0.0551002
0.0533721
0.0516474
0.0499272
0.0482126
0.0465051
0.0448061
0.0431171
0.0414397
0.0397753
0.0381256
0.0364925
0.0348781
0.0332848
0.0317149
0.0301721
0.0286601
0.0271852
0.0257553
0.0243786
0.0230623
0.0218141
0.0206447
0.0195564
0.0185098
0.0174638
0.0164106
0.0153532
0.0142939
0.0132304
0.0121557
0.0110595
0.00992723
0.00874646
0.00754146
0.00656759
0.0685518
0.0670295
0.0655062
0.0639832
0.0624609
0.0609392
0.0594187
0.0578993
0.0563818
0.0548665
0.0533542
0.0518457
0.0503415
0.0488427
0.0473502
0.045865
0.0443881
0.0429209
0.0414647
0.0400207
0.03859
0.0371745
0.0357757
0.0343947
0.0330339
0.0316952
0.0303818
0.0290966
0.0278424
0.0266242
0.0254461
0.0243113
0.0232232
0.0221882
0.0212141
0.0203127
0.019496
0.0187796
0.0181797
0.0177124
0.0173946
0.0172423
0.0172713
0.0697772
0.0684308
0.0670832
0.0657355
0.0643883
0.0630414
0.0616952
0.0603493
0.0590042
0.0576597
0.0563165
0.0549753
0.0536359
0.0522991
0.0509656
0.0496359
0.048311
0.0469918
0.0456793
0.0443752
0.0430806
0.0417969
0.0405261
0.0392698
0.0380303
0.0368095
0.0356096
0.0344344
0.0332877
0.0321725
0.0310937
0.0300566
0.0290682
0.028136
0.0272686
0.0264761
0.0257687
0.0251593
0.02466
0.0242831
0.0240375
0.02393
0.023965
0.0709045
0.0697072
0.068508
0.0673087
0.0661094
0.0649099
0.0637096
0.0625083
0.0613063
0.0601032
0.0588997
0.057696
0.056492
0.0552886
0.0540856
0.0528836
0.0516834
0.0504856
0.0492909
0.0481006
0.0469161
0.0457392
0.0445718
0.0434155
0.0422723
0.0411456
0.0400375
0.0389507
0.03789
0.0368591
0.0358622
0.0349056
0.0339954
0.0331387
0.0323442
0.0316208
0.030978
0.0304264
0.0299759
0.029636
0.0294142
0.0293151
0.0293415
0.0719377
0.070867
0.0697946
0.0687216
0.067648
0.0665728
0.0654954
0.0644157
0.0633335
0.0622484
0.0611607
0.0600707
0.0589787
0.0578851
0.0567902
0.0556937
0.0545964
0.0534987
0.0524015
0.0513054
0.0502114
0.0491216
0.0480378
0.0469621
0.0458967
0.0448446
0.0438085
0.0427917
0.0417982
0.0408321
0.0398981
0.0390021
0.0381503
0.0373492
0.0366061
0.0359299
0.03533
0.034815
0.0343941
0.0340752
0.0338651
0.033768
0.0337858
0.0728804
0.0719188
0.070955
0.0699898
0.0690232
0.0680538
0.0670807
0.0661036
0.0651225
0.0641365
0.0631454
0.06215
0.0611507
0.0601481
0.0591422
0.0581327
0.0571206
0.0561061
0.0550899
0.0540725
0.0530542
0.0520366
0.0510218
0.0500119
0.0490094
0.0480178
0.0470397
0.0460786
0.0451378
0.0442223
0.0433369
0.0424874
0.0416796
0.0409201
0.0402156
0.0395736
0.0390035
0.0385132
0.0381111
0.0378053
0.0376012
0.0375036
0.0375139
0.0737398
0.0728718
0.0720005
0.0711273
0.0702523
0.0693738
0.0684894
0.0675989
0.0667035
0.0658017
0.0648923
0.063976
0.0630538
0.0621265
0.0611946
0.0602576
0.0593156
0.0583696
0.0574214
0.0564702
0.0555158
0.0545597
0.0536029
0.0526478
0.051697
0.050754
0.0498243
0.0489086
0.0480101
0.0471335
0.0462854
0.0454722
0.0446995
0.0439726
0.0432979
0.0426822
0.0421336
0.0416601
0.0412708
0.0409733
0.0407728
0.0406743
0.0406785
0.0745221
0.0737348
0.0729424
0.0721473
0.0713504
0.0705508
0.0697434
0.0689243
0.0681019
0.0672732
0.0664334
0.0655843
0.0647266
0.0638607
0.0629907
0.0621152
0.0612315
0.0603407
0.0594488
0.0585539
0.0576544
0.0567495
0.0558461
0.0549345
0.0540305
0.0531234
0.052234
0.0513572
0.0504958
0.0496506
0.0488295
0.0480441
0.0472986
0.046598
0.0459471
0.045353
0.0448221
0.0443608
0.0439801
0.0436873
0.043489
0.0433897
0.0433901
0.0752399
0.0745219
0.073794
0.0730629
0.0723281
0.0715944
0.0708606
0.0700967
0.0693356
0.068573
0.067792
0.0669987
0.0661998
0.0653799
0.0645586
0.0637342
0.062905
0.0620546
0.0612067
0.0603571
0.0595107
0.058639
0.0578042
0.0569125
0.05607
0.0551766
0.0543235
0.0534761
0.0526492
0.051838
0.0510326
0.0502662
0.0495393
0.0488569
0.0482268
0.0476519
0.0471399
0.0466884
0.046315
0.0460266
0.0458304
0.0457314
0.0457312
0.00735946
0.00926891
0.0104532
0.0116056
0.0128185
0.0140912
0.0154138
0.0167732
0.0181586
0.0195631
0.0209825
0.0224122
0.0238503
0.0252955
0.0267459
0.0282017
0.0296622
0.0311268
0.032595
0.0340677
0.0355438
0.0370236
0.0385067
0.0399937
0.0414835
0.0429769
0.0444731
0.0459725
0.0474743
0.0489785
0.050485
0.0519933
0.0535032
0.0550145
0.0565266
0.0580392
0.0595518
0.0610637
0.0625745
0.0640836
0.0655901
0.067093
0.0685939
0.0174882
0.017893
0.0184681
0.0191969
0.0200581
0.0210285
0.0220869
0.0232146
0.024396
0.02562
0.0268749
0.0281539
0.0294511
0.0307616
0.0320832
0.0334123
0.0347474
0.0360861
0.0374285
0.0387736
0.0401203
0.0414678
0.0428167
0.044166
0.045516
0.0468662
0.0482169
0.0495674
0.0509176
0.0522679
0.0536179
0.0549675
0.0563168
0.0576654
0.0590134
0.0603606
0.0617067
0.0630514
0.0643946
0.0657359
0.067075
0.0684119
0.0697508
0.0241399
0.0244561
0.0249123
0.0255001
0.0262063
0.0270148
0.0279114
0.0288806
0.02991
0.0309873
0.0321026
0.0332485
0.0344172
0.0356043
0.036805
0.0380162
0.0392339
0.0404574
0.0416844
0.0429131
0.0441432
0.0453734
0.0466029
0.047832
0.0490599
0.050286
0.0515103
0.0527328
0.0539532
0.0551715
0.0563876
0.0576018
0.0588137
0.0600237
0.0612315
0.0624374
0.0636411
0.0648425
0.0660417
0.0672384
0.0684325
0.069624
0.0708166
0.0294908
0.029763
0.0301572
0.0306676
0.0312844
0.0319961
0.0327909
0.0336565
0.0345813
0.0355547
0.0365681
0.0376133
0.0386834
0.0397732
0.0408781
0.0419933
0.0431162
0.0442442
0.0453752
0.0465078
0.0476407
0.0487724
0.0499027
0.0510311
0.0521565
0.0532783
0.0543966
0.0555113
0.0566221
0.057729
0.0588323
0.0599319
0.0610278
0.0621202
0.0632091
0.0642947
0.0653768
0.0664556
0.067531
0.068603
0.0696712
0.0707354
0.0717962
0.0339163
0.034159
0.0345134
0.0349741
0.0355329
0.0361797
0.0369049
0.0376974
0.0385472
0.0394446
0.0403815
0.0413501
0.0423437
0.0433571
0.0443852
0.0454238
0.0464694
0.0475192
0.0485718
0.0496251
0.0506774
0.0517282
0.0527764
0.0538207
0.0548602
0.0558949
0.0569246
0.0579489
0.0589678
0.0599812
0.0609894
0.0619926
0.0629906
0.0639833
0.0649712
0.0659544
0.066933
0.067907
0.0688763
0.0698408
0.0708003
0.071755
0.0727073
0.0376301
0.0378517
0.0381776
0.0386024
0.0391194
0.0397205
0.0403953
0.0411338
0.0419274
0.0427674
0.0436458
0.044555
0.045489
0.046442
0.047409
0.0483854
0.049368
0.0503541
0.0513421
0.0523302
0.0533171
0.0543012
0.055281
0.0562551
0.0572231
0.0581849
0.0591402
0.0600889
0.0610303
0.0619652
0.0628936
0.0638155
0.0647307
0.065639
0.0665409
0.0674369
0.0683273
0.0692119
0.0700901
0.070962
0.0718274
0.0726865
0.0735406
0.0407842
0.04099
0.0412939
0.0416908
0.0421766
0.0427435
0.0433802
0.044077
0.0448271
0.045622
0.046454
0.0473166
0.0482039
0.0491087
0.0500259
0.0509512
0.0518814
0.0528147
0.0537492
0.0546844
0.0556171
0.0565462
0.0574693
0.0583843
0.0592917
0.0601922
0.0610855
0.0619702
0.0628464
0.0637151
0.064576
0.0654297
0.0662749
0.0671109
0.0679393
0.0687613
0.0695766
0.0703849
0.0711847
0.0719763
0.0727604
0.0735362
0.0743052
0.0434892
0.0436815
0.0439687
0.0443407
0.0448034
0.0453454
0.0459514
0.0466125
0.0473293
0.0480872
0.0488824
0.0497082
0.0505592
0.0514234
0.0522998
0.053182
0.0540677
0.0549566
0.0558477
0.0567403
0.0576272
0.0585123
0.0593866
0.0602493
0.0611049
0.0619559
0.0627972
0.063627
0.0644475
0.0652609
0.0660646
0.0668618
0.0676464
0.0684193
0.069185
0.0699451
0.0706965
0.0714399
0.0721712
0.0728932
0.0736077
0.0743113
0.0750049
0.0458279
0.046005
0.0462857
0.0466268
0.047077
0.0476006
0.0481783
0.0488031
0.0495003
0.0502234
0.0509914
0.0517868
0.0526113
0.0534357
0.0542803
0.055121
0.055969
0.056821
0.0576783
0.0585422
0.0593829
0.0602356
0.0610596
0.0618763
0.062692
0.0635068
0.0642999
0.0650815
0.065856
0.0666269
0.0673791
0.068132
0.0688591
0.0695784
0.0702945
0.0710059
0.0716997
0.072388
0.0730567
0.0737203
0.0743787
0.0750227
0.07565
0.0404913
0.0392369
0.0379815
0.0367256
0.0354698
0.0342142
0.032959
0.031704
0.0304486
0.0291926
0.0279354
0.0266767
0.0254162
0.0241538
0.0228904
0.0216274
0.0203676
0.0191151
0.0178762
0.0166583
0.0154708
0.0143241
0.0132267
0.0121831
0.0111946
0.0102596
0.00937562
0.00854011
0.00775125
0.0070066
0.00630429
0.00564216
0.00501972
0.00443501
0.00388747
0.00337697
0.00290327
0.00246893
0.0020826
0.001763
0.00151066
0.00122164
0.000815027
0.0406129
0.0394648
0.038315
0.037164
0.0360122
0.0348596
0.0337062
0.0325516
0.0313954
0.030237
0.0290758
0.0279113
0.0267425
0.0255692
0.0243912
0.0232085
0.0220221
0.020834
0.0196472
0.0184663
0.0172984
0.0161523
0.0150378
0.0139631
0.0129349
0.0119551
0.0110235
0.0101396
0.00930132
0.00850743
0.00775579
0.00704684
0.00637942
0.0057543
0.00517303
0.00463979
0.00416273
0.00375283
0.00340903
0.00304366
0.00262853
0.00211805
0.00142108
0.0407354
0.0396863
0.0386346
0.0375808
0.0365248
0.0354669
0.0344066
0.0333435
0.0322774
0.0312076
0.0301333
0.0290539
0.0279685
0.0268765
0.0257773
0.0246706
0.023556
0.0224342
0.0213062
0.0201745
0.0190421
0.0179153
0.0168012
0.0157087
0.0146479
0.0136269
0.012651
0.0117211
0.0108368
0.00999675
0.00920134
0.00845047
0.00774629
0.00709247
0.00649761
0.00597114
0.00552988
0.00510497
0.00465833
0.00415971
0.00357256
0.0028421
0.00189551
0.0408555
0.0398957
0.0389321
0.0379651
0.0369945
0.0360204
0.0350423
0.03406
0.0330732
0.0320809
0.0310825
0.0300775
0.0290647
0.0280436
0.0270134
0.0259731
0.0249225
0.0238612
0.0227893
0.021707
0.0206162
0.0195199
0.0184217
0.0173282
0.0162489
0.0151957
0.0141794
0.0132065
0.0122787
0.0113965
0.01056
0.00977201
0.00903669
0.00836353
0.00776359
0.0072528
0.00676863
0.00626609
0.00571709
0.00509149
0.00434921
0.00342896
0.00227756
0.0409731
0.0400928
0.0392078
0.0383178
0.0374229
0.0365227
0.0356171
0.0347057
0.033788
0.0328635
0.0319312
0.0309904
0.0300403
0.02908
0.0281086
0.0271254
0.0261295
0.0251204
0.0240974
0.0230602
0.022009
0.0209446
0.019869
0.0187859
0.0177023
0.0166285
0.0155795
0.0145691
0.013603
0.0126825
0.0118095
0.0109884
0.0102267
0.0095372
0.00893031
0.00839234
0.00784589
0.00726402
0.00661894
0.00587806
0.00499816
0.00391415
0.00258813
0.041086
0.0402769
0.0394619
0.0386407
0.0378128
0.0369779
0.0361359
0.0352864
0.0344292
0.0335637
0.032689
0.0318041
0.030908
0.0299996
0.0290783
0.0281433
0.0271938
0.0262285
0.0252472
0.0242484
0.0232317
0.0221973
0.0211452
0.0200773
0.018997
0.0179132
0.0168412
0.0158002
0.0148014
0.0138478
0.0129437
0.0120945
0.0113117
0.0106074
0.00999772
0.0094046
0.008792
0.0081331
0.00739835
0.00655287
0.00554946
0.00432039
0.00284203
0.0411921
0.0404476
0.0396956
0.0389357
0.0381673
0.0373901
0.0366036
0.035808
0.0350033
0.0341892
0.0333649
0.0325294
0.0316805
0.0308168
0.029938
0.0290438
0.028133
0.0272048
0.026258
0.0252916
0.0243045
0.0232961
0.0222659
0.0212135
0.0201409
0.0190542
0.0179666
0.0169012
0.0158752
0.0148947
0.0139645
0.0130927
0.0122932
0.0115746
0.010938
0.010297
0.00962464
0.00889503
0.00807821
0.00713741
0.00602242
0.00466364
0.00304943
0.0412901
0.0406055
0.0399099
0.0392046
0.0384896
0.0377636
0.0370254
0.0362763
0.0355165
0.0347467
0.0339668
0.0331755
0.0323699
0.0315459
0.0307022
0.0298419
0.0289646
0.0280667
0.0271483
0.0262093
0.025247
0.0242602
0.023249
0.0222122
0.0211498
0.0200647
0.0189675
0.0178826
0.0168338
0.01583
0.0148784
0.01399
0.0131788
0.012458
0.0117783
0.0110887
0.0103613
0.00956763
0.0086757
0.00764765
0.00643067
0.00495454
0.00322156
0.0413892
0.0407531
0.0401062
0.0394488
0.0387824
0.0381039
0.037407
0.0366974
0.0359743
0.0352417
0.0344997
0.0337485
0.0329863
0.0322022
0.0313847
0.0305497
0.0297038
0.0288318
0.0279344
0.0270183
0.0260784
0.0251077
0.0241117
0.0230894
0.0220382
0.0209605
0.019861
0.0187586
0.0176878
0.0166623
0.0156926
0.0147924
0.0139704
0.0132387
0.0125235
0.0117907
0.0110144
0.0101655
0.00920648
0.00809682
0.00678392
0.00519388
0.00331744
0.000458356
0.000493829
0.000681476
0.00085929
0.00102824
0.00119138
0.00135253
0.00151759
0.00169464
0.00189431
0.0021254
0.00238805
0.0026806
0.00300025
0.0033456
0.00371538
0.00410954
0.00452811
0.00497105
0.00543929
0.00593325
0.00645335
0.0069999
0.00757356
0.00817463
0.00880402
0.00946248
0.0101504
0.0108688
0.0116184
0.0123999
0.0132143
0.0140628
0.0149459
0.0158645
0.0168197
0.0178124
0.0188437
0.0199145
0.0210254
0.0221778
0.0233728
0.0246135
0.000732128
0.000658907
0.000840825
0.00102746
0.00120786
0.00138714
0.0015727
0.00177303
0.00199649
0.00224982
0.00253829
0.00285659
0.00320023
0.00356718
0.00395626
0.00436707
0.00479942
0.00525334
0.00572901
0.00622651
0.00674645
0.00728884
0.00785392
0.00844208
0.00905369
0.00968907
0.0103491
0.0110342
0.0117451
0.0124822
0.0132463
0.0140381
0.0148582
0.0157079
0.0165873
0.0174972
0.018439
0.019413
0.0204203
0.0214615
0.0225378
0.0236508
0.0248038
0.000991666
0.000811167
0.000989249
0.00118789
0.00138618
0.00159159
0.00181334
0.00205895
0.00233329
0.00263909
0.00297939
0.00334618
0.00373475
0.00414373
0.00457253
0.00502061
0.00548766
0.00597381
0.00647869
0.00700267
0.00754561
0.00810769
0.00868877
0.00928924
0.00990926
0.0105494
0.0112098
0.011891
0.0125935
0.0133177
0.0140642
0.0148334
0.015626
0.0164425
0.0172835
0.0181498
0.0190417
0.0199603
0.0209061
0.02188
0.0228829
0.0239167
0.0249849
0.00120998
0.000946063
0.00112491
0.00133997
0.00156261
0.00180179
0.0020654
0.00235789
0.00268037
0.00303401
0.00341995
0.00382833
0.00425635
0.0047027
0.00516651
0.00564752
0.0061453
0.00665967
0.00719034
0.00773708
0.00829979
0.00887843
0.00947301
0.0100836
0.0107102
0.0113532
0.0120129
0.0126894
0.0133833
0.0140946
0.0148239
0.0155716
0.016338
0.0171236
0.0179287
0.0187541
0.0196001
0.0204671
0.0213561
0.0222674
0.0232018
0.0241592
0.0251366
0.00138721
0.00106516
0.00125045
0.0014863
0.00173838
0.00201489
0.00232098
0.00265755
0.00302355
0.00342057
0.0038461
0.00429154
0.00475446
0.00523375
0.00572875
0.00623894
0.00676398
0.0073033
0.00785628
0.00842275
0.00900248
0.00959511
0.0102007
0.0108196
0.0114513
0.0120963
0.0127544
0.0134261
0.0141112
0.0148102
0.0155231
0.0162505
0.0169926
0.0177495
0.0185215
0.0193091
0.0201129
0.0209327
0.0217694
0.0226231
0.0234941
0.0243822
0.0252872
0.00153018
0.00117077
0.00136824
0.00162837
0.00191268
0.00222711
0.00257345
0.0029498
0.00335472
0.00379151
0.0042518
0.0047299
0.00522391
0.00573284
0.00625576
0.00679195
0.00734097
0.00790217
0.00847466
0.00905813
0.00965263
0.0102576
0.0108729
0.0114983
0.0121341
0.0127802
0.0134364
0.0141027
0.0147797
0.0154669
0.0161645
0.016873
0.0175924
0.0183228
0.0190644
0.0198175
0.0205824
0.0213592
0.0221478
0.0229487
0.0237617
0.0245862
0.0254209
0.0016453
0.00126671
0.00148171
0.00176835
0.00208533
0.0024359
0.00281869
0.00323058
0.00367111
0.00414243
0.00463374
0.00514115
0.00566328
0.00619856
0.00674649
0.00730613
0.00787651
0.00845701
0.00904687
0.00964558
0.010253
0.0108686
0.0114922
0.0121234
0.0127621
0.0134085
0.0140625
0.0147238
0.0153925
0.0160688
0.0167523
0.0174433
0.0181417
0.0188477
0.0195615
0.020283
0.0210123
0.0217492
0.0224939
0.0232463
0.0240063
0.0247731
0.0255454
0.00174542
0.00135196
0.00158357
0.00189645
0.00224472
0.00262992
0.00304687
0.00349225
0.0039667
0.00446887
0.00498847
0.00552362
0.00607229
0.00663254
0.00720334
0.00778422
0.00837485
0.00897376
0.00957927
0.0101915
0.0108106
0.0114356
0.0120658
0.012701
0.0133415
0.0139873
0.0146383
0.0152942
0.015955
0.0166208
0.017291
0.0179657
0.0186447
0.0193283
0.0200165
0.0207095
0.0214062
0.0221062
0.0228103
0.0235182
0.0242298
0.0249445
0.025662
0.00178261
0.00143812
0.00171229
0.00206035
0.00245051
0.00286468
0.0033124
0.00378385
0.00428755
0.00481199
0.00536343
0.00592958
0.00649959
0.00707827
0.00766187
0.00826391
0.0088788
0.00949231
0.0101035
0.0107252
0.0113542
0.0119834
0.0126126
0.0132459
0.0138829
0.0145254
0.0151719
0.015821
0.0164739
0.0171303
0.0177872
0.0184453
0.0191061
0.0197689
0.0204346
0.0211033
0.0217692
0.0224334
0.0230997
0.0237668
0.0244343
0.0251009
0.0257665
0.000360361
0.00140271
0.00291156
0.00440328
0.00585411
0.00725849
0.00861689
0.0099314
0.0112048
0.01244
0.0136408
0.0148112
0.0159591
0.0171004
0.0182517
0.0194156
0.0205836
0.0217957
0.0231437
0.0246056
0.0261521
0.0277608
0.0294183
0.031114
0.032841
0.034594
0.0363687
0.0381618
0.0399702
0.0417917
0.0436241
0.0454658
0.0473148
0.0491692
0.0510278
0.052889
0.0547518
0.056615
0.0584777
0.0603391
0.062199
0.0640582
0.0659195
0.000345683
0.00107833
0.00244565
0.00377888
0.00499262
0.00614729
0.00728039
0.00840648
0.00952995
0.0106519
0.0117721
0.0128901
0.0140065
0.015124
0.0162465
0.0173786
0.018527
0.0197119
0.0209643
0.0222875
0.023662
0.0251137
0.0267023
0.0283911
0.0301494
0.0319573
0.0338017
0.0356738
0.0375665
0.0394749
0.0413957
0.043326
0.0452627
0.0472041
0.0491482
0.0510931
0.0530375
0.0549804
0.056921
0.0588579
0.0607912
0.0627205
0.064645
0.000250579
0.000798972
0.00183056
0.00316285
0.00459831
0.00591591
0.0071172
0.0082308
0.00928268
0.0102937
0.0112808
0.0122582
0.0132367
0.0142249
0.0152298
0.0162584
0.017319
0.0184223
0.0195796
0.0207997
0.0220841
0.023441
0.0248788
0.0263821
0.0280074
0.0297586
0.0315964
0.0334928
0.0354289
0.0373929
0.0393762
0.0413728
0.043378
0.0453889
0.0474023
0.0494161
0.0514285
0.0534381
0.0554435
0.0574441
0.0594387
0.0614267
0.0634056
0.000278418
0.000742152
0.00167764
0.00287376
0.00428751
0.00570604
0.00703461
0.00826346
0.00939933
0.0104522
0.0114353
0.0123643
0.0132566
0.0141304
0.0150031
0.0158912
0.0168102
0.0177744
0.018796
0.0198857
0.0210515
0.0222978
0.0236249
0.0250306
0.0265224
0.028094
0.0297851
0.0316103
0.0335266
0.035502
0.0375162
0.0395559
0.0416116
0.043677
0.0457475
0.0478198
0.0498909
0.0519589
0.0540222
0.0560797
0.0581301
0.0601717
0.0622024
0.000272485
0.000705661
0.00158938
0.00270899
0.00405687
0.00551825
0.0069419
0.00827625
0.00951458
0.0106608
0.0117198
0.0126982
0.0136057
0.0144563
0.0152676
0.0160602
0.0168563
0.017678
0.0185463
0.0194795
0.0204925
0.0215949
0.0227911
0.0240817
0.0254635
0.0269312
0.0284872
0.0301304
0.0319211
0.0338365
0.0358339
0.0378836
0.0399662
0.0420687
0.0441826
0.0463019
0.0484226
0.0505412
0.0526556
0.0547642
0.0568651
0.0589574
0.061043
0.000278807
0.000689556
0.00154508
0.00262027
0.00391356
0.00537331
0.00685837
0.00828006
0.00961202
0.0108504
0.011997
0.0130541
0.0140255
0.0149176
0.015741
0.0165109
0.0172475
0.0179745
0.0187182
0.0195048
0.0203583
0.0212984
0.0223383
0.0234846
0.0247377
0.0260929
0.0275437
0.0290832
0.0307192
0.0324681
0.0343723
0.0363817
0.0384571
0.040573
0.0427131
0.0448666
0.0470264
0.0491871
0.0513454
0.0534985
0.0556442
0.0577812
0.0599068
0.000279561
0.000676276
0.00151163
0.00255642
0.00380912
0.00524845
0.00677109
0.00826639
0.00968367
0.0110094
0.0122416
0.0133811
0.0144291
0.0153879
0.0162623
0.0170609
0.0177971
0.0184898
0.0191632
0.0198453
0.0205657
0.021353
0.022231
0.0232167
0.0243188
0.0255387
0.0268711
0.0283076
0.0298402
0.0314655
0.0331953
0.0350904
0.0371087
0.0392047
0.0413483
0.0435197
0.0457061
0.0478992
0.0500934
0.0522844
0.0544695
0.0566464
0.0588118
0.000281152
0.000668281
0.00149004
0.00251341
0.00373675
0.00515002
0.00668832
0.00823937
0.00973208
0.0111388
0.0124526
0.0136723
0.0147978
0.0158295
0.0167691
0.0176207
0.0183919
0.0190953
0.019749
0.0203773
0.0210093
0.021677
0.0224116
0.0232405
0.0241835
0.0252512
0.0264456
0.0277615
0.0291886
0.0307161
0.0323376
0.0340669
0.0359579
0.0379862
0.0401013
0.0422687
0.0444665
0.0466808
0.048902
0.0511239
0.0533428
0.0555552
0.05776
0.000281076
0.000661361
0.00147231
0.00247907
0.00367962
0.00506757
0.00660613
0.00819754
0.00975518
0.011237
0.0126282
0.013925
0.0151262
0.0162313
0.0172403
0.0181545
0.0189778
0.0197177
0.0203867
0.0210029
0.0215911
0.0221812
0.0228067
0.0235013
0.0242941
0.025207
0.0262517
0.0274305
0.0287372
0.0301605
0.0316886
0.0333143
0.0350501
0.0369476
0.03899
0.0411244
0.0433141
0.0455355
0.0477735
0.0500187
0.0522646
0.0545064
0.0567408
0.000280302
0.000655914
0.0014581
0.00245151
0.00363346
0.00499908
0.00652809
0.00814465
0.00975586
0.0113054
0.0127692
0.0141395
0.0154138
0.0165908
0.0176692
0.0186492
0.0195321
0.0203219
0.0210265
0.0216587
0.0222377
0.0227889
0.0233434
0.0239361
0.0246019
0.0253713
0.0262668
0.0273004
0.0284736
0.0297795
0.031206
0.0327405
0.0343755
0.0361229
0.0380386
0.0401015
0.0422572
0.0444683
0.0467109
0.0489701
0.0512362
0.053503
0.0557677
0.000278545
0.000650937
0.00144529
0.00242709
0.00359322
0.00493908
0.00645318
0.00808222
0.00973575
0.0113452
0.0128766
0.0143167
0.015661
0.0169073
0.0180541
0.0191001
0.0200453
0.0208913
0.0216427
0.0223083
0.022902
0.023444
0.0239611
0.0244859
0.0250543
0.0257021
0.0264601
0.0273505
0.0283843
0.0295621
0.0308757
0.0323122
0.033858
0.035506
0.0372724
0.0392177
0.041307
0.0434858
0.045718
0.0479806
0.0502592
0.0525453
0.0548375
0.000276142
0.000646264
0.0014335
0.00240489
0.00355699
0.004885
0.00638233
0.00801343
0.00969788
0.0113591
0.0129524
0.0144582
0.0158692
0.0171822
0.0183951
0.0195061
0.0205139
0.0214188
0.022223
0.022932
0.0235557
0.0241095
0.0246155
0.025102
0.0256031
0.0261559
0.0267963
0.0275544
0.0284513
0.0294963
0.030688
0.0320169
0.0334691
0.0350307
0.0366966
0.0384926
0.0404765
0.0425962
0.0447996
0.0470527
0.0493342
0.0516308
0.0539342
0.000273144
0.000641743
0.00142218
0.00238394
0.0035232
0.00483488
0.0063149
0.00794052
0.00964537
0.0113495
0.0129986
0.0145659
0.0160401
0.017417
0.0186935
0.0198676
0.0209374
0.0219018
0.0227615
0.0235195
0.0241827
0.0247626
0.0252766
0.0257485
0.0262088
0.0266933
0.0272394
0.0278827
0.0286523
0.0295665
0.0306324
0.0318464
0.0331971
0.0346699
0.0362518
0.0379423
0.0397821
0.0418093
0.0439613
0.0461898
0.0484634
0.0507627
0.0530758
0.000269579
0.000637238
0.00141098
0.00236366
0.00349085
0.00478732
0.00625029
0.0078654
0.00958111
0.0113195
0.0130179
0.0146419
0.016176
0.0176136
0.0189512
0.0201863
0.0213164
0.0223398
0.0232559
0.024066
0.0247744
0.0253896
0.025925
0.0264001
0.0268414
0.0272814
0.0277569
0.028306
0.028963
0.0297544
0.030696
0.0317914
0.0330345
0.0344124
0.0359102
0.0375169
0.0392395
0.0411372
0.0432103
0.0453956
0.0476491
0.0499425
0.0522596
0.000265515
0.000632646
0.00139996
0.00234371
0.00345933
0.00474152
0.00618781
0.00778933
0.00950809
0.011272
0.013013
0.0146889
0.0162791
0.0177744
0.0191703
0.020464
0.0216525
0.0227337
0.0237059
0.0245694
0.0253263
0.0259827
0.0265487
0.0270401
0.0274792
0.0278948
0.0283214
0.028797
0.0293592
0.0300402
0.0308636
0.0318411
0.0329731
0.0342509
0.0356602
0.0371864
0.0388221
0.0405885
0.042554
0.0446752
0.0468935
0.0491711
0.051483
0.000261021
0.000628051
0.00138883
0.00232389
0.00342834
0.00469671
0.00612684
0.00771311
0.00942849
0.0112098
0.0129866
0.0147093
0.0163517
0.0179016
0.0193532
0.0207028
0.0219477
0.023085
0.0241126
0.0250294
0.0258366
0.0265377
0.0271405
0.0276575
0.0281071
0.0285145
0.0289109
0.0293327
0.0298183
0.0304039
0.0311191
0.0319833
0.0330041
0.0341783
0.0354948
0.0369384
0.0384963
0.0401681
0.0420009
0.0440337
0.0462008
0.0484521
0.0507574
0.000256098
0.000623306
0.00137751
0.00230382
0.0033974
0.00465244
0.00606675
0.00763695
0.00934417
0.0111358
0.0129413
0.0147055
0.0163962
0.0179974
0.0195019
0.0209052
0.0222041
0.0233957
0.0244771
0.0254469
0.0263048
0.0270528
0.0276965
0.0282456
0.0287152
0.029127
0.0295086
0.029894
0.0303207
0.0308267
0.0314461
0.0322048
0.0331176
0.0341875
0.035408
0.0367658
0.0382461
0.0398394
0.0415592
0.0434779
0.0455744
0.0477852
0.0500666
0.000250801
0.000618397
0.00136593
0.00228376
0.00336655
0.00460845
0.00600735
0.00756115
0.00925682
0.0110522
0.0128798
0.01468
0.0164149
0.0180643
0.0196189
0.0210733
0.0224239
0.0236677
0.0248016
0.0258232
0.0267316
0.0275275
0.0282145
0.0288003
0.029297
0.0297228
0.0301021
0.0304658
0.0308497
0.0312919
0.0318292
0.0324925
0.033303
0.0342705
0.0353937
0.0366628
0.0380638
0.0395831
0.0412184
0.0430112
0.045018
0.0471755
0.0494345
0.000245197
0.000613455
0.00135433
0.00226347
0.00333549
0.00456463
0.00594849
0.00748574
0.00916758
0.0109611
0.0128047
0.0146354
0.01641
0.0181044
0.0197063
0.0212093
0.0226096
0.0239035
0.025088
0.0261601
0.0271183
0.0279622
0.0286941
0.0293195
0.0298482
0.0302954
0.0306825
0.0310368
0.0313919
0.0317851
0.032254
0.0328333
0.0335494
0.0344185
0.0354453
0.0366244
0.0379436
0.039389
0.0409506
0.0426408
0.0445351
0.0466202
0.0488274
0.000239284
0.000608348
0.00134245
0.00224287
0.00330442
0.00452081
0.00588992
0.00741056
0.0090771
0.0108645
0.012718
0.0145739
0.0163841
0.0181199
0.0197662
0.0213155
0.0227631
0.0241052
0.0253383
0.0264596
0.0274665
0.0283581
0.0291354
0.0298023
0.0303666
0.0308408
0.0312432
0.0315983
0.0319368
0.0322941
0.0327081
0.0332152
0.0338463
0.034623
0.0355561
0.036645
0.0378811
0.0392511
0.0407424
0.0423536
0.0441283
0.0461255
0.0482797
0.000233105
0.000603163
0.00133041
0.00222224
0.00327313
0.00447694
0.00583148
0.00733573
0.00898615
0.0107638
0.0126219
0.0144978
0.0163391
0.0181127
0.0198009
0.021394
0.0228866
0.0242747
0.0255548
0.0267234
0.0277779
0.0287165
0.0295393
0.0302488
0.030851
0.0313562
0.0317801
0.0321441
0.0324761
0.0328093
0.0331806
0.0336274
0.0341835
0.0348753
0.0357188
0.0367192
0.0378717
0.0391649
0.0405862
0.042127
0.0438031
0.0456922
0.0477728
0.000226672
0.000597945
0.00131823
0.00220131
0.00324158
0.00443311
0.00577314
0.00726123
0.00889489
0.0106604
0.0125183
0.014409
0.016277
0.0180853
0.0198123
0.0214468
0.0229822
0.0244144
0.0257394
0.0269538
0.0280544
0.0290391
0.029907
0.0306596
0.0313013
0.0318404
0.0322903
0.0326696
0.0330036
0.0333228
0.0336627
0.0340605
0.0345519
0.0351668
0.0359265
0.0368412
0.0379106
0.0391268
0.0404773
0.041951
0.0435492
0.0453218
0.0473152
0.000219981
0.000592541
0.00130588
0.00218019
0.00321004
0.00438913
0.00571492
0.00718693
0.00880363
0.0105551
0.0124089
0.0143095
0.0162
0.0180393
0.0198024
0.0214758
0.023052
0.0245262
0.0258943
0.0271527
0.028298
0.0293276
0.03024
0.0310357
0.0317178
0.0322929
0.0327722
0.0331721
0.0335148
0.0338286
0.034147
0.0345062
0.034943
0.0354899
0.0361723
0.0370053
0.0379936
0.0391326
0.0404114
0.0418187
0.0433479
0.0450208
0.0469221
0.000213094
0.000587146
0.00129342
0.00215908
0.00317832
0.00434512
0.00565685
0.007113
0.00871253
0.0104486
0.012295
0.0142012
0.01611
0.0179766
0.0197729
0.0214828
0.0230976
0.0246119
0.0260213
0.027322
0.0285105
0.0295837
0.0305397
0.0313782
0.032101
0.0327135
0.0332248
0.0336492
0.0340065
0.0343222
0.0346276
0.0349579
0.0353496
0.0358372
0.0364494
0.0372058
0.0381156
0.0391783
0.0403857
0.0417261
0.0431902
0.0447845
0.0465784
0.000205982
0.000581672
0.00128091
0.00213775
0.00314653
0.00430107
0.00559887
0.00703915
0.00862179
0.0103415
0.0121778
0.0140856
0.0160085
0.0178992
0.0197256
0.0214697
0.0231211
0.0246735
0.0261223
0.0274637
0.0286937
0.0298093
0.0308079
0.0316886
0.0324522
0.0331029
0.0336481
0.0341
0.0344762
0.0347999
0.0350998
0.0354097
0.0357654
0.0362024
0.0367519
0.0374372
0.0382721
0.0392602
0.0403961
0.0416697
0.0430701
0.0445945
0.0462787
0.000198638
0.000576149
0.00126828
0.00211638
0.00311467
0.0042571
0.00554096
0.00696581
0.00853141
0.0102344
0.0120583
0.0139643
0.0158975
0.0178084
0.0196623
0.0214382
0.023124
0.0247126
0.0261992
0.0275795
0.0288496
0.0300061
0.0310462
0.0319682
0.0327725
0.0334617
0.0340421
0.034524
0.0349227
0.0352592
0.0355601
0.0358571
0.036185
0.0365797
0.0370739
0.0376943
0.0384586
0.0393744
0.0404398
0.0416467
0.0429832
0.0444406
0.0460304
0.000191123
0.000570618
0.00125564
0.00209498
0.00308287
0.0042132
0.00548337
0.00689273
0.00844152
0.0101273
0.0119375
0.0138384
0.0157782
0.0177061
0.0195846
0.0213898
0.023108
0.024731
0.0262535
0.0276711
0.0289798
0.0301759
0.0312562
0.0322187
0.0330631
0.033791
0.0344074
0.0349209
0.035345
0.0356985
0.0360058
0.0362964
0.0366041
0.036964
0.0374104
0.0379722
0.0386707
0.0395172
0.0405136
0.0416541
0.0429278
0.0443249
0.0458525
0.000183393
0.000565085
0.00124291
0.00207358
0.00305108
0.00416945
0.005426
0.00682011
0.00835221
0.0100206
0.0118158
0.013709
0.0156522
0.0175939
0.0194939
0.0213261
0.0230746
0.0247301
0.0262869
0.0277402
0.0290859
0.0303201
0.0314395
0.0324416
0.0333254
0.0340918
0.0347445
0.035291
0.0357428
0.0361166
0.0364348
0.0367248
0.0370188
0.0373513
0.0377569
0.0382665
0.0389042
0.0396851
0.0406147
0.0416901
0.0429023
0.0442419
0.0457111
0.000175439
0.000559478
0.00123024
0.00205219
0.00301942
0.00412587
0.00536893
0.00674803
0.00826355
0.00991464
0.0116938
0.0135773
0.0155206
0.0174729
0.0193919
0.0212484
0.0230251
0.0247116
0.0263009
0.0277884
0.0291695
0.0304406
0.0315978
0.0326384
0.0335608
0.0343653
0.0350546
0.0356348
0.0361159
0.0365128
0.0368456
0.03714
0.0374262
0.0377378
0.0381094
0.038573
0.0391553
0.0398747
0.0407403
0.0417523
0.0429041
0.044188
0.0456024
0.000167294
0.000553977
0.00121753
0.00203085
0.00298783
0.00408254
0.00531223
0.00667649
0.00817559
0.00980932
0.011572
0.0134438
0.0153846
0.0173445
0.0192795
0.0211583
0.0229613
0.0246767
0.026297
0.027817
0.0292323
0.0305387
0.0317324
0.0328104
0.0337706
0.0346127
0.0353385
0.0359529
0.0364646
0.0368867
0.0372374
0.0375403
0.0378239
0.0381206
0.0384644
0.0388882
0.0394206
0.0400828
0.0408876
0.0418383
0.0429313
0.0441594
0.0455169
0.000158925
0.000548468
0.0012049
0.00200962
0.00295643
0.00403942
0.00525598
0.00660545
0.00808844
0.00970488
0.0114507
0.0133093
0.0152452
0.0172098
0.0191582
0.021057
0.0228842
0.0246268
0.0262765
0.0278277
0.0292756
0.0306159
0.0318449
0.0329591
0.0339562
0.0348352
0.0355973
0.0362462
0.0367893
0.0372383
0.0376094
0.0379244
0.03821
0.0384971
0.038819
0.0392089
0.0396968
0.0403065
0.0410539
0.0419458
0.0429817
0.0441573
0.0454727