/*--------------------------------*- C++ -*----------------------------------*\
| =========                 |                                                 |
| \\      /  F ield         | OpenFOAM: The Open Source CFD Toolbox           |
|  \\    /   O peration     | Version:  2.3.0                                 |
|   \\  /    A nd           | Web:      www.OpenFOAM.org                      |
|    \\/     M anipulation  |                                                 |
\*---------------------------------------------------------------------------*/
FoamFile
{
    version     2.0;
    format      ascii;
    class       surfaceScalarField;
    location    "4000";
    object      phi;
}
// * * * * * * * * * * * * * * * * * * * * * * * * * * * * * * * * * * * * * //

dimensions      [0 3 -1 0 0 0 0];

internalField   nonuniform List<scalar> 
74434
(
-0.00356875
-0.007978
0.00878112
0.00276563
-0.00432033
-0.00770355
0.00845513
-0.00502303
-0.00743716
0.00813986
-0.00568117
-0.00717809
0.00783623
-0.00629479
-0.00692934
0.00754296
-0.00686536
-0.00668733
0.0072579
-0.00739352
-0.00645412
0.00698228
-0.00787996
-0.00622821
0.00671465
-0.00832644
-0.00600862
0.00645509
-0.00873509
-0.0057959
0.00620455
-0.00910903
-0.00558882
0.00596276
-0.0094471
-0.00538934
0.00572741
-0.00975144
-0.00519572
0.00550006
-0.0100239
-0.00500722
0.00527971
-0.0102655
-0.00482458
0.00506614
-0.0104781
-0.00464784
0.00486047
-0.0106624
-0.0044765
0.00466077
-0.0108204
-0.00430953
0.00446756
-0.0109537
-0.0041466
0.00427983
-0.0110616
-0.00398959
0.00409755
-0.0111515
-0.00383436
0.00392425
-0.0112201
-0.00368313
0.00375176
-0.0112699
-0.00353802
0.00358776
-0.011301
-0.00339453
0.00342566
-0.0113143
-0.00325325
0.00326648
-0.0113117
-0.00311414
0.00311158
-0.011291
-0.00297866
0.00295799
-0.0112515
-0.00284428
0.00280476
-0.0111932
-0.00270858
0.00265025
-0.0111126
-0.00257473
0.00249418
-0.0110098
-0.00243966
0.00233682
-0.0108782
-0.00230549
0.00217385
-0.0107222
-0.00216379
0.00200783
-0.010536
-0.00202334
0.00183715
-0.0103211
-0.0018758
0.00166092
-0.0100758
-0.00172481
0.0014795
-0.009801
-0.00156773
0.00129293
-0.00950494
-0.00140055
0.00110449
-0.0091878
-0.00122777
0.000910633
-0.00885567
-0.00104625
0.000714115
-0.0085124
-0.000859034
0.000515768
-0.00817992
-0.000671666
0.000339184
-0.000482004
-0.00798255
0.000284636
-0.00324304
-0.00726588
0.00253091
-0.00391022
-0.00703636
-0.00453264
-0.00681474
-0.00511245
-0.00659828
-0.00565024
-0.00639154
-0.00614816
-0.00618942
-0.00660734
-0.00599494
-0.00703107
-0.00580448
-0.0074175
-0.00562219
-0.00776949
-0.00544391
-0.00808639
-0.00527191
-0.0083726
-0.00510313
-0.0086267
-0.00494162
-0.00885194
-0.00478197
-0.00904729
-0.00462923
-0.00921471
-0.00448042
-0.00935722
-0.00433398
-0.00947421
-0.00419254
-0.0095665
-0.00405431
-0.00963717
-0.00391892
-0.00968366
-0.00378788
-0.00970901
-0.00365777
-0.00971575
-0.00353128
-0.00970568
-0.0034046
-0.00967776
-0.00328117
-0.00963101
-0.00316088
-0.00957256
-0.00303711
-0.00950101
-0.00291583
-0.00941361
-0.00279598
-0.00931476
-0.00267358
-0.00920247
-0.00255195
-0.00907898
-0.00242897
-0.00894118
-0.00230159
-0.0087905
-0.00217402
-0.0086246
-0.0020417
-0.00843853
-0.00191088
-0.00823083
-0.00177542
-0.00799353
-0.00163786
-0.0077219
-0.0014994
-0.00740652
-0.00136162
-0.00703621
-0.00122935
-0.00660782
-0.00110005
-0.000981348
-0.00610848
-0.00294218
-0.00663407
0.00231037
-0.0035361
-0.00644244
-0.00408619
-0.00626464
-0.0045983
-0.00608618
-0.00507232
-0.00591752
-0.00551227
-0.00574947
-0.00591517
-0.00559204
-0.00628371
-0.00543594
-0.00661952
-0.00528638
-0.0069222
-0.00514123
-0.00719699
-0.00499712
-0.00743928
-0.00486084
-0.00765587
-0.00472504
-0.00784241
-0.00459543
-0.00800432
-0.00446732
-0.00814203
-0.00434272
-0.00825563
-0.00422038
-0.00834446
-0.00410371
-0.00841247
-0.0039863
-0.00845851
-0.00387288
-0.00848545
-0.00376093
-0.00849248
-0.00365075
-0.00848208
-0.00354169
-0.00845123
-0.00343545
-0.0084043
-0.0033281
-0.00834418
-0.003221
-0.00826364
-0.00311766
-0.00816926
-0.00301021
-0.00806325
-0.00290199
-0.0079402
-0.00279663
-0.00780435
-0.00268781
-0.00765608
-0.00257724
-0.007493
-0.00246467
-0.00731726
-0.00234976
-0.00712647
-0.00223248
-0.00692258
-0.00211478
-0.00670471
-0.0019933
-0.00647006
-0.0018725
-0.00622001
-0.00174945
-0.00595363
-0.001628
-0.00566892
-0.00151406
-0.00536619
-0.00140279
-0.00130309
-0.00504444
-0.00266965
-0.00606563
0.00210121
-0.00319302
-0.00591907
-0.00368439
-0.00577328
-0.00413902
-0.00563155
-0.00456147
-0.00549507
-0.00494615
-0.00536479
-0.00530093
-0.00523725
-0.0056247
-0.00511217
-0.0059186
-0.00499248
-0.006185
-0.00487484
-0.00642205
-0.00476006
-0.00663225
-0.00465064
-0.00681632
-0.00454097
-0.00697803
-0.00443372
-0.00711425
-0.0043311
-0.00722782
-0.00422914
-0.00731769
-0.00413052
-0.00739065
-0.00403076
-0.00744153
-0.00393542
-0.00747302
-0.00384139
-0.00748694
-0.00374701
-0.00748281
-0.00365487
-0.00746251
-0.00356199
-0.00742577
-0.00347219
-0.00737283
-0.00338104
-0.00730564
-0.0032882
-0.00722576
-0.00319754
-0.00713101
-0.00310495
-0.00702225
-0.00301075
-0.00690198
-0.0029169
-0.00677008
-0.00281971
-0.00662702
-0.0027203
-0.00647096
-0.00262073
-0.00630209
-0.00251863
-0.00612199
-0.00241259
-0.00593027
-0.0023065
-0.00572506
-0.00219851
-0.00550966
-0.0020879
-0.00527788
-0.00198124
-0.00503335
-0.00187252
-0.00477847
-0.00176894
-0.00451027
-0.001671
-0.00158073
-0.00423263
-0.00241466
-0.00556022
0.00190925
-0.00288684
-0.00544689
-0.00332239
-0.00533772
-0.0037272
-0.00522674
-0.00409992
-0.00512236
-0.0044431
-0.00502161
-0.00475678
-0.00492358
-0.00504232
-0.00482663
-0.00530214
-0.00473266
-0.00553447
-0.00464251
-0.00574112
-0.00455341
-0.00592606
-0.0044657
-0.00608602
-0.00438101
-0.00622325
-0.00429649
-0.00633994
-0.0042144
-0.00643561
-0.00413347
-0.00651273
-0.0040534
-0.00656889
-0.0039746
-0.00660792
-0.00389638
-0.00663067
-0.00381865
-0.00663472
-0.00374296
-0.00662527
-0.00366432
-0.00659857
-0.00358869
-0.00655779
-0.00351297
-0.00650523
-0.00343359
-0.00643574
-0.00335769
-0.00635536
-0.00327792
-0.00626356
-0.00319675
-0.00615857
-0.00311574
-0.00604319
-0.00303229
-0.00591569
-0.0029472
-0.00577622
-0.00285977
-0.00562893
-0.00276803
-0.00547166
-0.0026759
-0.00530162
-0.00258262
-0.00512412
-0.002484
-0.0049371
-0.00238552
-0.00473723
-0.00228777
-0.004532
-0.00218646
-0.00431457
-0.00208996
-0.00408872
-0.00199478
-0.00385564
-0.00190408
-0.0018196
-0.00361677
-0.0021857
-0.00511086
0.00173634
-0.00260628
-0.00502631
-0.00299761
-0.00494639
-0.00335697
-0.00486739
-0.00368837
-0.00479096
-0.00399446
-0.00471551
-0.00427394
-0.0046441
-0.00452702
-0.00457355
-0.00475634
-0.00450334
-0.00496213
-0.00443672
-0.00514523
-0.00437031
-0.00530583
-0.00430511
-0.00544632
-0.00424052
-0.00556596
-0.00417684
-0.0056656
-0.00411477
-0.00574753
-0.00405153
-0.00581087
-0.00399006
-0.00585693
-0.00392854
-0.00588908
-0.00386422
-0.0059033
-0.00380443
-0.00590498
-0.00374128
-0.00588872
-0.00368058
-0.00586253
-0.00361488
-0.00582233
-0.00355317
-0.00576755
-0.00348838
-0.00570257
-0.00342266
-0.00562691
-0.00335358
-0.00553772
-0.00328594
-0.00543999
-0.00321348
-0.00533065
-0.00314163
-0.00521222
-0.00306564
-0.00508494
-0.00298705
-0.00494558
-0.00290739
-0.00479963
-0.00282185
-0.00464511
-0.00273714
-0.00448088
-0.00264823
-0.00430869
-0.00255772
-0.00412923
-0.00246723
-0.00394079
-0.00237491
-0.0037454
-0.00228535
-0.00354367
-0.00219651
-0.00333653
-0.00211122
-0.00203269
-0.00312345
-0.00197843
-0.00470381
0.00157138
-0.00235517
-0.00464957
-0.00270346
-0.0045981
-0.00302635
-0.00454449
-0.00332334
-0.00449397
-0.00359367
-0.00444518
-0.00384325
-0.00439453
-0.00406891
-0.00434788
-0.00427118
-0.00430108
-0.00445422
-0.00425367
-0.00461659
-0.00420794
-0.00475918
-0.00416252
-0.00488314
-0.00411656
-0.00498731
-0.00407267
-0.00507458
-0.0040275
-0.00514569
-0.00398042
-0.00519994
-0.00393581
-0.00523927
-0.00388922
-0.00526199
-0.00384151
-0.00527316
-0.00379326
-0.00527001
-0.00374442
-0.00525458
-0.00369601
-0.00522604
-0.00364342
-0.0051863
-0.0035929
-0.00513457
-0.00354011
-0.00507391
-0.00348332
-0.00500085
-0.00342664
-0.00491829
-0.0033685
-0.00482502
-0.00330674
-0.00472459
-0.00324205
-0.00461407
-0.00317616
-0.00449587
-0.00310524
-0.00437133
-0.00303193
-0.00423632
-0.00295686
-0.00409411
-0.00287936
-0.00394481
-0.00279752
-0.00378727
-0.00271526
-0.00362329
-0.00263121
-0.00345484
-0.00254336
-0.00327942
-0.00246076
-0.00309893
-0.00237701
-0.00291239
-0.00229775
-0.00222296
-0.00272212
-0.0017881
-0.00434007
0.00142436
-0.00212727
-0.0043104
-0.00243971
-0.00428566
-0.00272898
-0.00425522
-0.00299379
-0.00422915
-0.00323932
-0.00419966
-0.00345988
-0.00417396
-0.00366062
-0.00414715
-0.00384253
-0.00411916
-0.00400512
-0.00409109
-0.00414897
-0.00406409
-0.00427569
-0.00403581
-0.00438389
-0.00400835
-0.00447706
-0.0039795
-0.00455392
-0.00395063
-0.00461495
-0.00391939
-0.00466188
-0.00388888
-0.00469516
-0.00385594
-0.00471474
-0.00382193
-0.00472242
-0.00378558
-0.00471689
-0.00374996
-0.00470051
-0.00371239
-0.00467233
-0.00367159
-0.00463249
-0.00363275
-0.00458604
-0.00358656
-0.00452582
-0.00354353
-0.00445867
-0.00349379
-0.00438473
-0.00344245
-0.0042996
-0.00339187
-0.00420625
-0.0033354
-0.00410527
-0.00327715
-0.00399572
-0.00321478
-0.00387987
-0.00314779
-0.00375555
-0.00308117
-0.00362689
-0.00300802
-0.00349201
-0.0029324
-0.00334892
-0.00285836
-0.0032022
-0.00277793
-0.00304575
-0.0026998
-0.00288806
-0.00261846
-0.00272492
-0.00254014
-0.00255901
-0.00246366
-0.00239334
-0.00238864
-0.0016192
-0.00401149
0.00129062
-0.00192299
-0.00400662
-0.00220453
-0.00400411
-0.00246184
-0.00399792
-0.00269991
-0.00399108
-0.00291954
-0.00398003
-0.00311842
-0.00397507
-0.0032986
-0.00396697
-0.00346039
-0.00395738
-0.00360498
-0.00394649
-0.00373366
-0.00393541
-0.00384541
-0.00392406
-0.00394339
-0.00391037
-0.00402707
-0.00389582
-0.00409559
-0.00388212
-0.00414935
-0.00386563
-0.00419068
-0.00384755
-0.00421834
-0.00382828
-0.0042341
-0.00380617
-0.00423786
-0.00378182
-0.00423213
-0.00375568
-0.00421385
-0.00373068
-0.00418913
-0.00369632
-0.00415201
-0.00366986
-0.00410681
-0.00363176
-0.00405218
-0.00359816
-0.00398966
-0.00355631
-0.00391858
-0.00351353
-0.00384185
-0.0034686
-0.00375605
-0.00342121
-0.00366406
-0.00336913
-0.00356494
-0.0033139
-0.00345835
-0.00325438
-0.00334788
-0.00319164
-0.00322995
-0.00312595
-0.00310563
-0.00305672
-0.00297597
-0.00298802
-0.00283985
-0.00291405
-0.00270079
-0.00283886
-0.00255812
-0.00276113
-0.00241087
-0.00268739
-0.00225948
-0.00261505
-0.00210669
-0.00254613
-0.00690576
-0.000363006
-0.000713787
-0.00615577
-0.000365556
-0.000384427
-0.00554926
-0.000388173
-0.00021834
-0.00502948
-0.000420058
-9.97233e-05
-0.00456907
-0.000457484
-2.92717e-06
-0.0041565
-0.000498915
8.6348e-05
-0.0037796
-0.000544031
0.000167129
-0.00343096
-0.000593246
0.000244608
-0.00310549
-0.000644884
0.000319411
-0.00280191
-0.000696157
0.00039258
-0.00251412
-0.000752685
0.000464897
-0.00224254
-0.000808515
0.000536931
-0.00198566
-0.00086685
0.000609976
-0.00174078
-0.0009277
0.000682813
-0.0015101
-0.000987908
0.000757227
-0.00129214
-0.00105087
0.000832921
-0.00108585
-0.00111623
0.000909936
-0.000891174
-0.00118335
0.000988676
-0.000709772
-0.00125149
0.00107008
-0.000540203
-0.00132173
0.00115216
-0.000383346
-0.00139565
0.0012388
-0.00023872
-0.00147116
0.00132653
-0.000108219
-0.00154919
0.00141869
1.00428e-05
-0.00163056
0.0015123
0.000112634
-0.00171397
0.00161138
0.000201889
-0.00180117
0.00171192
0.000274287
-0.00189062
0.00181823
0.00033159
-0.00198502
0.00192772
0.000372653
-0.0020827
0.00204164
0.000395561
-0.00218338
0.00216048
0.000400165
-0.00228859
0.00228398
0.000385544
-0.0023978
0.00241242
0.000350186
-0.00251125
0.00254661
0.000294339
-0.00262975
0.0026856
0.000215193
-0.00275229
0.00283144
0.000114052
-0.00288091
0.00298205
-1.24902e-05
-0.00301405
0.00314059
-0.000164431
-0.00315309
0.00330503
-0.00034306
-0.00329781
0.00347644
-0.000549899
-0.00344835
0.00365519
-0.000786734
-0.00360486
0.0038417
-0.00105399
-0.00376892
0.00403617
-0.00393903
0.00423972
-0.00135468
-0.00557591
-0.000895575
-0.00508797
-0.000853495
-0.00464488
-0.000831266
-0.0042417
-0.000823237
-0.00387034
-0.000828847
-0.00352552
-0.000843729
-0.00320366
-0.000865896
-0.00290289
-0.000894018
-0.00262215
-0.000925621
-0.00235478
-0.00096353
-0.00210391
-0.00100355
-0.00186516
-0.00104726
-0.00163954
-0.00109248
-0.00142748
-0.00113976
-0.00122528
-0.00119011
-0.00103484
-0.00124131
-0.000854678
-0.0012964
-0.000686713
-0.00135131
-0.000529025
-0.00140918
-0.000381974
-0.00146878
-0.000246294
-0.00153133
-0.000122543
-0.00159491
-1.00542e-05
-0.00166167
8.9062e-05
-0.00172968
0.000175915
-0.00180082
0.000249305
-0.00187456
0.000309451
-0.00195077
0.00035477
-0.00203034
0.000384103
-0.00211203
0.000397449
-0.00219673
0.000394718
-0.00228586
0.000373838
-0.00237692
0.000335306
-0.00247272
0.000277018
-0.00257146
0.000199357
-0.00267463
9.95783e-05
-0.00278113
-2.14669e-05
-0.00289301
-0.00016592
-0.00300864
-0.000334195
-0.00312954
-0.000528078
-0.00325447
-0.000747567
-0.00338537
-0.000995521
-0.00352096
-0.00366222
-0.00127234
-0.00470901
-0.00123101
-0.00437147
-0.00119103
-0.00403972
-0.00116301
-0.00371993
-0.00114303
-0.00341118
-0.0011376
-0.0031188
-0.00113612
-0.00283962
-0.00114507
-0.00257358
-0.00116007
-0.00232008
-0.00117912
-0.00207864
-0.00120497
-0.00185108
-0.00123111
-0.0016343
-0.00126403
-0.00142831
-0.00129847
-0.00123265
-0.00133541
-0.00104896
-0.0013738
-0.000873237
-0.00141703
-0.000710348
-0.00145929
-0.000557117
-0.00150454
-0.000413209
-0.00155308
-0.000280955
-0.00160103
-0.000159918
-0.00165237
-4.84296e-05
-0.0017064
5.05641e-05
-0.00176067
0.000137553
-0.00181667
0.000213166
-0.00187644
0.000276624
-0.00193802
0.000326146
-0.00200029
0.000362009
-0.0020662
0.000384344
-0.00213437
0.000392518
-0.0022049
0.00038393
-0.00227727
0.000360609
-0.0023536
0.000319901
-0.00243201
0.000261745
-0.0025133
0.00018538
-0.00259826
9.00194e-05
-0.00268577
-2.51511e-05
-0.00277784
-0.000160888
-0.0028729
-0.000319007
-0.00297142
-0.000499554
-0.00307392
-0.000703512
-0.00318141
-0.000931996
-0.00329248
-0.00340748
-0.00118673
-0.00394946
-0.00151417
-0.00366985
-0.00147065
-0.00339674
-0.00143612
-0.00312921
-0.00141056
-0.00287318
-0.00139363
-0.00262336
-0.00138593
-0.00238581
-0.00138262
-0.00215786
-0.00138802
-0.00193943
-0.00139754
-0.00173174
-0.00141266
-0.00153221
-0.00143064
-0.00134289
-0.00145336
-0.00116363
-0.00147772
-0.000993952
-0.00150509
-0.000832174
-0.00153558
-0.000681035
-0.00156817
-0.000537559
-0.00160276
-0.000403105
-0.001639
-0.00027998
-0.00167621
-0.000164386
-0.00171663
-5.89131e-05
-0.00175784
3.5397e-05
-0.00180071
0.00011989
-0.00184516
0.000194428
-0.00189121
0.000257571
-0.00193958
0.000309119
-0.00198957
0.000349305
-0.00204048
0.00037695
-0.00209385
0.000391598
-0.00214902
0.000392729
-0.00220603
0.000380493
-0.00226503
0.000353
-0.0023261
0.000310943
-0.00238995
0.000253053
-0.00245541
0.000178016
-0.00252323
8.70906e-05
-0.00259485
-2.30693e-05
-0.00266768
-0.000151392
-0.00274458
-0.000299072
-0.00282374
-0.000467219
-0.00290578
-0.000657256
-0.00299138
-0.000870213
-0.00307952
-0.00317206
-0.00110563
-0.00337477
-0.00175617
-0.00313694
-0.00170848
-0.00290298
-0.00167008
-0.0026756
-0.00163794
-0.00245296
-0.00161627
-0.00223974
-0.00159915
-0.00203099
-0.00159136
-0.00183241
-0.0015866
-0.00164033
-0.00158962
-0.00145836
-0.00159464
-0.00128409
-0.00160491
-0.00111754
-0.00161991
-0.000958516
-0.00163674
-0.000807287
-0.00165632
-0.000664715
-0.00167815
-0.000530826
-0.00170206
-0.000404844
-0.00172875
-0.00028669
-0.00175715
-0.000177712
-0.00178519
-7.68111e-05
-0.00181753
1.47575e-05
-0.00184941
9.68348e-05
-0.00188278
0.00017004
-0.00191837
0.000234683
-0.00195585
0.000288158
-0.00199305
0.000330141
-0.00203155
0.000362501
-0.00207284
0.000383336
-0.00211468
0.000392905
-0.00215859
0.000389406
-0.00220254
0.000373771
-0.0022494
0.000344759
-0.00229709
0.000301897
-0.00234709
0.000245202
-0.00239872
0.000173516
-0.00245154
8.54428e-05
-0.00250678
-1.816e-05
-0.00256407
-0.000138697
-0.00262404
-0.000277542
-0.00268489
-0.000434317
-0.002749
-0.000610842
-0.00281485
-0.000806044
-0.00288432
-0.00295436
-0.00102373
-0.0029115
-0.00196812
-0.00270262
-0.00191736
-0.0024976
-0.0018751
-0.00229607
-0.00183946
-0.00210244
-0.0018099
-0.00191419
-0.0017874
-0.00173193
-0.00177363
-0.00155614
-0.00176239
-0.00138822
-0.00175754
-0.00122698
-0.00175587
-0.0010713
-0.00176059
-0.000924496
-0.00176672
-0.000784266
-0.00177697
-0.000651802
-0.00178878
-0.000525166
-0.00180479
-0.000405669
-0.00182156
-0.000295057
-0.00183936
-0.000191656
-0.00186055
-9.45318e-05
-0.00188231
-7.62705e-06
-0.00190443
7.2652e-05
-0.00192969
0.000144924
-0.00195506
0.000208967
-0.00198241
0.000262237
-0.00200912
0.00030749
-0.00203831
0.000344349
-0.00206841
0.000369462
-0.00209795
0.000385442
-0.00213066
0.000389752
-0.0021629
0.000383448
-0.00219623
0.000365372
-0.00223132
0.000335793
-0.00226751
0.000293504
-0.0023048
0.000237308
-0.00234252
0.000168736
-0.00238297
8.59781e-05
-0.00242402
-1.21858e-05
-0.00246591
-0.000125756
-0.00251047
-0.000254297
-0.00255635
-0.000400583
-0.00260272
-0.000563148
-0.00265229
-0.000745533
-0.00270194
-0.00275499
-0.000944913
-0.00253338
-0.00215686
-0.00234676
-0.00210398
-0.00216531
-0.00205655
-0.00198835
-0.00201642
-0.00181602
-0.00198223
-0.00164805
-0.00195538
-0.00148632
-0.00193536
-0.00133072
-0.00191799
-0.00118098
-0.00190728
-0.00103721
-0.00189964
-0.000900311
-0.00189749
-0.000769109
-0.00189792
-0.000644856
-0.00190123
-0.000524587
-0.00190905
-0.000413696
-0.00191568
-0.000307948
-0.00192731
-0.000208784
-0.00193852
-0.000117
-0.00195234
-3.28041e-05
-0.00196651
4.56702e-05
-0.00198291
0.000116247
-0.00200027
0.000178893
-0.0020177
0.000233223
-0.00203674
0.000280564
-0.00205646
0.000319066
-0.00207681
0.00034846
-0.00209781
0.000369902
-0.00211939
0.000380837
-0.0021416
0.000381727
-0.00216379
0.000373691
-0.0021882
0.000354853
-0.00221249
0.000324157
-0.00223682
0.000282493
-0.00226314
0.000230125
-0.00229015
0.000163741
-0.00231659
8.53315e-05
-0.00234561
-6.08115e-06
-0.0023745
-0.000111615
-0.00240494
-0.000232295
-0.00243567
-0.000367573
-0.00246744
-0.000519365
-0.00250049
-0.000686336
-0.00253497
-0.00257041
-0.000870913
-0.00221789
-0.0023276
-0.00205102
-0.00227085
-0.00188749
-0.00222008
-0.00173038
-0.00217354
-0.00157718
-0.00213543
-0.0014271
-0.00210545
-0.00128173
-0.00208073
-0.00114263
-0.00205709
-0.00100971
-0.0020402
-0.000881826
-0.00202753
-0.00075908
-0.00202023
-0.000642329
-0.00201467
-0.000529606
-0.00201395
-0.000423835
-0.00201482
-0.000323526
-0.00201599
-0.000230283
-0.00202055
-0.000142674
-0.00202613
-6.18331e-05
-0.00203318
1.41095e-05
-0.00204245
8.31194e-05
-0.00205192
0.000144723
-0.00206187
0.000200648
-0.00207363
0.000248826
-0.00208492
0.000289885
-0.00209752
0.000322836
-0.00210976
0.000347405
-0.00212237
0.000363941
-0.00213593
0.000371514
-0.00214917
0.000371336
-0.00216361
0.000360993
-0.00217785
0.000340698
-0.00219219
0.000312207
-0.00220833
0.000271554
-0.00222249
0.000220524
-0.00223912
0.000158889
-0.00225495
8.4763e-05
-0.00227148
-1.02438e-06
-0.00228871
-9.97984e-05
-0.00230616
-0.000211178
-0.00232429
-0.000336668
-0.00234195
-0.000476383
-0.00236078
-0.00063111
-0.00238024
-0.00240037
-0.000801144
-0.00195066
-0.00248363
-0.0018022
-0.00241932
-0.00165356
-0.00236871
-0.00151351
-0.00231359
-0.00137753
-0.00227141
-0.00124074
-0.00224225
-0.00111062
-0.00221085
-0.000989025
-0.00217868
-0.000868387
-0.00216083
-0.000753387
-0.00214253
-0.000643547
-0.00213007
-0.000537229
-0.00212099
-0.000436584
-0.0021146
-0.00034371
-0.0021077
-0.000254067
-0.00210563
-0.000170536
-0.00210408
-9.20068e-05
-0.00210466
-1.85321e-05
-0.00210665
4.88432e-05
-0.00210982
0.000110654
-0.00211373
0.000165579
-0.0021168
0.00021341
-0.00212146
0.000255528
-0.00212704
0.00029074
-0.00213273
0.000319348
-0.00213837
0.000340732
-0.00214376
0.000353805
-0.002149
0.000359565
-0.00215493
0.00035709
-0.00216113
0.000346574
-0.00216734
0.000326466
-0.00217208
0.000297098
-0.00217896
0.00025919
-0.00218458
0.000210677
-0.00219061
0.000152734
-0.00219701
8.44876e-05
-0.00220324
4.44318e-06
-0.00220867
-8.74068e-05
-0.00221431
-0.000191751
-0.00221995
-0.000307239
-0.00222646
-0.000436004
-0.00223201
-0.000578388
-0.00223786
-0.00224445
-0.000734312
-6.93062e-06
0.00234155
-0.00257773
0.000243112
0.000197283
0.00217019
-0.0023744
0.000372079
0.00201127
-0.00218606
0.00052055
0.00186336
-0.00201183
0.000645692
0.00172611
-0.00185125
0.000749866
0.00159852
-0.0017027
0.00083506
0.00148024
-0.00156543
0.000903922
0.00137029
-0.00143916
0.000958172
0.00126859
-0.00132284
0.000999304
0.00117418
-0.00121531
0.00102914
0.00108647
-0.00111631
0.00104922
0.00100522
-0.0010253
0.00106043
0.000930221
-0.000941432
0.0010647
0.000860079
-0.000864355
0.00106237
0.000795541
-0.000793207
0.00105485
0.000735666
-0.000728152
0.00104242
0.000680191
-0.000667761
0.00102653
0.000628323
-0.000612431
0.00100738
0.000580854
-0.000561699
0.000985328
0.000536595
-0.000514545
0.000961667
0.00049562
-0.000471958
0.00093658
0.000457067
-0.00043198
0.000910571
0.000422069
-0.00039606
0.000883588
0.000389349
-0.000362366
0.000856499
0.000359
-0.000331912
0.00082936
0.000331084
-0.000303945
0.000802384
0.000305282
-0.000278307
0.000776625
0.00028115
-0.00025539
0.000751131
0.00025949
-0.000233997
0.000726892
0.000239165
-0.000214926
0.000703245
0.000221317
-0.000197671
0.000680941
0.000204427
-0.000182123
0.000659289
0.000189773
-0.00016812
0.000638368
0.000176695
-0.000155774
0.000617882
0.000165609
-0.000145124
0.000596386
0.00015711
-0.000135613
0.000572721
0.00015162
-0.000127956
0.000542949
0.000151387
-0.000121615
0.00050057
0.00015991
-0.000117531
0.000433594
0.000184847
-0.000117869
0.000315492
0.000244741
-0.000126641
8.7502e-05
0.000384487
-0.000156496
0.000723693
-0.000409582
-0.000226609
5.03722e-06
0.00213075
0.000205757
0.000188034
0.00198719
0.000345697
0.00185361
0.0004809
0.00172816
0.0005953
0.00161171
0.000691432
0.00150239
0.000771114
0.00140055
0.000835785
0.00130562
0.000887528
0.00121684
0.00092752
0.00113419
0.000957176
0.00105681
0.000977613
0.000984783
0.00099024
0.000917594
0.000995707
0.000854611
0.000995101
0.000796147
0.000989673
0.000741094
0.000979742
0.000690121
0.000966079
0.000641986
0.000949156
0.000597776
0.000930222
0.000555529
0.000908872
0.00051697
0.000886027
0.000479912
0.000861949
0.000446146
0.000837212
0.000414086
0.00081226
0.000383951
0.000786929
0.000356415
0.000762202
0.000330009
0.00073747
0.000305882
0.000713757
0.000283204
0.000690203
0.000262719
0.000667684
0.000243836
0.000645473
0.000226638
0.000623332
0.000211914
0.000600781
0.000199246
0.000576077
0.000190313
0.000547719
0.000185468
0.000511723
0.000187616
0.000462514
0.000200597
0.000390931
0.000231493
0.000281346
0.000294433
0.000110013
0.000416074
-0.000155865
0.000650365
0.00108318
-0.000515347
1.26568e-05
0.00194284
0.000175253
0.000176386
0.00182346
0.000318411
0.00171158
0.000440366
0.0016062
0.00054462
0.00150745
0.000632342
0.00141467
0.000705062
0.00132783
0.000764937
0.00124575
0.000813158
0.00116862
0.000850608
0.00109673
0.000878635
0.00102879
0.000898548
0.000964871
0.000911061
0.00090508
0.000916987
0.000848685
0.000917898
0.000795237
0.000913363
0.000745629
0.000905027
0.000698457
0.000892933
0.00065408
0.00087847
0.00061224
0.000860781
0.000573217
0.000841739
0.000536012
0.000820952
0.000500699
0.000799147
0.000467952
0.000776333
0.0004369
0.000752808
0.000407476
0.000729565
0.000379658
0.000705964
0.00035361
0.000682694
0.000329151
0.000659219
0.000306679
0.000636536
0.000285403
0.000613659
0.000266713
0.000590556
0.000249741
0.00056655
0.00023592
0.000540317
0.000225479
0.00051071
0.00021992
0.000474307
0.000221871
0.000427496
0.000234427
0.000364234
0.000263859
0.000275398
0.000320329
0.000148924
0.000420907
-3.25817e-05
0.00059758
-0.000282666
0.000900449
0.00137824
-0.000577731
1.80001e-05
0.00177538
0.000149462
0.000164885
0.00167657
0.000292737
0.00158373
0.000402822
0.00149612
0.000497225
0.00141305
0.000577055
0.00133484
0.00064419
0.0012607
0.000699411
0.00119053
0.000743973
0.00112406
0.000779179
0.00106153
0.000805771
0.00100219
0.000824784
0.000945858
0.000837069
0.000892795
0.000843702
0.000842053
0.000844454
0.000794485
0.000841298
0.000748784
0.000833964
0.000705791
0.000823371
0.000664673
0.000809803
0.000625808
0.000794135
0.000588885
0.00077667
0.000553477
0.000757158
0.000520211
0.000736659
0.000488451
0.000715337
0.000458222
0.000693416
0.000429397
0.000671047
0.000402027
0.00064836
0.000376298
0.000625428
0.000352083
0.000602797
0.00032931
0.000579613
0.000308586
0.000556441
0.000289884
0.000532106
0.000274076
0.000506436
0.000261589
0.000477749
0.000254166
0.000444278
0.000253391
0.000403578
0.000262572
0.000351576
0.000286429
0.000282969
0.000332466
0.000190062
0.000413236
6.22699e-05
0.000548699
-0.000110835
0.000770684
-0.000337864
0.00112748
0.00164265
-0.000602277
2.14679e-05
0.00162474
0.000129178
0.000153076
0.00154497
0.000268066
0.00146874
0.000367902
0.00139628
0.000453464
0.00132749
0.000526459
0.00126184
0.000587775
0.00119938
0.000638487
0.00113981
0.000679929
0.00108262
0.000712849
0.00102861
0.00073775
0.000977294
0.000755677
0.00092793
0.000767758
0.000880714
0.000773754
0.000836057
0.000775497
0.000792741
0.00077263
0.000751651
0.000766412
0.00071201
0.000756562
0.000674523
0.000744477
0.000637893
0.000729801
0.000603562
0.000713092
0.000570185
0.00069527
0.000538033
0.000675997
0.000507723
0.000656175
0.000478044
0.000635253
0.00045032
0.000613857
0.000423423
0.000592274
0.000397881
0.000570552
0.000373805
0.000548414
0.000351448
0.000525707
0.000331293
0.000502409
0.000313182
0.000477658
0.000298827
0.000450895
0.000288353
0.000421087
0.000283973
0.000386169
0.000288309
0.000343552
0.000305189
0.000290209
0.000339772
0.000220957
0.000401718
0.000129166
0.000505027
7.00644e-06
0.000670859
-0.000154684
0.000932374
-0.000361138
0.00133393
0.00188428
-0.000602764
2.3498e-05
0.00149083
0.00011041
0.00014164
0.00142683
0.000245233
0.00136515
0.000335335
0.00130618
0.000413264
0.00124956
0.000479587
0.00119552
0.000535599
0.00114337
0.000582272
0.00109314
0.000620276
0.00104462
0.00065084
0.000998044
0.000674377
0.000953757
0.000691544
0.000910762
0.000702537
0.000869722
0.000708713
0.00082988
0.00071023
0.000791224
0.000708303
0.000753578
0.000702273
0.000718041
0.000693904
0.000682891
0.000682536
0.000649261
0.000668969
0.000617128
0.000653644
0.000585511
0.000636896
0.000554781
0.000619305
0.000525314
0.000600077
0.000497273
0.000580482
0.000469914
0.000560399
0.000443506
0.000539703
0.000418577
0.00051867
0.000394838
0.000497077
0.000373041
0.000475583
0.000352787
0.000452746
0.000336019
0.000428602
0.000322971
0.00040219
0.000314765
0.000372093
0.00031407
0.000337181
0.000323221
0.000294736
0.000347634
0.000241783
0.000392725
0.000173826
0.000469675
8.61278e-05
0.000592725
-2.87732e-05
0.00078576
-0.000178951
0.00108255
-0.000368457
0.00152344
0.00210378
-0.000587959
2.44742e-05
0.00137067
9.56897e-05
0.000130815
0.00132048
0.000224228
0.00127173
0.000305783
0.00122463
0.000376467
0.00117888
0.000436951
0.00113504
0.000487879
0.00109244
0.000530369
0.00105065
0.000565543
0.00100944
0.000593509
0.000970078
0.000615776
0.00093149
0.000631756
0.000894783
0.000642436
0.000859042
0.000648397
0.00082392
0.000650234
0.000789387
0.000647991
0.000755821
0.00064351
0.000722521
0.000635174
0.000691228
0.00062475
0.000659685
0.000612658
0.000629221
0.00059844
0.000599728
0.000582552
0.00057067
0.000565633
0.000542233
0.00054799
0.000514916
0.000529844
0.00048806
0.000510591
0.00046276
0.000490951
0.000438217
0.000471003
0.000414787
0.00045095
0.000393094
0.00043004
0.000373697
0.000408145
0.000357914
0.000385022
0.000346094
0.000359408
0.000340379
0.000330434
0.000343045
0.000296131
0.000357524
0.000255012
0.000388753
0.000203507
0.00044423
0.000137917
0.000535265
5.39292e-05
0.000676713
-5.36849e-05
0.000893374
-0.000191525
0.00122039
-0.000364811
0.00169673
0.00230704
-0.000568073
2.49527e-05
0.00126253
8.31796e-05
0.000120136
0.0012253
0.000204423
0.00118745
0.000278302
0.00115075
0.000342655
0.00111452
0.000397693
0.00108
0.000444121
0.00104601
0.000482847
0.00101193
0.000514946
0.000977344
0.000540947
0.000944077
0.000561067
0.00091137
0.000576257
0.000879593
0.000586626
0.000848673
0.000592165
0.000818381
0.000593553
0.000787999
0.000592216
0.000757159
0.000587553
0.000727183
0.000580339
0.000698442
0.000571196
0.000668827
0.000559671
0.000640746
0.000546768
0.000612631
0.000531749
0.000585689
0.000516083
0.000557899
0.000499728
0.000531272
0.000482417
0.000505371
0.000464538
0.000480638
0.00044627
0.000456484
0.000427313
0.000433744
0.000408084
0.000412322
0.000388375
0.000393406
0.000368128
0.000378161
0.000346132
0.000368091
0.000321767
0.000364744
0.000294175
0.000370636
0.000261896
0.000389803
0.00022285
0.0004278
0.000174185
0.000492894
0.000111708
0.000597742
3.17012e-05
0.00075672
-6.83639e-05
0.000993439
-0.000195278
0.00134731
-0.000355897
0.00185735
0.00249628
-0.000545132
2.39963e-05
7.15122e-05
0.00116702
0.000110052
0.00113925
0.00018597
0.00111153
0.000253063
0.00108365
0.000311876
0.00105571
0.000362506
0.00102937
0.00040436
0.00100416
0.000439574
0.000976711
0.000469014
0.000947905
0.000493249
0.000919841
0.000512394
0.000892226
0.000526915
0.000865072
0.000536998
0.00083859
0.00054233
0.000813049
0.000543111
0.000787217
0.000541621
0.000758649
0.000537927
0.000730877
0.000530879
0.000705491
0.000522235
0.000677471
0.000512106
0.000650875
0.000500131
0.000624606
0.000486424
0.000599395
0.000471654
0.000572669
0.000456221
0.000546705
0.000440015
0.000521576
0.000423688
0.000496966
0.000406153
0.000474019
0.000387964
0.000451933
0.000369764
0.000430522
0.000351234
0.000411936
0.000332388
0.000397008
0.000312018
0.00038846
0.000288858
0.000387905