/*--------------------------------*- C++ -*----------------------------------*\
| =========                 |                                                 |
| \\      /  F ield         | OpenFOAM: The Open Source CFD Toolbox           |
|  \\    /   O peration     | Version:  2.3.0                                 |
|   \\  /    A nd           | Web:      www.OpenFOAM.org                      |
|    \\/     M anipulation  |                                                 |
\*---------------------------------------------------------------------------*/
FoamFile
{
    version     2.0;
    format      ascii;
    class       volScalarField;
    location    "9000";
    object      p;
}
// * * * * * * * * * * * * * * * * * * * * * * * * * * * * * * * * * * * * * //

dimensions      [0 2 -2 0 0 0 0];

internalField   nonuniform List<scalar> 
6748
(
6.48146e-05
-0.266804
0.295986
1.62505
3.85754
7.30233
12.445
20.1865
31.1367
43.1403
53.2608
71.9318
19.198
22.0859
26.2175
31.9527
39.5302
49.0724
60.592
74.0284
89.1361
105.454
122.685
140.368
34.3157
39.4414
45.1375
51.6858
58.9854
66.9903
75.6138
84.7343
94.1734
103.73
113.241
122.527
45.4513
51.1877
57.1566
63.821
71.043
78.7395
86.7939
95.0741
103.42
111.666
119.645
127.203
53.845
59.4965
65.067
71.0404
77.3017
83.8032
90.4795
97.2581
104.048
110.756
117.286
123.548
60.4314
65.627
70.7062
76.1016
81.7122
87.5003
93.4151
99.3996
105.388
111.311
117.091
122.661
65.4143
70.0969
74.6443
79.4607
84.4641
89.6131
94.8778
100.213
105.576
110.908
116.145
121.228
69.1069
73.3556
77.4547
81.8184
86.3509
91.0162
95.8102
100.669
105.579
110.493
115.34
120.062
72.105
75.9475
79.732
83.7547
87.8101
92.09
96.5961
101.118
105.674
110.226
114.76
119.227
74.6508
78.4894
82.0861
85.3652
89.3747
93.2995
97.5198
101.718
106.01
110.275
114.623
118.996
123.758
151.171
169.809
185.013
197.521
207.032
213.394
216.637
216.988
214.888
211.2
206.898
156.269
169.145
179.708
188.151
194.543
198.967
201.598
202.679
202.455
201.141
199.174
197.031
131.59
140.599
149.38
157.658
165.205
171.829
177.368
181.702
184.748
186.489
187.239
187.406
134.344
141.201
147.764
153.905
159.506
164.48
168.76
172.308
175.085
177.061
178.48
179.988
129.574
135.452
141.154
146.581
151.64
156.258
160.371
163.933
166.892
169.211
171.069
172.631
128.019
133.211
138.212
142.959
147.386
151.448
155.107
158.341
161.124
163.429
165.365
167.36
126.14
130.893
135.458
139.783
143.819
147.531
150.892
153.891
156.515
158.743
160.694
162.442
124.638
129.069
133.317
137.335
141.076
144.511
147.619
150.411
152.884
154.999
156.9
158.59
123.582
127.77
131.766
135.536
139.03
142.233
145.129
147.763
150.095
151.961
153.64
155.331
123.283
127.264
131.009
134.505
137.696
140.665
143.38
145.851
148.043
149.485
150.933
152.437
6.6491
5.43361
4.14737
2.97505
2.057
1.53325
1.48948
1.92677
2.84706
4.28474
6.66886
12.1588
10.0543
8.75919
7.59475
6.64253
6.02478
5.86501
6.31575
7.55921
9.77733
13.1357
17.6206
22.8447
13.4106
12.3326
11.3956
10.7316
10.491
10.7754
11.6755
13.2919
15.7097
18.9421
22.8648
27.1024
16.7385
15.9159
15.2524
14.8951
14.9487
15.4746
16.5312
18.173
20.42
23.2354
26.4941
29.9571
19.9457
19.3049
18.8519
18.7042
18.9257
19.5617
20.6551
22.2369
24.3142
26.8514
29.7515
32.8295
22.8592
22.371
22.086
22.0831
22.398
23.071
24.1409
25.635
27.5596
29.8908
32.5526
35.3943
25.3542
25.1338
25.0111
25.0896
25.4448
26.1265
27.1686
28.5932
30.403
32.5946
35.1039
37.7837
27.7058
27.6647
27.6076
27.7217
28.0767
28.7245
29.7024
31.0329
32.6898
34.7138
37.0792
39.6132
29.8792
29.9232
29.9113
30.0921
30.4823
31.1645
32.1991
33.6313
35.325
37.3843
39.822
42.2207
31.9448
31.4588
30.8276
30.5907
30.295
30.3228
30.7841
31.8895
33.2134
34.4848
37.2652
40.4835
23.7681
29.2913
32.9559
36.5819
40.2173
43.7651
47.2384
50.6934
54.1853
57.7453
61.3558
64.9785
28.4372
31.987
34.3347
36.8814
39.7306
42.8375
46.1187
49.4986
52.9313
56.4061
59.8784
63.2089
31.2455
35.1824
37.9306
40.2777
42.6823
45.2148
47.8687
50.6312
53.4893
56.4485
59.4713
62.3687
33.4315
36.9843
39.7954
42.0993
44.4157
46.7759
49.1822
51.6389
54.1485
56.7268
59.4177
62.1108
35.9184
38.9991
41.6235
43.7637
45.9152
48.0962
50.3098
52.5554
54.8319
57.1362
59.5212
62.083
38.2573
41.0756
43.5738
45.607
47.6089
49.6102
51.6206
53.6449
55.6876
57.7407
59.8342
62.0967
40.4741
43.1023
45.4757
47.4081
49.2724
51.1138
52.9432
54.7683
56.597
58.4251
60.2682
62.2295
42.1886
44.7668
47.1579
49.0425
50.7796
52.4747
54.1481
55.8052
57.4561
59.1001
60.7532
62.4911
44.5771
46.9837
49.194
50.7521
52.1976
53.7002
55.2231
56.7322
58.2345
59.7231
61.2243
62.7848
43.3152
46.6633
50.4556
52.1117
53.3398
54.7491
56.2061
57.5792
58.9459
60.2989
61.6935
63.1501
-205.35
-188.166
-168.322
-152.059
-135.169
-116.691
-97.9449
-79.7939
-62.8191
-47.8305
-35.4739
-25.8101
-115.548
-115.34
-113.917
-112.198
-110.64
-107.874
-102.923
-95.507
-85.5477
-73.4128
-60.1457
-47.5479
-121.238
-121.082
-120.998
-120.29
-118.393
-115.288
-110.976
-105.011
-97.0565
-87.1036
-75.3416
-63.213
-111.511
-111.45
-111.275
-110.96
-110.401
-109.384
-107.657
-104.968
-100.672
-94.0978
-84.883
-74.5924
-110.03
-110.001
-109.951
-109.809
-109.494
-108.862
-107.681
-105.734
-102.696
-97.9823
-90.8461
-82.3849
-106.941
-106.914
-106.854
-106.734
-106.519
-106.144
-105.491
-104.371
-102.475
-99.3178
-94.043
-86.734
-105.171
-105.148
-105.104
-105.014
-104.851
-104.569
-104.093
-103.288
-101.966
-99.8019
-96.1525
-91.4842
-103.506
-103.484
-103.44
-103.357
-103.218
-102.993
-102.634
-102.05
-101.103
-99.5756
-96.9481
-93.178
-102.265
-102.245
-102.206
-102.133
-102.014
-101.825
-101.532
-101.075
-100.348
-99.1975
-97.2849
-95.9626
-101.229
-101.212
-101.176
-101.112
-101.01
-100.851
-100.609
-100.243
-99.675
-98.7838
-97.3051
-96.1709
-100.365
-100.351
-100.32
-100.265
-100.178
-100.043
-99.8395
-99.5374
-99.0745
-98.3426
-97.1287
-96.3606
-99.588
-99.5769
-99.5517
-99.5075
-99.438
-99.3298
-99.1669
-98.9248
-98.5526
-97.9569
-97.0023
-96.5856
-98.8041
-98.7967
-98.7786
-98.7467
-98.6965
-98.618
-98.4985
-98.3189
-98.0405
-97.591
-96.8347
-96.0775
-97.9374
-97.9321
-97.9179
-97.8926
-97.8525
-97.7886
-97.6887
-97.5337
-97.2869
-96.884
-96.1572
-94.6631
-96.9868
-96.983
-96.9723
-96.9532
-96.9225
-96.8727
-96.7933
-96.6679
-96.4645
-96.1223
-95.5108
-94.6701
-95.9374
-95.9348
-95.9267
-95.912
-95.8878
-95.8471
-95.7795
-95.6679
-95.4828
-95.1824
-94.6539
-93.2565
-94.7959
-94.7948
-94.7901
-94.7814
-94.7664
-94.7397
-94.6927
-94.612
-94.4707
-94.2191
-93.7724
-93.2336
-93.5471
-93.5471
-93.5447
-93.5398
-93.5305
-93.5122
-93.4765
-93.4093
-93.2837
-93.0607
-92.6544
-91.4792
-92.1957
-92.1968
-92.1973
-92.1975
-92.1959
-92.1896
-92.1728
-92.136
-92.0555
-91.8782
-91.5339
-91.3364
-90.7394
-90.7401
-90.7409
-90.7412
-90.7395
-90.7326
-90.7142
-90.6731
-90.5834
-90.3976
-90.0341
-89.1597
-89.2224
-89.2226
-89.2242
-89.2257
-89.2258
-89.2216
-89.2078
-89.175
-89.1022
-88.9479
-88.6557
-88.1911
-87.656
-87.6559
-87.6574
-87.6589
-87.6588
-87.6541
-87.6394
-87.6051
-87.531
-87.3805
-87.1068
-86.5579
-86.066
-86.0661
-86.0682
-86.0706
-86.0717
-86.069
-86.0574
-86.0283
-85.964
-85.8295
-85.566
-85.0676
-84.4589
-84.4591
-84.4616
-84.4649
-84.4676
-84.4674
-84.4601
-84.4377
-84.3847
-84.2734
-84.0706
-83.6359
-82.8365
-82.837
-82.84
-82.8442
-82.848
-82.8497
-82.8456
-82.8284
-82.7841
-82.6843
-82.4921
-82.1301
-81.2068
-81.2073
-81.2103
-81.2146
-81.2188
-81.2213
-81.2186
-81.2045
-81.1664
-81.0772
-80.8879
-80.4837
-79.5748
-79.5755
-79.5788
-79.5833
-79.5876
-79.5903
-79.5882
-79.5756
-79.5412
-79.4589
-79.2795
-78.9176
-77.9503
-77.951
-77.9541
-77.9587
-77.9633
-77.9663
-77.9649
-77.9537
-77.9223
-77.8461
-77.6788
-77.3606
-76.3304
-76.3311
-76.3347
-76.3398
-76.3452
-76.3495
-76.3502
-76.3428
-76.3195
-76.2621
-76.133
-75.8778
-74.7193
-74.7201
-74.7236
-74.7286
-74.7337
-74.7373
-74.7363
-74.7256
-74.6959
-74.6298
-74.4843
-74.0285
-73.1244
-73.1253
-73.1293
-73.1353
-73.1423
-73.1489
-73.1529
-73.1496
-73.1308
-73.0774
-72.9665
-72.9116
-71.531
-71.5323
-71.5372
-71.5448
-71.5541
-71.5645
-71.5737
-71.5779
-71.57
-71.5393
-71.4623
-71.1468
-69.9314
-69.9329
-69.9386
-69.9476
-69.9594
-69.9737
-69.9893
-70.0039
-70.0131
-70.0031
-69.9448
-69.9024
-68.3192
-68.3209
-68.3266
-68.3358
-68.3474
-68.3612
-68.3757
-68.3881
-68.3928
-68.3751
-68.2904
-67.9913
-66.7077
-66.7094
-66.7154
-66.7251
-66.7377
-66.7529
-66.7693
-66.7842
-66.7912
-66.7755
-66.7142
-66.6068
-65.0894
-65.0914
-65.0982
-65.1091
-65.1236
-65.1417
-65.1626
-65.1845
-65.203
-65.2087
-65.1947
-65.2329
-63.4645
-63.4665
-63.4734
-63.4846
-63.4994
-63.518
-63.5394
-63.5615
-63.5799
-63.587
-63.5545
-63.233
-61.8339
-61.8362
-61.8437
-61.8559
-61.8723
-61.8932
-61.9185
-61.9471
-61.9757
-61.9914
-61.9752
-62.101
-60.1962
-60.1986
-60.2064
-60.2189
-60.2355
-60.2566
-60.2818
-60.3096
-60.3365
-60.3548
-60.3405
-60.1249
-58.5568
-58.5593
-58.5674
-58.5806
-58.5984
-58.6213
-58.6494
-58.6823
-58.7173
-58.7469
-58.7652
-58.8555
-56.9103
-56.9131
-56.9213
-56.9347
-56.9526
-56.9756
-57.0034
-57.0355
-57.0692
-57.098
-57.1131
-57.0914
-55.2647
-55.2674
-55.2756
-55.2892
-55.3073
-55.3304
-55.3583
-55.3903
-55.4241
-55.4547
-55.4737
-55.4679
-53.6206
-53.6235
-53.632
-53.6459
-53.6643
-53.6875
-53.7152
-53.7462
-53.778
-53.8054
-53.8174
-53.7702
-51.9834
-51.9863
-51.9952
-52.0098
-52.0294
-52.0544
-52.0845
-52.1185
-52.1537
-52.183
-52.1865
-52.1457
-50.3442
-50.3475
-50.3572
-50.3735
-50.3955
-50.4242
-50.4596
-50.5016
-50.5488
-50.5948
-50.6165
-50.6242
-48.6958
-48.6994
-48.7099
-48.7274
-48.7514
-48.7828
-48.8221
-48.8692
-48.9223
-48.9773
-49.0315
-49.0382
-47.0358
-47.0395
-47.0505
-47.0691
-47.0947
-47.1285
-47.1716
-47.2244
-47.286
-47.3523
-47.4208
-47.5667
-45.3624
-45.3663
-45.3776
-45.3966
-45.4226
-45.4568
-45.5001
-45.5527
-45.6135
-45.6798
-45.7406
-45.6822
-43.684
-43.6881
-43.6997
-43.7192
-43.746
-43.7812
-43.8261
-43.8809
-43.9442
-44.01
-44.0727
-44.2048
-41.9995
-42.0038
-42.0159
-42.036
-42.0635
-42.0997
-42.1458
-42.2027
-42.27
-42.3444
-42.4154
-42.4755
-40.3147
-40.3191
-40.3312
-40.3515
-40.3793
-40.4158
-40.4621
-40.5187
-40.5852
-40.6585
-40.7184
-40.6508
-38.626
-38.6312
-38.6445
-38.6664
-38.6965
-38.7361
-38.7865
-38.8492
-38.924
-39.0077
-39.1007
-39.2607
-36.9294
-36.9348
-36.9488
-36.972
-37.0037
-37.0453
-37.0986
-37.165
-37.2456
-37.3413
-37.4634
-37.6894
-35.2269
-35.2324
-35.2467
-35.2704
-35.3028
-35.3451
-35.3981
-35.4621
-35.5363
-35.621
-35.7031
-35.5523
-33.5143
-33.521
-33.5374
-33.5645
-33.6016
-33.6506
-33.7132
-33.791
-33.8852
-33.9939
-34.1147
-34.3923
-31.7777
-31.7848
-31.8026
-31.8319
-31.8726
-31.9264
-31.9957
-32.0821
-32.1876
-32.3151
-32.4587
-32.5204
-30.0103
-30.0182
-30.0374
-30.0692
-30.113
-30.1711
-30.2458
-30.3393
-30.4535
-30.5894
-30.7353
-30.8534
-28.213
-28.2216
-28.2424
-28.2766
-28.3237
-28.3859
-28.4657
-28.5649
-28.6853
-28.8261
-28.9694
-29.0666
-26.3849
-26.3944
-26.4166
-26.4539
-26.5056
-26.5741
-26.6619
-26.7713
-26.9042
-27.0594
-27.2132
-27.3216
-24.5113
-24.5227
-24.5486
-24.5908
-24.6495
-24.7272
-24.8269
-24.9509
-25.1012
-25.2764
-25.4502
-25.5501
-22.5894
-22.6024
-22.6317
-22.6797
-22.7463
-22.8354
-22.9504
-23.0947
-23.2706
-23.4778
-23.71
-24.0007
-20.6021
-20.6168
-20.6496
-20.7034
-20.7784
-20.8787
-21.0086
-21.1717
-21.3702
-21.603
-21.8566
-22.0921
-18.5432
-18.5602
-18.5973
-18.658
-18.7425
-18.8558
-19.0029
-19.1879
-19.4134
-19.6776
-19.9613
-20.2548
-16.4072
-16.4271
-16.4695
-16.5383
-16.6343
-16.7628
-16.9291
-17.1377
-17.3906
-17.6855
-18.0079
-18.2852
-14.1877
-14.2111
-14.2602
-14.3397
-14.4506
-14.5992
-14.7918
-15.0339
-15.3282
-15.6712
-16.0446
-16.4563
-11.8704
-11.8983
-11.9554
-12.0476
-12.1764
-12.3489
-12.5717
-12.8503
-13.185
-13.5668
-13.9649
-14.3187
-9.44049
-9.47505
-9.54471
-9.65536
-9.80955
-10.0159
-10.2824
-10.6147
-11.0124
-11.4599
-11.9144
-12.4505
-6.89257
-6.93487
-7.01929
-7.15272
-7.33866
-7.58785
-7.90882
-8.30631
-8.7759
-9.2983
-9.83617
-10.3119
-4.20766
-4.26033
-4.36503
-4.52906
-4.75868
-5.06633
-5.46241
-5.9507
-6.52314
-7.15321
-7.81198
-8.55564
-1.34499
-1.4124
-1.54762
-1.75572
-2.04552
-2.43146
-2.92292
-3.51921
-4.20119
-4.92326
-5.61742
-6.18805
1.64721
1.56304
1.38437
1.11177
0.734287
0.236694
-0.386938
-1.12635
-1.94609
-2.7768
-3.52346
-4.16271
4.52349
4.42887
4.20864
3.86153
3.37813
2.74673
1.97209
1.08331
0.142129
-0.756847
-1.51107
-2.0582
7.4748
7.31549
6.99796
6.50008
5.82677
4.98593
4.0073
2.95093
1.91097
1.00637
0.350382
-0.0170915
11.1469
10.6705
10.0454
9.17678
8.07666
6.80152
5.46356
4.19669
3.13803
2.40137
2.05716
2.11509
11.5247
8.82084
6.74326
5.34871
4.42669
3.76363
3.28345
2.96532
2.84386
2.97613
3.41564
4.17654
378.898
372.361
361.731
347.095
329.554
310.111
290.118
270.982
253.792
239.012
226.786
217.048
276.512
277.591
276.917
275.243
272.79
269.271
264.317
257.715
249.535
240.15
230.374
221.245
258.39
259.128
258.873
258.228
256.967
254.927
251.974
247.991
242.865
236.528
229.205
221.535
260.288
259.811
258.58
256.989
254.899
252.219
248.857
244.743
239.826
234.07
227.562
220.638
248.029
247.683
247.102
246.282
245.104
243.482
241.298
238.428
234.754
230.188
224.775
218.835
236.489
236.348
236.143
235.763
235.157
234.245
232.923
231.063
228.526
225.17
220.947
216.131
229.082
228.98
228.809
228.487
227.998
227.28
226.254
224.818
222.857
220.23
216.825
212.819
222.809
222.726
222.577
222.305
221.902
221.316
220.484
219.324
217.739
215.608
212.811
209.345
216.852
216.794
216.683
216.479
216.174
215.724
215.078
214.165
212.901
211.184
208.901
205.952
211.5
211.458
211.373
211.215
210.974
210.618
210.101
209.365
208.333
206.91
204.99
202.376
206.744
206.711
206.641
206.509
206.309
206.013
205.583
204.972
204.114
202.925
201.32
199.274
202.407
202.381
202.322
202.211
202.043
201.793
201.431
200.916
200.192
199.184
197.794
195.987
198.398
198.377
198.327
198.234
198.091
197.878
197.569
197.128
196.507
195.64
194.427
192.779
194.676
194.661
194.619
194.539
194.416
194.233
193.966
193.585
193.046
192.293
191.24
189.771
191.209
191.199
191.164
191.095
190.988
190.828
190.595
190.262
189.791
189.132
188.211
186.899
187.964
187.959
187.928
187.867
187.773
187.633
187.428
187.135
186.721
186.143
185.344
184.196
184.909
184.906
184.879
184.825
184.742
184.618
184.436
184.177
183.808
183.29
182.576
181.555
182.02
182.018
181.994
181.947
181.873
181.763
181.602
181.372
181.046
180.59
179.97
179.152
179.277
179.276
179.255
179.213
179.147
179.048
178.904
178.698
178.407
177.997
177.43
176.692
176.661
176.66
176.641
176.604
176.544
176.455
176.325
176.139
175.877
175.507
174.993
174.34
174.158
174.157
174.14
174.106
174.052
173.971
173.853
173.684
173.445
173.11
172.639
172.035
171.754
171.753
171.738
171.708
171.659
171.585
171.477
171.323
171.105
170.8
170.375
169.837
169.44
169.44
169.427
169.4
169.354
169.287
169.188
169.046
168.846
168.565
168.176
167.717
167.206
167.206
167.196
167.172
167.13
167.068
166.976
166.846
166.66
166.399
166.03
165.628
165.05
165.05
165.041
165.019
164.981
164.923
164.838
164.717
164.545
164.303
163.956
163.572
162.96
162.961
162.954
162.934
162.899
162.845
162.767
162.655
162.496
162.272
161.95
161.626
160.937
160.938
160.93
160.912
160.879
160.83
160.757
160.654
160.508
160.305
160.009
159.721
158.964
158.966
158.96
158.943
158.914
158.868
158.801
158.705
158.571
158.384
158.11
157.823
157.046
157.047
157.041
157.025
156.998
156.955
156.892
156.802
156.676
156.499
156.239
155.947
155.172
155.172
155.166
155.152
155.126
155.086
155.027
154.943
154.825
154.661
154.423
154.165
153.337
153.338
153.332
153.32
153.296
153.258
153.204
153.126
153.016
152.865
152.647
152.416
151.542
151.543
151.537
151.525
151.502
151.467
151.416
151.343
151.24
151.098
150.893
150.675
149.777
149.777
149.773
149.761
149.74
149.707
149.659
149.59
149.493
149.359
149.163
148.96
148.044
148.044
148.039
148.029
148.009
147.977
147.932
147.867
147.775
147.648
147.464
147.28
146.335
146.335
146.331
146.322
146.303
146.274
146.231
146.17
146.083
145.964
145.788
145.617
144.653
144.653
144.649
144.64
144.623
144.595
144.555
144.498
144.417
144.307
144.145
144.006
142.989
142.989
142.986
142.979
142.963
142.937
142.9
142.846
142.772
142.671
142.522
142.4
141.346
141.346
141.343
141.336
141.322
141.297
141.262
141.211
141.141
141.045
140.902
140.787
139.716
139.717
139.714
139.708
139.695
139.672
139.638
139.59
139.523
139.431
139.295
139.204
138.1
138.101
138.098
138.093
138.081
138.059
138.027
137.982
137.919
137.833
137.702
137.633
136.499
136.499
136.497
136.492
136.48
136.459
136.429
136.386
136.327
136.246
136.116
136.04
134.904
134.905
134.903
134.898
134.888
134.868
134.84
134.8
134.745
134.672
134.555
134.479
133.319
133.319
133.317
133.313
133.302
133.285
133.258
133.221
133.17
133.104
133
132.921
131.735
131.735
131.733
131.73
131.72
131.704
131.679
131.644
131.596
131.533
131.438
131.362
130.155
130.156
130.153
130.149
130.14
130.124
130.1
130.067
130.022
129.962
129.871
129.795
128.572
128.573
128.57
128.567
128.559
128.544
128.522
128.491
128.448
128.393
128.313
128.272
126.987
126.987
126.985
126.982
126.974
126.961
126.941
126.913
126.875
126.826
126.755
126.787
125.399
125.399
125.396
125.393
125.386
125.373
125.354
125.328
125.293
125.248
125.171
125.194
123.799
123.799
123.797
123.794
123.788
123.776
123.758
123.734
123.7
123.658
123.578
123.55
122.193
122.192
122.19
122.187
122.181
122.17
122.154
122.131
122.101
122.065
121.995
121.953
120.57
120.57
120.568
120.565
120.561
120.552
120.537
120.519
120.495
120.469
120.423
120.342
118.935
118.934
118.931
118.928
118.925
118.917
118.905
118.891
118.874
118.86
118.845
118.799
117.267
117.267
117.266
117.265
117.263
117.257
117.248
117.237
117.224
117.214
117.211
117.116
115.579
115.579
115.577
115.576
115.574
115.57
115.562
115.552
115.54
115.529
115.53
115.417
113.866
113.865
113.862
113.861
113.859
113.855
113.848
113.84
113.831
113.823
113.837
113.751
112.106
112.107
112.107
112.107
112.108
112.106
112.102
112.098
112.096
112.095
112.122
112.064
110.325
110.325
110.324
110.323
110.325
110.324
110.323
110.323
110.326
110.334
110.372
110.337
108.502
108.502
108.5
108.5
108.501
108.502
108.503
108.506
108.516
108.532
108.582
108.565
106.627
106.627
106.625
106.625
106.628
106.631
106.634
106.642
106.659
106.688
106.755
106.751
104.701
104.698
104.695
104.695
104.698
104.702
104.71
104.723
104.749
104.791
104.88
104.895
102.682
102.683
102.684
102.687
102.695
102.704
102.718
102.74
102.777
102.834
102.947
102.991
100.604
100.605
100.606
100.61
100.62
100.633
100.653
100.684
100.734
100.81
100.95
101.028
98.4507
98.4506
98.4498
98.4534
98.4642
98.4811
98.5064
98.5467
98.6118
98.7094
98.8828
99.0041
96.1881
96.1882
96.188
96.1929
96.2064
96.228
96.2608
96.3128
96.3959
96.5199
96.7314
96.8935
93.8005
93.8007
93.8012
93.8079
93.8252
93.8534
93.8965
93.9638
94.0695
94.2263
94.4864
94.702
91.2694
91.2695
91.2701
91.2786
91.3004
91.3366
91.3924
91.4794
91.6142
91.8125
92.1318
92.4077
88.5686
88.566
88.5659
88.5761
88.6032
88.6498
88.7227
88.8356
89.009
89.2625
89.6627
90.0419
85.6135
85.6173
85.6243
85.6439
85.6839
85.7491
85.8482
85.9984
86.2249
86.5517
87.0524
87.555
82.422
82.4248
82.4328
82.4571
82.5097
82.5967
82.7297
82.9298
83.2277
83.6524
84.2842
84.9429
78.8937
78.8963
78.9069
78.9401
79.0107
79.1282
79.3086
79.5791
79.9759
80.533
81.3338
82.1844
74.9035
74.9095
74.9273
74.9777
75.0794
75.2473
75.5034
75.8816
76.4249
77.1718
78.2116
79.3387
70.2819
70.2845
70.3174
70.396
70.5524
70.8088
71.1936
71.7483
72.5188
73.5414
74.9149
76.4813
64.7252
64.7831
64.8296
64.9707
65.2366
65.6568
66.2681
67.1132
68.2331
69.6427
71.4073
73.5192
57.765
57.5225
57.6955
58.0461
58.6033
59.4103
60.4904
61.8645
63.5497
65.5309
67.8121
70.4275
47.4743
48.0414
48.7167
49.527
50.7207
52.2807
54.169
56.3585
58.8293
61.5413
64.4592
67.6367
92.2601
26.9146
136.864
93.3104
20.2851
160.655
93.5423
100.675
107.684
106.831
193.934
178.444
99.9808
83.6222
76.2538
-49.4779
89.2078
141.292
116.756
86.5285
-2.03407
80.4495
92.1254
138.397
93.0231
-14.1032
82.9357
153.629
166.448
109.688
101.423
-34.7379
23.1325
68.8568
103.886
129.52
149.56
157.46
67.4501
20.396
16.9991
100.034
107.975
128.627
61.1572
-57.5053
22.8941
79.2757
97.3575
53.1751
82.1797
-9.18141
97.4995
145.908
-72.7541
81.4361
32.1109
112.672
90.6668
22.9011
95.9678
-1.56045
30.9169
-21.9288
111.685
-3.9618
99.0133
-53.255
89.1471
142.966
67.1936
-6.19954
85.6547
98.0964
-48.5197
79.8938
-51.813
114.461
-93.8692
87.3533
40.0965
81.4499
-21.1802
89.4268
32.681
75.5918
53.0597
145.693
107.842
91.1259
92.9359
96.6886
96.3954
82.1598
93.0763
153.85
82.9411
116.87
84.9723
187.51
-75.0922
187.228
-18.1296
-33.6565
133.058
91.3174
106.248
80.106
110.019
92.3735
125.254
84.4134
98.7035
61.5061
9.31852
78.9693
131.13
-26.0223
38.1241
85.6296
89.0979
117.243
-65.9835
141.488
92.9668
89.2173
-41.6776
108.913
101.292
35.6727
33.8465
-85.8335
96.9362
87.6848
14.2242
71.4265
-52.4858
94.8343
46.8526
92.9577
101.682
85.9246
78.6215
98.4178
160.775
-15.3194
49.2488
122.259
104.306
137.428
86.0836
110.388
61.0894
94.5612
67.9688
85.3133
26.3901
124.147
-23.5316
46.7763
-38.9863
-29.6279
131.058
86.1451
95.1333
88.2004
17.3326
44.6641
123.553
-64.7067
-88.5092
103.469
77.5584
210.562
160.621
95.9213
60.2159
188.106
104.246
84.8851
-15.1712
-47.0871
92.9725
97.365
97.2068
85.0284
64.8536
-4.91328
102.406
73.2396
77.7124
131.361
162.157
127.461
122.057
-36.1766
4.9693
-45.6848
39.8564
-21.611
80.9689
-14.3133
79.4118
-21.282
96.5068
79.2115
58.8972
158.883
94.9495
87.1618
11.7498
84.1167
148.357
81.1214
-11.1299
64.5093
112.671
94.2991
175.368
103.118
112.647
65.4242
106.783
96.6531
129.689
98.0648
129.954
48.6329
78.0376
70.1442
-25.4535
90.989
94.458
-48.6033
14.5846
109.164
50.9033
161.809
103.269
94.2773
54.8816
-65.4412
102.357
91.0215
83.0247
104.106
91.856
69.6246
133.789
87.5279
88.6958
92.2524
-39.1703
73.891
48.5243
-4.92379
103.104
64.2789
183.519
22.2256
160.311
102.151
87.9987
166.702
200.264
65.7818
72.924
96.3057
95.5423
-47.6507
91.9179
106.59
90.7704
-69.9338
-74.3654
14.2056
94.2819
16.1887
87.4508
-51.4984
-59.7456
127.869
90.6048
-42.442
89.688
96.3195
116.655
94.4906
107.765
65.7902
-67.7473
89.5205
132.368
108.238
120.065
98.0118
25.9805
95.8166
88.5263
143.523
-40.9114
27.3206
143.425
38.8728
96.231
94.2959
135.008
75.8714
-30.5137
-66.0647
93.054
2.44957
102.672
72.1297
88.4461
75.6772
81.9653
98.0421
96.7849
162.989
58.8581
25.634
93.725
103.695
119.18
2.70451
87.7269
96.6422
99.1575
67.7763
97.5482
-1.1207
151.544
103.575
149.006
-5.96408
-25.0347
89.2756
97.0779
95.0659
88.7245
110.957
30.0348
75.8397
59.4902
183.622
93.6474
40.6502
83.1135
63.6214
78.3954
94.1948
89.9388
155.323
122.506
96.8295
105.351
93.638
79.5208
-22.2924
-52.7602
75.6538
123.427
71.1372
193.516
92.8087
125.839
28.8425
87.6978
145.208
105.052
20.6188
85.8713
96.5761
66.947
-44.0669
97.4872
175.615
94.7722
-87.939
77.0415
106.533
70.1918
76.696
-18.6658
72.9781
-41.1222
119.797
39.066
-32.9694
-53.2226
171.679
96.3736
93.3453
97.1702
84.3137
147.602
160.864
82.0405
-63.339
63.1725
196.084
-68.5029
71.865
72.5626
158.104
7.3835
77.3419
23.7581
65.9132
81.2346
28.0044
89.7156
90.8202
25.6188
-10.1139
-56.6781
36.2864
82.2593
96.6003
68.5256
28.3945
101.397
146.792
91.6333
80.9723
107.292
63.3506
99.5652
35.8589
82.072
79.8799
62.8851
132.619
124.184
-60.7062
149.424
91.0827
196.588
136.551
-31.9565
-15.8818
79.001
30.1792
106.291
50.6293
87.2451
42.5859
134.388
142.599
36.0769
83.07
87.1346
81.4835
-19.2789
193.149
93.0502
63.3234
192.244
88.1763
73.2557
57.9919
96.8045
-59.3455
-75.4236
93.1555
104.698
-2.00746
107.173
157.111
179.834
109.569
92.3152
81.3653
-36.2003
24.4031
152.781
134.696
93.5892
51.7467
1.32316
105.55
157.048
-28.0963
115.781
66.5482
106.202
109.185
98.1079
93.4835
-79.4705
85.0122
-35.4771
99.0327
24.9553
85.8262
96.347
131.688
92.4406
148.253
90.8695
13.2185
97.1873
92.2017
153.121
89.9029
77.1346
24.4208
152.84
94.7436
50.2617
85.7685
-7.82146
-14.3353
125.035
-23.1631
-1.81307
78.3372
95.5825
54.827
86.0253
93.225
169.635
64.3886
95.0117
-14.2196
163.392
76.7213
173.289
128.038
-71.0354
145.39
37.8478
82.9862
87.1201
-58.9026
39.9977
97.1373
141.074
-50.4465
69.6295
96.4643
163.788
169.751
70.8274
95.9878
91.5733
81.1929
9.31213
142.611
45.7163
95.6033
78.4032
36.6735
31.4098
89.5642
81.7924
145.069
-26.2749
145.777
62.5767
102.995
90.6233
-24.1164
121.398
95.258
-48.9161
99.6741
30.0459
82.3473
78.3176
103.943
67.0625
21.9673
98.167
95.5217
95.5029
-83.4048
166.315
85.1828
92.1328
-2.68269
71.4368
79.5148
128.545
112.781
105.666
-79.4095
90.5548
75.9729
-62.8819
115.011
-74.1712
-81.1442
87.2887
88.2162
149.61
45.2165
25.7801
102.327
69.2745
-17.4071
-11.0034
52.8514
79.0581
12.3611
39.1437
93.8947
86.1379
5.99339
76.3686
195.491
104.654
89.4148
155.152
85.6291
78.1983
50.2203
100.304
148.431
31.5367
89.7627
163.289
81.3909
130.447
136.638
139.085
83.0089
101.172
107.575
-0.617808
99.848
86.9477
96.4115
-49.4333
87.7344
150.329
-47.4308
18.8119
119.265
108.155
74.5034
24.4775
-14.173
-34.9278
26.6226
-48.7401
-15.2357
75.14
135.467
103.461
82.492
142.398
-79.0495
100.507
164.074
93.9768
-79.5736
75.266
50.1841
96.0722
59.1436
90.4112
65.9241
53.4909
133.276
136.147
-67.437
134.481
83.0515
97.5306
95.4862
85.5376
142.688
100.195
92.2227
75.7046
125.688
-54.0321
56.3713
-49.1215
107.657
136.295
80.8614
145.669
93.7144
-18.9277
78.8261
111.481
50.4119
-80.0402
108.953
107.234
90.8191
50.7838
-41.6356
130.278
83.1626
121.827
67.3409
48.0649
-25.4843
84.5601
85.2788
159.029
-37.2228
164.618
92.4141
104.711
86.9722
-70.4227
95.4209
89.2136
-12.1423
120.401
140.687
94.6852
76.8399
56.9239
39.6641
92.0534
103.412
111.882
-27.2909
91.1352
158.949
74.1441
94.7959
95.4921
128.206
107.947
60.0244
84.4905
-22.4674
-64.8802
75.0572
49.9518
153.579
-30.9876
100.089
178.759
89.0727
0.497049
-49.8751
-26.9499
164.412
120.25
94.2603
141.731
92.5846
0.247282
55.6739
-18.191
91.5299
57.0434
116.939
92.1027
83.2808
81.7873
-56.483
43.1609
78.8561
102.727
126.363
171.099
87.43
90.7106
84.098
-77.9326
85.1127
96.628
71.3582
-7.41274
78.4909
-14.6058
73.7566
-66.2536
90.9554
-16.3242
95.624
93.4997
72.9512
26.5387
94.2263
75.5594
-37.0394
150.987
-93.4461
-47.2454
-34.6639
18.3256
32.1682
12.3753
90.0171
80.7631
91.887
93.6048
84.139
54.6377
81.734
-61.6042
17.978
94.0173
-12.1171
79.7217
81.2802
116.607
76.9444
-11.3656
91.4225
-15.4689
57.4227
-93.8135
-40.8141
45.5785
-64.444
69.9389
82.0306
67.3288
-34.8726
95.2946
81.5841
-67.0606
53.8292
100.363
5.02285
89.6366
66.5527
96.8154
93.0636
-38.098
-9.01722
-59.5106
205.687
78.8402
135.476
78.5337
119.53
-31.3187
88.7434
44.218
7.74971
132.833
91.0865
166.479
37.0171
95.7304
148.195
-49.9043
162.936
92.4194
140.055
-4.56077
-10.125
52.5398
84.0125
24.8506
113.585
190.92
95.5104
137.314
86.457
88.4778
19.7236
79.2746
81.338
105.001
-62.8409
60.2319
121.883
61.1866
135.539
97.139
111.079
-17.6274
79.9458
-17.7574
29.6706
-23.5833
126.357
90.286
114.695
79.7472
92.5247
63.9261
105.119
93.038
16.5824
104.715
94.2303
172.519
142.817
46.6904
90.5054
55.6216
14.7731
35.385
98.5961
81.0869
96.5885
76.3815
-24.0435
100.35
89.0206
91.2474
64.25
15.7568
123.681
125.75
136.575
92.2472
91.9695
182.97
83.1343
-25.2571
73.7336
-8.85637
121.996
93.7881
148.398
69.5533
94.2716
-7.89368
143.573
69.486
160.332
84.3462
90.5115
87.4322
92.2253
33.7204
9.26826
111.499
189.09
87.4776
-3.59981
33.318
116.118
108.555
144.18
9.14295
-36.7418
167.193
45.5982
2.93252
79.0201
96.5911
81.4078
93.0237
75.332
-61.4535
48.7817
95.2431
57.7293
8.58279
53.3482
-42.3302
96.2406
52.6018
140.807
94.4272
78.1255
87.6062
97.6314
64.5082
142.298
96.4124
45.0232
112.181
24.2818
156.36
137.048
-49.3892
77.7444
153.314
125.014
77.0232
102.427
90.2778
57.9567
81.3805
16.0002
-42.6548
175.717
88.5311
203.803
84.8131
142.348
-42.6002
71.6209
98.9428
96.1218
66.82
120.628
96.9639
37.3586
-83.5783
137.361
126.693
67.4019
34.0222
112.349
-20.7812
77.6633
94.6347
131.651
95.2673
54.4716
140.84
93.9669
36.6253
95.1906
-90.632
69.3672
-56.5406
-68.1721
84.2976
-31.9811
-12.5131
98.3828
18.7849
25.446
88.9742
48.5358
151.389
88.7635
-69.5253
-68.3145
113.216
2.41787
-14.8547
29.9218
-10.7745
85.7862
78.4326
49.3215
94.1185
12.8396
71.2689
96.5065
-64.8322
-83.3628
94.9256
71.4228
5.21577
3.0984
174.869
100.659
67.6075
95.0792
-44.2532
134.849
57.9354
84.8297
100.525
30.7474
-41.9426
58.7475
58.3276
74.8549
159.038
129.945
74.184
163.792
65.1805
-70.7767
4.31999
26.3832
87.5287
12.3878
8.09484
-70.7365
-1.9482
-6.49786
90.0181
91.6084
181.794
87.7288
94.2138
90.1653
-52.4621
-53.1733
101.056
87.1771
135.426
87.1782
37.7449
32.7873
94.3086
72.3126
72.8739
86.6521
100.261
84.369
33.674
66.5911
93.4101
63.0488
52.699
152.42
20.6148
43.1856
105.068
139.19
-10.2891
88.8534
75.8311
137.835
-59.7195
104.297
-6.95677
140.334
146.012
125.869
75.1653
35.7327
10.3851
-56.4599
30.9276
39.8956
83.1958
41.5832
82.7391
166.151
48.737
182.568
130.415
-46.4915
185.592
37.1323
91.1246
96.3822
81.4469
-44.39
117.28
26.8798
133.562
-26.7159
127.209
142.384
76.5406
174.581
93.1876
108.599
109.978
102.683
70.7005
153.244
177.368
105.745
89.4949
84.3849
94.0584
158.806
-67.9007
-29.5962
88.153
212.083
-79.0942
102.044
69.0932
-62.262
-82.3988
93.4058
97.3268
64.443
143.928
92.8983
93.3844
91.3544
191.155
-24.2563
131.401
150.949
-49.3916
-19.3603
82.0438
200.424
58.8037
55.2005
132.302
113.99
92.3781
6.74767
-38.1583
204.474
73.5216
58.2612
100.152
73.1148
143.513
122.704
-60.4808
140.37
150.762
73.3431
102.871
67.4092
-44.2392
32.9284
87.1126
93.2727
103.245
81.4719
-22.3573
26.171
-11.7244
101.478
68.1034
82.0441
80.9648
24.7722
1.74181
80.2612
177.556
19.1412
67.7645
81.1159
184.505
83.9727
59.5449
20.801
87.2278
84.9426
38.5152
92.3462
87.7755
86.6729
158.471
41.6333
97.3421
71.6797
92.9102
-28.8669
-10.9642
92.2122
101.17
-13.5753
165.135
79.199
106.381
94.4396
-8.62334
-46.2729
118.738
-17.87
118.3
109.142
143.743
166.294
179.96
88.9052
81.2532
71.859
146.627
115.118
83.1203
-39.3054
78.972
92.0724
71.6619
104.906
-31.602
110.407
90.9307
86.6112
50.2868
83.4273
111.337
92.9374
153.245
51.9866
62.1591
-27.3965