/*--------------------------------*- C++ -*----------------------------------*\
| =========                 |                                                 |
| \\      /  F ield         | OpenFOAM: The Open Source CFD Toolbox           |
|  \\    /   O peration     | Version:  2.3.0                                 |
|   \\  /    A nd           | Web:      www.OpenFOAM.org                      |
|    \\/     M anipulation  |                                                 |
\*---------------------------------------------------------------------------*/
FoamFile
{
    version     2.0;
    format      ascii;
    class       volScalarField;
    location    "450";
    object      nuTilda;
}
// * * * * * * * * * * * * * * * * * * * * * * * * * * * * * * * * * * * * * //

dimensions      [0 2 -1 0 0 0 0];

internalField   nonuniform List<scalar> 
7826
(
0.0668646
0.061817
0.0570896
0.0527481
0.0488495
0.0454362
0.0425307
0.0401264
0.0381802
0.0366125
0.0353145
0.0341682
0.0330576
0.0318816
0.0305849
0.0728494
0.0692851
0.0661036
0.0633356
0.0609903
0.059056
0.0575043
0.0562946
0.05538
0.0547116
0.0542424
0.0539321
0.0537455
0.0536546
0.0536381
0.0781933
0.0756515
0.0734566
0.0715975
0.0700533
0.0687954
0.0677899
0.0670014
0.0663956
0.0659416
0.0656117
0.0653829
0.0652363
0.0651561
0.0651304
0.082742
0.080906
0.0793418
0.0780293
0.0769435
0.0760572
0.0753429
0.074775
0.07433
0.0739882
0.0737328
0.0735497
0.0734274
0.0733563
0.0733293
0.0865657
0.0851982
0.0840392
0.0830666
0.0822577
0.081591
0.0810463
0.0806059
0.0802541
0.0799777
0.0797663
0.0796108
0.079504
0.0794397
0.0794133
0.0897544
0.0887083
0.0878194
0.0870685
0.0864378
0.0859113
0.0854744
0.0851152
0.0848231
0.0845894
0.0844069
0.08427
0.084174
0.0841148
0.0840892
0.0924202
0.0915992
0.0908966
0.090297
0.0897871
0.0893552
0.0889915
0.0886876
0.0884366
0.0882325
0.0880706
0.0879472
0.0878592
0.0878039
0.0877793
0.0946596
0.094001
0.0934312
0.0929388
0.0925143
0.0921496
0.0918379
0.0915737
0.0913524
0.0911701
0.0910235
0.0909104
0.0908286
0.0907764
0.0907525
0.0965524
0.0960146
0.0955422
0.0951281
0.0947659
0.0944505
0.0941775
0.093943
0.0937442
0.0935785
0.0934438
0.0933387
0.0932618
0.093212
0.0931886
0.0981671
0.097718
0.0973178
0.0969623
0.0966472
0.096369
0.0961252
0.0959137
0.0957325
0.09558
0.095455
0.0953563
0.0952834
0.0952356
0.0952125
0.099554
0.0991692
0.0988241
0.0985137
0.098235
0.0979856
0.0977645
0.097571
0.0974039
0.0972623
0.0971452
0.0970521
0.0969826
0.0969364
0.0969135
0.100743
0.100412
0.100111
0.099837
0.0995868
0.0993605
0.0991568
0.0989775
0.0988222
0.09869
0.0985796
0.0984912
0.0984247
0.0983798
0.0983568
0.101768
0.101482
0.101218
0.100975
0.100746
0.10054
0.100348
0.10018
0.100035
0.0999121
0.0998069
0.0997227
0.0996589
0.0996147
0.0995911
0.102661
0.102411
0.102173
0.101962
0.101744
0.101561
0.101374
0.101216
0.101077
0.100966
0.100863
0.100783
0.100722
0.100678
0.100651
0.0306805
0.0321129
0.0332903
0.0343552
0.0354487
0.0367124
0.0382789
0.0402557
0.0427124
0.045679
0.0491503
0.0530977
0.0574776
0.0622361
0.0673136
0.0536313
0.0536357
0.0537174
0.0538998
0.0542127
0.054692
0.0553799
0.0563233
0.0575701
0.0591658
0.0611486
0.0635445
0.0663608
0.0695859
0.0731889
0.0651333
0.0651655
0.0652528
0.0654083
0.065648
0.0659907
0.0664599
0.0670837
0.0678931
0.0689224
0.0702067
0.0717796
0.0736693
0.0758954
0.0784676
0.0733332
0.0733681
0.0734477
0.0735795
0.0737733
0.0740402
0.0743947
0.074854
0.075438
0.0761701
0.0770761
0.0781832
0.0795186
0.0811077
0.0829726
0.0794171
0.0794514
0.0795241
0.0796399
0.0798049
0.0800265
0.0803138
0.0806778
0.0811314
0.0816906
0.0823731
0.0831988
0.0841893
0.0853665
0.0867501
0.0840926
0.0841253
0.0841921
0.0842959
0.084441
0.0846323
0.0848757
0.0851782
0.0855488
0.0859981
0.0865381
0.0871834
0.0879497
0.0888546
0.0899173
0.0877821
0.0878127
0.0878743
0.087969
0.0880995
0.0882691
0.0884817
0.088742
0.089056
0.0894308
0.0898747
0.0903977
0.0910112
0.091728
0.0925623
0.0907547
0.0907834
0.0908404
0.0909278
0.091047
0.0912003
0.0913903
0.09162
0.0918935
0.0922153
0.0925912
0.0930279
0.0935336
0.0941169
0.0947855
0.0931902
0.0932168
0.0932701
0.0933512
0.0934615
0.0936021
0.0937748
0.0939817
0.0942249
0.0945076
0.0948336
0.0952073
0.0956346
0.0961224
0.0966803
0.0952133
0.0952379
0.0952878
0.0953638
0.0954666
0.0955972
0.0957564
0.0959454
0.0961657
0.0964187
0.0967068
0.0970328
0.0974003
0.0978143
0.0982809
0.0969133
0.096936
0.0969827
0.097054
0.0971506
0.097273
0.0974217
0.097597
0.0977991
0.098029
0.0982876
0.0985765
0.0988977
0.0992542
0.099651
0.0983558
0.0983765
0.0984202
0.0984869
0.0985782
0.0986944
0.0988349
0.098999
0.0991867
0.0993981
0.0996335
0.0998931
0.100178
0.100488
0.100826
0.0995905
0.0996079
0.0996496
0.099711
0.0997982
0.0999097
0.100044
0.100199
0.100375
0.100572
0.100789
0.101025
0.10128
0.101554
0.101847
0.100655
0.100665
0.100709
0.100763
0.100848
0.100957
0.101088
0.101233
0.101399
0.101585
0.101789
0.102005
0.102237
0.102482
0.102743
0.0136632
0.0108338
0.00861897
0.00709939
0.00600543
0.0051412
0.00441146
0.00376898
0.00318866
0.00265678
0.00216649
0.00171581
0.00130559
0.000933867
0.00065861
0.0137199
0.0110922
0.00903524
0.00755076
0.00644731
0.00558164
0.00486115
0.0042324
0.0036652
0.00314226
0.0026541
0.00219633
0.00176619
0.00135958
0.00102595
0.0137866
0.0113755
0.00948089
0.00802667
0.00690916
0.00602653
0.005297
0.00466531
0.00409696
0.00357113
0.00307578
0.00260407
0.00214959
0.0017054
0.00133053
0.01388
0.0116689
0.00990675
0.00849048
0.00736344
0.00645754
0.00570697
0.00505984
0.00447979
0.00394315
0.00343526
0.00294673
0.00246778
0.00198911
0.00157913
0.0140056
0.0119664
0.0103033
0.00892776
0.00779841
0.00686979
0.00609257
0.00542195
0.00482268
0.0042695
0.00374549
0.00323874
0.00273629
0.00222659
0.00178481
0.0141163
0.0122477
0.0106704
0.00933466
0.00820864
0.00726092
0.00645586
0.00575749
0.00513397
0.00456004
0.00401729
0.00349143
0.00296664
0.0024288
0.0019578
0.0142377
0.0125055
0.0110076
0.00971074
0.00859191
0.00762916
0.00679768
0.0060701
0.00541939
0.00482188
0.00425842
0.00371294
0.00316682
0.00260324
0.0021054
0.014382
0.0127456
0.0113166
0.0100568
0.00894756
0.00797359
0.00711819
0.00636177
0.00568272
0.00505989
0.0044745
0.00390906
0.00334255
0.00275529
0.00223277
0.0144925
0.012966
0.0115999
0.0103747
0.00927615
0.00829392
0.00741752
0.00663374
0.00592637
0.00527758
0.00466953
0.00408406
0.003498
0.00288883
0.00234366
0.0146074
0.0131673
0.011859
0.0106662
0.00957882
0.00859061
0.0076959
0.0068868
0.00615205
0.00547734
0.00484654
0.00424122
0.00363648
0.003007
0.00244096
0.0147068
0.0133511
0.012096
0.0109331
0.00985694
0.00886452
0.00795386
0.00712159
0.00636087
0.00566091
0.00500757
0.00438278
0.00376006
0.00311173
0.00252659
0.0147929
0.0135174
0.0123121
0.0111775
0.0101123
0.00911696
0.00819273
0.00733973
0.0065549
0.00583088
0.00515592
0.0045123
0.00387295
0.00320661
0.00260326
0.0148774
0.0136681
0.0125079
0.0113989
0.0103436
0.00934512
0.00840774
0.00753473
0.00672682
0.00597987
0.00528328
0.00462214
0.00396502
0.00328585
0.00266836
0.0149959
0.0138488
0.0127309
0.0116446
0.0106032
0.00960817
0.00866373
0.00777601
0.00694453
0.00617099
0.00545733
0.00477029
0.00410743
0.00338419
0.00274121
0.000668446
0.000911543
0.00124972
0.00161513
0.00200294
0.00241079
0.00284233
0.00330975
0.00383955
0.00448866
0.00538418
0.0067813
0.00866605
0.0110617
0.0140445
0.00102831
0.00130481
0.00165032
0.00201625
0.00239856
0.00279814
0.00322305
0.00369289
0.00424646
0.00495463
0.00592855
0.00729046
0.00909639
0.0113468
0.0141125
0.00132673
0.00162092
0.00198012
0.00235345
0.00273999
0.00314492
0.00358207
0.00407917
0.00468287
0.00546015
0.0064859
0.00781874
0.00954566
0.0116574
0.0142175
0.00157041
0.00187829
0.00225175
0.00263606
0.00303393
0.00345557
0.00392064
0.00446208
0.00512574
0.00596353
0.00701997
0.0083306
0.00998357
0.0119686
0.0143355
0.00177214
0.00209269
0.00248024
0.00287823
0.00329344
0.00374103
0.00424491
0.00483867
0.00556087
0.00644662
0.00752174
0.00881328
0.0103981
0.012268
0.0144606
0.00194199
0.00227482
0.00267652
0.00309059
0.00352815
0.0040085
0.00455724
0.00520459
0.00597915
0.00690237
0.00798951
0.00926254
0.010785
0.0125505
0.0145864
0.00208712
0.00243195
0.00284805
0.00328035
0.0037441
0.00426142
0.0048571
0.0055555
0.0063754
0.0073283
0.00842321
0.00967751
0.0111428
0.0128121
0.0147015
0.00221259
0.00256916
0.00300001
0.0034522
0.00394479
0.00450104
0.00514303
0.00588829
0.00674711
0.00772401
0.00882359
0.0100589
0.0114715
0.0130552
0.0148302
0.00232209
0.00269015
0.003136
0.0036093
0.00413209
0.00472754
0.00541363
0.00620115
0.00709343
0.00808999
0.00919191
0.0104082
0.0117735
0.0132815
0.0149496
0.00241833
0.00279759
0.00325859
0.00375368
0.00430715
0.00494083
0.00566806
0.00649333
0.00741452
0.00842731
0.00952986
0.010728
0.0120506
0.0134899
0.0150546
0.0025035
0.00289378
0.00337001
0.00388709
0.00447084
0.00514094
0.00590592
0.00676485
0.00771113
0.00873739
0.00983949
0.0110205
0.0123039
0.0136789
0.0151439
0.00257911
0.00297958
0.00347048
0.00400916
0.00462236
0.00532713
0.00612716
0.00701612
0.00798419
0.00902168
0.0101226
0.0112875
0.0125352
0.0138535
0.0152469
0.00264672
0.00305934
0.00356707
0.00412891
0.00477052
0.0055064
0.00633338
0.00724808
0.00823543
0.0092837
0.010383
0.0115322
0.0127465
0.0140107
0.0153116
0.0027077
0.00312166
0.00363203
0.00420122
0.00486505
0.00562392
0.00651258
0.00745976
0.00846724
0.0095071
0.0105939
0.0117276
0.0129228
0.0141287
0.0153639
0.00129578
0.00391107
0.0067951
0.00990268
0.0132261
0.0167629
0.0205241
0.0245333
0.0288237
0.0334295
0.0383764
0.0436722
0.049301
0.0552231
0.0613777
1.9047e-05
0.000438976
0.00175373
0.00389385
0.00640176
0.00938659
0.0128534
0.0168003
0.021223
0.0261153
0.0314658
0.0372525
0.0434375
0.0499613
0.0567413
0
0.000233593
0.0010856
0.00254437
0.00436933
0.00669091
0.00955178
0.0129833
0.0170066
0.0216305
0.0268485
0.0326363
0.0389485
0.0457188
0.0528773
4.9945e-05
0.000233477
0.00109184
0.00215977
0.00360989
0.00550994
0.00791963
0.0108959
0.0144881
0.0187332
0.0236499
0.0292339
0.0354521
0.0422379
0.0494746
0.00012733
0.000571473
0.00105892
0.00195355
0.00319381
0.0048351
0.00694214
0.009583
0.0128236
0.0167222
0.0213218
0.0266425
0.0326736
0.0393669
0.0466388
0.000346256
0.000669938
0.00106719
0.00179307
0.00289159
0.00435789
0.00625267
0.00864665
0.0116134
0.0152237
0.0195376
0.0245961
0.0304106
0.0369528
0.0441431
0.000394085
0.000637568
0.00106493
0.00165904
0.00264949
0.00398484
0.00571949
0.00792352
0.0106731
0.0140455
0.0181119
0.0229286
0.0285267
0.0349007
0.0420044
0.000383578
0.000592383
0.00103276
0.00155293
0.00245191
0.00368269
0.00528946
0.00734052
0.00991242
0.0130854
0.0169377
0.0215368
0.0269297
0.0331309
0.0401154
0.000375867
0.00056867
0.00100075
0.00149611
0.0022922
0.00343375
0.00493433
0.00685788
0.00928019
0.012283
0.0159487
0.0203531
0.0255555
0.0315883
0.0384507
0.000370902
0.000558268
0.000978385
0.00145903
0.00216159
0.00322563
0.00463581
0.0064505
0.0087444
0.0115996
0.0151011
0.0193306
0.0243571
0.0302272
0.0369528
0.000367119
0.000552546
0.000962238
0.00142578
0.00205397
0.00304913
0.00438109
0.0061015
0.00828339
0.0110088
0.0143644
0.0184359
0.0232998
0.0290123
0.0355927
0.000363732
0.000548078
0.000950007
0.00139822
0.00197749
0.00289913
0.00416119
0.00579868
0.00788173
0.0104918
0.0137166
0.0176446
0.0223578
0.02792
0.0343609
0.000360658
0.000544485
0.000941744
0.00137989
0.00193125
0.00277212
0.00396954
0.00553311
0.00752806
0.0100348
0.0131414
0.0169382
0.021511
0.0269294
0.0332283
0.000357908
0.000541745
0.000936623
0.00136813
0.00189932
0.0026637
0.00380109
0.00529805
0.00721377
0.00962716
0.0126261
0.0163023
0.0207445
0.0260277
0.0321993
0.000355416
0.000539496
0.000932934
0.00135883
0.00187196
0.00257164
0.00365195
0.00508831
0.00693223
0.00926068
0.0121612
0.0157262
0.0200471
0.0252046
0.031259
0.0003531
0.000537397
0.000929581
0.00135044
0.00184841
0.00250103
0.00352005
0.00489998
0.0066783
0.00892905
0.011739
0.0152012
0.0194089
0.024447
0.0303778
0.000350927
0.000535406
0.000926574
0.00134364
0.00183097
0.00245367
0.00340422
0.00473011
0.00644794
0.0086272
0.0113536
0.0147202
0.0188218
0.0237451
0.0295521
0.000348901
0.000533624
0.000924251
0.00133894
0.00181912
0.00242084
0.00330244
0.00457627
0.00623789
0.00835102
0.0109998
0.0142772
0.0182782
0.0230907
0.0287769
0.00034702
0.000532075
0.000922584
0.00133578
0.00181032
0.00239411
0.00321261
0.00443637
0.00604548
0.00809715
0.0106737
0.0138676
0.017775
0.0224885
0.0280948
0.000345257
0.000530669
0.000921225
0.00133319
0.00180247
0.00236985
0.00313507
0.00430884
0.00586851
0.00786281
0.0103718
0.0134873
0.0173058
0.0219193
0.0273958
0.000343587
0.000529304
0.000919859
0.00133061
0.00179506
0.00234858
0.00307365
0.004193
0.00570523
0.00764572
0.0100914
0.0131334
0.016869
0.0213956
0.0268146
0.000341993
0.000527947
0.000918436
0.00132816
0.00178874
0.00233188
0.00302913
0.00408848
0.00555427
0.00744396
0.00983015
0.012803
0.0164596
0.0208965
0.0261875
0.000340469
0.000526638
0.000917096
0.00132616
0.00178404
0.00231971
0.00299651
0.00399432
0.00541445
0.00725593
0.00958599
0.0124934
0.0160751
0.0204285
0.0256427
0.000339021
0.000525419
0.000915974
0.00132476
0.00178082
0.00231062
0.00297006
0.00390921
0.00528468
0.00708025
0.00935722
0.0122026
0.0157132
0.0199871
0.0251133
0.000337648
0.000524291
0.000915061
0.00132383
0.00177848
0.00230296
0.00294631
0.00383249
0.005164
0.00691572
0.00914232
0.0119288
0.015371
0.0195655
0.0245899
0.000336336
0.000523225
0.000914246
0.00132306
0.0017764
0.00229574
0.00292421
0.00376535
0.00505178
0.00676129
0.00893989
0.0116701
0.0150465
0.0191652
0.0241131
0.000335078
0.000522189
0.000913417
0.00132224
0.00177429
0.00228886
0.0029045
0.00371035
0.00494784
0.00661612
0.00874888
0.0114255
0.0147405
0.0187949
0.0237054
0.000333868
0.000521143
0.000912507
0.00132131
0.00177222
0.00228277
0.00288825
0.00366798
0.00485209
0.00647951
0.00856834
0.011194
0.0144503
0.0184373
0.0232455
0.000332689
0.000520106
0.000911559
0.00132037
0.00177044
0.00227793
0.00287568
0.00363545
0.00476411
0.00635089
0.00839746
0.0109745
0.0141748
0.0180999
0.0228565
0.000331555
0.000519117
0.000910643
0.00131957
0.00176915
0.00227441
0.00286603
0.00360897
0.00468316
0.00622969
0.00823556
0.0107661
0.0139132
0.0177796
0.0224736
0.000330472
0.000518172
0.000909817
0.00131898
0.00176837
0.00227195
0.0028582
0.00358567
0.00460854
0.00611536
0.00808193
0.0105681
0.0136645
0.0174742
0.0221051
0.000329424
0.00051725
0.000909067
0.00131857
0.00176794
0.00227007
0.00285124
0.00356398
0.00454011
0.00600745
0.00793608
0.0103797
0.0134274
0.0171816
0.0217449
0.000328404
0.000516381
0.000908374
0.00131825
0.00176766
0.00226839
0.00284457
0.00354349
0.00447886
0.00590566
0.00779739
0.0102
0.0132003
0.016898
0.0213872
0.000327431
0.000515542
0.000907699
0.00131792
0.00176735
0.0022667
0.00283812
0.00352467
0.00442647
0.00580994
0.00766539
0.0100285
0.0129831
0.0166301
0.021081
0.000326483
0.000514693
0.000906983
0.00131752
0.00176693
0.00226498
0.00283217
0.00350831
0.00438379
0.00572031
0.0075397
0.00986446
0.0127752
0.0163709
0.0207511
0.000325551
0.000513863
0.000906228
0.00131703
0.00176645
0.0022634
0.00282707
0.00349486
0.0043498
0.0056367
0.00741996
0.0097075
0.0125755
0.0161214
0.0204441
0.000324656
0.000513047
0.000905455
0.0013165
0.00176599
0.00226214
0.00282305
0.00348417
0.00432219
0.00555874
0.00730584
0.00955701
0.0123833
0.01588
0.0201451
0.000323781
0.000512226
0.000904675
0.00131599
0.00176567
0.0022613
0.0028201
0.00347563
0.00429863
0.00548591
0.007197
0.0094127
0.0121991
0.0156522
0.0198885
0.000322921
0.00051143
0.000903913
0.00131554
0.00176552
0.00226091
0.00281802
0.00346853
0.00427739
0.00541777
0.00709312
0.00927428
0.0120223
0.0154321
0.0196111
0.00032209
0.000510683
0.000903209
0.00131517
0.00176555
0.00226087
0.0028165
0.00346221
0.00425746
0.00535416
0.00699393
0.00914141
0.0118522
0.0152208
0.0193608
0.000321291
0.000509942
0.000902542
0.00131489
0.00176571
0.00226102
0.00281526
0.00345625
0.00423838
0.00529548
0.00689927
0.00901393
0.0116895
0.0150214
0.019136
0.000320501
0.000509227
0.000901901
0.00131462
0.00176592
0.00226124
0.00281411
0.00345044
0.00422025
0.00524266
0.00680909
0.00889164
0.0115331
0.014827
0.0188839
0.000319735
0.000508539
0.000901276
0.00131436
0.0017661
0.00226143
0.00281292
0.00344481
0.00420353
0.00519686
0.00672344
0.00877429
0.0113825
0.014638
0.018643
0.000318995
0.000507859
0.000900648
0.00131408
0.00176623
0.00226154
0.00281173
0.00343959
0.00418875
0.00515849
0.0066424
0.00866145
0.0112363
0.0144502
0.0183889
0.000318266
0.000507162
0.000899986
0.00131373
0.00176627
0.00226158
0.00281063
0.00343503
0.00417622
0.00512688
0.00656588
0.00855285
0.0110949
0.0142708
0.0181813
0.000317544
0.000506486
0.000899305
0.00131333
0.00176625
0.00226161
0.00280976
0.00343129
0.00416593
0.00510062
0.00649368
0.00844823
0.0109577
0.0140949
0.0179491
0.000316848
0.000505825
0.000898622
0.00131291
0.00176622
0.00226172
0.0028092
0.00342845
0.00415758
0.00507813
0.00642545
0.00834736
0.0108244
0.0139239
0.0177349
0.000316162
0.000505152
0.000897926
0.00131248
0.0017662
0.00226195
0.00280903
0.00342644
0.00415068
0.00505806
0.00636083
0.00824999
0.010695
0.0137573
0.0175253
0.000315483
0.000504507
0.000897245
0.00131207
0.00176624
0.00226234
0.00280921
0.00342507
0.00414479
0.00503946
0.00629953
0.00815602
0.0105697
0.0135982
0.0173404
0.00031483
0.000503883
0.000896595
0.00131169
0.00176636
0.00226289
0.00280968
0.00342417
0.0041395
0.00502173
0.00624148
0.00806532
0.0104482
0.0134432
0.0171438
0.000314187
0.000503256
0.000895956
0.00131136
0.00176654
0.00226356
0.00281036
0.00342354
0.00413448
0.00500456
0.00618687
0.00797787
0.010331
0.0132957
0.0169759
0.00031355
0.000502644
0.000895337
0.00131104
0.00176677
0.0022643
0.00281114
0.00342302
0.00412958
0.00498793
0.00613626
0.00789365
0.0102175
0.0131504
0.0167808
0.000312931
0.000502069
0.000894742
0.00131075
0.00176701
0.00226507
0.00281193
0.0034225
0.00412476
0.00497207
0.00609042
0.00781267
0.0101074
0.01301
0.0166136
0.000312332
0.000501483
0.000894151
0.00131046
0.00176725
0.0022658
0.00281267
0.00342193
0.00412006
0.00495732
0.00605007
0.00773504
0.0100011
0.0128748
0.0164507
0.000311733
0.000500908
0.000893557
0.00131015
0.00176745
0.00226647
0.00281334
0.00342135
0.00411566
0.00494404
0.0060154
0.00766085
0.00989816
0.0127432
0.0162841
0.000311149
0.000500351
0.000892963
0.00130981
0.00176759
0.00226707
0.00281394
0.00342081
0.00411172
0.00493248
0.00598599
0.00759012
0.00979847
0.0126147
0.0161198
0.000310582
0.000499798
0.000892366
0.00130945
0.00176768
0.0022676
0.00281451
0.0034204
0.00410839
0.00492268
0.005961
0.00752274
0.00970177
0.012489
0.0159592
0.000310019
0.000499227
0.000891745
0.00130905
0.00176771
0.00226808
0.00281509
0.00342021
0.00410573
0.00491449
0.00593936
0.00745851
0.009608
0.0123664
0.0158037
0.000309458
0.000498677
0.000891122
0.00130863
0.00176772
0.00226854
0.00281573
0.00342027
0.00410377
0.00490767
0.00592013
0.00739719
0.00951686
0.0122462
0.0156462
0.000308917
0.000498127
0.000890493
0.0013082
0.00176771
0.00226902
0.00281647
0.00342063
0.00410243
0.00490191
0.0059025
0.00733852
0.00942818
0.0121282
0.0154951
0.000308375
0.000497582
0.000889866
0.00130776
0.00176771
0.00226953
0.00281734
0.00342128
0.0041016
0.00489691
0.00588594
0.00728235
0.00934209
0.0120149
0.0153631
0.000307843
0.000497058
0.000889247
0.00130733
0.00176771
0.00227009
0.00281834
0.00342217
0.00410118
0.00489241
0.00587003
0.00722867
0.00925886
0.0119061
0.0152325
0.000307328
0.000496543
0.000888651
0.00130692
0.00176775
0.00227072
0.00281943
0.00342326
0.00410103
0.0048882
0.00585456
0.00717754
0.00917815
0.011799
0.0150893
0.000306821
0.000496016
0.000888058
0.00130653
0.00176782
0.00227138
0.00282063
0.00342448
0.00410102
0.00488414
0.00583946
0.00712924
0.00910003
0.0116951
0.0149622
0.000306316
0.000495502
0.00088748
0.00130615
0.00176791
0.00227209
0.00282187
0.00342577
0.00410108
0.00488014
0.0058248
0.0070842
0.00902436
0.0115939
0.0148334
0.000305831
0.000495017
0.000886921
0.00130578
0.00176801
0.00227282
0.00282313
0.00342707
0.00410116
0.00487621
0.00581075
0.00704298
0.00895127
0.0114955
0.0147084
0.000305364
0.000494538
0.000886381
0.00130544
0.00176813
0.00227354
0.00282439
0.00342836
0.00410122
0.0048724
0.00579756
0.007006
0.00888051
0.0113978
0.0145736
0.000304902
0.00049404
0.000885828
0.00130509
0.00176823
0.00227424
0.00282562
0.00342962
0.00410128
0.00486881
0.00578547
0.00697349
0.00881239
0.0113039
0.014464
0.000304443
0.000493567
0.000885297
0.00130474
0.00176833
0.00227494
0.00282683
0.00343086
0.0041014
0.00486557
0.00577472
0.00694531
0.00874685
0.0112118
0.014339
0.000304028
0.000493082
0.000884743
0.00130435
0.00176839
0.00227558
0.00282798
0.00343207
0.00410162
0.00486279
0.00576539
0.00692097
0.00868391
0.0111221
0.0142245
0.000303591
0.000492614
0.000884307
0.00130411
0.00176856
0.00227632
0.00282923
0.00343341
0.00410209
0.00486065
0.00575754
0.00689994
0.00862366
0.011035
0.0141127
0.000303336
0.000492058
0.000883607
0.00130359
0.00176858
0.00227704
0.00283058
0.003435
0.00410303
0.00485935
0.00575122
0.00688159
0.00856628
0.0109509
0.0140044
0.000302655
0.000491718
0.000883566
0.00130317
0.00176806
0.00227673
0.0028306
0.00343517
0.0041027
0.00485721
0.00574484
0.00686436
0.00850983
0.0108675
0.0138923
0.00030431
0.000491939
0.000885773
0.00130938
0.00177761
0.00228868
0.00284406
0.00344917
0.00411606
0.00486828
0.00575077
0.00685805
0.00846721
0.010795
0.0137948
0.00028655
0.000469888
0.00084129
0.00125072
0.0017115
0.00222
0.00277601
0.00338354
0.00405328
0.00480739
0.00568905
0.00678865
0.00835822
0.0106743
0.0136764
0.00127107
0.00382919
0.00665589
0.00970279
0.0129815
0.0165044
0.0202932
0.0243748
0.0287751
0.0335129
0.038594
0.0440077
0.0497278
0.0557135
0.0619208
1.86835e-05
0.000425885
0.00169855
0.00382086
0.0063052
0.00927817
0.0127529
0.0167369
0.0212306
0.026224
0.0316945
0.0376036
0.0438969
0.0505053
0.0573558
0
0.000245241
0.00113677
0.00259466
0.00442483
0.00675538
0.00963091
0.0130897
0.0171591
0.0218509
0.0271566
0.0330429
0.0394508
0.0462978
0.0534898
6.01518e-05
0.000281191
0.00113919
0.002233
0.00370549
0.00562884
0.00806524
0.0110753
0.0147128
0.0190179
0.0240103
0.0296812
0.0359891
0.0428584
0.0501859
0.000120763
0.000539583
0.00108096
0.00200347
0.00327306
0.00494415
0.00708492
0.00976623
0.0130571
0.0170181
0.021693
0.0270996
0.0332211
0.0400002
0.0473389
0.000363609
0.000601029
0.00100053
0.00181133
0.00294729
0.00444759
0.00637939
0.00881712
0.0118371
0.0155117
0.0199021
0.0250472
0.0309543
0.0375877
0.0448618
0.000411927
0.000565314
0.000921762
0.00165385
0.00268449
0.00405747
0.00583134
0.00808042
0.010884
0.0143212
0.0184642
0.023368
0.0290597
0.0355259
0.0427024
0.000404098
0.000535858
0.000884817
0.00152598
0.00246917
0.00373945
0.00538723
0.00748394
0.0101096
0.0133469
0.0172748
0.0219595
0.0274425
0.0337233
0.0407295
0.000396589
0.000526224
0.000871985
0.00142323
0.00229351
0.00347529
0.00501837
0.00698813
0.00946382
0.0125297
0.0162692
0.0207565
0.0260454
0.0321557
0.0390711
0.000391965
0.00052421
0.000861436
0.00133914
0.00214708
0.00325214
0.00470634
0.00656806
0.00891494
0.0118318
0.0154048
0.0197144
0.0248247
0.0307721
0.0375547
0.000387993
0.000522549
0.000849093
0.00126862
0.0020234
0.00306323
0.00443863
0.00620654
0.00844113
0.0112269
0.014652
0.0188012
0.023747
0.0295382
0.0361848
0.000384011
0.0005196
0.000835527
0.00121145
0.00191774
0.0029011
0.00420598
0.00589136
0.008027
0.0106964
0.0139888
0.017992
0.0227846
0.0284216
0.034913
0.000380314
0.000517477
0.000828728
0.00118717
0.00182859
0.00275987
0.00400138
0.00561351
0.00766106
0.0102263
0.0133988
0.017269
0.0219201
0.027418
0.0338053
0.00037719
0.000517371
0.00082972
0.00118262
0.00175374
0.00263601
0.00382097
0.00536642
0.00733482
0.00980618
0.0128699
0.0166183
0.021139
0.026506
0.0327677
0.000374524
0.000518327
0.000833511
0.00118053
0.00168983
0.00252686
0.00366107
0.00514503
0.0070417
0.00942782
0.0123923
0.0160286
0.0204273
0.0256653
0.0317845
0.000372054
0.000518994
0.000836113
0.00117523
0.00163383
0.00242988
0.00351793
0.00494529
0.00677653
0.00908482
0.0119582
0.0154906
0.0197744
0.0248895
0.0308857
0.000369596
0.000518716
0.000836131
0.00116661
0.00158582
0.00234293
0.00338858
0.00476375
0.00653514
0.00877201
0.0115614
0.0149974
0.0191744
0.0241788
0.0300846
0.000367159
0.000517875
0.000835271
0.0011603
0.0015589
0.00226616
0.00327141
0.00459904
0.00631434
0.00848527
0.0111969
0.0145434
0.0186212
0.0235214
0.0293213
0.000364874
0.000517279
0.000835914
0.00116003
0.00155122
0.00219961
0.00316525
0.00444896
0.00611149
0.00822123
0.0108607
0.0141238
0.0181086
0.0229087
0.0286015
0.000362819
0.000517276
0.00083854
0.00116391
0.00154988
0.00214163
0.0030688
0.0043114
0.00592437
0.00797713
0.0105493
0.0137346
0.0176315
0.0223352
0.0279234
0.000360965
0.000517632
0.000842071
0.00116864
0.00154784
0.00209007
0.00298075
0.00418465
0.00575104
0.0077506
0.01026
0.013372
0.0171857
0.0217975
0.0272887
0.000359227
0.00051792
0.000845218
0.00117204
0.00154307
0.00204333
0.00289987
0.00406736
0.0055901
0.00753968
0.00999015
0.0130333
0.0167683
0.0212928
0.0266907
0.00035753
0.00051785
0.000847228
0.00117338
0.0015361
0.002003
0.00282541
0.00395869
0.00544094
0.00734274
0.00973767
0.0127156
0.0163751
0.0208125
0.0261043
0.000355849
0.000517419
0.00084824
0.00117372
0.00153057
0.00197772
0.0027579
0.0038579
0.00530214
0.00715835
0.00950078
0.0124171
0.0160057
0.0203674
0.0256069
0.000354209
0.000516866
0.000849052
0.00117483
0.00152951
0.00196792
0.00269784
0.00376441
0.00517247
0.00698525
0.00927794
0.0121358
0.0156569
0.0199407
0.0250684
0.000352655
0.000516441
0.000850366
0.00117762
0.00153249
0.00196554
0.00264449
0.00367759
0.00505095
0.00682234
0.00906782
0.0118701
0.0153264
0.0195355
0.0245842
0.000351206
0.000516247
0.000852351
0.00118175
0.00153737
0.00196444
0.00259644
0.00359677
0.00493675
0.00666856
0.00886917
0.0116185
0.0150125
0.0191497
0.0241192
0.000349867
0.000516187
0.000854699
0.00118633
0.0015422
0.00196201
0.00255241
0.00352128
0.00482929
0.00652375
0.00868106
0.0113799
0.0147152
0.0187887
0.0237115
0.000348592
0.000516131
0.000856953
0.00119049
0.00154585
0.00195757
0.00251177
0.00345056
0.00472813
0.00638719
0.0085027
0.0111534
0.0144333
0.0184458
0.0232989
0.000347347
0.000515976
0.000858762
0.00119373
0.00154797
0.00195168
0.00247628
0.00338436
0.00463275
0.00625807
0.00833339
0.0109384
0.0141658
0.0181208
0.0229132
0.00034613
0.000515651
0.000860017
0.00119604
0.00154916
0.00194658
0.00245146
0.00332306
0.00454268
0.0061357
0.00817244
0.0107337
0.0139104
0.0178054
0.0225122
0.000344941
0.000515176
0.000860857
0.0011979
0.00155059
0.0019446
0.00243902
0.00326722
0.0044577
0.00601953
0.00801922
0.0105386
0.0136669
0.0175074
0.0221721
0.000343765
0.000514679
0.000861588
0.0011999
0.00155318
0.00194616
0.00243452
0.0032167
0.00437752
0.00590907
0.0078731
0.0103524
0.0134341
0.0172208
0.0218146
0.000342642
0.000514241
0.000862474
0.0012024
0.00155709
0.00195017
0.00243309
0.00317071
0.0043018
0.00580395
0.00773375
0.0101743
0.0132107
0.0169438
0.0214726
0.000341584
0.000513881
0.000863619
0.00120545
0.00156192
0.00195518
0.00243184
0.00312835
0.00423026
0.00570391
0.00760104
0.0100038
0.0129972
0.0166827
0.021177
0.000340571
0.000513603
0.000864949
0.00120881
0.00156705
0.00196005
0.00242952
0.00308886
0.00416254
0.00560863
0.00747441
0.0098405
0.012792
0.0164278
0.0208464
0.000339592
0.000513382
0.000866326
0.00121216
0.00157192
0.00196407
0.00242576
0.00305194
0.00409831
0.0055178
0.00735337
0.00968388
0.0125952
0.016186
0.0205721
0.000338664
0.000513128
0.000867594
0.00121521
0.00157617
0.00196699
0.00242085
0.00301857
0.00403738
0.00543112
0.00723751
0.00953358
0.0124063
0.015954
0.0202931
0.000337752
0.000512812
0.000868626
0.0012178
0.00157965
0.00196898
0.0024159
0.00299183
0.00397995
0.0053483
0.00712647
0.00938936
0.0122255
0.0157346
0.0200437
0.000336848
0.000512445
0.000869392
0.0012199
0.00158253
0.0019707
0.0024126
0.00297456
0.00392644
0.00526921
0.00702001
0.00925092
0.0120519
0.0155214
0.0197724
0.000335974
0.000512007
0.000869942
0.00122168
0.00158518
0.0019729
0.00241202
0.00296576
0.00387712
0.00519376
0.0069179
0.00911789
0.011885
0.0153154
0.0195195
0.000335112
0.000511538
0.000870373
0.00122335
0.00158797
0.00197607
0.0024141
0.00296216
0.0038318
0.00512181
0.0068199
0.00899009
0.0117234
0.0151119
0.0192501
0.000334264
0.000511098
0.000870805
0.0012251
0.00159116
0.0019803
0.00241807
0.00296079
0.00378996
0.00505321
0.00672581
0.00886717
0.0115671
0.0149172
0.019025
0.000333452
0.000510695
0.000871329
0.00122705
0.00159481
0.00198533
0.00242299
0.0029598
0.00375096
0.00498776
0.00663545
0.0087488
0.0114159
0.0147281
0.0187874
0.000332679
0.000510313
0.000871955
0.00122922
0.0015988
0.00199078
0.00242806
0.00295825
0.00371432
0.00492527
0.0065486
0.00863466
0.0112697
0.0145451
0.0185627
0.000331922
0.000509985
0.000872662
0.00123151
0.00160294
0.00199627
0.00243275
0.00295575
0.00367972
0.00486547
0.00646501
0.0085244
0.0111278
0.0143668
0.0183397
0.000331198
0.000509685
0.000873397
0.00123381
0.00160701
0.00200146
0.00243674
0.00295227
0.00364724
0.0048082
0.0063845
0.0084179
0.0109909
0.0141969
0.0181426
0.000330506
0.000509369
0.000874098
0.00123601
0.00161084
0.00200617
0.00243992
0.00294809
0.0036179
0.00475339
0.00630687
0.0083148
0.0108574
0.0140263
0.0179046
0.000329824
0.000509041
0.000874698
0.001238
0.00161431
0.00201031
0.00244245
0.00294399
0.00359378
0.00470116
0.00623196
0.00821503
0.0107285
0.0138674
0.0177458
0.000329148
0.000508711
0.000875181
0.00123975
0.00161738
0.00201396
0.00244471
0.00294101
0.00357672
0.00465183
0.00615971
0.00811841
0.0106033
0.013709
0.0175199
0.0003285
0.000508338
0.000875547
0.00124126
0.00162012
0.00201734
0.00244719
0.00293999
0.00356654
0.00460564
0.00609006
0.00802477
0.0104815
0.0135535
0.0173251
0.00032786
0.000507938
0.000875807
0.00124259
0.00162267
0.00202069
0.0024503
0.00294114
0.00356142
0.00456256
0.00602293
0.00793398
0.0103633
0.0134035
0.0171449