/*--------------------------------*- C++ -*----------------------------------*\
| =========                 |                                                 |
| \\      /  F ield         | OpenFOAM: The Open Source CFD Toolbox           |
|  \\    /   O peration     | Version:  2.3.0                                 |
|   \\  /    A nd           | Web:      www.OpenFOAM.org                      |
|    \\/     M anipulation  |                                                 |
\*---------------------------------------------------------------------------*/
FoamFile
{
    version     2.0;
    format      ascii;
    class       volVectorField;
    location    "450";
    object      U;
}
// * * * * * * * * * * * * * * * * * * * * * * * * * * * * * * * * * * * * * //

dimensions      [0 1 -1 0 0 0 0];

internalField   nonuniform List<vector> 
7826
(
(20.7467 0.607486 3.39666e-21)
(20.8073 0.718826 -2.52751e-21)
(20.8759 0.856813 4.23992e-21)
(20.9541 1.02036 3.593e-20)
(21.0373 1.20433 -3.77953e-20)
(21.1151 1.40024 -2.69881e-21)
(21.1735 1.5987 0)
(21.1983 1.79146 0)
(21.178 1.97238 0)
(21.106 2.13717 0)
(20.9802 2.28298 0)
(20.8021 2.40877 -4.11814e-20)
(20.5756 2.51614 1.3301e-20)
(20.3053 2.60565 5.55925e-20)
(19.9997 2.6667 -3.08181e-20)
(20.6198 0.629844 -1.62663e-21)
(20.6267 0.711047 0)
(20.6214 0.794252 -1.53293e-20)
(20.6036 0.882248 1.513e-20)
(20.5749 0.975877 -6.22999e-22)
(20.5375 1.0745 -1.45345e-20)
(20.4934 1.17558 1.3417e-20)
(20.4439 1.27518 0)
(20.3894 1.36894 3.85955e-20)
(20.3305 1.45284 -3.54615e-20)
(20.2677 1.52382 -5.9422e-20)
(20.2019 1.57978 -1.4542e-20)
(20.1342 1.61976 1.02875e-19)
(20.0661 1.64341 -3.61995e-20)
(19.9991 1.65029 -2.43689e-22)
(20.5269 0.644545 2.43373e-21)
(20.5222 0.716154 0)
(20.5116 0.785459 3.29139e-21)
(20.4943 0.851727 -3.42744e-21)
(20.4697 0.913188 -7.13542e-20)
(20.4378 0.968685 1.43671e-19)
(20.3992 1.01766 -1.53472e-19)
(20.3549 1.05997 7.67944e-20)
(20.3064 1.09567 -8.78807e-20)
(20.255 1.12493 -7.43515e-21)
(20.2019 1.148 -6.70426e-21)
(20.1484 1.16517 8.73127e-20)
(20.0954 1.1768 -3.6532e-22)
(20.0436 1.18337 2.42753e-20)
(19.9939 1.18517 -2.29371e-20)
(20.4462 0.630756 0)
(20.4298 0.684405 3.48106e-20)
(20.4082 0.734527 -3.89816e-20)
(20.3823 0.781288 -5.34488e-22)
(20.3529 0.824197 -2.49976e-22)
(20.3208 0.862796 0)
(20.2868 0.896769 9.2663e-20)
(20.2515 0.925963 6.14391e-21)
(20.2156 0.950385 -9.00729e-20)
(20.1793 0.970145 4.96718e-20)
(20.1432 0.985465 -4.76619e-20)
(20.1075 0.996616 0)
(20.0726 1.00392 -1.20238e-23)
(20.0387 1.00772 -8.1795e-22)
(20.006 1.00832 -4.22087e-22)
(20.3881 0.612668 5.19324e-21)
(20.3696 0.653907 -4.04702e-22)
(20.3482 0.691614 -3.0215e-21)
(20.3243 0.725689 -4.6024e-20)
(20.2983 0.756016 4.7131e-20)
(20.2707 0.782564 -1.62018e-21)
(20.2419 0.805415 1.64707e-21)
(20.2124 0.824715 0)
(20.1825 0.840667 5.54067e-20)
(20.1525 0.853483 -5.28913e-20)
(20.1228 0.863372 0)
(20.0934 0.870553 -5.75022e-20)
(20.0646 0.875239 5.66375e-20)
(20.0365 0.877643 4.55023e-22)
(20.0092 0.877937 4.69546e-22)
(20.3424 0.591085 3.06158e-20)
(20.3235 0.62291 -2.11871e-20)
(20.3027 0.651779 3.0222e-21)
(20.2804 0.677587 0)
(20.2571 0.700433 1.60213e-21)
(20.233 0.720389 1.64379e-21)
(20.2085 0.737573 -6.02495e-20)
(20.1836 0.752119 -2.48508e-21)
(20.1587 0.764181 5.56457e-20)
(20.1338 0.773913 6.10842e-20)
(20.109 0.781455 -5.90698e-20)
(20.0846 0.786945 -9.67728e-22)
(20.0605 0.790515 -3.30349e-20)
(20.0368 0.792298 1.63072e-20)
(20.0137 0.792401 1.73213e-20)
(20.3077 0.570038 2.71254e-20)
(20.2897 0.59507 -2.62519e-20)
(20.2706 0.617828 0)
(20.2506 0.63804 0)
(20.23 0.655902 0)
(20.209 0.671514 1.85745e-21)
(20.1876 0.684994 1.82254e-21)
(20.166 0.696453 6.18989e-20)
(20.1443 0.706007 -6.09835e-20)
(20.1225 0.713759 -9.81174e-22)
(20.1009 0.719807 -3.40662e-20)
(20.0793 0.724232 3.38117e-20)
(20.058 0.727113 -5.79416e-24)
(20.037 0.728535 -1.09257e-21)
(20.0163 0.728562 -9.12535e-21)
(20.2806 0.550446 -3.65788e-21)
(20.2638 0.570428 -2.89242e-20)
(20.2464 0.588843 2.67631e-20)
(20.2284 0.605178 -6.23008e-20)
(20.21 0.619675 5.95389e-20)
(20.1913 0.632413 -1.89753e-21)
(20.1724 0.643485 0)
(20.1533 0.652964 0)
(20.134 0.660921 6.59208e-20)
(20.1146 0.667422 -6.65589e-20)
(20.0952 0.672524 1.07797e-21)
(20.0759 0.676275 1.11602e-21)
(20.0566 0.678724 1.96917e-20)
(20.0376 0.679916 5.03182e-22)
(20.0187 0.679891 -2.03029e-20)
(20.259 0.53284 7.52936e-21)
(20.2437 0.549038 0)
(20.2279 0.564257 1.86942e-21)
(20.2117 0.577799 3.14516e-20)
(20.1952 0.589896 -1.07014e-21)
(20.1784 0.600605 9.42094e-22)
(20.1613 0.609986 -1.12617e-21)
(20.144 0.61808 -3.33208e-20)
(20.1266 0.624923 1.07602e-21)
(20.1089 0.630548 0)
(20.0912 0.634987 0)
(20.0735 0.638265 -4.04973e-20)
(20.0557 0.640412 3.82382e-20)
(20.038 0.641447 0)
(20.0205 0.641394 0)
(20.2419 0.517329 -3.83682e-21)
(20.2278 0.530643 0)
(20.2134 0.543377 0)
(20.1987 0.554819 4.01721e-21)
(20.1837 0.565133 3.32048e-20)
(20.1684 0.574356 -3.09698e-20)
(20.1528 0.58251 2.12745e-21)
(20.137 0.5896 -2.20846e-21)
(20.121 0.595641 0)
(20.1047 0.600627 0)
(20.0883 0.604569 1.19668e-21)
(20.0717 0.607496 1.22696e-21)
(20.0551 0.609418 0)
(20.0385 0.610338 0)
(20.022 0.610266 0)
(20.2281 0.503631 0)
(20.2151 0.514823 0)
(20.202 0.525535 0)
(20.1885 0.535348 3.14513e-20)
(20.1747 0.544302 -6.75776e-20)
(20.1606 0.5524 3.19604e-20)
(20.1462 0.559641 -3.57688e-20)
(20.1315 0.565981 1.39013e-21)
(20.1166 0.571432 3.68172e-20)
(20.1015 0.575946 0)
(20.0861 0.579503 -2.11908e-20)
(20.0704 0.582146 1.75384e-20)
(20.0547 0.583891 2.11519e-20)
(20.039 0.584709 -1.04028e-20)
(20.0233 0.584617 -1.09536e-20)
(20.2166 0.491414 -1.94767e-21)
(20.205 0.500928 0)
(20.1929 0.51005 0)
(20.1803 0.518634 3.63367e-20)
(20.1676 0.526574 -3.19915e-20)
(20.1544 0.533807 3.78772e-20)
(20.141 0.540366 -3.57202e-20)
(20.1272 0.546131 -2.32351e-21)
(20.1132 0.551152 1.92484e-20)
(20.0989 0.55532 -4.16071e-20)
(20.0844 0.558558 1.99239e-20)
(20.0694 0.560959 -1.83827e-20)
(20.0544 0.56257 1.29936e-20)
(20.0393 0.56328 1.08646e-20)
(20.0242 0.563156 -2.82057e-21)
(20.2071 0.479881 4.77211e-23)
(20.1966 0.488393 -1.47501e-20)
(20.1856 0.496426 1.67687e-20)
(20.1735 0.504113 2.57073e-23)
(20.1619 0.511364 -2.20615e-21)
(20.1492 0.517893 -2.03121e-20)
(20.1367 0.523972 1.81284e-20)
(20.1236 0.529235 -1.66414e-20)
(20.1103 0.533975 1.666e-20)
(20.0968 0.537914 2.47124e-21)
(20.0832 0.540817 2.05768e-20)
(20.0687 0.542939 -2.07164e-20)
(20.0543 0.544496 -5.37127e-21)
(20.0398 0.545099 -2.82904e-21)
(20.0252 0.544971 8.45919e-21)
(20.1978 0.469242 -2.17736e-21)
(20.1889 0.477672 1.38896e-23)
(20.1792 0.484645 0)
(20.1673 0.491424 -4.3188e-21)
(20.1569 0.498344 2.22005e-21)
(20.1445 0.504177 -1.60788e-20)
(20.1329 0.51 1.84013e-20)
(20.1202 0.514589 2.43768e-21)
(20.1075 0.519206 -2.52819e-24)
(20.0945 0.523274 -2.01814e-20)
(20.0822 0.525921 2.0412e-20)
(20.0684 0.52764 0)
(20.0551 0.529248 5.50851e-21)
(20.0414 0.529506 -8.60087e-21)
(20.0269 0.529503 5.68535e-21)
(19.6352 2.62711 0)
(19.3415 2.54125 -2.87458e-22)
(19.1043 2.43101 -9.2539e-20)
(18.9244 2.30982 1.05008e-19)
(18.7999 2.17194 -1.17727e-21)
(18.7287 2.01597 2.46669e-21)
(18.7069 1.84336 3.43444e-19)
(18.7279 1.65715 -3.68152e-19)
(18.7828 1.46205 0)
(18.8608 1.26471 -2.8215e-21)
(18.9506 1.0734 0)
(19.0421 0.896867 0)
(19.1281 0.742296 4.05963e-19)
(19.206 0.613369 -4.28308e-19)
(19.2753 0.501952 1.84642e-20)
(19.9327 1.64269 0)
(19.8669 1.62005 2.46173e-22)
(19.8013 1.58039 -3.26703e-23)
(19.737 1.52534 9.22684e-20)
(19.6749 1.45621 -1.0024e-19)
(19.6159 1.37498 -8.11928e-22)
(19.5609 1.28418 1.83069e-21)
(19.5106 1.187 0)
(19.4658 1.08702 2.23044e-21)
(19.4278 0.987645 -5.5109e-21)
(19.3985 0.891558 -5.07408e-21)
(19.38 0.800221 -3.62932e-19)
(19.374 0.713697 3.78604e-19)
(19.3811 0.631309 2.31174e-20)
(19.3994 0.547579 -4.19256e-20)
(19.9456 1.18295 0)
(19.8966 1.17658 8.76199e-22)
(19.8466 1.16526 -6.44703e-20)
(19.7962 1.1487 6.65364e-20)
(19.7464 1.12649 -7.96997e-20)
(19.6981 1.09831 -9.18138e-20)
(19.6524 1.06385 1.86526e-19)
(19.6105 1.02281 0)
(19.5736 0.975023 1.49367e-21)
(19.5429 0.920524 0)
(19.5191 0.859676 -2.75443e-19)
(19.5026 0.793425 1.41925e-19)
(19.4933 0.723363 7.01921e-21)
(19.4908 0.651572 1.63672e-19)
(19.4941 0.577216 -3.64875e-20)
(19.9741 1.00608 7.30977e-21)
(19.9417 1.00092 -8.53745e-21)
(19.9085 0.992435 -3.4029e-20)
(19.8746 0.980383 3.7691e-20)
(19.8403 0.964461 -8.12401e-20)
(19.806 0.944429 8.48098e-20)
(19.772 0.920079 -9.54205e-20)
(19.7386 0.891252 9.99784e-20)
(19.7064 0.857908 -2.26266e-19)
(19.6759 0.820096 2.33008e-19)
(19.6478 0.777999 0)
(19.6231 0.731955 0)
(19.6024 0.682423 -8.96512e-21)
(19.5867 0.629821 -9.17362e-21)
(19.5766 0.573135 1.79606e-20)
(19.9824 0.876315 4.87989e-22)
(19.9553 0.872719 0)
(19.9277 0.866913 -3.65562e-20)
(19.8997 0.858746 -6.77493e-22)
(19.8715 0.84802 3.79673e-20)
(19.8432 0.83454 8.74055e-20)
(19.8151 0.818112 -1.80593e-19)
(19.7874 0.798532 -2.82764e-21)
(19.7605 0.775616 9.81613e-20)
(19.7347 0.749194 0)
(19.7105 0.719151 0)
(19.6883 0.685465 0)
(19.6686 0.648232 1.21361e-19)
(19.6518 0.607527 -1.2292e-19)
(19.6385 0.562917 0)
(19.9909 0.790938 -5.37858e-22)
(19.9679 0.787874 3.67109e-20)
(19.9447 0.783073 -3.62627e-20)
(19.9211 0.776443 4.02627e-20)
(19.8974 0.767862 -1.25151e-19)
(19.8737 0.757206 1.72682e-19)
(19.8501 0.744355 -1.82711e-19)
(19.8266 0.729184 1.92089e-19)
(19.8035 0.711558 2.54628e-21)
(19.781 0.691345 -1.05152e-19)
(19.7593 0.668435 -1.12973e-19)
(19.7387 0.642741 1.15907e-19)
(19.7194 0.614238 7.78247e-21)
(19.702 0.582879 -4.74048e-20)
(19.6863 0.548701 3.77867e-20)
(19.9959 0.727265 9.19073e-21)
(19.9754 0.724619 2.42259e-21)
(19.9547 0.720537 -2.52731e-21)
(19.9338 0.714963 -4.35856e-20)
(19.913 0.707824 4.39948e-20)
(19.8922 0.699047 4.5277e-20)
(19.8715 0.688559 -4.58681e-20)
(19.851 0.67628 0)
(19.8308 0.662114 3.18534e-21)
(19.8111 0.64596 1.05767e-19)
(19.7919 0.62772 -1.07978e-19)
(19.7734 0.60729 3.49988e-21)
(19.7559 0.584589 0)
(19.7395 0.559511 -3.02532e-20)
(19.7248 0.532098 2.14577e-20)
(20 0.678694 0)
(19.9813 0.676308 -1.30295e-21)
(19.9625 0.672682 2.5606e-20)
(19.9437 0.667772 -2.16375e-20)
(19.9249 0.661544 -4.40532e-20)
(19.9062 0.653966 4.56498e-20)
(19.8877 0.644994 0)
(19.8694 0.634586 5.24472e-20)
(19.8514 0.622689 -4.99523e-20)
(19.8338 0.609236 0)
(19.8166 0.594158 3.33452e-21)
(19.7999 0.577375 -6.96633e-21)
(19.7839 0.558809 0)
(19.7686 0.538428 7.46785e-21)
(19.7545 0.516296 -7.3788e-21)
(20.0031 0.640278 0)
(19.9858 0.638089 -5.24453e-24)
(19.9684 0.634793 -2.68019e-20)
(19.951 0.630362 2.11326e-20)
(19.9338 0.624781 -1.46077e-21)
(19.9167 0.618049 -4.79787e-20)
(19.8997 0.610153 -9.60393e-22)
(19.8831 0.601069 4.29519e-20)
(19.8668 0.590778 0)
(19.8508 0.579241 5.25949e-20)
(19.8353 0.566417 -5.97865e-20)
(19.8201 0.552253 6.8799e-21)
(19.8055 0.536688 0)
(19.7914 0.519726 -1.45402e-20)
(19.7777 0.501078 2.90217e-20)
(20.0057 0.609214 -4.17024e-21)
(19.9893 0.607182 -3.12264e-23)
(19.973 0.604138 6.01938e-24)
(19.9568 0.600059 2.37953e-20)
(19.9408 0.59495 -2.51765e-20)
(19.9248 0.588838 -4.90909e-20)
(19.9092 0.581733 9.5798e-20)
(19.8938 0.573625 -4.66995e-20)
(19.8788 0.564509 0)
(19.8641 0.554379 -3.24868e-21)
(19.8499 0.543224 3.36101e-21)
(19.8361 0.531025 4.813e-20)
(19.8227 0.517758 -5.88374e-20)
(19.8099 0.503497 -1.433e-20)
(19.7976 0.487712 -3.67198e-21)
(20.0077 0.583613 -1.45193e-21)
(19.9922 0.581714 4.34659e-21)
(19.9768 0.578886 4.63722e-24)
(19.9615 0.575073 1.50924e-21)
(19.9463 0.570316 1.53012e-21)
(19.9313 0.564681 0)
(19.9166 0.558187 6.26712e-21)
(19.9023 0.550822 0)
(19.8883 0.54259 5.19687e-20)
(19.8747 0.533518 -4.86892e-20)
(19.8616 0.523615 -5.36597e-20)
(19.8488 0.512892 5.7284e-20)
(19.8365 0.501346 6.91239e-21)
(19.8246 0.489069 0)
(19.8131 0.475406 -3.5649e-21)
(20.0093 0.562169 -5.82295e-21)
(19.9943 0.560397 -3.05317e-21)
(19.9797 0.557803 7.47926e-21)
(19.9653 0.554206 0)
(19.9509 0.549699 0)
(19.9366 0.544448 -3.11245e-21)
(19.9227 0.538452 -2.54725e-20)
(19.9092 0.531658 2.85167e-20)
(19.8961 0.524095 0)
(19.8833 0.515831 0)
(19.871 0.506891 0)
(19.8591 0.497306 3.35595e-21)
(19.8477 0.487094 -6.85788e-21)
(19.8368 0.476302 0)
(19.8263 0.464389 0)
(20.0109 0.543964 2.91444e-21)
(19.9961 0.542333 0)
(19.9824 0.540077 0)
(19.9686 0.536652 -1.23384e-20)
(19.9548 0.532267 1.22554e-20)
(19.9409 0.527326 3.13067e-21)
(19.9277 0.521759 2.54211e-20)
(19.9149 0.515403 -3.16865e-20)
(19.9025 0.508324 0)
(19.8905 0.500686 -2.30144e-20)
(19.8789 0.492502 -3.36589e-22)
(19.8678 0.483837 -3.68459e-21)
(19.8572 0.474694 3.04589e-20)
(19.847 0.465096 1.03823e-20)
(19.8376 0.455021 -7.08782e-21)
(20.0131 0.528364 2.95698e-21)
(19.9982 0.52689 -5.98028e-21)
(19.9854 0.525056 1.79539e-20)
(19.9719 0.521559 2.31444e-22)
(19.9582 0.51725 -9.22194e-21)
(19.9446 0.512687 0)
(19.9322 0.507504 -6.27051e-21)
(19.9199 0.501466 3.22635e-21)
(19.9082 0.494709 0)
(19.8966 0.487611 -3.32528e-20)
(19.8859 0.480023 2.64073e-20)
(19.8752 0.472135 -1.33875e-20)
(19.8655 0.463844 -3.50884e-21)
(19.8561 0.455013 1.38354e-20)
(19.8477 0.445364 0)
(19.964 -0.298821 0)
(19.8652 -0.303224 -2.9153e-19)
(19.7227 -0.308306 3.24486e-19)
(19.5226 -0.312541 0)
(19.258 -0.315882 0)
(18.9291 -0.318298 6.70218e-21)
(18.5395 -0.319964 1.05192e-18)
(18.0933 -0.321021 -1.76445e-18)
(17.5921 -0.321536 -1.25458e-20)
(17.0318 -0.321475 -3.16679e-21)
(16.3985 -0.320959 1.75737e-18)
(15.6587 -0.319599 -1.0399e-18)
(14.745 -0.317262 -3.18523e-19)
(13.5657 -0.285115 2.0683e-19)
(12.3743 -0.26755 8.03297e-23)
(19.9592 -0.295849 -1.73608e-20)
(19.871 -0.298959 1.34689e-19)
(19.7481 -0.303222 -1.80234e-19)
(19.5799 -0.307686 1.15627e-20)
(19.3598 -0.312266 -4.1109e-19)
(19.0856 -0.316735 4.492e-19)
(18.7573 -0.32079 4.86817e-19)
(18.3751 -0.324088 1.39126e-21)
(17.937 -0.326334 -5.76853e-19)
(17.4362 -0.327314 -5.07245e-21)
(16.8557 -0.327147 3.67881e-19)
(16.1607 -0.325343 -2.28694e-21)
(15.2959 -0.321761 -5.14525e-19)
(14.2463 -0.29677 5.24226e-21)
(13.383 -0.244053 -2.06267e-19)
(19.9561 -0.295452 1.84422e-20)
(19.8773 -0.299811 1.81575e-19)
(19.7699 -0.30533 -1.65229e-19)
(19.6257 -0.310836 -1.19673e-20)
(19.438 -0.315901 6.46977e-21)
(19.203 -0.32016 4.37105e-19)
(18.9184 -0.323364 -4.90524e-19)
(18.5817 -0.325388 -5.30328e-19)
(18.1884 -0.326218 -1.28794e-22)
(17.7289 -0.325918 6.49243e-19)
(17.1843 -0.324716 0)
(16.5194 -0.321947 0)
(15.6888 -0.315415 0)
(14.7142 -0.29138 -2.37053e-21)
(13.9769 -0.232433 -1.82391e-19)
(19.9512 -0.294753 -7.84544e-20)
(19.8788 -0.299024 9.65927e-20)
(19.782 -0.304118 1.74482e-19)
(19.6544 -0.308861 -2.0108e-19)
(19.4899 -0.312987 4.35257e-19)
(19.2839 -0.316331 1.10824e-21)
(19.0323 -0.318785 -1.01139e-18)
(18.7306 -0.320301 2.76548e-19)
(18.372 -0.320875 6.0871e-19)
(17.9446 -0.320555 -3.36646e-19)
(17.4275 -0.319467 -1.19017e-20)
(16.7855 -0.31686 -3.39623e-21)
(15.9791 -0.309151 0)
(15.0466 -0.28483 4.79958e-21)
(14.3646 -0.227096 -5.59161e-21)
(19.9464 -0.293492 -2.09329e-20)
(19.8793 -0.296667 1.04678e-22)
(19.7918 -0.300896 2.44825e-20)
(19.6783 -0.304879 0)
(19.5332 -0.308419 7.10243e-21)
(19.3512 -0.311385 2.51886e-19)
(19.1269 -0.313642 -7.58527e-21)
(18.854 -0.315099 -5.74661e-19)
(18.5238 -0.315722 3.10605e-19)
(18.1228 -0.315534 0)
(17.6285 -0.314579 5.8616e-21)
(17.0053 -0.312085 3.3441e-21)
(16.2173 -0.303948 1.24817e-19)
(15.3101 -0.279444 -1.52873e-19)
(14.6565 -0.223996 -8.2073e-20)
(19.9426 -0.291329 -5.49319e-20)
(19.8808 -0.294204 2.38987e-20)
(19.8017 -0.298053 6.7646e-23)
(19.7003 -0.301608 6.85088e-21)
(19.5713 -0.304783 -2.41113e-19)
(19.4088 -0.307476 2.3414e-19)
(19.2065 -0.309549 0)
(18.957 -0.310912 4.51306e-21)
(18.6502 -0.311532 0)
(18.2711 -0.311423 0)
(17.796 -0.310564 5.92567e-21)
(17.1888 -0.308129 -6.66705e-21)
(16.4152 -0.299861 -1.29736e-19)
(15.5242 -0.275345 1.43102e-19)
(14.8868 -0.221727 -5.18504e-21)
(19.9392 -0.289334 -2.30785e-20)
(19.8825 -0.292139 6.27265e-20)
(19.8105 -0.295646 -1.33001e-20)
(19.719 -0.298854 -7.05647e-21)
(19.6027 -0.301739 0)
(19.4559 -0.30422 7.98422e-21)
(19.2715 -0.306176 0)
(19.0412 -0.30752 4.59594e-21)
(18.7538 -0.308202 1.58534e-19)
(18.3932 -0.308213 -5.1764e-21)
(17.9345 -0.307472 -1.89208e-19)
(17.3411 -0.305085 6.57987e-21)
(16.579 -0.296764 -1.74491e-23)
(15.6989 -0.272255 -3.47026e-20)
(15.0712 -0.219839 -3.97989e-20)
(19.9368 -0.288267 -1.24221e-20)
(19.8839 -0.290507 1.0522e-19)
(19.8178 -0.293541 -1.10756e-19)
(19.7344 -0.296444 -7.32475e-21)
(19.6286 -0.299135 -1.15947e-19)
(19.4945 -0.301525 2.62029e-19)
(19.3248 -0.303488 -2.78704e-19)
(19.1105 -0.304918 2.93062e-19)
(18.8396 -0.30574 1.57178e-22)
(18.495 -0.305909 -1.62024e-19)
(18.0506 -0.305288 -5.90071e-21)
(17.4693 -0.302922 0)
(16.7168 -0.294538 -7.12179e-24)
(15.8444 -0.269982 4.20778e-20)
(15.2226 -0.218267 -3.80135e-20)
(19.9343 -0.28558 -3.92166e-20)
(19.8852 -0.288471 8.22722e-20)
(19.8241 -0.291511 -5.74076e-20)
(19.7474 -0.294328 1.20613e-19)
(19.6502 -0.296981 -1.34653e-19)
(19.5266 -0.299412 0)
(19.3692 -0.301505 8.86908e-21)
(19.1684 -0.303138 -1.50658e-19)
(18.9115 -0.304205 -5.09728e-21)
(18.5806 -0.304621 1.73046e-19)
(18.149 -0.304167 1.05556e-19)
(17.5784 -0.301798 -1.02951e-19)
(16.8343 -0.293193 7.17625e-21)
(15.9678 -0.2683 -8.15491e-21)
(15.3501 -0.216786 -3.65813e-20)
(19.9318 -0.284131 2.02488e-20)
(19.886 -0.286867 0)
(19.8294 -0.289713 -7.44175e-21)
(19.7584 -0.292477 1.31819e-19)
(19.6685 -0.295156 -1.29748e-19)
(19.5537 -0.297695 0)
(19.4065 -0.299991 -8.97028e-21)
(19.2171 -0.301918 0)
(18.9724 -0.30335 5.04922e-21)
(18.6538 -0.304155 8.10489e-20)
(18.2338 -0.304069 -8.74009e-20)
(17.6734 -0.301863 -1.01433e-19)
(16.9374 -0.293225 4.92168e-20)
(16.0756 -0.267981 4.74044e-20)
(15.4603 -0.216082 1.75394e-20)
(19.9295 -0.282938 -7.15257e-21)
(19.8866 -0.285517 -7.42175e-21)
(19.8338 -0.288217 7.64903e-21)
(19.7676 -0.290924 0)
(19.6835 -0.293646 0)
(19.5759 -0.296359 0)
(19.4371 -0.29898 1.45533e-19)
(19.2571 -0.301353 -1.53344e-19)
(19.0226 -0.303322 0)
(18.7142 -0.304849 -8.61881e-20)
(18.3037 -0.305541 6.93398e-20)
(17.7523 -0.303935 -3.73248e-20)
(17.0233 -0.294678 6.17026e-20)
(16.1678 -0.267834 1.52909e-20)
(15.5557 -0.214673 1.6914e-20)
(19.9276 -0.281164 2.25585e-20)
(19.8874 -0.284092 -2.29993e-20)
(19.838 -0.286776 0)
(19.776 -0.289385 0)
(19.6971 -0.292036 0)
(19.5958 -0.294793 -8.80822e-21)
(19.4645 -0.297626 9.21024e-21)
(19.2934 -0.300404 -9.66286e-21)
(19.0685 -0.302857 0)
(18.77 -0.304909 0)
(18.37 -0.307123 2.29584e-20)
(17.8287 -0.307243 -2.46267e-20)
(17.1121 -0.300226 -1.32762e-20)
(16.2574 -0.273304 0)
(15.6452 -0.216554 -1.61944e-20)
(19.9244 -0.280263 0)
(19.8865 -0.283079 7.94029e-21)
(19.8399 -0.285684 0)
(19.7812 -0.288232 6.64427e-20)
(19.7059 -0.290925 -5.9926e-20)
(19.6086 -0.293918 8.88423e-21)
(19.4817 -0.297321 -9.25372e-21)
(19.3152 -0.300816 9.67187e-21)
(19.0963 -0.303694 0)
(18.8026 -0.30671 0)
(18.4021 -0.311178 -1.13624e-20)
(17.8658 -0.316801 1.2116e-20)
(17.1486 -0.307156 2.61485e-20)
(16.3217 -0.273611 0)
(15.7214 -0.212018 0)
(19.9261 -0.279093 1.64129e-20)
(19.8907 -0.281859 -2.45552e-20)
(19.8476 -0.284405 0)
(19.7928 -0.286372 0)
(19.7231 -0.288347 -8.77325e-21)
(19.6331 -0.290708 0)
(19.5157 -0.293867 0)
(19.3621 -0.298452 8.8442e-20)
(19.157 -0.301491 -1.74841e-19)
(18.878 -0.30023 8.71581e-20)
(18.498 -0.306155 -4.6906e-20)
(17.9722 -0.320091 1.10707e-19)
(17.3246 -0.330004 -5.43327e-20)
(16.4278 -0.301997 0)
(15.8258 -0.224599 0)
(12.8709 -0.11179 2.74455e-19)
(14.4207 -0.162194 -8.15539e-19)
(15.713 -0.176236 6.30547e-19)
(16.6711 -0.206155 0)
(17.4354 -0.228943 -8.86369e-19)
(18.0782 -0.248404 -1.04838e-21)
(18.6287 -0.265138 6.81312e-19)
(19.0955 -0.279364 0)
(19.4778 -0.290874 1.07152e-18)
(19.7718 -0.299472 -9.7626e-19)
(19.9771 -0.305093 -3.85625e-23)
(20.1014 -0.307731 -4.01849e-19)
(20.1643 -0.308115 -1.13197e-20)
(20.187 -0.306755 4.5525e-19)
(20.1858 -0.304011 -1.07469e-19)
(13.7811 -0.144421 6.04198e-19)
(15.0896 -0.148305 -3.09107e-19)
(16.2947 -0.167066 -2.13416e-21)
(17.207 -0.19429 -3.34546e-21)
(17.9151 -0.214531 2.89784e-21)
(18.4894 -0.232166 -2.75224e-21)
(18.9636 -0.247895 5.95515e-19)
(19.3513 -0.262087 -5.37675e-19)
(19.6573 -0.274456 -4.98661e-19)
(19.8845 -0.284521 4.5109e-19)
(20.0383 -0.2918 -4.23173e-19)
(20.1297 -0.295937 4.04045e-19)
(20.1754 -0.297339 1.34158e-22)
(20.1912 -0.296752 1.67033e-19)
(20.1886 -0.294854 -1.51724e-19)
(14.3506 -0.157566 1.78349e-19)
(15.5571 -0.147941 -5.97835e-19)
(16.7086 -0.16692 4.88766e-19)
(17.5866 -0.190392 3.24425e-21)
(18.2532 -0.208361 -7.36029e-19)
(18.7768 -0.223286 -3.42935e-21)
(19.1947 -0.236017 5.90037e-19)
(19.5248 -0.247301 -5.44592e-19)
(19.7767 -0.257325 5.05906e-19)
(19.9579 -0.266075 -4.52673e-19)
(20.0776 -0.273358 4.29179e-19)
(20.1479 -0.278847 0)
(20.1825 -0.282453 1.52597e-23)
(20.1937 -0.284359 -1.85485e-19)
(20.1902 -0.284847 1.80482e-19)
(14.7359 -0.161791 3.64911e-19)
(15.8978 -0.14932 2.97282e-19)
(17.0164 -0.167266 -9.92003e-19)
(17.8668 -0.188845 4.27702e-19)
(18.4995 -0.206075 3.85399e-19)
(18.9821 -0.219921 -3.39949e-19)
(19.355 -0.231394 0)
(19.6401 -0.241286 0)
(19.8512 -0.249877 5.26423e-19)
(19.9994 -0.25728 -4.85198e-19)
(20.0963 -0.263476 4.53876e-19)
(20.1535 -0.268383 -4.1986e-19)
(20.1824 -0.272011 1.22302e-20)
(20.1921 -0.274497 -1.72161e-19)
(20.1893 -0.276002 1.9133e-19)
(15.0313 -0.16349 4.22995e-19)
(16.1719 -0.151095 8.06936e-22)
(17.268 -0.168054 -2.4398e-19)
(18.0947 -0.188534 -6.67912e-21)
(18.6978 -0.205126 -5.91013e-21)
(19.1456 -0.218143 0)
(19.4812 -0.228749 0)
(19.7298 -0.237747 4.55256e-21)
(19.9084 -0.245465 5.32373e-19)
(20.031 -0.25204 -1.01277e-18)
(20.11 -0.25749 4.68228e-19)
(20.1568 -0.261813 0)
(20.1808 -0.265081 0)
(20.1893 -0.267454 0)
(20.1873 -0.269138 0)
(15.2667 -0.164141 5.07285e-21)
(16.3969 -0.152314 0)
(17.4763 -0.168539 2.31396e-19)
(18.2819 -0.18827 -2.03598e-19)
(18.8589 -0.204238 0)
(19.2767 -0.216542 -3.40479e-19)
(19.5811 -0.226405 3.22182e-19)
(19.8002 -0.234625 -2.9972e-19)
(19.9534 -0.241576 2.65286e-19)
(20.0563 -0.247443 -8.04542e-21)
(20.1217 -0.252308 0)
(20.1602 -0.256242 -2.34981e-19)
(20.18 -0.259336 2.13557e-19)
(20.187 -0.261714 -1.26275e-20)
(20.1853 -0.263575 1.19501e-20)
(15.4567 -0.164107 2.329e-19)
(16.582 -0.152699 -1.33682e-19)
(17.6483 -0.168341 7.28015e-21)
(18.4352 -0.187484 -6.50897e-21)
(18.9888 -0.202906 0)
(19.3806 -0.21466 -5.4001e-21)
(19.6588 -0.223976 3.16111e-19)
(19.8538 -0.231635 -2.97948e-19)
(19.9871 -0.238028 8.71744e-21)
(20.0749 -0.243369 8.19821e-21)
(20.13 -0.247792 0)
(20.1623 -0.251424 7.32692e-21)
(20.1789 -0.254379 0)
(20.1848 -0.256751 1.31763e-20)
(20.1834 -0.258699 -1.25539e-20)
(15.6137 -0.163691 0)
(16.737 -0.152437 8.10963e-21)
(17.7924 -0.167497 -2.36042e-19)
(18.5622 -0.186056 2.11477e-19)
(19.0947 -0.200971 -5.87683e-21)
(19.4638 -0.212305 -5.43273e-21)
(19.7197 -0.22126 3.18816e-19)
(19.895 -0.228587 -2.92493e-19)
(20.0123 -0.234671 2.76374e-19)
(20.0884 -0.239729 9.58506e-21)
(20.1356 -0.243924 -2.54448e-19)
(20.1632 -0.247402 0)
(20.1774 -0.250289 -7.23561e-21)
(20.1824 -0.252683 0)
(20.1813 -0.25482 0)
(15.7468 -0.162778 3.56775e-20)
(16.8696 -0.151405 -7.86047e-21)
(17.9152 -0.165859 6.98212e-21)
(18.6692 -0.183852 0)
(19.1826 -0.198329 1.93041e-19)
(19.5314 -0.209387 6.28406e-21)
(19.7682 -0.218172 -1.57216e-19)
(19.9271 -0.225392 1.43938e-19)
(20.0316 -0.231399 -1.44478e-19)
(20.0983 -0.236397 1.37715e-19)
(20.1394 -0.240552 -1.3058e-19)
(20.1633 -0.244017 -7.83154e-21)
(20.1755 -0.24692 1.3493e-19)
(20.18 -0.249347 -1.14615e-19)
(20.1791 -0.251517 -2.80203e-20)
(15.8615 -0.161881 -7.73106e-20)
(16.9839 -0.149775 5.32073e-20)
(18.0204 -0.163243 0)
(18.7596 -0.180494 -2.00394e-19)
(19.2555 -0.194588 1.84799e-19)
(19.5864 -0.205604 0)
(19.8068 -0.214569 0)
(19.9521 -0.222039 0)
(20.0461 -0.228255 1.56531e-19)
(20.1055 -0.233403 -2.89017e-19)
(20.1418 -0.237656 2.5971e-19)
(20.1628 -0.241192 -1.12335e-19)
(20.1735 -0.244147 2.82959e-23)
(20.1775 -0.246598 5.98174e-20)
(20.1769 -0.248714 -2.91127e-20)
(15.9624 -0.159385 -2.46531e-20)
(17.0857 -0.146274 1.25848e-19)
(18.1137 -0.158963 8.42372e-22)
(18.8385 -0.175824 -2.0917e-19)
(19.3174 -0.189924 9.1679e-20)
(19.6317 -0.201354 -1.08793e-20)
(19.8374 -0.210877 0)
(19.9712 -0.218865 0)
(20.0568 -0.225514 0)
(20.1105 -0.23093 -1.34079e-19)
(20.1431 -0.235339 8.08528e-21)
(20.1618 -0.238961 1.15395e-19)
(20.1715 -0.241962 -1.59693e-20)
(20.1752 -0.244429 6.97922e-20)
(20.1748 -0.246437 -7.51537e-20)
(16.0521 -0.158325 1.57967e-20)
(17.1718 -0.142723 0)
(18.1898 -0.153239 -1.17585e-19)
(18.9006 -0.168785 1.09543e-20)
(19.3651 -0.1829 7.92653e-20)
(19.6653 -0.195308 -7.63131e-20)
(19.8603 -0.206465 2.48267e-19)
(19.9851 -0.215955 -3.15814e-19)
(20.0644 -0.223375 2.92857e-19)
(20.1137 -0.229146 -1.44889e-19)
(20.1434 -0.233657 -8.7656e-21)
(20.1605 -0.237319 1.69223e-20)
(20.1694 -0.240357 -2.83136e-23)
(20.1729 -0.242877 -8.00135e-21)
(20.1728 -0.244971 -7.85925e-21)
(16.1347 -0.148685 0)
(17.2615 -0.132746 0)
(18.2735 -0.143948 5.15877e-20)
(18.9702 -0.160619 -1.56139e-19)
(19.415 -0.176086 1.01891e-19)
(19.6991 -0.191381 1.09258e-20)
(19.8785 -0.204653 0)
(19.9957 -0.214684 0)
(20.0698 -0.222555 9.53093e-21)
(20.116 -0.228216 6.45302e-20)
(20.1436 -0.232638 -1.42442e-19)
(20.1592 -0.236298 5.18055e-20)
(20.1674 -0.239308 -2.67358e-23)
(20.1707 -0.241746 0)
(20.1709 -0.243681 0)
(16.2071 -0.148629 1.45076e-20)
(17.3049 -0.128841 -5.35405e-20)
(18.2967 -0.132937 6.11467e-20)
(18.976 -0.145371 1.17071e-20)
(19.4206 -0.162178 9.01218e-20)
(19.6921 -0.179815 -1.84174e-19)
(19.8871 -0.19932 9.39853e-20)
(20.0008 -0.21417 -8.03357e-20)
(20.0741 -0.222611 7.78081e-20)
(20.1172 -0.228036 0)
(20.1426 -0.231976 8.99007e-21)
(20.1569 -0.235399 8.77407e-21)
(20.1655 -0.238515 1.72628e-20)
(20.1687 -0.240904 8.4753e-21)
(20.1691 -0.242856 0)
(19.8865 0.249635 -1.21292e-18)
(20.9269 -0.0964914 1.90869e-21)
(21.1706 -0.0407955 -3.22162e-19)
(21.3585 0.0450016 2.63024e-19)
(21.5083 0.134199 0)
(21.6158 0.222849 -1.55489e-19)
(21.6744 0.313059 1.4296e-19)
(21.6791 0.400793 1.00954e-19)
(21.6295 0.478802 -8.82085e-20)
(21.532 0.539112 1.00823e-20)
(21.4 0.575136 2.91907e-21)
(21.2515 0.583455 0)
(21.1051 0.565582 9.7133e-21)
(20.974 0.527334 -1.90802e-20)
(20.8626 0.485177 -2.4072e-21)
(16.4136 -0.564205 -1.18826e-18)
(19.3825 -0.195623 3.07898e-19)
(19.8175 -0.208802 5.30992e-21)
(20.1286 -0.18215 -1.29706e-19)
(20.4054 -0.135651 1.92124e-19)
(20.6554 -0.0785061 -7.34374e-20)
(20.8708 -0.0146737 6.66284e-20)
(21.0412 0.0530384 -6.64381e-20)
(21.1575 0.12143 4.52038e-20)
(21.2151 0.186693 -5.69748e-20)
(21.2159 0.24466 -3.56193e-21)
(21.1696 0.291029 2.44364e-20)
(21.0915 0.322326 -2.20896e-20)
(20.9982 0.335623 5.81066e-21)
(20.9035 0.339281 1.34887e-21)
(13.9742 -0.411321 0)
(18.9121 -0.0832458 -2.29784e-19)
(19.4834 -0.147231 1.33728e-19)
(19.7731 -0.13816 -3.56714e-21)
(20.0399 -0.113367 -1.4959e-21)
(20.2899 -0.0847963 5.26783e-20)
(20.5158 -0.0511247 -8.87627e-20)
(20.7092 -0.011874 7.75214e-20)
(20.8619 0.0315484 -3.36913e-20)
(20.9676 0.0765255 1.34937e-21)
(21.0241 0.119932 2.41042e-20)
(21.0349 0.158694 -2.23704e-21)
(21.0086 0.190533 4.3533e-21)
(20.9569 0.213 -2.84229e-21)
(20.8923 0.230431 -9.3712e-21)
(12.5719 -0.302561 0)
(18.6648 -0.160199 -2.22862e-21)
(19.4484 -0.237497 -1.87549e-19)
(19.7402 -0.216874 2.593e-19)
(19.9849 -0.199177 -2.32762e-21)
(20.2116 -0.180806 -1.43479e-19)
(20.4186 -0.157103 5.84198e-20)
(20.5999 -0.126516 0)
(20.7485 -0.0893772 -2.15844e-21)
(20.8586 -0.0471615 7.373e-21)
(20.927 -0.00249908 3.13753e-21)
(20.9548 0.0411457 -1.29144e-20)
(20.948 0.080422 2.01214e-20)
(20.9156 0.112318 -1.90731e-20)
(20.8682 0.134197 7.07985e-21)
(12.6936 -0.205037 5.90012e-21)
(18.0036 -0.299488 2.23764e-19)
(19.1508 -0.308801 -1.29769e-21)
(19.5821 -0.277871 -5.9845e-22)
(19.852 -0.264018 0)
(20.0784 -0.249358 -2.22885e-21)
(20.2821 -0.230153 4.9678e-20)
(20.4633 -0.205213 -4.14933e-20)
(20.6172 -0.174293 2.33789e-21)
(20.7384 -0.137697 -3.75357e-21)
(20.823 -0.0966651 -2.27965e-21)
(20.8703 -0.0534815 -4.53587e-21)
(20.8834 -0.0110553 5.3404e-21)
(20.8693 0.0281864 0)
(20.837 0.0573847 0)
(13.5729 -0.182343 2.07187e-19)
(17.1895 -0.353442 -1.20098e-21)
(18.7078 -0.307027 -8.28528e-20)
(19.3517 -0.28569 6.13703e-20)
(19.6921 -0.274869 0)
(19.9368 -0.263303 -4.09339e-20)
(20.1442 -0.248805 3.43507e-20)
(20.3272 -0.230309 2.72191e-20)
(20.4854 -0.207036 5.98818e-22)
(20.6154 -0.178726 -1.94862e-20)
(20.7133 -0.145822 1.58342e-20)
(20.7774 -0.109528 -1.31684e-21)
(20.8093 -0.071752 -2.03702e-20)
(20.8134 -0.0337611 1.31826e-20)
(20.7962 -0.00224181 -1.71246e-21)
(14.0543 -0.228375 1.27377e-19)
(16.743 -0.324591 -7.51722e-20)
(18.3317 -0.290783 -5.64915e-20)
(19.1341 -0.282472 8.84353e-20)
(19.5603 -0.272599 -1.0433e-23)
(19.8351 -0.262998 -2.58546e-20)
(20.0496 -0.252107 2.33479e-20)
(20.2326 -0.238591 -2.33205e-22)
(20.3905 -0.221247 -1.73589e-20)
(20.5224 -0.199505 1.43438e-20)
(20.6257 -0.173418 -1.05897e-20)
(20.6987 -0.143645 -6.36089e-21)
(20.7421 -0.111494 8.86777e-21)
(20.759 -0.0776574 -8.96262e-21)
(20.7541 -0.0471353 3.34344e-21)
(14.1761 -0.247753 9.02029e-20)
(16.5082 -0.29106 5.09949e-22)
(18.0509 -0.284786 -6.37212e-22)
(18.9386 -0.281772 -9.86021e-22)
(19.4412 -0.272718 0)
(19.7522 -0.264464 -2.00569e-20)
(19.979 -0.2558 3.23043e-20)
(20.164 -0.245387 -1.35925e-20)
(20.3211 -0.231961 1.09641e-20)
(20.4529 -0.214778 -1.08175e-20)
(20.5582 -0.193594 4.5087e-22)
(20.6357 -0.168694 -1.82491e-21)
(20.6859 -0.140977 0)
(20.7111 -0.110953 0)
(20.7154 -0.0822017 -8.05258e-22)
(14.0915 -0.246884 0)
(16.3516 -0.273947 0)
(17.8373 -0.28284 1.26102e-22)
(18.7615 -0.281544 1.92385e-20)
(19.3225 -0.274307 -1.37171e-22)
(19.671 -0.267054 -6.5681e-22)
(19.9143 -0.259646 -1.02882e-20)
(20.1046 -0.251034 7.91481e-21)
(20.2625 -0.240141 -1.97798e-23)
(20.3944 -0.22615 -5.91612e-21)
(20.5011 -0.208628 4.30063e-21)
(20.5818 -0.187574 -5.90729e-22)
(20.6369 -0.16352 -3.49299e-21)
(20.6683 -0.136775 1.40087e-21)
(20.6796 -0.109389 -5.19363e-22)
(13.9473 -0.241516 0)
(16.2075 -0.267804 -3.16237e-23)