/*--------------------------------*- C++ -*----------------------------------*\
| =========                 |                                                 |
| \\      /  F ield         | OpenFOAM: The Open Source CFD Toolbox           |
|  \\    /   O peration     | Version:  2.3.0                                 |
|   \\  /    A nd           | Web:      www.OpenFOAM.org                      |
|    \\/     M anipulation  |                                                 |
\*---------------------------------------------------------------------------*/
FoamFile
{
    version     2.0;
    format      ascii;
    class       volScalarField;
    location    "3000";
    object      nuTilda;
}
// * * * * * * * * * * * * * * * * * * * * * * * * * * * * * * * * * * * * * //

dimensions      [0 2 -1 0 0 0 0];

internalField   nonuniform List<scalar> 
38323
(
0.0725668
0.0709711
0.0693711
0.0677659
0.0661565
0.0645434
0.0629277
0.0613101
0.0596915
0.0580728
0.056455
0.054839
0.0532255
0.0516153
0.0500092
0.0484076
0.0468111
0.0452206
0.0436364
0.0420587
0.0404884
0.0389255
0.0373706
0.0358242
0.0342867
0.032759
0.0312418
0.029736
0.0282427
0.0267632
0.0253
0.0238544
0.0224306
0.0210321
0.0196639
0.0183316
0.0170405
0.0157965
0.0145988
0.0134255
0.0122061
0.0107714
0.00900595
0.0736577
0.0722487
0.0708329
0.0694128
0.0679889
0.0665618
0.0651323
0.0637006
0.062267
0.0608325
0.0593975
0.0579626
0.0565284
0.0550954
0.0536639
0.0522345
0.0508076
0.049384
0.0479643
0.0465487
0.0451377
0.0437318
0.0423316
0.0409385
0.039553
0.0381761
0.0368091
0.0354547
0.0341149
0.0327921
0.031491
0.0302153
0.0289716
0.0277682
0.0266139
0.0255206
0.0245027
0.0235769
0.0227627
0.0220784
0.02154
0.0211599
0.0209455
0.0746798
0.073424
0.0721643
0.070901
0.0696343
0.0683642
0.0670911
0.065815
0.0645364
0.0632554
0.0619722
0.0606875
0.0594018
0.0581149
0.0568276
0.0555402
0.0542529
0.0529663
0.0516812
0.0503983
0.049118
0.0478407
0.0465672
0.045299
0.0440369
0.0427824
0.0415377
0.0403049
0.039087
0.0378875
0.0367109
0.0355625
0.0344489
0.0333781
0.0323586
0.0314017
0.0305197
0.0297257
0.0290339
0.028457
0.0280072
0.0276931
0.0275199
0.0756235
0.0745004
0.0733752
0.0722467
0.0711143
0.0699779
0.0688375
0.0676931
0.0665449
0.0653928
0.0642368
0.0630776
0.0619154
0.0607503
0.0595829
0.0584131
0.0572413
0.0560677
0.0548933
0.0537192
0.0525458
0.0513736
0.0502038
0.0490374
0.0478757
0.0467201
0.0455732
0.0444373
0.0433153
0.0422117
0.0411304
0.0400761
0.0390569
0.0380797
0.037152
0.0362846
0.0354884
0.0347741
0.0341531
0.0336358
0.0332318
0.0329478
0.0327876
0.0764867
0.0754824
0.0744747
0.0734623
0.072445
0.0714229
0.0703955
0.0693628
0.0683247
0.0672812
0.066232
0.0651779
0.064119
0.0630554
0.0619875
0.0609155
0.0598394
0.0587593
0.057676
0.056591
0.0555046
0.0544183
0.0533326
0.0522489
0.0511684
0.0500926
0.0490239
0.0479647
0.0469184
0.0458891
0.0448806
0.0438977
0.0429477
0.0420374
0.0411743
0.040368
0.0396286
0.0389659
0.0383892
0.0379086
0.0375317
0.0372643
0.0371099
0.0772768
0.076377
0.0754712
0.0745594
0.073641
0.0727164
0.0717855
0.0708478
0.0699032
0.0689515
0.0679926
0.0670267
0.0660542
0.0650754
0.0640905
0.0631
0.0621038
0.0611015
0.0600938
0.0590817
0.0580665
0.05705
0.0560333
0.0550171
0.0540029
0.052992
0.0519859
0.0509881
0.0500022
0.0490314
0.0480801
0.0471531
0.0462562
0.0453955
0.0445797
0.0438173
0.0431179
0.0424907
0.0419444
0.0414879
0.0411283
0.0408713
0.04072
0.0780026
0.0771915
0.0763737
0.0755492
0.0747156
0.0738744
0.0730261
0.0721696
0.0713045
0.0704308
0.0695486
0.0686572
0.0677573
0.0668493
0.0659336
0.0650112
0.0640825
0.0631461
0.0622017
0.0612504
0.0602933
0.059333
0.0583724
0.0574124
0.0564529
0.0554952
0.0545407
0.0535924
0.0526544
0.0517311
0.0508263
0.0499439
0.0490893
0.0482676
0.0474868
0.0467573
0.0460872
0.0454855
0.0449609
0.0445212
0.0441737
0.0439242
0.0437743
0.0786656
0.0779323
0.0771892
0.0764429
0.0756812
0.0749111
0.0741333
0.0733471
0.0725503
0.0717422
0.0709253
0.0700977
0.0692592
0.0684108
0.0675531
0.0666863
0.0658141
0.064935
0.0640455
0.0631454
0.0622373
0.0613209
0.0604055
0.0594913
0.058578
0.0576655
0.0567553
0.0558479
0.0549468
0.0540618
0.0531956
0.0523494
0.0515312
0.0507434
0.0499858
0.0492825
0.0486355
0.0480524
0.0475436
0.0471164
0.0467773
0.046535
0.0463856
0.0792763
0.07861
0.0779234
0.0772534
0.076551
0.0758406
0.0751203
0.0743934
0.073657
0.0729021
0.07214
0.0713687
0.0705833
0.069782
0.0689755
0.0681514
0.0673217
0.0664912
0.0656536
0.0647948
0.0639381
0.0630541
0.0621712
0.0612925
0.0604175
0.0595435
0.0586736
0.0578077
0.0569316
0.0560758
0.0552456
0.0544284
0.0536387
0.0528983
0.0521458
0.0514651
0.0508392
0.0502681
0.04977
0.0493541
0.0490195
0.0487896
0.0486361
0.00934253
0.0114261
0.0125754
0.0136036
0.014678
0.0158235
0.0170301
0.0182838
0.0195716
0.0208841
0.0222157
0.0235616
0.0249192
0.026286
0.0276607
0.0290419
0.0304292
0.0318221
0.0332199
0.0346223
0.0360295
0.0374408
0.0388562
0.040276
0.0416995
0.0431272
0.0445587
0.0459938
0.0474322
0.0488742
0.0503191
0.0517669
0.0532171
0.0546695
0.0561237
0.0575792
0.0590356
0.0604926
0.0619494
0.0634057
0.0648606
0.0663132
0.0677621
0.0208995
0.0210354
0.0213588
0.0218574
0.0225092
0.0232905
0.024179
0.0251528
0.0261923
0.0272841
0.0284165
0.0295804
0.0307691
0.0319772
0.0331995
0.0344337
0.0356776
0.0369282
0.0381851
0.0394467
0.0407123
0.0419813
0.0432531
0.0445277
0.0458047
0.0470836
0.0483645
0.0496471
0.0509314
0.0522171
0.0535041
0.0547921
0.0560809
0.0573705
0.0586607
0.0599513
0.0612421
0.0625328
0.0638233
0.0651131
0.0664021
0.0676895
0.0689749
0.0274854
0.0275914
0.0278426
0.0282317
0.0287482
0.0293795
0.0301101
0.0309238
0.0318063
0.0327471
0.0337336
0.0347576
0.035811
0.036888
0.0379831
0.0390932
0.0402145
0.0413442
0.0424809
0.0436225
0.0447679
0.0459162
0.047067
0.0482192
0.0493724
0.0505268
0.0516818
0.0528368
0.0539921
0.055147
0.0563013
0.0574551
0.0586083
0.059761
0.0609129
0.0620642
0.0632148
0.0643645
0.0655133
0.0666611
0.0678076
0.0689527
0.0700965
0.0327503
0.0328359
0.0330454
0.0333749
0.0338171
0.0343617
0.0349972
0.0357113
0.036493
0.0373307
0.0382155
0.0391378
0.0400914
0.041069
0.0420662
0.0430789
0.044103
0.045136
0.0461754
0.0472198
0.0482672
0.049317
0.0503682
0.0514201
0.0524721
0.0535236
0.0545742
0.0556238
0.0566717
0.0577175
0.058761
0.0598025
0.0608419
0.0618794
0.0629149
0.0639485
0.0649802
0.0660098
0.0670376
0.0680633
0.0690871
0.0701091
0.0711292
0.0370687
0.0371395
0.0373227
0.0376152
0.0380102
0.0384994
0.0390728
0.0397208
0.0404323
0.0411977
0.0420081
0.0428561
0.0437338
0.0446356
0.0455565
0.0464924
0.0474391
0.0483943
0.0493554
0.0503208
0.051289
0.0522587
0.0532288
0.0541987
0.0551673
0.0561344
0.0570994
0.0580614
0.0590201
0.0599747
0.0609256
0.0618729
0.0628167
0.0637574
0.0646947
0.0656287
0.0665593
0.0674867
0.0684108
0.0693316
0.0702497
0.0711652
0.0720781
0.0406743
0.0407342
0.040899
0.0411653
0.0415277
0.0419784
0.0425089
0.0431094
0.0437698
0.0444815
0.0452367
0.0460272
0.046847
0.0476897
0.0485504
0.0494245
0.0503094
0.0512015
0.0520993
0.053001
0.0539047
0.054809
0.0557129
0.0566156
0.057516
0.0584139
0.0593082
0.0601975
0.0610812
0.0619592
0.0628319
0.0637001
0.064564
0.0654232
0.0662775
0.0671268
0.0679715
0.0688116
0.0696468
0.0704774
0.0713042
0.0721277
0.0729477
0.0437254
0.043777
0.0439271
0.0441736
0.0445119
0.0449351
0.0454341
0.0459991
0.0466205
0.0472909
0.048003
0.0487495
0.0495235
0.0503185
0.05113
0.0519547
0.0527887
0.0536295
0.0544756
0.0553252
0.0561765
0.0570276
0.057877
0.0587239
0.0595681
0.0604095
0.0612453
0.0620734
0.062893
0.0637055
0.0645126
0.065315
0.0661119
0.0669023
0.067686
0.0684632
0.0692345
0.0700001
0.0707589
0.0715111
0.0722587
0.0730026
0.0737427
0.0463342
0.0463792
0.0465164
0.0467464
0.0470661
0.0474691
0.0479459
0.0484828
0.0490714
0.049709
0.050388
0.0511002
0.0518362
0.0525916
0.053363
0.0541465
0.0549385
0.0557367
0.0565406
0.0573485
0.0581568
0.0589636
0.0597673
0.060568
0.0613667
0.0621635
0.0629487
0.0637243
0.0644864
0.0652442
0.0659962
0.0667458
0.0674854
0.0682167
0.0689402
0.0696557
0.070364
0.0710671
0.0717589
0.0724426
0.0731214
0.0737967
0.0744677
0.0485824
0.0486237
0.0487457
0.0489607
0.0492641
0.0496516
0.0501107
0.0506201
0.0511778
0.0517904
0.0524422
0.0531263
0.0538268
0.0545495
0.055287
0.0560375
0.0567944
0.0575579
0.0583301
0.0591054
0.0598788
0.0606501
0.0614158
0.0621809
0.0629469
0.0637132
0.064442
0.0651719
0.0658785
0.0666017
0.0673052
0.0680154
0.0687006
0.0693831
0.0700542
0.0707175
0.071373
0.0720277
0.0726564
0.0732806
0.0739017
0.0745199
0.0751382
0.0155075
0.0148223
0.0141796
0.0135754
0.0130064
0.0124693
0.0119613
0.0114799
0.0110228
0.0105877
0.0101728
0.00977606
0.0093958
0.00903033
0.00867809
0.00833759
0.00800747
0.00768638
0.00737312
0.00706652
0.00676551
0.00646908
0.0061763
0.00588628
0.0055982
0.00531131
0.00502488
0.00473824
0.0044508
0.00416196
0.00387119
0.00357806
0.00328214
0.00298315
0.00268106
0.0023761
0.00206888
0.00176067
0.0014535
0.00115013
0.000851543
0.000539323
0.000325999
0.0154595
0.014828
0.0142319
0.0136687
0.0131355
0.01263
0.0121498
0.0116928
0.0112571
0.0108409
0.0104426
0.0100604
0.00969291
0.00933873
0.0089965
0.00866492
0.00834277
0.00802885
0.00772203
0.00742127
0.00712553
0.00683381
0.00654516
0.00625871
0.00597357
0.00568894
0.00540403
0.00511808
0.00483036
0.00454022
0.00424701
0.00395022
0.00364932
0.00334407
0.00303436
0.00272035
0.00240258
0.00208198
0.00175977
0.00143593
0.00110557
0.000767803
0.000519857
0.0154172
0.0148372
0.014286
0.0137619
0.0132632
0.0127879
0.0123343
0.0119007
0.0114853
0.011087
0.010704
0.0103353
0.00997945
0.0096354
0.00930189
0.00897787
0.00866225
0.00835401
0.0080521
0.00775553
0.00746339
0.0071747
0.00688856
0.00660408
0.00632035
0.00603653
0.00575179
0.00546531
0.00517629
0.00488399
0.00458761
0.00428658
0.00398026
0.00366824
0.00335028
0.00302635
0.0026967
0.00236177
0.00202149
0.00167282
0.00130805
0.000954362
0.000671863
0.0153793
0.0148463
0.0143361
0.0138481
0.0133812
0.0129338
0.0125046
0.0120924
0.0116958
0.0113136
0.0109447
0.010588
0.0102426
0.00990732
0.00958128
0.00926357
0.0089532
0.00864931
0.00835098
0.00805729
0.00776741
0.00748045
0.00719552
0.00691177
0.00662827
0.00634422
0.00605869
0.00577082
0.0054798
0.00518472
0.00488477
0.00457924
0.00426737
0.00394857
0.00362242
0.00328867
0.00294731
0.00259806
0.00223922
0.00186478
0.00146471
0.00109851
0.000792665
0.0153482
0.0148551
0.0143818
0.0139267
0.0134886
0.0130668
0.01266
0.0122673
0.0118877
0.0115202
0.011164
0.0108182
0.0104819
0.0101544
0.00983479
0.00952235
0.00921624
0.00891573
0.00861996
0.0083282
0.00803963
0.00775343
0.00746879
0.00718487
0.00690078
0.00661572
0.00632872
0.00603891
0.00574541
0.00544722
0.00514353
0.00483345
0.00451609
0.00419076
0.0038568
0.00351382
0.00316143
0.00279849
0.0024218
0.00202273
0.00159233
0.0012124
0.000890949
0.0153188
0.0148632
0.0144233
0.0139979
0.0135863
0.0131877
0.0128013
0.0124264
0.0120623
0.0117083
0.0113636
0.0110275
0.0106995
0.0103787
0.0100647
0.00975674
0.00945411
0.00915618
0.00886228
0.0085717
0.00828374
0.00799766
0.00771265
0.00742796
0.00714273
0.00685612
0.00656723
0.0062751
0.0059788
0.0056774
0.00536989
0.00505529
0.00473267
0.00440113
0.00405993
0.00370843
0.00334573
0.00297014
0.00257684
0.00215545
0.00170343
0.00130595
0.000972692
0.0152925
0.0148706
0.014461
0.0140627
0.0136751
0.0132976
0.0129299
0.0125714
0.0122214
0.0118796
0.0115453
0.0112181
0.0108974
0.0105826
0.0102735
0.00996929
0.00966959
0.00937373
0.0090811
0.00879111
0.00850324
0.00821679
0.007931
0.00764517
0.00735843
0.00706998
0.00677889
0.00648421
0.00618499
0.00588025
0.00556895
0.00525005
0.00492244
0.00458516
0.00423729
0.00387791
0.00350588
0.0031187
0.0027103
0.00226919
0.00180011
0.00138545
0.00104219
0.0152646
0.0148758
0.0144945
0.0141213
0.0137557
0.0133975
0.0130468
0.0127035
0.0123669
0.0120364
0.0117117
0.0113925
0.0110786
0.0107692
0.0104639
0.0101629
0.00986585
0.00957201
0.0092804
0.00899026
0.00870155
0.00841425
0.00812748
0.00784039
0.00755213
0.00726195
0.00696891
0.00667187
0.00636956
0.0060609
0.00574554
0.00542239
0.00509012
0.00474733
0.00439292
0.00402625
0.0036457
0.00324798
0.00282524
0.00236511
0.00188077
0.00144943
0.00110009
0.0152403
0.0148769
0.014522
0.014174
0.0138295
0.0134882
0.0131527
0.012824
0.0125014
0.0121833
0.0118677
0.0115563
0.0112499
0.0109463
0.0106435
0.0103436
0.0100487
0.00975835
0.00947063
0.00918028
0.00888754
0.00859724
0.00830875
0.00802061
0.00773165
0.00744153
0.00714943
0.00685423
0.0065544
0.00624119
0.00591932
0.00559208
0.00525495
0.00491036
0.00454721
0.00417147
0.0037821
0.00337858
0.00295186
0.00248231
0.00198219
0.00152997
0.00115847
0.000355158
0.000478799
0.000674382
0.00086275
0.00104482
0.00122152
0.00139374
0.00156252
0.00172933
0.00189616
0.00206621
0.00224419
0.00243667
0.0026512
0.00289296
0.00316395
0.00346432
0.00379214
0.00414601
0.00452515
0.00492906
0.00535788
0.00581195
0.00629162
0.00679757
0.00733031
0.00789078
0.00847947
0.00909694
0.00974383
0.010421
0.011129
0.0118688
0.0126412
0.0134472
0.0142877
0.0151638
0.0160765
0.0170271
0.0180166
0.0190462
0.0201173
0.0212326
0.000486493
0.000629128
0.000833291
0.00103378
0.00122708
0.00141382
0.00159557
0.00177458
0.001954
0.00213807
0.00233202
0.00254193
0.00277438
0.00303534
0.00332619
0.00364352
0.00398513
0.00434977
0.0047364
0.00514461
0.00557431
0.00602568
0.00649889
0.00699442
0.00751264
0.008054
0.00861897
0.009208
0.00982136
0.0104596
0.0111235
0.0118136
0.0125305
0.0132751
0.0140479
0.0148501
0.0156823
0.0165456
0.0174407
0.0183687
0.0193303
0.0203255
0.0213512
0.000611589
0.000765544
0.000979234
0.00119133
0.00139567
0.00159329
0.00178708
0.00198109
0.00218037
0.0023906
0.00261751
0.0028663
0.00314155
0.0034474
0.00378101
0.0041372
0.0045141
0.00491047
0.00532585
0.00575991
0.00621258
0.00668398
0.00717418
0.00768341
0.008212
0.00876026
0.00932821
0.0099162
0.0105246
0.0111537
0.011804
0.012476
0.0131702
0.0138873
0.0146279
0.0153926
0.0161822
0.0169972
0.0178385
0.0187064
0.0196014
0.0205233
0.0214713
0.000722974
0.000885828
0.00110901
0.00133188
0.00154718
0.001757
0.00196592
0.00217975
0.00240474
0.00264655
0.00290977
0.00319771
0.00351352
0.00385958
0.0042292
0.00461819
0.00502497
0.00544863
0.00588886
0.00634523
0.00681769
0.00730622
0.00781079
0.00833154
0.00886851
0.00942177
0.00999132
0.0105773
0.01118
0.0117996
0.0124365
0.0130912
0.0137639
0.0144551
0.0151654
0.0158951
0.0166449
0.017415
0.0182061
0.0190184
0.0198519
0.0207067
0.0215826
0.000820286
0.000991556
0.00122405
0.00145723
0.00168391
0.00190773
0.00213492
0.00237235
0.00262628
0.00290137
0.00320039
0.00352509
0.00387811
0.00425866
0.00465894
0.00507602
0.00550867
0.00595613
0.00641801
0.00689381
0.0073834
0.00788674
0.00840353
0.00893388
0.00947758
0.0100345
0.0106045
0.0111878
0.0117846
0.0123949
0.013019
0.0136572
0.0143097
0.0149769
0.015659
0.0163564
0.0170693
0.0177982
0.0185431
0.0193043
0.0200819
0.020876
0.021687
0.000905231
0.00108494
0.00132654
0.00156993
0.00180881
0.00204841
0.00229618
0.00255934
0.00284325
0.00315084
0.00348319
0.00384119
0.00422779
0.00463781
0.00506483
0.00550658
0.005962
0.00643037
0.00691124
0.00740416
0.00790879
0.00842494
0.00895232
0.00949057
0.0100396
0.010599
0.0111689
0.0117493
0.0123402
0.0129415
0.0135536
0.0141763
0.0148101
0.0154549
0.016111
0.0167786
0.0174578
0.0181487
0.0188514
0.019566
0.0202927
0.0210314
0.0217828
0.000979431
0.00116751
0.00141804
0.00167176
0.0019237
0.00218061
0.00245061
0.00274028
0.00305343
0.00339135
0.00375397
0.0041422
0.00455847
0.00499419
0.00544478
0.00590838
0.00638405
0.006871
0.00736876
0.00787683
0.00839474
0.00892213
0.0094585
0.0100035
0.010557
0.0111184
0.0116878
0.0122651
0.0128503
0.0134432
0.0140438
0.0146522
0.0152684
0.0158926
0.0165248
0.017165
0.0178132
0.0184692
0.0191332
0.0198054
0.0204857
0.021174
0.0218707
0.00104655
0.00124341
0.00150226
0.00176633
0.00203216
0.00230718
0.00259908
0.00291354
0.0032537
0.00361961
0.00401007
0.00442615
0.00486823
0.00532697
0.00579837
0.006281
0.00677467
0.00727848
0.00779186
0.00831426
0.0088444
0.00938172
0.00992626
0.0104776
0.0110348
0.0115976
0.0121664
0.0127408
0.0133203
0.0139047
0.0144942
0.0150887
0.0156886
0.0162938
0.0169039
0.0175193
0.0181389
0.0187623
0.0193905
0.020024
0.0206623
0.0213052
0.021953
0.00109683
0.00129912
0.00156858
0.0018443
0.00212349
0.00241507
0.00272961
0.00307517
0.00344974
0.00384454
0.00425604
0.00469757
0.00516379
0.00564033
0.00612364
0.00662231
0.00713792
0.00766012
0.00819238
0.00873328
0.00927206
0.00981681
0.0103706
0.0109284
0.0114868
0.0120491
0.0126173
0.0131888
0.0137605
0.014335
0.0149116
0.0154916
0.0160763
0.0166639
0.0172531
0.0178477
0.0184396
0.0190297
0.0196241
0.0202232
0.0208243
0.0214257
0.0220294
0.000880307
0.00278431
0.00464207
0.0064035
0.00808363
0.00970996
0.0113054
0.0128853
0.0144588
0.0160332
0.0176126
0.0191985
0.0207924
0.0223947
0.0240055
0.0256253
0.0272537
0.02889
0.030535
0.0321881
0.033849
0.0355174
0.0371932
0.0388763
0.0405666
0.0422628
0.0439656
0.0456745
0.0473886
0.0491073
0.0508302
0.0525563
0.0542854
0.0560158
0.0577469
0.0594778
0.0612073
0.0629344
0.064658
0.0663772
0.0680908
0.0697982
0.0714979
0.000313966
0.00142368
0.00250549
0.00382119
0.00529761
0.00682014
0.00836287
0.00992028
0.0114921
0.0130789
0.0146811
0.0162982
0.0179302
0.0195764
0.0212369
0.0229105
0.0245965
0.026294
0.0280023
0.0297203
0.0314477
0.033184
0.0349282
0.0366803
0.0384395
0.0402047
0.041976
0.0437528
0.0455341
0.0473195
0.049108
0.050899
0.0526915
0.0544847
0.0562775
0.0580691
0.0598581
0.0616436
0.0634245
0.0651996
0.0669682
0.0687294
0.0704818
0.000343124
0.00131465
0.00216758
0.00312995
0.00420575
0.00543351
0.00679018
0.00821468
0.00968541
0.011194
0.0127362
0.014309
0.0159097
0.0175362
0.0191866
0.0208591
0.0225517
0.0242628
0.0259904
0.0277335
0.0294904
0.0312601
0.0330409
0.0348322
0.0366327
0.0384416
0.0402576
0.0420799
0.0439079
0.0457404
0.0475763
0.0494149
0.0512552
0.0530959
0.0549359
0.0567743
0.0586099
0.0604414
0.0622678
0.0640881
0.0659014
0.0677069
0.0695051
0.000379537
0.00119555
0.00206101
0.00292546
0.00383239
0.00482184
0.00593422
0.00718772
0.00852998
0.00993373
0.0113878
0.012886
0.0144244
0.0159994
0.0176083
0.0192483
0.0209172
0.0226123
0.0243316
0.0260723
0.0278329
0.0296117
0.0314065
0.0332158
0.0350381
0.0368719
0.0387154
0.0405679
0.042428
0.0442941
0.0461654
0.0480404
0.0499178
0.0517964
0.0536749
0.0555523
0.057427
0.0592979
0.0611636
0.0630234
0.064876
0.0667211
0.0685587
0.000377054
0.00105823
0.00192894
0.00278655
0.00364329
0.00452809
0.00548039
0.00655188
0.0077572
0.00905239
0.0104138
0.0118308
0.0132974
0.0148094
0.0163633
0.0179565
0.019586
0.0212488
0.0229426
0.0246645
0.0264123
0.0281838
0.0299765
0.0317887
0.033618
0.0354629
0.0373212
0.0391917
0.0410724
0.0429619
0.0448584
0.0467604
0.0486667
0.0505754
0.0524854
0.0543949
0.0563028
0.0582073
0.0601073
0.0620016
0.0638892
0.065769
0.0676408
0.000351191
0.00094938
0.00178836
0.00264054
0.00348361
0.00432751
0.00520155
0.00614753
0.00721709
0.00840655
0.00967971
0.0110185
0.0124144
0.0138625
0.0153586
0.0168999
0.0184833
0.0201062
0.0217657
0.0234592
0.0251843
0.026938
0.0287183
0.0305225
0.0323485
0.0341944
0.0360577
0.0379364
0.0398286
0.0417324
0.0436461
0.0455676
0.0474954
0.0494275
0.0513622
0.0532983
0.0552336
0.0571669
0.0590963
0.0610207
0.0629388
0.0648491
0.0667507
0.000322191
0.000860003
0.0016593
0.00249152
0.00332379
0.00414911
0.00498461
0.00586104
0.00682482
0.00791432
0.00910534
0.0103721
0.0117023
0.0130898
0.0145297
0.0160193
0.0175555
0.0191356
0.0207571
0.0224174
0.0241137
0.0258435
0.0276044
0.0293936
0.0312092
0.0330485
0.034909
0.0367887
0.0386851
0.0405964
0.0425203
0.0444549
0.0463977
0.0483472
0.0503016
0.0522586
0.0542167
0.0561739
0.0581286
0.060079
0.0620234
0.0639601
0.0658862
0.000304191
0.000790677
0.00155
0.00235321
0.00316898
0.00397987
0.00479288
0.00562951
0.00652522
0.00752721
0.00864265
0.00984362
0.011114
0.0124453
0.0138325
0.0152727
0.0167627
0.0183003
0.0198828
0.0215077
0.0231726
0.024875
0.0266123
0.0283821
0.030182
0.0320093
0.0338615
0.0357365
0.0376316
0.0395446
0.0414733
0.0434153
0.0453684
0.0473305
0.0492992
0.0512729
0.0532493
0.0552264
0.0572023
0.0591749
0.0611423
0.0631025
0.0650529
0.000294248
0.000738766
0.00146024
0.00223161
0.00302595
0.00382107
0.00461682
0.00542737
0.00627935
0.00721361
0.00826068
0.00940187
0.0106177
0.0118975
0.0132362
0.0146301
0.0160765
0.0175726
0.0191166
0.0207059
0.0223384
0.0240117
0.0257233
0.0274706
0.0292513
0.031063
0.0329032
0.0347693
0.0366586
0.038569
0.040498
0.0424432
0.0444021
0.0463722
0.0483514
0.0503377
0.0523286
0.0543217
0.0563152
0.0583067
0.0602942
0.0622751
0.0642467
0.000288942
0.000698958
0.00138594
0.00212606
0.00289683
0.00367439
0.00445411
0.0052446
0.00606591
0.00695124
0.00793843
0.00902534
0.0101915
0.0114247
0.0127186
0.0140696
0.0154747
0.0169317
0.0184386
0.0199931
0.0215932
0.0232366
0.0249213
0.0266445
0.0284044
0.0301981
0.0320231
0.0338772
0.0357577
0.037662
0.0395879
0.0415325
0.0434934
0.0454681
0.0474544
0.0494497
0.0514515
0.0534576
0.0554655
0.0574733
0.0594781
0.0614779
0.0634701
0.000286112
0.000667169
0.00132308
0.00203393
0.00278082
0.00353986
0.00430375
0.00507704
0.00587485
0.0067241
0.00766106
0.00869897
0.00982004
0.0110107
0.0122637
0.0135749
0.0149417
0.0163618
0.0178331
0.0193541
0.0209225
0.0225364
0.0241937
0.0258924
0.0276299
0.029404
0.0312122
0.0330521
0.0349212
0.0368169
0.0387366
0.0406778
0.0426378
0.0446143
0.0466043
0.0486056
0.0506156
0.0526316
0.0546516
0.0566728
0.0586929
0.0607105
0.0627255
0.000284545
0.000641273
0.00126934
0.00195306
0.00267662
0.00341697
0.00416505
0.00492257
0.0057011
0.00652214
0.00741824
0.00841214
0.00949209
0.0106438
0.0118592
0.0131338
0.0144648
0.0158503
0.0172883
0.018777
0.0203147
0.0218997
0.0235301
0.0252037
0.0269185
0.0286722
0.0304621
0.0322864
0.0341423
0.0360273
0.0379388
0.0398742
0.0418311
0.0438065
0.045798
0.0478028
0.0498184
0.051842
0.0538714
0.0559037
0.0579366
0.0599679
0.0619937
0.000283575
0.000619754
0.00122294
0.00188169
0.00258311
0.00330485
0.00403717
0.00477989
0.00554136
0.00633934
0.00720223
0.00815682
0.0091993
0.0103154
0.0114962
0.012737
0.0140349
0.0153879
0.0167943
0.0182524
0.0197608
0.0213179
0.0229217
0.0245704
0.0262624
0.0279948
0.0297661
0.0315736
0.0334152
0.0352879
0.0371895
0.0391175
0.0410691
0.0430416
0.0450322
0.0470383
0.0490573
0.0510864
0.053123
0.0551642
0.0572079
0.0592513
0.0612913
0.00028295
0.000601699
0.00118256
0.0018185
0.00249889
0.00320255
0.0039194
0.00464768
0.00539364
0.00617212
0.00700746
0.00792738
0.00893569
0.010019
0.0111679
0.0123773
0.0136444
0.0149669
0.0163436
0.0177727
0.019253
0.0207831
0.0223609
0.0239855
0.0256545
0.0273661
0.0291181
0.0309083
0.0327343
0.0345939
0.0364845
0.0384035
0.0403482
0.0423158
0.0443039
0.0463096
0.0483301
0.0503627
0.0524045
0.0544531
0.0565058
0.0585607
0.0606169
0.000282591
0.000586323
0.00114714
0.00176206
0.00242277
0.00310907
0.00381073
0.00452513
0.00525678
0.00601797
0.00682998
0.00771944
0.00869624
0.00974925
0.0108685
0.0120489
0.0132871
0.0145813
0.0159298
0.0173314
0.018785
0.020289
0.0218421
0.0234429
0.0250896
0.0267801
0.0285128
0.0302853
0.0320955
0.0339411
0.0358195
0.0377284
0.0396649
0.0416265
0.0436106
0.0456142
0.0476346
0.0496688
0.0517145
0.0537685
0.0558285
0.0578917
0.0599546
0.000282406
0.000573108
0.00111574
0.00171132
0.00235357
0.00302336
0.0037104
0.00441127
0.00512935
0.00587502
0.00666668
0.00752931
0.0084772
0.00950213
0.0105942
0.0117474
0.0129587
0.0142262
0.0155483
0.0169238
0.0183518
0.019831
0.0213602
0.022938
0.0245626
0.0262323
0.0279456
0.0297004
0.0314944
0.0333255
0.035191
0.0370889
0.0390164
0.0409708
0.0429495
0.0449497
0.0469686
0.0490034
0.0510512
0.0531091
0.0551748
0.0572454
0.059319
0.000282306
0.000561515
0.00108779
0.00166562
0.00229061
0.00294463
0.00361742
0.00430524
0.00501053
0.00574193
0.00651554
0.00735457
0.00827587
0.00927477
0.0103412
0.0114691
0.0126553
0.0138975
0.0151947
0.0165456
0.0179492
0.0194047
0.0209108
0.0224661
0.0240692
0.0257187
0.0274129
0.0291498
0.0309273
0.0327435
0.0345959
0.0364822
0.0383997
0.040346
0.0423184
0.0443141
0.0463303
0.0483642
0.0504128
0.0524734
0.0545432
0.0566195
0.0586997
0.000282284
0.000551412
0.00106272
0.00162415
0.00223301
0.00287198
0.00353111
0.00420645
0.00489946
0.00561755
0.00637488
0.0071928
0.00808977
0.00906421
0.0101067
0.011211
0.0123734
0.013592
0.0148656
0.0161931
0.0175736
0.0190064
0.0204901
0.0220238
0.0236063
0.0252359
0.0269111
0.0286303
0.0303915
0.0321926
0.0340314
0.0359055
0.0378126
0.0397501
0.0417153
0.0437055
0.0457181
0.0477498
0.0497982
0.0518599
0.0539323
0.0560118
0.0580945
0.000282386
0.000542578
0.0010403
0.00158668
0.00218034
0.00280493
0.00345099
0.00411416
0.00479543
0.00550099
0.00624349
0.00704247
0.00791682
0.00886842
0.00988852
0.0109705
0.0121107
0.013307
0.0145582
0.0158635
0.017222
0.0186329
0.0200953
0.0216081
0.0231704
0.0247806
0.0264375
0.0281391
0.029884
0.0316698
0.0334948
0.0353565
0.0372526
0.0391807
0.0411381
0.0431222
0.04513
0.0471588
0.0492056
0.0512675
0.0533411
0.0554235
0.0575122
0.000282613
0.000534852
0.00102014
0.00155252
0.00213197
0.00274299
0.00337643
0.00402788
0.00469783
0.00539153
0.00612038
0.00690205
0.00775566
0.00868584
0.00968478
0.0107458
0.0118649
0.0130401
0.0142702
0.0155544
0.0168919
0.0182819
0.0197236
0.0212164
0.022759
0.0243505
0.025989
0.0276736
0.0294022
0.0311729
0.032984
0.034833
0.0367179
0.0386362
0.0405851
0.0425621
0.0445647
0.0465896
0.048634
0.0506947
0.0527684
0.0548517
0.0569394
0.000282846
0.000527896
0.00100195
0.0015214
0.00208745
0.0026856
0.00330692
0.00394713
0.00460614
0.00528856
0.00600464
0.00677046
0.00760488
0.00851494
0.00949389
0.010535
0.0116343
0.0127895
0.0139995
0.0152635
0.0165809
0.017951
0.019373
0.0208463
0.02237
0.023943
0.025564
0.0272315
0.028944
0.0306998
0.0324967
0.0343331
0.0362065
0.0381144
0.0400545
0.0420242
0.0440207
0.0460408
0.048082
0.0501408
0.0522139
0.0542977
0.0563888
0.000283085
0.000521743
0.000985429
0.00149277
0.00204626
0.00263215
0.00324196
0.0038713
0.00451976
0.00519145
0.00589548
0.0066467
0.00746331
0.00835431
0.00931438
0.0103368
0.0114172
0.0125534
0.0137442
0.014989
0.0162872
0.0176381
0.0190412
0.0204958
0.0220012
0.0235564
0.02516
0.0268109
0.0285076
0.0302485
0.0320316
0.033855
0.0357166
0.0376141
0.039545
0.0415067
0.0434965
0.0455116
0.0475489
0.049605
0.0516767
0.0537596
0.055846
0.000283399
0.000516281
0.000970391
0.00146651
0.0020082
0.00258247
0.00318122
0.00380004
0.00443839
0.00509969
0.00579232
0.00652994
0.00733005
0.00820305
0.00914527
0.0101498
0.0112122
0.0123304
0.0135031
0.0147295
0.0160092
0.0173418
0.0187266
0.0201632
0.0216508
0.0231886
0.0247754
0.02641
0.0280912
0.0298173
0.0315866
0.0333971
0.0352469
0.0371337
0.039055
0.0410085
0.0429912
0.0450006
0.0470335
0.049087
0.0511579
0.0532436
0.0553449
0.000283763
0.000511444
0.000956731
0.00144239
0.00197294
0.00253621
0.00312435
0.00373307
0.00436159
0.00501301
0.00569482
0.00641966
0.00720428
0.00806029
0.00898542
0.00997284
0.0110183
0.0121192
0.0132745
0.0144834
0.0157456
0.0170604
0.0184278
0.0198469
0.0213174
0.0228383
0.0244086
0.0260274
0.0276933
0.0294049
0.0311604
0.032958
0.0347959
0.0366718
0.0385834
0.0405282
0.0425038
0.044507
0.0465354
0.0485858
0.0506557
0.0527432
0.0548488
0.000284145
0.000507011
0.000944203
0.0014201
0.00194018
0.00249296
0.0030709
0.00366985
0.00428898
0.00493087
0.0056023
0.00631515
0.00708538
0.00792531
0.00883407
0.00980519
0.0108342
0.0119187
0.0130574
0.0142496
0.0154949
0.0167929
0.0181432
0.0195456
0.0209994
0.022504
0.0240583
0.0256615
0.0273125
0.0290096
0.0307516
0.0325364
0.0343624
0.0362274
0.0381291
0.0400652
0.0420331
0.04403
0.0460533
0.0481003
0.0501681
0.0522542
0.0543551
0.000284535
0.000503034
0.00093265
0.00139946
0.00190974
0.00245249
0.00302068
0.00361025
0.00422021
0.00485289
0.00551451
0.00621607
0.00697271
0.00779729
0.00869042
0.00964609
0.0106595
0.0117283
0.0128511
0.0140271
0.0152561
0.0165379
0.017872
0.019258
0.0206957
0.0221843
0.0237231
0.0253112
0.0269474
0.0286305
0.0303589
0.0321311
0.0339452
0.0357993
0.037691
0.0396182
0.0415781
0.0435685
0.0455866
0.0476296
0.0496946
0.0517788
0.0538787
0.000284938
0.000499445
0.0009221
0.00138039
0.00188131
0.00241459
0.00297348
0.00355399
0.00415508
0.00477891
0.00543108
0.00612181
0.00686558
0.00767563
0.00855382
0.00949462
0.0104932
0.0115468
0.0126543
0.0138149
0.0150284
0.0162943
0.0176126
0.0189831
0.0204051
0.0218783
0.023402
0.0249753
0.0265972
0.0282663
0.0299815
0.0317411
0.0335435
0.0353865
0.0372681
0.0391861
0.0411381
0.0431218
0.0451343
0.0471729
0.049235
0.0513183
0.0534211
0.000285326
0.000496209
0.000912439
0.00136275
0.00185482
0.00237899
0.00292895
0.00350077
0.00409337
0.00470862
0.00535167
0.00603216
0.00676379
0.00755993
0.00842375
0.00935024
0.0103344
0.0113737
0.0124665
0.0136123
0.0148106
0.0160615
0.0173647
0.0187199
0.0201269
0.0215851
0.023094
0.0246527
0.0262605
0.0279161
0.0296183
0.0313654
0.0331559
0.034988
0.0368596
0.0387684
0.0407124
0.0426889
0.0446955
0.0467295
0.0487884
0.0508704
0.0529747
0.000285759
0.000493339
0.000903528
0.00134634
0.00183008
0.00234562
0.00288694
0.00345036
0.00403476
0.00464168
0.00527603
0.00594668
0.00666677
0.00744959
0.00829968
0.00921238
0.0101828
0.0112081
0.0122869
0.0134184
0.0146023
0.0158386
0.0171271
0.0184676
0.0198599
0.0213035
0.022798
0.0243427
0.0259367
0.0275789
0.0292681
0.031003
0.0327819
0.0346031
0.0364645
0.0383643
0.0402999
0.0422692
0.0442696
0.0462986
0.0483537
0.0504319
0.0525295
0.00028621
0.000490722
0.000895318
0.00133106
0.0018069
0.00231423
0.00284732
0.00340267
0.00397904
0.00457793
0.00520384
0.00586508
0.00657413
0.00734436
0.00818119
0.00908069
0.0100379
0.0110498
0.012115
0.0132327
0.0144026
0.0156248
0.0168991
0.0182253
0.0196034
0.021033
0.0225134
0.0240444
0.0256248
0.0272539
0.0289305
0.0306532
0.0324206
0.0342309
0.0360824
0.0379728
0.0399001
0.041862
0.0438559
0.0458797
0.0479301
0.0500045
0.0520995
0.000286643
0.000488281
0.000887688
0.00131688
0.00178522
0.00228467
0.00280986