/*--------------------------------*- C++ -*----------------------------------*\
| =========                 |                                                 |
| \\      /  F ield         | OpenFOAM: The Open Source CFD Toolbox           |
|  \\    /   O peration     | Version:  2.3.0                                 |
|   \\  /    A nd           | Web:      www.OpenFOAM.org                      |
|    \\/     M anipulation  |                                                 |
\*---------------------------------------------------------------------------*/
FoamFile
{
    version     2.0;
    format      ascii;
    class       volScalarField;
    location    "3000";
    object      p;
}
// * * * * * * * * * * * * * * * * * * * * * * * * * * * * * * * * * * * * * //

dimensions      [0 2 -2 0 0 0 0];

internalField   nonuniform List<scalar> 
38323
(
-3.37879e-06
-0.491594
-1.22717
-1.99658
-2.78663
-3.59947
-4.43942
-5.30878
-6.2085
-7.14112
-8.10745
-9.11184
-10.1524
-11.2345
-12.3558
-13.5199
-14.7236
-15.9668
-17.247
-18.5606
-19.9026
-21.2711
-22.6541
-24.0462
-25.4475
-26.8454
-28.2307
-29.596
-30.9573
-32.2939
-33.6198
-34.9457
-36.2555
-37.575
-38.9023
-40.1906
-41.4722
-42.5081
-42.7939
-42.0436
-42.4118
-44.3952
-25.5004
2.35371
1.94106
1.36948
0.77445
0.16744
-0.452688
-1.08817
-1.74184
-2.41329
-3.10428
-3.81592
-4.5492
-5.3064
-6.08946
-6.89995
-7.7434
-8.61992
-9.53297
-10.4856
-11.4827
-12.5226
-13.6146
-14.7477
-15.9238
-17.1383
-18.3766
-19.6231
-20.8423
-22.0151
-23.0725
-23.9583
-24.5873
-24.8265
-24.545
-23.5467
-21.5916
-18.3959
-13.5528
-6.61584
2.95628
15.8757
33.82
58.2296
4.46315
4.20269
3.80141
3.38133
2.95706
2.5285
2.0967
1.66095
1.22311
0.782914
0.340436
-0.0990832
-0.539746
-0.975757
-1.40583
-1.82678
-2.23771
-2.63019
-3.00195
-3.34629
-3.65706
-3.92734
-4.14866
-4.30768
-4.39811
-4.40294
-4.3043
-4.08432
-3.71703
-3.16602
-2.40106
-1.36802
-0.00140329
1.75977
4.01397
6.86335
10.4262
14.8385
20.2341
26.72
34.4435
43.517
53.8652
6.45051
6.24413
5.9615
5.66747
5.37362
5.07898
4.78518
4.49365
4.20473
3.91978
3.63791
3.36508
3.09495
2.83483
2.58459
2.34634
2.12053
1.91151
1.7264
1.56795
1.44217
1.35732
1.32626
1.36253
1.47698
1.69085
2.02924
2.51007
3.17541
4.06221
5.20336
6.66553
8.50621
10.7846
13.5797
16.9807
21.0587
25.8961
31.5526
38.0462
45.3578
53.3577
61.8086
8.28342
8.11679
7.90673
7.70371
7.51217
7.32323
7.13891
6.96182
6.79284
6.63298
6.484
6.3515
6.23179
6.1293
6.04698
5.98763
5.95622
5.95184
5.98794
6.05969
6.18113
6.35748
6.5986
6.91877
7.33004
7.84985
8.49518
9.28817
10.2537
11.4272
12.8302
14.519
16.533
18.9107
21.7093
24.9784
28.7743
33.1209
38.0554
43.5623
49.5961
56.0431
62.7435
9.6114
9.7144
9.61147
9.49228
9.38925
9.28195
9.17948
9.08442
9.00163
8.92855
8.87045
8.83144
8.80978
8.80565
8.82629
8.87089
8.94698
9.05681
9.20877
9.39862
9.64161
9.94073
10.307
10.7556
11.3011
11.9569
12.7406
13.6807
14.7862
16.095
17.6296
19.4381
21.5415
23.9854
26.8009
30.0151
33.6818
37.7946
42.3708
47.3901
52.8
58.497
64.3523
11.1179
11.1829
11.1313
11.0672
11.0459
11.0048
10.9642
10.9306
10.914
10.9095
10.9152
10.9529
11.0086
11.0852
11.1855
11.3127
11.4702
11.6746
11.9266
12.2186
12.5552
12.9524
13.4118
13.9602
14.602
15.3557
16.2408
17.2707
18.4624
19.8314
21.4192
23.263
25.3836
27.8001
30.5583
33.6391
37.1329
41.0087
45.2396
49.8035
54.6893
59.811
65.0707
12.4296
12.5145
12.4607
12.4021
12.4844
12.5134
12.5217
12.5289
12.5572
12.5994
12.6368
12.7404
12.8532
12.99
13.1516
13.3427
13.5328
13.7894
14.1179
14.4944
14.9125
15.395
15.8787
16.4702
17.1554
17.955
18.9183
20.0237
21.2851
22.6546
24.2524
26.0979
28.2579
30.7408
33.4769
36.3914
39.7523
43.4158
47.3846
51.6962
56.2866
61.1002
65.9281
13.8499
13.9119
13.9373
13.7208
13.8268
13.867
13.8847
13.8954
13.9402
13.9857
14.0071
14.1569
14.2815
14.4189
14.6064
14.8664
15.0574
15.2893
15.6511
16.0533
16.5461
17.1875
17.6719
18.2412
18.8924
19.6386
20.5597
21.7365
23.1481
24.5161
26.1318
27.9771
30.0769
32.7686
35.6919
38.4526
41.7856
45.1616
48.8118
53.1999
58.4762
62.9995
67.5365
49.7513
80.1658
96.2646
107.86
117.035
124.037
129.29
133.165
135.99
137.999
139.373
140.283
140.827
141.093
141.137
141.011
140.749
140.379
139.931
139.421
138.864
138.279
137.67
137.05
136.427
135.803
135.186
134.577
133.982
133.399
132.831
132.279
131.742
131.222
130.716
130.225
129.749
129.285
128.834
128.394
127.964
127.55
127.199
82.8153
101.103
113.673
122.644
129.191
133.891
137.15
139.307
140.646
141.373
141.621
141.527
141.18
140.664
140.038
139.347
138.62
137.883
137.152
136.437
135.745
135.082
134.446
133.839
133.26
132.706
132.177
131.668
131.182
130.713
130.26
129.824
129.401
128.991
128.593
128.207
127.831
127.466
127.11
126.762
126.422
126.094
125.837
64.6346
75.0239
84.3997
92.5608
99.5239
105.367
110.206
114.16
117.368
119.948
122.018
123.666
124.975
125.999
126.798
127.41
127.865
128.198
128.424
128.566
128.633
128.644
128.603
128.521
128.405
128.259
128.092
127.906
127.706
127.494
127.273
127.047
126.816
126.581
126.344
126.106
125.868
125.629
125.391
125.152
124.912
124.676
124.49
70.2985
78.4115
85.8826
92.5573
98.3982
103.417
107.676
111.25
114.223
116.668
118.663
120.28
121.58
122.619
123.442
124.086
124.579
124.956
125.232
125.429
125.557
125.634
125.665
125.661
125.628
125.572
125.495
125.404
125.3
125.185
125.063
124.932
124.795
124.654
124.508
124.358
124.205
124.049
123.89
123.728
123.564
123.404
123.283
69.4871
76.0543
82.2787
88.014
93.1901
97.7789
101.796
105.273
108.249
110.786
112.936
114.749
116.276
117.554
118.627
119.518
120.263
120.876
121.384
121.798
122.133
122.402
122.616
122.782
122.904
122.996
123.055
123.092
123.106
123.102
123.082
123.047
123
122.945
122.878
122.806
122.725
122.638
122.545
122.445
122.341
122.238
122.169
70.2182
75.9553
81.434
86.5416
91.2143
95.4191
99.1624
102.461
105.33
107.812
109.948
111.78
113.353
114.69
115.835
116.804
117.625
118.32
118.906
119.395
119.808
120.15
120.438
120.674
120.866
121.027
121.154
121.258
121.339
121.403
121.443
121.469
121.484
121.487
121.476
121.459
121.43
121.395
121.351
121.298
121.239
121.181
121.161
70.3406
75.5099
80.4996
85.1687
89.4767
93.368
96.879
100.035
102.804
105.228
107.341
109.186
110.795
112.19
113.403
114.439
115.33
116.098
116.752
117.31
117.79
118.2
118.554
118.856
119.104
119.328
119.515
119.684
119.824
119.948
120.034
120.11
120.17
120.218
120.249
120.278
120.288
120.295
120.29
120.269
120.245
120.227
120.274
70.7905
75.5803
80.1884
84.4524
88.4775
92.1397
95.4944
98.5965
101.219
103.534
105.607
107.45
109.07
110.484
111.699
112.731
113.651
114.444
115.113
115.7
116.204
116.651
117.042
117.382
117.644
117.931
118.188
118.426
118.588
118.751
118.846
118.948
119.044
119.126
119.183
119.251
119.285
119.332
119.352
119.344
119.335
119.329
119.461
72.1294
76.7365
80.9153
84.6114
88.2893
91.8497
95.626
98.8637
101.145
103.303
105.336
107.158
108.692
110.019
111.067
111.967
112.816
113.526
114.135
114.679
115.135
115.567
115.953
116.26
116.488
116.862
117.124
117.348
117.538
117.727
117.66
117.918
118.101
118.21
118.28
118.398
118.434
118.507
118.535
118.513
118.485
118.429
118.608
44.0991
44.5192
44.9002
45.2973
45.7028
46.117
46.5392
46.9693
47.4062
47.849
48.2965
48.7474
49.1993
49.6508
50.0992
50.542
50.9769
51.4014
51.8124
52.2074
52.584
52.9399
53.2732
53.5821
53.8639
54.1179
54.3428
54.5376
54.7028
54.8378
54.943
55.0199
55.07
55.0955
55.0995
55.0859
55.0595
55.0261
54.9924
54.966
54.9571
55.0107
55.3454
44.8904
45.2545
45.5667
45.8827
46.1944
46.5015
46.8035
47.0997
47.39
47.6739
47.9521
48.2247
48.4921
48.7549
49.014
49.2699
49.5235
49.7756
50.0271
50.279
50.5318
50.7862
51.043
51.3027
51.566
51.8334
52.1049
52.3806
52.6611
52.9464
53.2366
53.5319
53.8325
54.1383
54.4491
54.7645
55.0836
55.4033
55.7188
56.0316
56.3727
56.8037
57.1349
45.6092
45.9301
46.204
46.4826
46.7583
47.0315
47.3021
47.5701
47.8357
48.0994
48.3618
48.6228
48.8837
49.1449
49.4065
49.6687
49.932
50.1968
50.4631
50.7309
51.0004
51.2715
51.5446
51.8201
52.098
52.3787
52.6626
52.9504
53.2423
53.5386
53.8391
54.1441
54.4535
54.7668
55.0833
55.4015
55.7189
56.032
56.336
56.6338
56.9674
57.4574
58.0171
46.2739
46.5808
46.8527
47.1329
47.4141
47.6962
47.9795
48.2635
48.5474
48.8317
49.1161
49.4008
49.6863
49.9726
50.2594
50.5467
50.8343
51.1222
51.4108
51.6997
51.9885
52.2772
52.5655
52.8533
53.1405
53.4277
53.7152
54.0032
54.2927
54.5837
54.8761
55.17
55.4651
55.7606
56.0558
56.3486
56.6363
56.9157
57.1851
57.4547
57.7642
58.2014
58.7662
46.8529
47.1496
47.4159
47.6886
47.9617
48.236
48.5124
48.7889
49.0649
49.3407
49.6162
49.892
50.1685
50.4464
50.7261
51.0075
51.29
51.574
51.8603
52.1494
52.4413
52.7345
53.0283
53.3225
53.6163
53.9105
54.2054
54.5014
54.7999
55.1012
55.4043
55.7082
56.0117
56.315
56.6172
56.9158
57.208
57.4886
57.7568
58.0289
58.3497
58.7675
59.3348
47.3555
47.6415
47.8952
48.1545
48.4128
48.6725
48.9369
49.2019
49.4667
49.7308
49.9949
50.2604
50.5264
50.7941
51.0659
51.3425
51.6208
51.8993
52.1803
52.4669
52.7599
53.0575
53.3577
53.6591
53.959
54.2566
54.5519
54.8457
55.1392
55.4372
55.7426
56.0496
56.3526
56.654
56.9566
57.2565
57.5534
57.8373
58.1048
58.3775
58.715
59.1429
59.7575
47.8078
48.0728
48.3161
48.567
48.8128
49.0584
49.3162
49.5759
49.836
50.095
50.3539
50.6153
50.8768
51.1371
51.4043
51.6811
51.9612
52.238
52.5154
52.7989
53.0944
53.3958
53.6978
54.0079
54.3187
54.6264
54.9318
55.2339
55.5306
55.8265
56.1382
56.4517
56.741
57.0294
57.3194
57.6016
57.8958
58.1768
58.4246
58.6428
58.9074
59.2484
59.893
48.2233
48.4669
48.701
48.9445
49.1766
49.3958
49.6489
49.9039
50.1568
50.4038
50.6481
50.904
51.1585
51.3958
51.6432
51.9203
52.2107
52.4812
52.7304
52.9891
53.2801
53.6069
53.9219
54.2443
54.5592
54.8592
55.1451
55.4215
55.6657
55.9106
56.2141
56.5934
56.8963
57.1277
57.4446
57.6872
58.0208
58.3466
58.6223
58.8385
59.1161
59.507
60.3925
48.4515
48.7025
48.98
49.2766
49.5036
49.6763
49.9396
50.2192
50.5084
50.7821
51.015
51.2782
51.5843
51.8207
52.0141
52.2637
52.6211
52.9747
53.2788
53.4507
53.6445
53.9466
54.2337
54.6284
55.0382
55.4482
55.8647
56.3182
56.7115
56.8055
56.9913
57.4427
57.7353
57.9493
58.1924
58.2598
58.5763
58.9979
59.3568
59.2863
58.8674
58.2662
59.1488
57.4906
59.4006
61.4342
63.172
64.7529
66.1872
67.4941
68.6935
69.8027
70.8345
71.8028
72.7158
73.5829
74.4105
75.204
75.9685
76.7088
77.4301
78.1357
78.829
79.5114
80.1862
80.8545
81.5171
82.1742
82.8263
83.4742
84.1174
84.7548
85.3874
86.0141
86.6343
87.2484
87.8556
88.4553
89.0475
89.6313
90.2066
90.773
91.3298
91.8749
92.4084
92.9341
58.3078
59.2563
60.5173
61.7706
63.0842
64.3849
65.6555
66.8838
68.0659
69.2004
70.2884
71.3321
72.3352
73.3002
74.2307
75.1291
75.9979
76.8394
77.6546
78.4461
79.2141
79.9604
80.6859
81.3916
82.0786
82.7473
83.3993
84.0356
84.6565
85.263
85.8567
86.4375
87.0068
87.5649
88.1128
88.6511
89.1801
89.7001
90.2116
90.7149
91.2106
91.6978
92.1867
59.284
60.3282
61.5092
62.6403
63.8116
64.9756
66.1312
67.2661
68.3748
69.4532
70.4984
71.5094
72.4861
73.4295
74.3399
75.2192
76.0684
76.8891
77.683
78.4507
79.194
79.9146
80.6129
81.291
81.95
82.5911
83.2143
83.8222
84.4148
84.9927
85.5575
86.1096
86.6501
87.1789
87.6973
88.2048
88.7028
89.1908
89.6702
90.1406
90.6038
91.057
91.4895
59.8967
60.9388
62.0953
63.2207
64.3716
65.5058
66.6251
67.7196
68.7861
69.8207
70.8222
71.7898
72.7231
73.6235
74.4919
75.3291
76.1376
76.9178
77.6727
78.4024
79.1093
79.795
80.4603
81.1068
81.7352
82.3475
82.9435
83.5246
84.0921
84.6462
85.1881
85.7182
86.2372
86.7453
87.2437
87.7317
88.2103
88.679
89.1389
89.5895
90.0325
90.4634
90.8643
60.38
61.3922
62.4984
63.5951
64.7161
65.8236
66.9165
67.9846
69.0242
70.0321
71.0071
71.9484
72.8571
73.7329
74.5778
75.3933
76.1803
76.9401
77.6749
78.3848
79.072
79.7383
80.3841
81.011
81.6194
82.2104
82.7852
83.3448
83.8896
84.4208
84.9392
85.4455
85.9412
86.4256
86.9
87.3639
87.8177
88.2622
88.698
89.125
89.5432
89.9517
90.3436
60.8193
61.8549
62.9458
64.0228
65.1125
66.1867
67.2455
68.2813
69.2906
70.2706
71.2198
72.1373
73.024
73.879
74.7045
75.5015
76.271
77.0142
77.7318
78.4238
79.0927
79.7416
80.3697
80.9777
81.5669
82.1377
82.6917
83.2299
83.7528
84.2612
84.7574
85.2418
85.7151
86.1767
86.6289
87.0692
87.498
87.918
88.3294
88.7322
89.1243
89.509
89.9021
61.0834
62.2346
63.3697
64.4515
65.5203
66.5634
67.5904
68.5968
69.5766
70.5274
71.4502
72.3442
73.2086
74.042
74.8482
75.6276
76.379
77.1048
77.8019
78.4727
79.1238
79.7568
80.3691
80.9588
81.5277
82.0787
82.6133
83.1323
83.6356
84.1242
84.601
85.068
85.5218
85.9632
86.397
86.8155
87.2205
87.6195
88.0106
88.3922
88.7578
89.1178
89.512
61.7451
62.8995
63.9435
64.9538
65.9556
66.9408
67.9196
68.8871
69.8314
70.7539
71.6549
72.5322
73.3765
74.1892
74.978
75.7476
76.4823
77.2003
77.8788
78.5346
79.1739
79.8017
80.4016
80.972
81.5191
82.0551
82.574
83.0757
83.5579
84.0247
84.4823
84.9347
85.3688
85.7898
86.2108
86.604
86.9825
87.3612
87.7328
88.0945
88.4314
88.7638
89.1533
61.5035
63.1212
64.2694
65.2686
66.242
67.1726
68.1285
69.1172
70.0469
70.9553
71.8308
72.7025
73.5221
74.3136
75.0962
75.881
76.5749
77.3108
77.9473
78.5497
79.1832
79.8197
80.3896
80.9254
81.4536
81.9899
82.484
82.9638
83.4232
83.8751
84.3314
84.7944
85.2058
85.6085
86.0471
86.3941
86.7392
87.1211
87.4979
87.8588
88.1664
88.4754
88.8466
-435.532
-379.497
-325.426
-286.841
-253.204
-222.201
-194.696
-170.803
-150.178
-132.376
-117.04
-103.855
-92.4903
-82.6988
-74.2325
-66.8873
-60.4885
-54.8872
-49.9538
-45.5794
-41.6741
-38.1649
-34.9929
-32.1017
-29.4533
-27.0142
-24.7544
-22.6512
-20.6874
-18.8483
-17.1205
-15.4925
-13.9566
-12.5043
-11.1289
-9.82369
-8.58352
-7.40332
-6.27864
-5.20415
-4.17595
-3.21035
-2.71501
-196.4
-191.494
-185.151
-178.416
-169.908
-160.245
-150.142
-139.927
-129.826
-120.031
-110.682
-101.879
-93.6574
-86.0445
-79.0317
-72.5975
-66.7128
-61.336
-56.4302
-51.9501
-47.8553
-44.1057
-40.6665
-37.4994
-34.5803
-31.8789
-29.3716
-27.0383
-24.8599
-22.8213
-20.9097
-19.1107
-17.4153
-15.8144
-14.2989
-12.8621
-11.497
-10.1985
-8.96109
-7.77716
-6.64066
-5.54282
-4.73621
-126.962
-127.34
-127.457
-126.762
-125.219
-122.907
-119.835
-116.067
-111.726
-106.953
-101.882
-96.6324
-91.3131
-86.0067
-80.7895
-75.7125
-70.8182
-66.1329
-61.675
-57.4543
-53.4691
-49.7207
-46.2008
-42.8972
-39.8023
-36.901
-34.1827
-31.6324
-29.239
-26.9895
-24.8734
-22.8806
-20.9998
-19.2241
-17.5434
-15.9516
-14.4406
-13.0045
-11.638
-10.3317
-9.08257
-7.88606
-6.9824
-126.539
-126.561
-125.719
-123.854
-121.468
-118.711
-115.588
-112.115
-108.333
-104.297
-100.068
-95.7012
-91.2553
-86.7781
-82.3165
-77.907
-73.5834
-69.3712
-65.2889
-61.3559
-57.5766
-53.961
-50.5133
-47.2303
-44.1109
-41.152
-38.3497
-35.6924
-33.1796
-30.7998
-28.5469
-26.4134
-24.3915
-22.4756
-20.6569
-18.9302
-17.2889
-15.7278
-14.2409
-12.821
-11.466
-10.1772
-9.20264
-113.645
-113.68
-113.193
-112.036
-110.433
-108.484
-106.235
-103.714
-100.944
-97.9517
-94.7725
-91.4395
-87.9888
-84.4531
-80.864
-77.2495
-73.6401
-70.0534
-66.5168
-63.044
-59.6502
-56.3479
-53.1457
-50.0529
-47.0711
-44.2054
-41.4566
-38.8225
-36.3047
-33.8979
-31.6019
-29.4102
-27.3206
-25.3278
-23.4277
-21.6149
-19.8856
-18.2353
-16.6597
-15.1522
-13.7114
-12.3291
-11.1845
-98.102
-98.2809
-98.2735
-97.9399
-97.2958
-96.3715
-95.1931
-93.7703
-92.1082
-90.2162
-88.1107
-85.8134
-83.3481
-80.7405
-78.0151
-75.1946
-72.3083
-69.3734
-66.4151
-63.4518
-60.4998
-57.5783
-54.6953
-51.8684
-49.1018
-46.4075
-43.7885
-41.2516
-38.7992
-36.4312
-34.1525
-31.9588
-29.8522
-27.829
-25.8887
-24.0276
-22.244
-20.5342
-18.8963
-17.3245
-15.8177
-14.3686
-13.1474
-89.4944
-89.6382
-89.6925
-89.5556
-89.1976
-88.6272
-87.8557
-86.8888
-85.7328
-84.3888
-82.8624
-81.1627
-79.3035
-77.3012
-75.17
-72.9271
-70.59
-68.1763
-65.7019
-63.1847
-60.6382
-58.0798
-55.5206
-52.9753
-50.4515
-47.9633
-45.5155
-43.1174
-40.7755
-38.4913
-36.2721
-34.1185
-32.0336
-30.0173
-28.0698
-26.1914
-24.3808
-22.637
-20.959
-19.3438
-17.7907
-16.2957
-15.0564
-84.0108
-84.074
-84.0691
-83.9344
-83.6412
-83.1873
-82.5767
-81.8144
-80.9048
-79.8486
-78.6477
-77.3058
-75.829
-74.2272
-72.5064
-70.6794
-68.7552
-66.7458
-64.6622
-62.5183
-60.3234
-58.0916
-55.8332
-53.5604
-51.2817
-49.0099
-46.7508
-44.5146
-42.3086
-40.1379
-38.0087
-35.9255
-33.8923
-31.9112
-29.9853
-28.115
-26.3022
-24.5462
-22.8475
-21.2049
-19.6168
-18.0849
-16.8286
-79.1107
-79.1456
-79.1351
-79.0352
-78.8197
-78.4821
-78.0209
-77.4366
-76.7311
-75.9046
-74.9582
-73.8917
-72.7094
-71.415
-70.0132
-68.5109
-66.9147
-65.2312
-63.4692
-61.6374
-59.7434
-57.7984
-55.8096
-53.7883
-51.7415
-49.6802
-47.6113
-45.5439
-43.4851
-41.4423
-39.4212
-37.4274
-35.4661
-33.5424
-31.6583
-29.8166
-28.0211
-26.2724
-24.5722
-22.9206
-21.318
-19.7642
-18.5157
-75.0198
-75.0464
-75.0437
-74.9775
-74.8239
-74.5743
-74.2255
-73.7754
-73.2234
-72.5686
-71.812
-70.9517
-69.9902
-68.9287
-67.7711
-66.5204
-65.1814
-63.7574
-62.2553
-60.6801
-59.0386
-57.3374
-55.5844
-53.786
-51.9502
-50.0848
-48.1968
-46.2946
-44.3846
-42.4733
-40.5681
-38.6747
-36.7983
-34.9444
-33.1169
-31.3193
-29.5559
-27.8287
-26.1389
-24.4874
-22.8743
-21.292
-19.9647
-71.8307
-71.8478
-71.8432
-71.7895
-71.6661
-71.4655
-71.183
-70.816
-70.3638
-69.825
-69.199
-68.4841
-67.6813
-66.7909
-65.8148
-64.7547
-63.6131
-62.3931
-61.0977
-59.7307
-58.2974
-56.8007
-55.2483
-53.6438
-51.9945
-50.3065
-48.5854
-46.8373
-45.0709
-43.2897
-41.5017
-39.7126
-37.9269
-36.1512
-34.3896
-32.6466
-30.9262
-29.2322
-27.5662
-25.9313
-24.3267
-22.7556
-21.555
-69.3046
-69.3048
-69.2885
-69.2341
-69.123
-68.9488
-68.7075
-68.3952
-68.0109
-67.5528
-67.0199
-66.4109
-65.7252
-64.9628
-64.1247
-63.2112
-62.2236
-61.1638
-60.0334
-58.8348
-57.5717
-56.2461
-54.8629
-53.4255
-51.9382
-50.407
-48.8361
-47.2307
-45.597
-43.9406
-42.2659
-40.5802
-38.8868
-37.1933
-35.503
-33.8205
-32.1513
-30.4982
-28.8649
-27.2544
-25.6671
-24.1024
-22.8767
-67.1881
-67.1805
-67.161
-67.1094
-67.0101
-66.8578
-66.6484
-66.3786
-66.0467
-65.6504
-65.1891
-64.6614
-64.0658
-63.4024
-62.6713
-61.8724
-61.0068
-60.0746
-59.0778
-58.0163
-56.8929
-55.7094
-54.469
-53.1731
-51.8268
-50.4329
-48.9948
-47.5182
-46.0061
-44.4652
-42.8983
-41.312
-39.7099
-38.0979
-36.4812
-34.8628
-33.2483
-31.6415
-30.0461
-28.4638
-26.8977
-25.3383
-24.0131
-65.4648
-65.4461
-65.4196
-65.3669
-65.2736
-65.1349
-64.9477
-64.7084
-64.4145
-64.0643
-63.6569
-63.191
-62.6651
-62.079
-61.4321
-60.7239
-59.9555
-59.1255
-58.2361
-57.2866
-56.2784
-55.2133
-54.0924
-52.9171
-51.6916
-50.4165
-49.0958
-47.7335
-46.3318
-44.8961
-43.4293
-41.9367
-40.4224
-38.8904
-37.3461
-35.7932
-34.2361
-32.6791
-31.1268
-29.5808
-28.0468
-26.5191
-25.2311
-64.0291
-64.0057
-63.9774
-63.9254
-63.8375
-63.71
-63.5394
-63.3225
-63.0577
-62.7434
-62.3781
-61.9607
-61.4896
-60.9641
-60.3837
-59.7479
-59.0568
-58.3099
-57.5076
-56.6498
-55.7367
-54.7698
-53.7493
-52.6766
-51.5538
-50.3822
-49.164
-47.9025
-46.5996
-45.259
-43.8844
-42.4786
-41.0467
-39.5913
-38.1174
-36.6287
-35.1299
-33.6239
-32.1158
-30.6079
-29.1026
-27.5966
-26.3108
-62.8812
-62.848
-62.8124
-62.7563
-62.6688
-62.5461
-62.3856
-62.1848
-61.9412
-61.6531
-61.3194
-60.9387
-60.5098
-60.0318
-59.504
-58.926
-58.2971
-57.6173
-56.8863
-56.1038
-55.2698
-54.3847
-53.449
-52.4631
-51.4284
-50.3459
-49.217
-48.044
-46.829
-45.574
-44.2826
-42.9571
-41.6012
-40.218
-38.8118
-37.3851
-35.9433
-34.4884
-33.0255
-31.5559
-30.0826
-28.606
-27.3651
-61.92
-61.8834
-61.8457
-61.7881
-61.702
-61.5848
-61.4334
-61.245
-61.0179
-60.7507
-60.4419
-60.0907
-59.696
-59.2565
-58.7715
-58.2405
-57.6628
-57.0379
-56.3656
-55.6453
-54.877
-54.0605
-53.1963
-52.284
-51.3246
-50.319
-49.2676
-48.1725
-47.0348
-45.8566
-44.6398
-43.3876
-42.1019
-40.7859
-39.4431
-38.0761
-36.6892
-35.2855
-33.8691
-32.4428
-31.0102
-29.5709
-28.3888
-61.1651
-61.1194
-61.0751
-61.0131
-60.9253
-60.8091
-60.6617
-60.4813
-60.2661
-60.0147
-59.7254
-59.3974
-59.0294
-58.6206
-58.1698
-57.6766
-57.1406
-56.5606
-55.9368
-55.2684
-54.555
-53.7963
-52.9923
-52.1427
-51.2479
-50.3085
-49.3245
-48.2977
-47.2281
-46.1181
-44.9685
-43.7822
-42.5609
-41.3068
-40.0232
-38.7125
-37.378
-36.0227
-34.6501
-33.2619
-31.8613
-30.4389
-29.1792
-60.5453
-60.4947
-60.4467
-60.3816
-60.2927
-60.1779
-60.035
-59.8616
-59.6561
-59.4171
-59.1431
-58.8337
-58.4877
-58.1038
-57.6812
-57.2193
-56.7178
-56.1753
-55.592
-54.9668
-54.2995
-53.5897
-52.8367
-52.0407
-51.2014
-50.3191
-49.3938
-48.4262
-47.417
-46.3673
-45.2782
-44.1511
-42.9882
-41.791
-40.5621
-39.3039
-38.0192
-36.7108
-35.3827
-34.0369
-32.6787
-31.3083
-30.1951
-60.053
-59.9972
-59.9462
-59.8788
-59.7888
-59.6746
-59.5343
-59.3659
-59.1678
-58.9388
-58.6777
-58.3833
-58.0549
-57.6916
-57.2925
-56.8566
-56.3836
-55.8724
-55.323
-54.7342
-54.1058
-53.4374
-52.7281
-51.9779
-51.1863
-50.3533
-49.4791
-48.5634
-47.6074
-46.6109
-45.5757
-44.5021
-43.3918
-42.2465
-41.0681
-39.8584
-38.62
-37.3552
-36.0668
-34.7566
-33.4277
-32.0707
-30.8713
-59.6628
-59.605
-59.552
-59.4823
-59.3916
-59.2782
-59.1404
-58.9762
-58.7845
-58.5637
-58.3129
-58.0312
-57.7177
-57.3713
-56.9915
-56.5773
-56.1283
-55.6434
-55.1226
-54.5647
-53.9693
-53.336
-52.6639
-51.9531
-51.2024
-50.4125
-49.5824
-48.7126
-47.803
-46.854
-45.8667
-44.8408
-43.7784
-42.6802
-41.5481
-40.3829
-39.1879
-37.9638
-36.7137
-35.4383
-34.1403
-32.8135
-31.6815
-59.3742
-59.3129
-59.2572
-59.1854
-59.0934
-58.98
-58.8434
-58.6823
-58.4951
-58.2806
-58.0379
-57.7662
-57.4647
-57.1326
-56.7687
-56.3725
-55.9434
-55.4807
-54.984
-54.4521
-53.885
-53.2817
-52.6418
-51.9646
-51.2496
-50.4966
-49.7054
-48.8754
-48.0068
-47.0999
-46.155
-45.1723
-44.1528
-43.0975
-42.0074
-40.8838
-39.729
-38.5435
-37.3304
-36.0887
-34.8212
-33.5244
-32.4787
-59.1864
-59.1186
-59.0574
-58.9805
-58.8847
-58.7691
-58.6321
-58.472
-58.2876
-58.0777
-57.8415
-57.5777
-57.2857
-56.9648
-56.6143
-56.2334
-55.8212
-55.3771
-54.9006
-54.3912
-53.848
-53.2705
-52.6581
-52.0101
-51.3261
-50.6054
-49.848
-49.053
-48.2208
-47.3509
-46.4439
-45.4998
-44.5189
-43.5025
-42.4511
-41.3656
-40.2479
-39.0991
-37.9209
-36.7125
-35.4769
-34.2136
-33.2514
-59.0467
-58.9773
-58.9156
-58.8379
-58.7416
-58.6258
-58.4892
-58.3307
-58.149
-57.9429
-57.7117
-57.4547
-57.1712
-56.8603
-56.5209
-56.1526
-55.7546
-55.3266
-54.8676
-54.3771
-53.8545
-53.2992
-52.7106
-52.0878
-51.4305
-50.738
-50.0102
-49.2459
-48.4457
-47.6087
-46.7354
-45.8259
-44.8798
-43.8986
-42.8823
-41.8321
-40.7492
-39.6351
-38.4922
-37.3212
-36.1272
-34.9116
-34.0735
-58.9642
-58.8944
-58.8321
-58.7532
-58.6564
-58.5409
-58.4056
-58.2489
-58.0698
-57.8676
-57.6414
-57.3901
-57.1132
-56.8103
-56.4806
-56.1234
-55.7378
-55.3231
-54.8791
-54.4049
-53.9001
-53.3638
-52.7957
-52.195
-51.561
-50.8932
-50.1912
-49.454
-48.6821
-47.8744
-47.0311
-46.1523
-45.2377
-44.2881
-43.3037
-42.2851
-41.234
-40.1504
-39.0372
-37.8936
-36.7224
-35.5052
-34.495
-58.9727
-58.8957
-58.8273
-58.7431
-58.6417
-58.5228
-58.3851
-58.2276
-58.0492
-57.8486
-57.6249
-57.3777
-57.1065
-56.8104
-56.4884
-56.1399
-55.7646
-55.3616
-54.9305
-54.4704
-53.981
-53.4614
-52.9111
-52.3296
-51.7159
-51.0696
-50.3904
-49.6772
-48.9301
-48.1483
-47.3319
-46.4804
-45.5941
-44.6729
-43.7173
-42.7276
-41.7051
-40.6495
-39.5628
-38.4444
-37.2956
-36.1011
-35.0366
-58.997
-58.9201
-58.852
-58.7673
-58.6657
-58.5463
-58.4086
-58.2515
-58.074
-57.8753
-57.6547
-57.4115
-57.1448
-56.8541
-56.5389
-56.1984
-55.8318
-55.4386
-55.0184
-54.5703
-54.094
-53.5888
-53.054
-52.4891
-51.8933
-51.2659
-50.6066
-49.9146
-49.1894
-48.4307
-47.6382
-46.8112
-45.9502
-45.0548
-44.1254
-43.1621
-42.1658
-41.1366
-40.0763
-38.9845
-37.864
-36.7074
-35.6647
-59.069
-58.9898
-58.9197
-58.8328
-58.7297
-58.6097
-58.4718
-58.3151
-58.1386
-57.9417
-57.7234
-57.4832
-57.2205
-56.9349
-56.6255
-56.2917
-55.9329
-55.5484
-55.1378
-54.7004
-54.2357
-53.743
-53.2218
-52.6714
-52.0911
-51.4806
-50.8388
-50.1655
-49.46
-48.7216
-47.9503
-47.1454
-46.3071
-45.4348
-44.5293
-43.5898
-42.6178
-41.6132
-40.5776
-39.5116
-38.4185
-37.2931
-36.2692
-59.188
-59.1053
-59.0325
-58.9431
-58.8374
-58.7151
-58.576
-58.4188
-58.2425
-58.0464
-57.8298
-57.5921
-57.3327
-57.051
-56.7464
-56.4183
-56.066
-55.6887
-55.2863
-54.858
-54.4033
-53.9215
-53.4122
-52.8746
-52.3081
-51.7121
-51.086
-50.429
-49.7409
-49.0207
-48.2685
-47.4832
-46.6653
-45.8138
-44.9295
-44.0118
-43.0615
-42.0787
-41.0645
-40.0188
-38.944
-37.8344
-36.7915
-59.3256
-59.2425
-59.1694
-59.0793
-58.973
-58.8504
-58.7107
-58.5533
-58.3775
-58.1824
-57.9674
-57.7319
-57.4752
-57.1969
-56.8964
-56.5731
-56.2263
-55.8556
-55.4605
-55.0402
-54.5944
-54.1221
-53.6232
-53.0968
-52.5423
-51.9592
-51.3468
-50.7045
-50.0318
-49.3278
-48.5924
-47.8248
-47.025
-46.1925
-45.3272
-44.4292
-43.4983
-42.5354
-41.5405
-40.514
-39.4579
-38.3678
-37.3403
-59.5008
-59.4157
-59.3405
-59.2478
-59.1396
-59.0156
-58.8752
-58.7175
-58.5415
-58.3469
-58.1329
-57.8991
-57.6448
-57.3697
-57.0728
-56.7539
-56.4121
-56.047
-55.6579
-55.2445
-54.8062
-54.3423
-53.8525
-53.336
-52.7921
-52.2205
-51.6202
-50.991
-50.3318
-49.6423
-48.922
-48.1702
-47.3868
-46.5712
-45.7233
-44.8428
-43.9298
-42.9847
-42.0073
-40.9981
-39.9576
-38.8816
-37.8567
-59.7013
-59.6148
-59.5382
-59.4442
-59.3344
-59.2088
-59.0672
-58.9088
-58.733
-58.5388
-58.3256
-58.093
-57.8403
-57.5672
-57.2732
-56.9576
-56.6199
-56.2595
-55.8759
-55.4685
-55.0369
-54.5804
-54.0986
-53.5907
-53.0563
-52.4947
-51.9052
-51.2875
-50.6403
-49.9639
-49.2569
-48.5194
-47.7507
-46.9503
-46.1181
-45.2536
-44.3569
-43.4279
-42.4667
-41.4731
-40.4472
-39.3846
-38.3652
-59.9229
-59.8347
-59.7567
-59.6612
-59.5504
-59.424
-59.2815
-59.1224
-58.946
-58.7517
-58.5391
-58.3077
-58.0566
-57.7857
-57.4942
-57.1818
-56.8476
-56.4913
-56.1124
-55.7102
-55.2844
-54.8344
-54.3596
-53.8594
-53.3332
-52.7807
-52.2007
-51.5931
-50.9569
-50.292
-49.597
-48.8724
-48.1168
-47.3302
-46.512
-45.6623
-44.7803
-43.8664
-42.9204
-41.9418
-40.9311
-39.8845
-38.8808
-60.1694
-60.079
-59.9991
-59.9015
-59.7886
-59.6604
-59.5167
-59.3568
-59.1801
-58.9859
-58.7736
-58.5426
-58.2927
-58.0233
-57.7339
-57.424
-57.093
-56.7403
-56.3655
-55.9679
-55.5473
-55.1027
-54.6341
-54.1407
-53.6219
-53.0771
-52.5058
-51.9072
-51.2806
-50.6261
-49.9419
-49.2286
-48.485
-47.7109
-46.9056
-46.0692
-45.2008
-44.3008
-43.369
-42.4048
-41.4091
-40.3783
-39.3996
-60.4298
-60.3382
-60.2573
-60.1583
-60.044
-59.9145
-59.7696
-59.6089
-59.4316
-59.2372
-59.0251
-58.7947
-58.5457
-58.2776
-57.99
-57.6823
-57.3538
-57.0042
-56.6328
-56.2393
-55.8231
-55.3836
-54.9203
-54.4329
-53.9206
-53.3829
-52.8191
-52.2287
-51.6108
-50.9655
-50.2911
-49.588
-48.8553
-48.0922
-47.2987
-46.4745
-45.6186
-44.7315
-43.8129
-42.862
-41.88
-40.8634
-39.9135
-60.7039
-60.611
-60.5291
-60.4289
-60.3138
-60.1834
-60.0377
-59.8763
-59.6985
-59.5038
-59.2917
-59.0617
-58.8136
-58.5466
-58.2605
-57.9546
-57.6284
-57.2815
-56.9132
-56.5232
-56.1109
-55.6759
-55.2175
-54.7353
-54.2288
-53.6973
-53.1403
-52.557
-51.9469
-51.3097
-50.6442
-49.9503
-49.2273
-48.4744
-47.6917
-46.8783
-46.0339
-45.1585
-44.2517
-43.3128
-42.3422
-41.3362
-40.4191
-60.9918
-60.8979
-60.815
-60.7135
-60.5968
-60.4654
-60.3189
-60.1567
-59.9785
-59.7837
-59.5718
-59.3422
-59.0947
-58.8286
-58.5438
-58.2396
-57.9154
-57.5708
-57.2051
-56.8182
-56.4092
-55.9781
-55.5238
-55.0464
-54.545
-54.019
-53.468
-52.8912
-52.2881
-51.6582
-51.0006
-50.3151
-49.6008
-48.8572
-48.084
-47.2807
-46.4468
-45.5824
-44.6868
-43.7599
-42.8021
-41.8091
-40.9394
-61.2914
-61.1965
-61.1128
-61.0103
-60.8929
-60.7603
-60.6126
-60.4497
-60.2711
-60.0759
-59.864
-59.6346
-59.3874
-59.1221
-58.8383
-58.5354
-58.2128
-57.8702
-57.507
-57.1228
-56.7168
-56.2892
-55.8387
-55.3655
-54.8685
-54.3475
-53.8018
-53.2308
-52.6337
-52.0105
-51.36
-50.6819
-49.9756
-49.2402
-48.4758
-47.6816
-46.8572
-46.0025
-45.1169
-44.2001
-43.2511
-42.2653
-41.4117
-61.6021
-61.5068
-61.4222
-61.3185
-61.1998
-61.0663
-60.918
-60.7544
-60.5749
-60.3791
-60.1668
-59.9374
-59.6906
-59.4259
-59.1429
-58.8411
-58.5201
-58.1792
-57.8179
-57.4359
-57.0327
-56.6079
-56.1607
-55.6911
-55.1981
-54.6815
-54.1406
-53.5747
-52.9833
-52.3659
-51.7218
-51.0504
-50.3512
-49.6235
-48.8669
-48.0809
-47.2652
-46.4195
-45.5435
-44.6371
-43.7004
-42.7282
-41.8931
-61.9279
-61.8302
-61.7436
-61.6382
-61.518
-61.3829
-61.2331
-61.0684
-60.8882
-60.6921
-60.4796
-60.2501
-60.0032
-59.7387
-59.4562
-59.1553
-58.8353
-58.4957
-58.1362
-57.7563
-57.3554
-56.9333
-56.4891
-56.0227
-55.5334
-55.0206
-54.4839
-53.9227
-53.3362
-52.7242
-52.0858
-51.4203
-50.7275
-50.0067
-49.2572
-48.4786
-47.6707
-46.8329
-45.965
-45.0667
-44.1375
-43.1698
-42.3047
-62.2577
-62.1589
-62.0718
-61.9654
-61.844
-61.7078
-61.5568
-61.391
-61.2099
-61.0129
-60.7996
-60.5699
-60.3232
-60.059
-59.7771
-59.4769
-59.1578
-58.8196
-58.4616
-58.0833
-57.6845
-57.2644
-56.8229
-56.3594
-55.8732
-55.3639
-54.831
-54.2738
-53.6919
-53.0846
-52.4513
-51.7912
-51.1043
-50.3895
-49.6464
-48.8746
-48.0736
-47.2428
-46.382
-45.4902
-44.5673
-43.604
-42.7164
-62.5884
-62.4898
-62.4023
-62.295
-62.1727
-62.0359
-61.8846
-61.7183
-61.5367
-61.3395
-61.1263
-60.8964
-60.6495
-60.3855
-60.1039
-59.8043
-59.4862
-59.149
-58.7923
-58.4156
-58.0186
-57.6006
-57.1614
-56.7003
-56.2168
-55.7108
-55.1811
-54.6276
-54.0497
-53.4466
-52.8179
-52.1629
-51.4811
-50.7719
-50.0346
-49.269
-48.4742
-47.6501
-46.7961
-45.9111
-44.9959
-44.0421
-43.148
-62.934
-62.833
-62.7435
-62.6346
-62.511
-62.3726
-62.2198
-62.0524
-61.8699
-61.672
-61.4581
-61.2281
-60.9813
-60.7175
-60.4362
-60.1371
-59.8197
-59.4834
-59.1279
-58.7526
-58.357
-57.9409
-57.5036
-57.0448
-56.5639
-56.0605
-55.5339
-54.9837
-54.4092
-53.8101
-53.1854
-52.5349
-51.8577
-51.1535
-50.4217
-49.6615
-48.8726
-48.0548
-47.2071
-46.3291
-45.4211
-44.4769
-43.5816
-63.2696
-63.17
-63.0815
-62.9729
-62.8493
-62.7109
-62.558
-62.3903
-62.2075
-62.0093
-61.7952
-61.5649
-61.3179
-61.0541
-60.7731
-60.4744
-60.1575
-59.822
-59.4673
-59.0932
-58.699
-58.2845
-57.849
-57.3922
-56.9136
-56.4125
-55.8886
-55.3414
-54.7701
-54.1744
-53.5535
-52.9068
-52.2341
-51.5343
-50.8072
-50.0522
-49.2686
-48.4564
-47.6146
-46.743
-45.8413