/*--------------------------------*- C++ -*----------------------------------*\
| =========                 |                                                 |
| \\      /  F ield         | OpenFOAM: The Open Source CFD Toolbox           |
|  \\    /   O peration     | Version:  2.3.0                                 |
|   \\  /    A nd           | Web:      www.OpenFOAM.org                      |
|    \\/     M anipulation  |                                                 |
\*---------------------------------------------------------------------------*/
FoamFile
{
    version     2.0;
    format      ascii;
    class       surfaceScalarField;
    location    "3000";
    object      phi;
}
// * * * * * * * * * * * * * * * * * * * * * * * * * * * * * * * * * * * * * //

dimensions      [0 3 -1 0 0 0 0];

internalField   nonuniform List<scalar> 
76306
(
-0.000745853
-0.00695958
0.00760023
0.000105203
-0.001341
-0.00672177
0.00731691
-0.00189303
-0.00649219
0.00704422
-0.00240508
-0.00627063
0.00678267
-0.00287682
-0.00605848
0.00653022
-0.00331116
-0.00585348
0.00628782
-0.00370904
-0.00565647
0.00605435
-0.00407153
-0.00546766
0.00583015
-0.00440057
-0.00528503
0.00561407
-0.00469707
-0.00511003
0.00540653
-0.00496386
-0.00494056
0.00520735
-0.00519924
-0.004779
0.00501439
-0.0054081
-0.0046221
0.00483096
-0.00558801
-0.00447275
0.00465266
-0.00574216
-0.00432805
0.0044822
-0.0058715
-0.00418961
0.00431895
-0.00597708
-0.00405578
0.00416136
-0.00605965
-0.00392685
0.00400942
-0.0061208
-0.00380373
0.00386488
-0.00616211
-0.00368435
0.00372566
-0.00618411
-0.00356956
0.00359156
-0.0061877
-0.00345981
0.0034634
-0.00617533
-0.00335342
0.00334105
-0.00614801
-0.00325065
0.00322332
-0.00610597
-0.0031525
0.00311046
-0.00605
-0.00305778
0.00300181
-0.00598368
-0.00296619
0.00289986
-0.00590871
-0.00287651
0.00280154
-0.00582432
-0.0027921
0.0027077
-0.00573384
-0.00270827
0.00261779
-0.00563815
-0.00262861
0.00253291
-0.00553663
-0.00255084
0.00244932
-0.00543368
-0.00247332
0.00237035
-0.00532968
-0.00239741
0.0022934
-0.00522258
-0.0023228
0.00221569
-0.00511704
-0.0022463
0.00214074
-0.00500914
-0.00216947
0.00206155
-0.004902
-0.00208601
0.00197885
-0.00479347
-0.0019979
0.00188936
-0.00468741
-0.00189757
0.00179149
-0.00458454
-0.001785
0.00168212
-0.0044951
-0.00164793
0.00155845
-0.00147795
-0.00438766
0.0013705
-0.000683402
-0.00638291
0.000106728
-0.00122006
-0.0061851
-0.00171809
-0.00599417
-0.00217803
-0.00581069
-0.00260171
-0.00563479
-0.00299102
-0.00546417
-0.00334726
-0.00530023
-0.00367152
-0.0051434
-0.00396471
-0.00499184
-0.00422897
-0.00484578
-0.00446347
-0.00470606
-0.00467255
-0.00456992
-0.00485383
-0.00444082
-0.00501108
-0.0043155
-0.00514429
-0.00419484
-0.00525417
-0.00407973
-0.00534179
-0.00396816
-0.00540811
-0.00386054
-0.00545523
-0.00375661
-0.00548198
-0.00365761
-0.00549047
-0.00356107
-0.00548082
-0.00346946
-0.00545549
-0.00337875
-0.00541327
-0.00329287
-0.00535647
-0.00320931
-0.00528629
-0.00312797
-0.00520268
-0.00304979
-0.00510668
-0.00297251
-0.0050002
-0.00289858
-0.00488351
-0.00282496
-0.00475965
-0.00275247
-0.00462817
-0.00268232
-0.00449091
-0.00261058
-0.00434806
-0.00254026
-0.00420269
-0.00246817
-0.00405345
-0.00239555
-0.00390214
-0.00232078
-0.00374517
-0.00224299
-0.00358153
-0.00216154
-0.00340178
-0.00207732
-0.00319961
-0.00198718
-0.00295257
-0.00189496
-0.00179728
-0.00263324
-0.000624995
-0.0058623
0.000104382
-0.00110879
-0.00570131
-0.00155688
-0.00554607
-0.00197132
-0.00539625
-0.00235326
-0.00525286
-0.00270235
-0.00511508
-0.00302127
-0.00498131
-0.00331173
-0.00485294
-0.00357463
-0.00472894
-0.00380982
-0.00461059
-0.00401944
-0.00449644
-0.00420374
-0.00438563
-0.0043647
-0.00427985
-0.00450258
-0.00417763
-0.00461827
-0.00407915
-0.00471404
-0.00398395
-0.00478922
-0.00389298
-0.00484474
-0.00380502
-0.00488123
-0.00372012
-0.00490159
-0.00363725
-0.00490389
-0.00355877
-0.00489155
-0.00348179
-0.0048618
-0.00340851
-0.00481885
-0.00333581
-0.00476169
-0.00326647
-0.00469038
-0.00319928
-0.00460797
-0.00313221
-0.00451227
-0.00306822
-0.00440616
-0.00300469
-0.00428953
-0.00294159
-0.00416131
-0.00288069
-0.00402541
-0.00281822
-0.00387948
-0.00275651
-0.00372486
-0.00269488
-0.00356054
-0.00263249
-0.00338876
-0.00256733
-0.00320818
-0.00250136
-0.00301826
-0.0024329
-0.00281788
-0.00236192
-0.00260576
-0.00228945
-0.00237952
-0.00221342
-0.0021376
-0.00213688
-0.00205961
-0.00187527
-0.000569293
-0.00539269
9.96921e-05
-0.00100589
-0.00526471
-0.00141051
-0.00514146
-0.00178315
-0.00502361
-0.00212658
-0.00490943
-0.0024419
-0.00479977
-0.00272856
-0.00469464
-0.00298907
-0.00459243
-0.0032233
-0.00449471
-0.00343375
-0.00440014
-0.00362029
-0.0043099
-0.00378443
-0.0042215
-0.00392641
-0.00413787
-0.00404821
-0.00405582
-0.00415009
-0.00397727
-0.00423204
-0.003902
-0.0042961
-0.00382892
-0.00434201
-0.00375912
-0.00437188
-0.00369025
-0.00438473
-0.0036244
-0.00438248
-0.00356102
-0.00436457
-0.0034997
-0.00433426
-0.00343883
-0.00428922
-0.00338084
-0.00423128
-0.00332442
-0.00416177
-0.00326878
-0.00407976
-0.00321423
-0.00398677
-0.0031612
-0.00388331
-0.00310815
-0.00376986
-0.00305504
-0.00364696
-0.0030036
-0.0035141
-0.00295108
-0.00337324
-0.00289737
-0.00322387
-0.00284425
-0.00306642
-0.00278994
-0.00290031
-0.00273344
-0.00272589
-0.00267578
-0.00254227
-0.00261652
-0.00234893
-0.00255526
-0.00214647
-0.00249191
-0.0019324
-0.00242749
-0.00170588
-0.0023634
-0.00229903
-0.00146646
-0.000517918
-0.00496751
9.27371e-05
-0.000912557
-0.00487007
-0.00127704
-0.00477697
-0.00161382
-0.00468683
-0.00192316
-0.00460009
-0.00220592
-0.00451701
-0.00246422
-0.00443634
-0.00269767
-0.00435897
-0.00290881
-0.00428358
-0.00309668
-0.00421226
-0.0032638
-0.00414279
-0.00340956
-0.00407573
-0.003537
-0.00401043
-0.00364402
-0.00394881
-0.00373299
-0.0038883
-0.00380483
-0.00383017
-0.00386044
-0.00377331
-0.00389963
-0.00371993
-0.00392346
-0.00366642
-0.00393196
-0.00361589
-0.00392696
-0.00356602
-0.00390903
-0.00351764
-0.00387657
-0.00347129
-0.00383254
-0.00342488
-0.00377688
-0.00338007
-0.00371006
-0.00333561
-0.00363173
-0.00329255
-0.00354373
-0.00324921
-0.00344535
-0.00320653
-0.00333741
-0.00316298
-0.00322037
-0.00312063
-0.00309526
-0.00307619
-0.00296115
-0.00303148
-0.00281867
-0.00298674
-0.00266898
-0.00293962
-0.00251071
-0.00289171
-0.00234606
-0.00284044
-0.00217276
-0.00278982
-0.00199195
-0.00273606
-0.00180246
-0.00268139
-0.00160418
-0.00262577
-0.00139784
-0.00256974
-0.0025143
-0.00118258
-0.000470808
-0.00458438
8.76748e-05
-0.000826642
-0.00451424
-0.00115634
-0.00444727
-0.00145999
-0.00438317
-0.00173881
-0.00432127
-0.00199401
-0.0042618
-0.00222648
-0.00420387
-0.00243672
-0.00414873
-0.00262552
-0.00409478
-0.00279503
-0.00404275
-0.0029449
-0.00399291
-0.00307558
-0.00394505
-0.00318792
-0.00389809
-0.00328345
-0.00385328
-0.00336285
-0.0038089
-0.00342572
-0.00376729
-0.00347295
-0.00372608
-0.00350676
-0.00368612
-0.00352582
-0.00364735
-0.00353194
-0.00360978
-0.00352533
-0.00357262
-0.00350548
-0.00353749
-0.00347508
-0.00350169
-0.00343235
-0.00346761
-0.0033797
-0.00343271
-0.00331589
-0.00339942
-0.00324206
-0.00336637
-0.00315963
-0.00333164
-0.0030671
-0.00329906
-0.0029659
-0.00326418
-0.00285708
-0.00322946
-0.00274018
-0.00319309
-0.00261458
-0.00315708
-0.00248296
-0.00311836
-0.00234334
-0.00307924
-0.00219715
-0.0030379
-0.00204277
-0.00299481
-0.00188287
-0.00294972
-0.00171493
-0.00290401
-0.00154063
-0.0028557
-0.00135889
-0.00280751
-0.00117071
-0.00275792
-0.00270951
-0.000975498
-0.000427171
-0.00423687
7.96643e-05
-0.000749028
-0.00419238
-0.00104627
-0.00415003
-0.00132104
-0.00410841
-0.00157291
-0.00406939
-0.00180334
-0.00403138
-0.00201219
-0.00399502
-0.00220194
-0.00395898
-0.00237243
-0.0039243
-0.00252409
-0.00389109
-0.00265767
-0.00385933
-0.00277519
-0.00382753
-0.00287611
-0.00379718
-0.0029613
-0.00376809
-0.003031
-0.0037392
-0.00308737
-0.00371093
-0.0031294
-0.00368406
-0.00315774
-0.00365777
-0.00317392
-0.00363117
-0.00317778
-0.00360593
-0.00316928
-0.00358112
-0.00315063
-0.00355614
-0.00312051
-0.00353181
-0.0030808
-0.00350732
-0.00303001
-0.0034835
-0.00297055
-0.00345889
-0.00290261
-0.00343432
-0.00282508
-0.00340917
-0.0027401
-0.00338404
-0.00264703
-0.00335725
-0.00254608
-0.00333041
-0.00243677
-0.0033024
-0.00232171
-0.00327214
-0.00219891
-0.00324115
-0.00206995
-0.00320821
-0.00193472
-0.00317312
-0.00179292
-0.00313662
-0.00164523
-0.00309741
-0.00149237
-0.00305686
-0.00133202
-0.00301605
-0.00116708
-0.00297245
-0.000995135
-0.00292986
-0.00288652
-0.000818123
-0.000387746
-0.00392246
7.33353e-05
-0.000678793
-0.00390134
-0.000947681
-0.00388114
-0.00119523
-0.00386086
-0.00142258
-0.00384205
-0.00163062
-0.00382335
-0.00181985
-0.00380579
-0.0019911
-0.00378773
-0.00214386
-0.00377153
-0.00228089
-0.00375405
-0.00240135
-0.00373888
-0.00250685
-0.00372203
-0.00259685
-0.00370717
-0.00267324
-0.0036917
-0.00273569
-0.00367675
-0.00278519
-0.00366142
-0.00282182
-0.00364743
-0.00284713
-0.00363246
-0.00286027
-0.00361804
-0.00286187
-0.00360432
-0.00285385
-0.00358914
-0.00283535
-0.00357464
-0.00280732
-0.00355985
-0.00276906
-0.00354558
-0.00272318
-0.00352937
-0.00266805
-0.00351403
-0.00260471
-0.00349765
-0.0025334
-0.00348048
-0.00245411
-0.00346332
-0.00236732
-0.00344404
-0.00227424
-0.00342348
-0.00217493
-0.00340171
-0.00206817
-0.0033789
-0.00195567
-0.00335365
-0.00183696
-0.00332693
-0.00171307
-0.003297
-0.00158354
-0.00326615
-0.00144799
-0.00323295
-0.00130779
-0.00319706
-0.00116254
-0.0031613
-0.00101081
-0.00312418
-0.000855344
-0.00308533
-0.00304701
-0.000694856
-0.000350947
-0.00363751
6.59972e-05
-0.000614193
-0.00363809
-0.000857433
-0.0036379
-0.00108162
-0.00363667
-0.00128786
-0.00363581
-0.00147561
-0.00363559
-0.0016461
-0.0036353
-0.00180018
-0.00363365
-0.00193925
-0.00363247
-0.00206208
-0.00363123
-0.00217166
-0.00362929
-0.00226531
-0.00362838
-0.00234682
-0.00362566
-0.0024152
-0.00362332
-0.00247139
-0.00362056
-0.00251514
-0.00361767
-0.00254763
-0.00361494
-0.00256914
-0.00361095
-0.00258018
-0.00360699
-0.00258175
-0.00360275
-0.00257337
-0.00359752
-0.00255503
-0.00359298
-0.00252862
-0.00358625
-0.00249418
-0.00358002
-0.00245076
-0.00357278
-0.00240005
-0.00356474
-0.00234095
-0.00355676
-0.00227543
-0.00354599
-0.00220339
-0.00353536
-0.00212431
-0.00352313
-0.00203895
-0.00350884
-0.00194631
-0.00349435
-0.00184844
-0.00347677
-0.00174501
-0.00345708
-0.00163636
-0.00343557
-0.00152325
-0.00341012
-0.00140442
-0.00338498
-0.00128117
-0.0033562
-0.00115281
-0.00332542
-0.00102046
-0.00329366
-0.000882635
-0.003262
-0.000740402
-0.00322756
-0.000595118
-0.0031923
-0.0035932
-0.00135906
0.000564591
-0.00296426
-0.00132335
0.00069441
-0.00240836
-0.00132211
0.000766205
-0.00190295
-0.00133766
0.000832261
-0.00143855
-0.00136423
0.00089983
-0.0010089
-0.00139775
0.000968094
-0.000611468
-0.00143571
0.00103828
-0.000242011
-0.00147892
0.00110946
0.000102144
-0.00152647
0.00118231
0.000422152
-0.00157621
0.00125621
0.000721261
-0.00163028
0.00133117
0.000999366
-0.00168541
0.0014073
0.00125842
-0.00174444
0.00148539
0.00149857
-0.00180511
0.00156495
0.00172124
-0.00186945
0.00164678
0.00192617
-0.00193536
0.00173043
0.00211374
-0.00200368
0.0018161
0.00228478
-0.0020756
0.00190456
0.00243884
-0.00214945
0.0019954
0.00257578
-0.00222634
0.00208939
0.00269615
-0.00230595
0.00218558
0.00279851
-0.00238826
0.0022859
0.00288351
-0.00247487
0.00238987
0.0029511
-0.00256378
0.00249619
0.00299924
-0.00265576
0.00260761
0.00302872
-0.00275235
0.00272287
0.00303885
-0.00285216
0.00284203
0.00302976
-0.00295623
0.00296532
0.00299869
-0.00306369
0.00309476
0.00294709
-0.00317596
0.00322756
0.0028732
-0.00329235
0.00336624
0.00277575
-0.00341319
0.00351064
0.00265478
-0.00353932
0.0036603
0.00250866
-0.00366963
0.00381575
0.00233706
-0.00380602
0.00397762
0.00213883
-0.0039477
0.00414593
0.00191207
-0.00409424
0.004321
0.00165727
-0.00424762
0.00450242
0.00137237
-0.00440636
0.00469126
0.00105578
-0.00457137
0.00488796
0.000706602
-0.00474281
0.00509199
0.000324132
-0.00492192
0.00530439
-0.00510746
0.00552484
-9.3254e-05
-0.0022547
-0.0017376
-0.00186305
-0.001715
-0.00148205
-0.00170312
-0.00111797
-0.00170175
-0.0007736
-0.0017086
-0.00044966
-0.00172168
-0.000144344
-0.00174102
0.000144163
-0.00176742
0.00041603
-0.00179834
0.000671474
-0.00183166
0.000911969
-0.00187077
0.00113808
-0.00191151
0.00134949
-0.00195586
0.00154792
-0.00200354
0.00173217
-0.00205369
0.00190241
-0.0021056
0.00205987
-0.00216113
0.00220259
-0.00221832
0.00233171
-0.00227858
0.00244649
-0.00234112
0.00254717
-0.00240663
0.00263283
-0.00247392
0.00270256
-0.00254461
0.00275696
-0.00261818
0.00279575
-0.00269455
0.00281712
-0.00277371
0.00282081
-0.00285586
0.00280661
-0.00294203
0.0027739
-0.00303098
0.00272155
-0.00312362
0.0026496
-0.00322039
0.00255708
-0.00332067
0.00244236
-0.00342461
0.00230576
-0.00353303
0.00214565
-0.00364592
0.00196092
-0.00376296
0.00175164
-0.00388496
0.00151562
-0.0040116
0.00125229
-0.00414302
0.000961095
-0.00428018
0.000640605
-0.00442232
0.000289156
-0.00457047
-0.00472426
-9.40441e-05
-0.00159939
-0.00201349
-0.00131886
-0.00199552
-0.00103746
-0.00198451
-0.000760167
-0.00197904
-0.000490421
-0.00197835
-0.0002281
-0.001984
2.55649e-05
-0.00199469
0.000268883
-0.00201074
0.000499853
-0.00202931
0.000721391
-0.00205319
0.000930261
-0.00207964
0.00112931
-0.00211057
0.00131628
-0.00214283
0.00149178
-0.00217904
0.00165502
-0.00221694
0.00180648
-0.00225706
0.00194627
-0.00230092
0.00207325
-0.0023453
0.00218791
-0.00239325
0.00228931
-0.00244252
0.00237785
-0.00249516
0.00245256
-0.00254863
0.00251363
-0.00260568
0.00256026
-0.00266481
0.00259135
-0.00272564
0.00260759
-0.00278995
0.00260853
-0.00285679
0.00259201
-0.00292551
0.00255917
-0.00299814
0.00250887
-0.00307332
0.00243999
-0.00315152
0.0023524
-0.00323307
0.00224497
-0.00331717
0.00211737
-0.00340543
0.00196863
-0.00349718
0.00179778
-0.00359211
0.00160399
-0.00369117
0.00138627
-0.00379389
0.00114429
-0.00390104
0.000876111
-0.00401201
0.000581946
-0.00412816
0.000259526
-0.00424805
-0.00437348
-9.12549e-05
-0.00122258
-0.00225736
-0.000976725
-0.00224138
-0.000734606
-0.00222663
-0.000496979
-0.00221667
-0.000264367
-0.00221096
-3.87925e-05
-0.00220958
0.000178977
-0.00221246
0.000387601
-0.00221936
0.000589031
-0.00223074
0.000780563
-0.00224473
0.000963449
-0.00226253
0.00113536
-0.00228247
0.00129888
-0.00230635
0.00145179
-0.00233194
0.00159453
-0.00235968
0.00172719
-0.00238972
0.00184839
-0.00242212
0.00195963
-0.00245654
0.00205915
-0.00249276
0.00214764
-0.00253101
0.00222379
-0.00257132
0.00228812
-0.00261296
0.00233948
-0.00265704
0.00237779
-0.00270312
0.00240353
-0.00275138
0.00241497
-0.0028014
0.00241177
-0.00285358
0.00239446
-0.0029082
0.00236108
-0.00296477
0.00231235
-0.00302459
0.00224662
-0.00308579
0.00216343
-0.00314988
0.00206358
-0.00321732
0.00194449
-0.00328633
0.00180614
-0.00335883
0.00164789
-0.00343386
0.00146921
-0.00351249
0.00126883
-0.0035935
0.0010459
-0.00367811
0.000800208
-0.00376631
0.000529881
-0.00385783
0.000234109
-0.00395228
-0.00405154
-8.78241e-05
-0.000963369
-0.00247657
-0.000748
-0.00245675
-0.000535403
-0.00243923
-0.000327353
-0.00242472
-0.000124636
-0.00241367
7.28659e-05
-0.00240708
0.000263764
-0.00240336
0.000447604
-0.0024032
0.000623994
-0.00240713
0.0007933
-0.00241403
0.000953813
-0.00242304
0.00110742
-0.00243608
0.00125101
-0.00244995
0.00138657
-0.0024675
0.00151257
-0.00248568
0.00163055
-0.0025077
0.00173786
-0.00252942
0.00183612
-0.00255481
0.00192402
-0.00258066
0.00200143
-0.00260842
0.00206783
-0.00263771
0.00212408
-0.00266921
0.00216877
-0.00270173
0.00220116
-0.00273551
0.00222184
-0.00277206
0.00222968
-0.00280924
0.00222494
-0.00284884
0.00220647
-0.00288973
0.00217463
-0.00293293
0.00212728
-0.00297724
0.00206578
-0.00302428
0.00198863
-0.00307273
0.00189488
-0.00312357
0.00178454
-0.00317599
0.00165678
-0.00323107
0.00151094
-0.00328802
0.00134606
-0.00334762
0.00116134
-0.00340878
0.00095716
-0.00347394
0.000731033
-0.00354018
0.000482482
-0.00360928
0.000212236
-0.00368203
-0.00375699
-8.23138e-05
-0.000778637
-0.00267343
-0.000585425
-0.00264996
-0.000395412
-0.00262924
-0.000210011
-0.00261012
-2.89472e-05
-0.00259474
0.000145697
-0.00258172
0.0003152
-0.00257286
0.000479204
-0.00256721
0.000636519
-0.00256444
0.000786149
-0.00256366
0.000929887
-0.00256678
0.00106547
-0.00257166
0.0011935
-0.00257798
0.00131367
-0.00258767
0.00142714
-0.00259914
0.00153025
-0.00261082
0.00162682
-0.00262599
0.00171331
-0.0026413
0.00179071
-0.00265806
0.00185947
-0.00267718
0.00191831
-0.00269655
0.00196719
-0.00271809
0.00200527
-0.00273982
0.00203353
-0.00276376
0.00205005
-0.00278859
0.00205571
-0.0028149
0.00204948
-0.0028426
0.00203138
-0.00287164
0.00199977
-0.00290131
0.00195599
-0.00293346
0.00189789
-0.00296618
0.00182598
-0.00300083
0.00173884
-0.00303643
0.00163676
-0.00307391
0.00151892
-0.00311322
0.0013842
-0.00315331
0.00123226
-0.00319568
0.00106339
-0.0032399
0.000874907
-0.00328545
0.000667701
-0.00333298
0.000440611
-0.00338219
0.00019231
-0.00343373
-0.00348783
-7.68563e-05
-0.000640978
-0.00285058
-0.000466074
-0.00282486
-0.000295239
-0.00280008
-0.000128965
-0.00277639
3.23943e-05
-0.0027561
0.000190032
-0.00273936
0.000342205
-0.00272503
0.000488033
-0.00271304
0.000628546
-0.00270495
0.000763419
-0.00269853
0.000891746
-0.00269511
0.00101261
-0.00269253
0.00112791
-0.00269328
0.00123598
-0.00269574
0.00133545
-0.00269862
0.00142943
-0.00270479
0.00151436
-0.00271092
0.00159184
-0.00271878
0.00166115
-0.00272737
0.00172159
-0.00273762
0.00177383
-0.00274879
0.0018166
-0.00276085
0.00185053
-0.00277375
0.00187442
-0.00278765
0.00188873
-0.0028029
0.00189216
-0.00281833
0.00188508
-0.00283552
0.00186697
-0.00285353
0.00183764
-0.00287199
0.00179551
-0.00289133
0.00174185
-0.00291252
0.00167461
-0.00293359
0.00159427
-0.00295608
0.0015
-0.00297964
0.00139129
-0.00300451
0.0012678
-0.00302982
0.00112845
-0.00305632
0.000972735
-0.00308419
0.000800308
-0.00311303
0.000610485
-0.00314315
0.000402616
-0.00317432
0.000175627
-0.00320674
-0.00324078
-7.14226e-05
-0.000533016
-0.00301242
-0.000375815
-0.00298207
-0.000221697
-0.0029542
-7.13869e-05
-0.0029267
7.4224e-05
-0.00290171
0.000214974
-0.00288011
0.0003515
-0.00286156
0.000483736
-0.00284527
0.000610319
-0.00283154
0.000731004
-0.00281922
0.000845834
-0.00280994
0.000955125
-0.00280182
0.00105796
-0.00279612
0.00115457
-0.00279234
0.0012452
-0.00278924
0.00132861
-0.00278821
0.00140499
-0.0027873
0.00147368
-0.00278747
0.00153597
-0.00278967
0.00159014
-0.00279179
0.00163676
-0.00279541
0.00167457
-0.00279867
0.00170404
-0.00280321
0.00172471
-0.00280833
0.00173651
-0.00281469
0.00173906
-0.00282089
0.00173153
-0.00282799
0.00171394
-0.00283594
0.00168595
-0.00284399
0.00164719
-0.00285258
0.00159642
-0.00286174
0.00153472
-0.00287189
0.0014606
-0.00288196
0.00137401
-0.00289305
0.0012738
-0.0029043
0.00116016
-0.00291618
0.00103256
-0.00292872
0.00089
-0.00294163
0.000732039
-0.00295507
0.000558194
-0.00296931
0.000367665
-0.00298379
0.000160283
-0.00299936
-0.00301557
-6.49263e-05
-0.000449583
-0.00315795
-0.000306941
-0.00312471
-0.000167793
-0.00309334
-3.15098e-05
-0.00306298
9.99942e-05
-0.00303321
0.00022672
-0.00300684
0.000349329
-0.00298417
0.00046811
-0.00296405
0.000582375
-0.0029458
0.000691449
-0.00292829
0.000794598
-0.00291309
0.000892979
-0.0029002
0.000985841
-0.00288898
0.00107347
-0.00287997
0.00115486
-0.00287064
0.00122919
-0.00286253
0.00129762
-0.00285574
0.00136031
-0.00285016
0.00141638
-0.00284573
0.00146523
-0.00284065
0.00150616
-0.00283634
0.0015401
-0.0028326
0.00156622
-0.00282933
0.00158478
-0.0028269
0.00159437
-0.00282428
0.00159605
-0.00282257
0.00158854
-0.00282048
0.00157142
-0.00281882
0.00154547
-0.00281804
0.00150943
-0.00281654
0.00146277
-0.00281508
0.00140551
-0.00281463
0.00133738
-0.00281384
0.00125794
-0.00281361
0.00116594
-0.0028123
0.00106143
-0.00281167
0.000944033
-0.00281133
0.000813413
-0.00281101
0.00066927
-0.00281092
0.000510041
-0.00281008
0.000336015
-0.00280976
0.000146085
-0.00280943
-5.93721e-05
-0.00281011
-0.000305189
0.00598326
-0.0065217
0.000843633
0.000189423
0.00574825
-0.00624286
0.000641364
0.00552131
-0.00597325
0.00105285
0.00530212
-0.00571361
0.00142421
0.00509108
-0.00546244
0.00175854
0.00488648
-0.00522081
0.00205566
0.00468924
-0.00498636
0.0023178
0.0044984
-0.00476055
0.00254635
0.00431413
-0.00454268
0.00274249
0.00413609
-0.00433223
0.00290785
0.00396352
-0.00412888
0.00304331
0.00379754
-0.003933
0.0031506
0.00363632
-0.00374362
0.003231
0.00348093
-0.00356133
0.00328614
0.00333051
-0.00338565
0.00331742
0.00318521
-0.00321649
0.00332584
0.00304451
-0.00305293
0.00331306
0.00290907
-0.0028963
0.00328049
0.00277795
-0.00274538
0.00322981
0.00265109
-0.00260042
0.00316203
0.00252865
-0.00246087
0.00307845
0.00241056
-0.00232697
0.00298007
0.00229665
-0.00219827
0.00286924
0.00218607
-0.00207524
0.00274662
0.00207976
-0.00195714
0.00261351
0.00197663
-0.00184352
0.002472
0.00187692
-0.0017354
0.00232208
0.00178114
-0.00163122
0.00216589
0.00168762
-0.00153144
0.00200436
0.0015976
-0.00143607
0.00183863
0.00151015
-0.00134441
0.00166996
0.00142498
-0.00125632
0.00149922
0.00134268
-0.00117194
0.00132863
0.0012615
-0.00109092
0.00115909
0.00118212
-0.00101258
0.000991363
0.00110424
-0.000936509
0.000826765
0.00102698
-0.000862378
0.000667262
0.000949236
-0.000789734
0.000514706
0.000870143
-0.000717587
0.000369931
0.000788395
-0.00064362
0.000230869
0.000704802
-0.00056574
7.65865e-05
0.000635796
-0.000481514
0.000713434
-0.00023564
-0.000401208
-0.000283816
0.00549617
0.000770897
0.000163394
0.00530104
0.000572855
0.00511184
0.000944899
0.00493008
0.00128262
0.00475336
0.00158581
0.00458328
0.00185636
0.0044187
0.00209553
0.00425924
0.00230427
0.00410539
0.00248467
0.00395569
0.00263645
0.00381174
0.00276245
0.00367154
0.00286289
0.00353589
0.00293964
0.00340418
0.00299282
0.00327732
0.00302463
0.00315339
0.00303552
0.00303363
0.00302769
0.0029169
0.00300119
0.00280444
0.00295755
0.00269473
0.00289824
0.00258796
0.00282405
0.00248476
0.0027368
0.0023839
0.0026369
0.00228597
0.00252581
0.00219085
0.00240437
0.00209807
0.00227404
0.00200725
0.00213638
0.0019188
0.00199139
0.00183261
0.00184145
0.00174754
0.00168665
0.00166494
0.00152875
0.00158288
0.00136899
0.00150244
0.00120779
0.00142271
0.00104686
0.00134305
0.000887854
0.00126325
0.00073171
0.00118312
0.000579882
0.00110106
0.000434213
0.00101581
0.00029441
0.000928197
0.000155787
0.000843425
-1.30003e-05
0.000804583
0.000989568
-0.000289134
-0.000263687
0.00505589
0.000703972
0.00014162
0.00489573
0.000512042
0.00474142
0.000850069
0.00459205
0.00115554
0.00444789
0.00143079
0.00430803
0.00167688
0.00417261
0.00189421
0.00404191
0.0020853
0.0039143
0.00224965
0.00379134
0.00238929
0.0036721
0.00250501
0.00355583
0.00259805
0.00344284
0.0026691
0.00333314
0.00271967
0.00322675
0.00275048
0.00312259
0.00276249
0.00302162
0.0027567
0.00292269
0.00273479
0.00282636
0.0026967
0.00273282
0.00264409
0.00264057
0.0025783
0.00255054
0.0024996
0.00246259
0.00240933
0.00237625
0.00230847
0.00229171
0.00219835
0.00220819
0.00207909
0.00212651
0.00195234
0.00204555
0.00181959
0.00196536
0.00168052
0.00188661
0.00153745
0.00180801
0.00139077
0.00172956
0.00124189
0.00165133
0.00109192
0.00157268
0.000941743
0.00149322
0.000792436
0.00141255
0.000646071
0.00132949
0.000503923
0.00124321
0.000366535
0.0011532
0.000233839
0.00106089
9.77197e-05
0.000979545
-7.46246e-05
0.000976928
0.00124086
-0.000325921
-0.000243562
0.00465688
0.00064257
0.000122774
0.0045294
0.000458522
0.00440567
0.000764436
0.00428613
0.00104153
0.00417079
0.00129123
0.00405833
0.00151444
0.0039494
0.00171258
0.00384377
0.00188601
0.00374087
0.00203598
0.00364137
0.00216358
0.0035445
0.00226992
0.00344949
0.00235538
0.00335737
0.00242115
0.00326737
0.00246842
0.00317948
0.00249772
0.00309329
0.00251019
0.00300914
0.00250673
0.00292615
0.0024875
0.00284559
0.00245473
0.00276559
0.00240822
0.00268707
0.00234886
0.0026099
0.00227819
0.00253327
0.00219668
0.00245775
0.00210522
0.00238318
0.002005
0.00230841
0.00189655
0.00223496
0.00178068
0.00216142
0.00165868
0.00208736
0.00153116
0.00201413
0.00139954
0.00193963
0.00126452
0.00186458
0.0011267
0.00178915
0.000987734
0.00171165
0.000848245
0.00163271
0.000710186
0.00155061
0.000574358
0.00146531
0.000441772
0.0013758
0.000313736
0.00128124
0.000189061
0.00118557
5.77112e-05
0.00111089
-0.000110133
0.00114477
0.00146963
-0.000338899
-0.000225494
0.00429568
0.000586692
0.000106524
0.00419738
0.000410781
0.00410142
0.000687759
0.00400916
0.000939415
0.00391914
0.00116642
0.00383133
0.00136895
0.00374686
0.00154892
0.0036638
0.00170686
0.00358294
0.00184364
0.00350459
0.00196065
0.00342749
0.00205772
0.00335242
0.00213662
0.00327847
0.00219738
0.00320661
0.0022415
0.00313536
0.00226946
0.00306533
0.00228178
0.00299682
0.00227919
0.00292874
0.00226346
0.00286132
0.0022343
0.00279475
0.00219283
0.00272855
0.00214013
0.0026626
0.00207626
0.00259714
0.00200268
0.00253133
0.0019201
0.00246576
0.00182863
0.00239988
0.00173003
0.00233356
0.00162446
0.00226699
0.0015124
0.00219941
0.00139592
0.00213061
0.00127481
0.00206074
0.00115031
0.00198908
0.00102371
0.00191575
0.000895335
0.00184002
0.000766743
0.0017613
0.00063906
0.0016783
0.000513026
0.00159135
0.000390509
0.00149831
0.000271824
0.00139992
0.000155338
0.00130205
3.09376e-05
0.00123529
-0.000129107
0.00130482
0.00167914
-0.000338615
-0.000208313
0.00396865
0.000535344
9.27218e-05
0.00389635
0.00036799
0.00382615
0.000619744
0.0037574
0.000848278
0.0036906
0.00105355
0.00362606
0.00123821
0.00356221
0.00140188
0.00350013
0.00154556
0.00343925
0.00167079
0.00337936
0.00177737
0.00332091
0.0018665
0.00326329
0.0019385
0.00320647
0.00199458
0.00315054
0.00203566
0.00309428
0.0020615
0.00303949
0.00207375
0.00298457
0.00207268
0.00292981
0.00205891
0.0028751
0.00203309
0.00282056
0.00199628
0.00276536
0.0019488
0.00271008
0.00189133
0.00265461
0.00182489
0.00259776
0.00174981
0.00254084
0.00166705
0.00248264
0.00157698
0.00242363
0.00148061
0.00236336
0.00137894
0.00230109
0.00127204
0.00223752
0.00116087
0.00217191
0.00104655
0.0021034
0.000929931
0.00203237
0.000812106
0.00195785
0.000693775
0.00187963
0.000575539
0.00179653
0.000459763
0.00170713
0.000346929
0.00161115
0.000237334
0.00150952
0.00012854
0.00141085
1.13759e-05
0.00135246
-0.000138808
0.001455
0.00187166
-0.000331329
-0.000192181
0.00367263
0.000488205
8.05264e-05
0.00362364
0.00033077
0.00357591
0.000558725
0.00352945
0.000765686
0.00348364
0.00095296
0.00343878
0.00112023
0.00339494
0.00126902
0.00335133
0.00140017
0.0033081
0.00151362
0.00326591
0.00161103
0.00322351
0.00169253
0.00318179
0.00175881
0.00314018
0.00181081
0.00309854
0.00184804
0.00305704
0.00187269
0.00301485
0.00188465
0.00297261
0.00188449
0.00292997
0.00187269
0.00288689
0.00185015
0.00284311
0.00181675
0.00279876
0.00177385
0.00275297
0.00172238
0.00270608
0.00166198
0.00265817
0.00159397
0.00260885
0.00151892
0.00255768
0.00143739
0.00250516
0.00134974
0.00245102
0.00125664
0.00239419
0.00115892
0.00233524
0.00105761
0.00227322
0.00095302
0.00220799
0.000846256
0.00213913
0.000737925
0.00206618
0.000628976
0.00198858
0.000520527
0.00190498
0.000413664
0.00181399
0.000310028
0.00171478
0.000209697
0.00160985
0.000109818
0.00151073
4.1315e-08
0.00146224
-0.000142575
0.00159762
0.00205029
-0.000321211
-0.000176403
0.00340391
0.000445117
7.048e-05
0.00337676
0.000297135
0.00334925
0.000503941
0.00332264
0.000692265
0.00329532
0.000861505
0.00326954
0.00101392
0.00324253
0.00114928
0.00321597
0.00126842
0.00318897
0.00137206
0.00316227
0.00146065
0.00313491
0.00153504
0.0031074
0.00159608
0.00307914
0.0016434
0.00305122
0.00167827
0.00302217
0.0017009
0.00299222
0.00171207
0.00296144
0.00171256
0.00292949
0.0017024
0.00289705
0.00168196
0.00286355
0.0016525
0.00282822
0.00161383
0.00279164
0.00156716
0.00275275
0.00151249
0.00271283
0.0014508
0.00267055
0.00138259
0.0026259
0.00130801
0.00257974
0.00122836
0.00253066
0.00114373
0.00247882
0.00105416
0.0024248
0.000960614
0.00236677
0.000865593
0.00230301
0.000768429
0.00223629
0.000668823
0.00216578
0.000569516
0.00208789
0.000469356
0.00200514
0.000371281
0.00191206
0.000276144
0.00180992
0.000184182
0.00170181
9.18844e-05
0.00160303
-1.11613e-05
0.00156528
-0.000145414
0.00173187
0.002213
-0.000308126
-0.000162897
0.000406586
0.00316022
6.14188e-05
0.00315244
0.000266776
0.00314389
0.000455324
0.00313409
0.00062586
0.00312478
0.000780286
0.00311512
0.000918332
0.00310448
0.00104142
0.00309288
0.00114984
0.00308055
0.00124476
0.00306735
0.00132559
0.00305408
0.00139342
0.00303957
0.00144894
0.00302362
0.00149311
0.00300705
0.00152508
0.0029902
0.00154563
0.00297167
0.00155631
0.00295076
0.00155724
0.00292856
0.00154898
0.00290531
0.00153108
0.00288145
0.00150373
0.00285557
0.00146913
0.00282625
0.00142631
0.00279556
0.00137701
0.00276214
0.00132143
0.00272612
0.00126006
0.00268727
0.00119318
0.00264662
0.00112171
0.00260213
0.00104584
0.00255469
0.000964177
0.00250646
0.000877616
0.00245333
0.000789804
0.00239082
0.00070157
0.00232453
0.00061033
0.00225702
0.000519661
0.00217856
0.000427292
0.00209751
0.000336029
0.00200333
0.000249665
0.00189629
0.000170162
0.00178131
9.0975e-05
0.00168221
-2.90162e-06
0.00165916
-0.000140823
0.00186979
-0.000300606
0.00237279
-0.000493981
0.00116078
-0.000902434
-0.000789215
0.00136495
-0.00106972
-0.00108942
0.00148223
-0.00118202
-0.00138946
0.00157159
-0.00127156
-0.00168421
0.00164824
-0.00135349
-0.0019721
0.00172013
-0.00143223
-0.00225214
0.00178864
-0.0015086
-0.00252213
0.0018558
-0.00158581
-0.00278247
0.0019234
-0.00166305
-0.0030316
0.00199032
-0.00174119
-0.00326819
0.00205838
-0.00182179
-0.00349209
0.00212714
-0.00190324
-0.00370238
0.0021974
-0.00198711
-0.00389847
0.00226917
-0.00207308
-0.00408029
0.00234279
-0.00216098
-0.00424607
0.00241723
-0.00225144
-0.00439616
0.00249446
-0.00234438
-0.00452886