/*--------------------------------*- C++ -*----------------------------------*\
| =========                 |                                                 |
| \\      /  F ield         | OpenFOAM: The Open Source CFD Toolbox           |
|  \\    /   O peration     | Version:  2.3.0                                 |
|   \\  /    A nd           | Web:      www.OpenFOAM.org                      |
|    \\/     M anipulation  |                                                 |
\*---------------------------------------------------------------------------*/
FoamFile
{
    version     2.0;
    format      ascii;
    class       volVectorField;
    location    "3000";
    object      U;
}
// * * * * * * * * * * * * * * * * * * * * * * * * * * * * * * * * * * * * * //

dimensions      [0 1 -1 0 0 0 0];

internalField   nonuniform List<vector> 
38323
(
(22.2867 5.49675 4.19379e-21)
(22.2891 5.59854 -3.66667e-21)
(22.2936 5.69476 -5.4883e-21)
(22.298 5.79286 5.90354e-22)
(22.3025 5.89249 -5.00155e-21)
(22.3069 5.99386 0)
(22.3112 6.09713 -9.32129e-21)
(22.3156 6.20254 9.21623e-21)
(22.32 6.31029 8.09584e-21)
(22.3246 6.42058 -1.41102e-20)
(22.3294 6.53365 1.87433e-20)
(22.3344 6.64974 0)
(22.3397 6.76916 3.43534e-21)
(22.3452 6.8922 -4.54644e-20)
(22.3511 7.01926 -4.11066e-21)
(22.3571 7.15077 4.6587e-20)
(22.3634 7.28725 0)
(22.3697 7.42931 -5.71153e-21)
(22.3762 7.5777 0)
(22.3826 7.73326 0)
(22.389 7.89698 7.50972e-21)
(22.3953 8.07007 8.35895e-20)
(22.4014 8.25393 -8.84818e-20)
(22.4071 8.45004 4.90029e-21)
(22.4124 8.66027 1.06e-19)
(22.4171 8.88673 -1.19548e-19)
(22.4209 9.13177 -1.18348e-19)
(22.4233 9.39781 1.27937e-19)
(22.4238 9.68768 0)
(22.4211 10.0045 0)
(22.4134 10.3515 8.83406e-21)
(22.3982 10.7317 0)
(22.3704 11.1485 -1.02058e-20)
(22.3232 11.6041 0)
(22.2453 12.0999 -4.06621e-20)
(22.1194 12.6364 8.20773e-20)
(21.9197 13.2095 6.03746e-21)
(21.6051 13.8123 5.93764e-21)
(21.1152 14.4233 -3.83579e-20)
(20.362 15.0111 4.05583e-20)
(19.2165 15.5735 3.23983e-21)
(17.4863 16.139 1.23688e-19)
(14.9726 16.3154 -1.66089e-19)
(22.1818 5.50594 0)
(22.1804 5.59683 8.33612e-22)
(22.1794 5.68537 -6.79252e-22)
(22.1777 5.77541 0)
(22.1756 5.86682 -1.45837e-22)
(22.1729 5.95973 9.00829e-22)
(22.1696 6.05429 -1.32141e-21)
(22.1656 6.15072 -3.96527e-21)
(22.1611 6.24918 3.91894e-21)
(22.156 6.34987 -9.80183e-22)
(22.1503 6.45296 5.38574e-21)
(22.1439 6.55866 1.00277e-20)
(22.137 6.66715 -1.11439e-20)
(22.1292 6.77869 -2.31835e-21)
(22.1206 6.89346 0)
(22.1111 7.01175 2.95434e-20)
(22.1003 7.13382 3.23655e-21)
(22.088 7.25997 -2.72839e-20)
(22.0739 7.39054 0)
(22.0577 7.52596 0)
(22.0388 7.66664 -7.49863e-21)
(22.0168 7.81319 -5.38287e-20)
(21.9909 7.96617 5.02917e-20)
(21.9603 8.12628 6.02233e-20)
(21.924 8.29442 -6.39069e-20)
(21.8809 8.47158 -3.91819e-20)
(21.8296 8.65892 4.65295e-20)
(21.7683 8.85759 4.67244e-20)
(21.695 9.06915 -4.46794e-20)
(21.6073 9.29509 3.70458e-21)
(21.5021 9.53695 -8.61122e-21)
(21.3759 9.79655 3.92127e-21)
(21.2242 10.075 9.8341e-21)
(21.0417 10.3732 0)
(20.8225 10.691 3.15646e-20)
(20.5593 11.0267 -3.27999e-20)
(20.2443 11.3758 -5.59244e-21)
(19.8692 11.7291 -7.5805e-21)
(19.4258 12.0707 3.46196e-21)
(18.9095 12.3756 -1.47569e-21)
(18.3216 12.6075 -2.71146e-21)
(17.6683 12.7016 0)
(16.9592 12.55 2.50516e-19)
(22.0911 5.50932 -4.47742e-21)
(22.0852 5.59104 -9.68512e-22)
(22.0798 5.67221 4.5268e-22)
(22.0739 5.75485 -1.2409e-21)
(22.0673 5.83876 -3.41001e-21)
(22.06 5.92401 3.7936e-21)
(22.0517 6.01076 -1.01112e-21)
(22.0425 6.09917 -4.80529e-21)
(22.0324 6.1894 0)
(22.0213 6.28163 9.83452e-22)
(22.0092 6.37605 0)
(21.9961 6.47281 -1.01164e-21)
(21.9818 6.57212 -1.90146e-21)
(21.9664 6.67422 -3.71197e-21)
(21.9496 6.77929 2.16401e-21)
(21.9314 6.88757 -1.65027e-22)
(21.9116 6.99932 -2.21601e-23)
(21.8898 7.1148 0)
(21.8659 7.23429 -2.41607e-22)
(21.8394 7.35812 -3.59689e-22)
(21.8099 7.48659 0)
(21.7771 7.62009 -5.55715e-22)
(21.7403 7.75893 -6.25333e-22)
(21.6987 7.90347 0)
(21.6515 8.05409 -2.65119e-21)
(21.5975 8.21117 0)
(21.5354 8.37503 0)
(21.4638 8.54594 0)
(21.3809 8.7242 -3.47704e-21)
(21.2844 8.90971 -1.01352e-20)
(21.1718 9.10231 1.11544e-20)
(21.0401 9.30154 -8.54593e-21)
(20.8857 9.50609 0)
(20.7046 9.71432 0)
(20.4924 9.92349 3.74992e-21)
(20.2441 10.1294 -3.88394e-21)
(19.9548 10.3262 0)
(19.6198 10.506 -7.62067e-21)
(19.2356 10.6583 0)
(18.8014 10.7705 0)
(18.3203 10.8272 1.65249e-20)
(17.8027 10.8104 0)
(17.2729 10.7024 0)
(22.0083 5.50496 -6.52429e-21)
(21.9995 5.58039 1.18581e-20)
(21.9908 5.65505 0)
(21.9816 5.73091 6.77455e-21)
(21.9718 5.80784 4.20968e-21)
(21.961 5.88592 -9.96062e-21)
(21.9491 5.96532 4.87889e-22)
(21.936 6.04618 3.02602e-21)
(21.9218 6.12865 -3.84915e-21)
(21.9063 6.21288 -7.68247e-22)
(21.8896 6.29905 5.15632e-22)
(21.8715 6.38725 5.01295e-22)
(21.8519 6.47767 6.55951e-21)
(21.8308 6.57049 -2.08963e-21)
(21.8079 6.66586 0)
(21.7832 6.76396 1.6652e-22)
(21.7563 6.865 5.61683e-21)
(21.7271 6.96915 -8.93259e-21)
(21.6952 7.0766 3.626e-21)
(21.6602 7.18754 3.63802e-22)
(21.6216 7.30225 0)
(21.579 7.42098 5.62584e-22)
(21.5319 7.54392 3.27406e-21)
(21.4795 7.67126 -7.669e-21)
(21.421 7.8032 2.90455e-21)
(21.3554 7.93993 0)
(21.2815 8.08148 0)
(21.198 8.22797 0)
(21.1035 8.37934 -1.98391e-21)
(20.9963 8.5352 7.73105e-21)
(20.8745 8.69518 -1.27622e-20)
(20.7361 8.85843 7.40346e-21)
(20.5786 9.02338 -1.24385e-20)
(20.3998 9.18825 9.73396e-21)
(20.1972 9.35043 2.26918e-21)
(19.9685 9.50599 -6.77289e-21)
(19.712 9.64998 2.10419e-21)
(19.4264 9.77626 3.33266e-21)
(19.1123 9.87716 -1.36096e-20)
(18.772 9.94405 0)
(18.4109 9.96749 -1.63871e-20)
(18.0381 9.93879 -1.18828e-19)
(17.6674 9.85196 -1.43051e-20)
(21.933 5.4973 -8.93252e-21)
(21.9224 5.56712 2.04932e-21)
(21.9117 5.63574 -2.03632e-21)
(21.9004 5.70544 -5.83958e-21)
(21.8884 5.77607 -5.18842e-21)
(21.8754 5.84766 2.05653e-21)
(21.8611 5.92046 9.80465e-21)
(21.8456 5.99458 -1.73062e-20)
(21.8288 6.07017 6.55289e-21)
(21.8106 6.14735 -2.52475e-21)
(21.791 6.22632 -3.62338e-21)
(21.7699 6.30712 0)
(21.7472 6.38992 1.1446e-20)
(21.7228 6.47488 -9.30699e-21)
(21.6964 6.56217 7.64633e-21)
(21.6681 6.65191 -2.21806e-20)
(21.6376 6.74427 9.17294e-21)
(21.6047 6.83939 1.88236e-21)
(21.569 6.93738 -1.13548e-20)
(21.5301 7.03838 2.31395e-20)
(21.4877 7.14257 -1.18149e-20)
(21.4412 7.25007 0)
(21.3903 7.36106 -1.3476e-20)
(21.3343 7.4756 2.04419e-20)
(21.2724 7.59372 0)
(21.2038 7.71538 0)
(21.1274 7.84048 0)
(21.0419 7.9689 0)
(20.9461 8.10034 -1.41277e-20)
(20.8384 8.23434 1.05081e-20)
(20.7175 8.37027 0)
(20.5817 8.50708 -5.37798e-21)
(20.429 8.64314 6.22182e-21)
(20.2577 8.77673 -5.036e-21)
(20.0664 8.90539 1.46118e-20)
(19.8536 9.02586 9.62104e-21)
(19.6187 9.134 -6.76257e-22)
(19.3618 9.22506 -3.38123e-21)
(19.0842 9.29366 3.30482e-20)
(18.7888 9.33381 -1.63412e-20)
(18.4806 9.33988 0)
(18.1668 9.30736 2.28182e-20)
(17.8571 9.23404 -1.11963e-19)
(21.8662 5.49111 3.7266e-22)
(21.8538 5.55353 4.96115e-21)
(21.8416 5.61579 5.92104e-21)
(21.8287 5.67956 -6.03421e-22)
(21.8154 5.74447 4.25398e-21)
(21.801 5.8102 4.13414e-21)
(21.7852 5.87707 0)
(21.7681 5.9452 1.26585e-20)
(21.7496 6.01468 -8.6635e-21)
(21.7297 6.08561 0)
(21.7082 6.1582 1.19909e-20)
(21.6852 6.23249 -4.69067e-21)
(21.6604 6.30859 -1.64667e-20)
(21.6338 6.38667 8.2133e-21)
(21.6052 6.46687 -1.30085e-20)
(21.5744 6.5493 -1.13046e-22)
(21.5413 6.63411 2.88425e-20)
(21.5057 6.72144 -1.70393e-20)
(21.4674 6.81131 0)
(21.4258 6.90386 0)
(21.3807 6.99918 1.37056e-20)
(21.3316 7.0973 6.61786e-22)
(21.2779 7.19836 8.24598e-22)
(21.2193 7.30244 -1.49493e-20)
(21.1551 7.40947 -2.38705e-20)
(21.0848 7.5193 -7.75988e-22)
(21.0072 7.63177 7.09128e-21)
(20.9213 7.74648 -1.15983e-21)
(20.8256 7.8631 2.02539e-20)
(20.719 7.98126 2.02141e-20)
(20.6006 8.10023 -8.71885e-21)
(20.4689 8.21877 5.42985e-21)
(20.3224 8.33547 9.37846e-22)
(20.1597 8.44873 -1.53959e-20)
(19.9799 8.55624 -8.48872e-21)
(19.782 8.65551 -1.54948e-23)
(19.5666 8.74296 -1.50912e-20)
(19.3337 8.81455 -1.16138e-20)
(19.0852 8.86632 0)
(18.8239 8.89389 0)
(18.5541 8.89322 -4.54839e-20)
(18.2811 8.86136 -4.80631e-21)
(18.0119 8.79727 1.65583e-19)
(21.8058 5.47919 -5.09667e-21)
(21.7929 5.5376 0)
(21.7797 5.59493 -5.32576e-21)
(21.7655 5.65355 0)
(21.7514 5.71366 2.76452e-21)
(21.7362 5.77421 -2.73458e-21)
(21.7196 5.83586 0)
(21.7015 5.89878 0)
(21.6821 5.96297 0)
(21.6611 6.02844 0)
(21.6385 6.09546 1.03722e-20)
(21.6144 6.16418 -1.5996e-20)
(21.5885 6.23452 -6.23211e-23)
(21.5607 6.30673 1.03903e-20)
(21.5307 6.38093 1.0595e-20)
(21.4986 6.45719 -1.0629e-20)
(21.4639 6.5356 -1.20749e-20)
(21.4268 6.6164 1.10739e-20)
(21.387 6.69958 0)
(21.344 6.78518 0)
(21.2977 6.87338 5.53217e-21)
(21.2475 6.96406 0)
(21.1925 7.05711 -6.48808e-21)
(21.1327 7.15282 -6.21194e-22)
(21.0677 7.25105 1.52189e-20)
(20.9968 7.35167 1.72183e-20)
(20.9195 7.45438 -7.05904e-21)
(20.8346 7.55864 -1.91791e-20)
(20.7406 7.66394 0)
(20.6361 7.76999 -1.28594e-20)
(20.5207 7.87638 -2.60383e-20)
(20.3935 7.98155 1.42762e-20)
(20.2529 8.08409 2.54245e-20)
(20.098 8.18268 -3.96324e-20)
(19.9276 8.27527 9.17424e-21)
(19.7408 8.35992 -7.33286e-23)
(19.5396 8.43397 -2.83969e-20)
(19.3239 8.49302 1.49472e-20)
(19.0953 8.53426 -3.59888e-20)
(18.8571 8.55462 4.03332e-20)
(18.6131 8.55058 0)
(18.3666 8.52003 -1.61999e-21)
(18.1231 8.46251 5.22281e-20)
(21.7511 5.4678 1.26849e-20)
(21.7384 5.52158 -1.32676e-20)
(21.7254 5.57446 0)
(21.71 5.62774 0)
(21.6953 5.68407 0)
(21.6797 5.74009 0)
(21.6626 5.79719 -6.16179e-21)
(21.6439 5.85558 -3.5275e-22)
(21.6241 5.91525 0)
(21.6028 5.97605 -6.39051e-21)
(21.5794 6.03818 0)
(21.5548 6.10208 1.21482e-20)
(21.5283 6.16739 -1.21202e-20)
(21.4997 6.23456 0)
(21.4689 6.30364 -1.25652e-20)
(21.4361 6.37487 1.26137e-20)
(21.4006 6.44777 1.90898e-20)
(21.3625 6.52294 2.82384e-22)
(21.3218 6.60039 -1.35952e-20)
(21.2778 6.68015 7.54562e-21)
(21.2303 6.7624 0)
(21.1799 6.84743 -7.58053e-21)
(21.1246 6.93392 8.5519e-21)
(21.0646 7.02292 0)
(20.9991 7.11404 9.68842e-21)
(20.9281 7.20734 -2.02053e-20)
(20.8513 7.30226 9.58637e-21)
(20.7676 7.39853 -3.57373e-20)
(20.6763 7.49537 3.72631e-20)
(20.5741 7.59174 -4.03643e-22)
(20.4617 7.68876 -1.56286e-20)
(20.339 7.78432 -1.21215e-21)
(20.204 7.87605 -3.6756e-20)
(20.0551 7.96345 1.97567e-20)
(19.8933 8.04528 2.22037e-20)
(19.7146 8.11897 3.34027e-20)
(19.5247 8.18448 4.71162e-20)
(19.3225 8.23537 3.91526e-20)
(19.1084 8.27019 3.33027e-20)
(18.8865 8.287 -3.9686e-20)
(18.6626 8.28057 0)
(18.4339 8.25082 -9.91791e-20)
(18.2089 8.19807 5.47368e-20)
(21.6995 5.45156 0)
(21.6878 5.50527 6.73091e-21)
(21.6766 5.55557 -7.85518e-21)
(21.6604 5.60152 0)
(21.6453 5.6554 -7.23594e-21)
(21.6303 5.70766 -3.48703e-21)
(21.6129 5.76123 -3.48839e-21)
(21.5939 5.81601 1.34671e-20)
(21.5741 5.87187 -7.13426e-21)
(21.5535 5.92917 -3.2496e-22)
(21.5298 5.98683 6.81565e-21)
(21.505 6.04669 0)
(21.4784 6.10732 -2.10972e-20)
(21.4499 6.17078 -1.56817e-22)
(21.4184 6.23495 -7.6666e-21)
(21.3854 6.30284 -2.20509e-22)
(21.3501 6.37157 1.47863e-20)
(21.3118 6.44201 1.54144e-20)
(21.2706 6.51407 -2.36484e-20)
(21.2271 6.58925 8.685e-21)
(21.1774 6.66491 -1.64506e-20)
(21.1268 6.74671 9.52395e-21)
(21.072 6.82822 -2.81558e-20)
(21.0127 6.9122 0)
(20.9478 6.99772 1.4148e-22)
(20.8774 7.08519 -2.14019e-20)
(20.8022 7.17347 1.12404e-20)
(20.7185 7.26237 1.21718e-20)
(20.6307 7.35431 -1.45233e-20)
(20.5312 7.44223 0)
(20.4204 7.53162 0)
(20.302 7.62055 -1.2512e-21)
(20.174 7.70317 7.34805e-21)
(20.0258 7.77902 -9.33868e-22)
(19.872 7.85479 -1.32222e-20)
(19.6972 7.91861 -2.66614e-20)
(19.5153 7.9789 -2.97303e-20)
(19.3258 8.02481 -3.28148e-20)
(19.1237 8.05432 -3.69117e-20)
(18.9086 8.07063 0)
(18.6948 8.0588 2.14047e-20)
(18.4753 8.02872 5.12868e-20)
(18.2643 7.98142 2.97596e-20)
(11.9938 14.8908 0)
(11.3664 13.2384 -4.23684e-19)
(11.3268 12.0412 4.10152e-19)
(11.5061 11.0978 2.89819e-20)
(11.7704 10.3246 0)
(12.0671 9.67308 5.20921e-20)
(12.3686 9.11894 -8.41146e-20)
(12.6616 8.64511 -1.04843e-18)
(12.9388 8.23741 1.04941e-18)
(13.1974 7.88453 -3.95591e-20)
(13.4361 7.57746 9.63281e-19)
(13.6553 7.30828 -9.06746e-19)
(13.856 7.07048 8.64636e-19)
(14.0394 6.85869 -5.04067e-20)
(14.2071 6.66855 -7.36142e-19)
(14.3604 6.4965 4.66887e-20)
(14.501 6.33974 -4.47435e-20)
(14.6301 6.19583 1.34112e-18)
(14.749 6.06275 -1.29999e-18)
(14.8589 5.93886 4.01769e-20)
(14.9609 5.82286 0)
(15.0558 5.71353 -1.1883e-18)
(15.1445 5.60987 -6.89144e-20)
(15.2277 5.51117 1.18215e-18)
(15.3061 5.41671 7.15852e-20)
(15.3801 5.32591 -9.9667e-19)
(15.4502 5.23832 2.26042e-18)
(15.5169 5.15356 -2.16918e-18)
(15.5806 5.07124 4.89581e-21)
(15.6415 4.99112 1.11145e-18)
(15.7 4.91293 0)
(15.7562 4.83645 -6.85484e-20)
(15.8104 4.76148 0)
(15.8627 4.68785 0)
(15.9133 4.61542 -1.41563e-19)
(15.9622 4.54403 -7.04e-19)
(16.0095 4.47356 -1.40839e-19)
(16.0552 4.40392 5.70059e-19)
(16.0995 4.33503 1.41866e-19)
(16.1423 4.26682 7.16384e-19)
(16.1838 4.19925 -5.7402e-19)
(16.224 4.13242 0)
(16.2639 4.06439 8.30278e-22)
(16.2388 12.115 -2.56251e-19)
(15.6901 11.5208 0)
(15.2968 10.8974 4.46567e-19)
(15.027 10.3083 4.08349e-21)
(14.8495 9.77005 4.94643e-19)
(14.7417 9.28505 -2.01261e-18)
(14.6864 8.85139 1.0362e-18)
(14.6693 8.46518 -2.02068e-18)
(14.6796 8.12154 9.0485e-19)
(14.7099 7.8153 -5.68138e-20)
(14.7542 7.54155 -8.88474e-19)
(14.8078 7.29615 2.59251e-18)
(14.8675 7.07514 -7.6294e-19)
(14.9308 6.87513 4.84512e-20)
(14.9958 6.69308 -9.05936e-20)
(15.0615 6.52645 -4.47433e-20)
(15.1269 6.37302 7.26333e-19)
(15.1914 6.23087 -6.62839e-19)
(15.2547 6.09843 0)
(15.3165 5.97434 -3.921e-20)
(15.3765 5.85748 -3.67375e-20)
(15.4349 5.74691 -5.88621e-19)
(15.4914 5.64181 6.52172e-19)
(15.5462 5.54153 0)
(15.5992 5.44552 -7.06482e-20)
(15.6506 5.3533 -6.97703e-20)
(15.7003 5.26447 6.72425e-20)
(15.7486 5.17869 5.42081e-19)
(15.7954 5.09567 -5.41734e-19)
(15.841 5.01512 6.05362e-19)
(15.8852 4.9368 -1.07984e-18)
(15.9284 4.8605 6.77259e-19)
(15.9704 4.786 5.42632e-19)
(16.0113 4.71315 -9.57968e-19)
(16.0512 4.64175 1.101e-18)
(16.09 4.57167 -6.93153e-19)
(16.1278 4.50277 0)
(16.1646 4.43493 5.63022e-19)
(16.2005 4.36806 -7.11419e-19)
(16.2353 4.30209 -1.41759e-19)
(16.2691 4.23699 0)
(16.302 4.17287 2.85996e-19)
(16.3342 4.10832 -1.39771e-19)
(16.7752 10.501 0)
(16.3539 10.2268 -3.38222e-20)
(16.0165 9.90638 0)
(15.7563 9.56526 2.40046e-20)
(15.5628 9.22078 6.97016e-20)
(15.4251 8.8843 -4.75069e-19)
(15.3327 8.56281 4.25014e-19)
(15.2761 8.26014 8.35656e-19)
(15.2475 7.9781 1.18724e-19)
(15.2404 7.71702 -7.39383e-19)
(15.2494 7.47602 0)
(15.2705 7.254 -4.78658e-20)
(15.3003 7.04932 6.95913e-19)
(15.3362 6.86038 -6.74161e-19)
(15.3762 6.68559 4.31865e-20)
(15.419 6.52345 3.94452e-20)
(15.4634 6.37254 0)
(15.5085 6.23161 0)
(15.5538 6.09952 3.6561e-20)
(15.5987 5.97528 0)
(15.6429 5.85802 1.06567e-19)
(15.6863 5.74699 6.88749e-20)
(15.7288 5.64154 4.81002e-19)
(15.7702 5.54107 -5.4172e-19)
(15.8105 5.4451 0)
(15.8499 5.3532 5.30114e-19)
(15.8883 5.265 -5.94064e-19)
(15.9258 5.18011 0)
(15.9625 5.09823 0)
(15.9985 5.01906 -6.61908e-20)
(16.0336 4.94231 4.58914e-19)
(16.0681 4.86775 -1.18441e-18)
(16.1018 4.79518 6.65776e-20)
(16.1349 4.7244 3.99091e-19)
(16.1673 4.65522 5.37002e-19)
(16.1989 4.58749 -5.40865e-19)
(16.2299 4.52107 -1.35931e-19)
(16.2601 4.45583 -1.37243e-19)
(16.2896 4.39168 0)
(16.3184 4.32851 -1.39207e-19)
(16.3465 4.26629 5.37043e-22)
(16.3739 4.20499 1.42239e-19)
(16.4009 4.14328 -2.76625e-19)
(17.315 9.70774 1.13446e-19)
(16.994 9.51444 3.18816e-19)
(16.7128 9.28503 2.47958e-20)
(16.475 9.03343 2.19959e-20)
(16.2796 8.7712 -3.359e-19)
(16.1235 8.50726 9.07296e-20)
(16.0021 8.24807 -9.09721e-20)
(15.9107 7.99789 3.25312e-19)
(15.8445 7.75929 -4.0469e-19)
(15.7989 7.53367 4.5349e-20)
(15.7702 7.32157 6.64095e-19)
(15.7548 7.12293 -1.41409e-18)
(15.7501 6.93725 6.2406e-19)
(15.7537 6.76379 0)
(15.7638 6.60166 -3.89895e-20)
(15.7789 6.44993 -3.92899e-20)
(15.7979 6.30766 0)
(15.8195 6.174 0)
(15.8433 6.04811 -3.65618e-20)
(15.8684 5.92925 -5.66224e-19)
(15.8946 5.81673 4.16258e-19)
(15.9214 5.70997 -6.89762e-20)
(15.9486 5.60841 1.60118e-21)
(15.976 5.51157 0)
(16.0035 5.41904 0)
(16.031 5.33043 0)
(16.0585 5.2454 0)
(16.086 5.16362 -5.13974e-19)
(16.1134 5.08476 5.13343e-19)
(16.1406 5.00854 -6.35916e-20)
(16.1677 4.93471 5.78891e-19)
(16.1945 4.86304 -4.51598e-19)
(16.2209 4.79338 -6.54245e-20)
(16.2471 4.72551 6.49356e-20)
(16.2729 4.65927 0)
(16.2983 4.59451 1.34089e-19)
(16.3233 4.53109 3.37456e-19)
(16.3477 4.46892 -1.35245e-19)
(16.3717 4.40787 2.74134e-19)
(16.3952 4.34789 -2.76703e-19)
(16.4181 4.28892 2.77972e-19)
(16.4407 4.231 -5.56553e-19)
(16.4631 4.17308 5.51593e-19)
(17.561 9.12095 2.38221e-19)
(17.2863 8.97242 -1.25991e-19)
(17.0389 8.79523 0)
(16.8225 8.59764 0)
(16.6381 8.38772 2.49911e-19)
(16.4845 8.1723 -2.86211e-19)
(16.3595 7.95675 4.38238e-20)
(16.2603 7.74489 4.21301e-20)
(16.1831 7.53947 0)
(16.1246 7.34233 0)
(16.0817 7.15452 4.24864e-20)
(16.052 6.97655 4.1701e-20)
(16.0328 6.80844 3.94461e-20)
(16.0225 6.64993 -3.53166e-19)
(16.0191 6.50053 3.06192e-19)
(16.0214 6.35966 0)
(16.0281 6.22672 -2.94112e-19)
(16.0381 6.10114 3.57598e-19)
(16.0508 5.98231 0)
(16.0656 5.86969 6.83819e-20)
(16.0819 5.76274 6.88182e-20)
(16.0994 5.661 6.62068e-20)
(16.1179 5.56403 6.66998e-20)
(16.137 5.47145 6.45383e-20)
(16.1566 5.38292 0)
(16.1767 5.29816 5.11676e-19)
(16.1973 5.2168 1.98814e-22)
(16.2181 5.13854 -5.06363e-19)
(16.2393 5.06308 6.27113e-20)
(16.2605 4.99015 6.32012e-19)
(16.2817 4.91954 -2.53418e-19)
(16.3029 4.85108 -2.54422e-19)
(16.3239 4.78459 -2.55822e-19)
(16.3449 4.7199 2.56984e-19)
(16.3656 4.65682 0)
(16.3861 4.59525 0)
(16.4063 4.53503 1.32607e-19)
(16.4262 4.47609 -6.66225e-20)
(16.4457 4.41829 -3.37745e-19)
(16.4648 4.36159 3.40917e-19)
(16.4836 4.30598 0)
(16.5021 4.25148 1.38494e-19)
(16.5206 4.19716 0)
(17.753 8.70197 -2.3994e-19)
(17.5099 8.57819 1.25886e-19)
(17.2872 8.43036 0)
(17.0878 8.26436 0)
(16.9135 8.08633 7.85027e-20)
(16.7642 7.90178 2.88867e-19)
(16.6392 7.71521 1.16303e-20)
(16.5367 7.52968 -3.65028e-19)
(16.4535 7.34761 -4.04723e-20)
(16.387 7.17103 0)
(16.3349 7.00131 -3.96951e-20)
(16.2951 6.83923 3.91254e-20)
(16.2658 6.68505 3.75397e-20)
(16.2453 6.5387 3.4598e-19)
(16.2319 6.39989 -2.60542e-19)
(16.2243 6.26823 0)
(16.2213 6.14345 0)
(16.222 6.02512 -2.84997e-19)
(16.2259 5.9128 5.55167e-19)
(16.2323 5.80602 -2.73529e-19)
(16.2407 5.70436 -2.68769e-19)
(16.2506 5.60745 1.31791e-19)
(16.2619 5.51497 6.46778e-20)
(16.2742 5.42663 -6.49862e-20)
(16.2874 5.34216 0)
(16.3015 5.26132 0)
(16.3166 5.18368 -6.24743e-20)
(16.3322 5.10895 0)
(16.3483 5.03689 -1.25076e-19)
(16.3646 4.96729 -8.08903e-22)
(16.3811 4.89992 0)
(16.3976 4.83471 6.25078e-20)
(16.4143 4.77146 0)
(16.4311 4.70995 -6.40277e-20)
(16.4477 4.65003 0)
(16.4642 4.59164 -2.59217e-19)
(16.4805 4.53465 5.23066e-19)
(16.4966 4.47895 -1.98171e-19)
(16.5125 4.42436 6.71266e-20)
(16.5279 4.37091 -6.77146e-20)
(16.5431 4.31865 6.76072e-20)
(16.5583 4.26754 0)
(16.5737 4.21673 -1.36805e-19)
(17.8881 8.37871 -9.34412e-20)
(17.6662 8.27089 1.88333e-19)
(17.4608 8.14192 -6.85481e-20)
(17.2739 7.9963 -1.48842e-19)
(17.108 7.83959 1.09638e-19)
(16.9636 7.67649 1.58389e-19)
(16.8412 7.51072 -1.54496e-19)
(16.739 7.34446 0)
(16.6535 7.17951 3.99866e-20)
(16.5828 7.01841 0)
(16.5254 6.8627 1.16655e-19)
(16.4797 6.71329 2.71171e-19)
(16.4442 6.57047 -4.53178e-19)
(16.4173 6.43421 0)
(16.3975 6.30424 2.95032e-19)
(16.3834 6.18045 -6.48584e-19)
(16.3738 6.06284 2.121e-19)
(16.3683 5.95104 -2.80552e-19)
(16.3662 5.8446 2.7312e-19)
(16.3669 5.7431 -3.37943e-19)
(16.3698 5.64621 6.48697e-20)
(16.3744 5.5537 6.54095e-19)
(16.3805 5.4654 -6.43535e-20)
(16.3879 5.38102 -2.55114e-19)
(16.3964 5.30047 3.16073e-19)
(16.4065 5.22337 -2.50774e-19)
(16.4177 5.14917 -2.48915e-19)
(16.4295 5.07765 2.48334e-19)
(16.4416 5.00883 6.23605e-20)
(16.4542 4.94239 -1.23978e-19)
(16.4669 4.87809 2.48365e-19)
(16.4799 4.81603 -3.11657e-19)
(16.4933 4.75589 -2.50421e-19)
(16.5068 4.69739 1.89289e-19)
(16.5201 4.64049 -6.32246e-20)
(16.5334 4.58519 -6.38178e-20)
(16.5465 4.53133 -6.50326e-20)
(16.5596 4.47875 6.51324e-20)
(16.5725 4.42725 1.32138e-19)
(16.5849 4.37692 -1.33381e-19)
(16.5971 4.32783 -6.74577e-20)
(16.6095 4.28006 -2.02415e-19)
(16.6227 4.2325 1.3632e-19)
(17.9909 8.12202 2.99708e-20)
(17.7843 8.0254 -1.2635e-19)
(17.5929 7.90939 2.04442e-19)
(17.4153 7.77767 -1.37218e-19)
(17.256 7.63622 0)
(17.1153 7.48913 7.76949e-20)
(16.9969 7.33837 -1.48993e-19)
(16.8966 7.18689 1.54866e-19)
(16.8101 7.03435 3.73144e-21)
(16.7369 6.88509 -1.50699e-19)
(16.6764 6.74012 -6.96887e-22)
(16.6267 6.6009 0)
(16.5873 6.46718 7.46176e-20)
(16.5563 6.33929 0)
(16.5322 6.2165 0)
(16.513 6.09935 -2.13201e-19)
(16.4986 5.98814 -1.34168e-21)
(16.4887 5.88207 2.04461e-19)
(16.4824 5.7808 -3.3815e-19)
(16.4792 5.68369 3.31697e-19)
(16.4779 5.59083 -6.60197e-20)
(16.4784 5.50219 -6.51405e-20)
(16.4804 5.41761 2.56191e-19)
(16.484 5.33684 -5.69106e-19)
(16.489 5.26003 1.87399e-19)
(16.4966 5.18617 6.19161e-20)
(16.5046 5.11482 3.099e-19)
(16.513 5.04593 -4.93046e-19)
(16.5218 4.9805 2.45803e-19)
(16.5318 4.91689 5.72676e-22)
(16.541 4.85549 6.12113e-20)
(16.5518 4.79646 0)
(16.5626 4.73924 0)
(16.5735 4.68338 5.23633e-22)
(16.5839 4.6293 6.31516e-20)
(16.5946 4.57694 6.37107e-20)
(16.6051 4.52613 0)
(16.6159 4.47641 -6.49803e-20)
(16.6263 4.42786 -6.51551e-20)
(16.6362 4.38046 -1.97746e-19)
(16.646 4.33426 1.99322e-19)
(16.6562 4.28954 5.03833e-22)
(16.6682 4.24448 0)
(18.0582 7.9098 -1.73127e-19)
(17.8613 7.82243 1.89856e-19)
(17.6849 7.71755 3.27355e-21)
(17.5162 7.59544 1.44792e-19)
(17.3629 7.46501 -1.42277e-19)
(17.2216 7.3312 1.4318e-19)
(17.1045 7.18987 0)
(17.0047 7.05188 -8.12595e-20)
(16.9199 6.90863 2.27493e-19)
(16.846 6.76882 -7.45034e-20)
(16.784 6.63145 7.68164e-20)
(16.7314 6.5014 -7.09976e-20)
(16.6913 6.37504 -1.46812e-19)
(16.6586 6.2553 0)
(16.6337 6.13818 0)
(16.6115 6.02679 -7.08501e-20)
(16.5948 5.92157 2.12497e-19)
(16.5832 5.82038 -2.06283e-19)
(16.575 5.72349 2.02424e-19)
(16.5701 5.62949 -2.64415e-19)
(16.5659 5.53998 0)
(16.5637 5.45456 -6.51372e-20)
(16.5629 5.37318 -1.30163e-19)
(16.5642 5.29555 3.18904e-19)
(16.5673 5.2222 3.20499e-22)
(16.5743 5.1499 -2.43883e-19)
(16.578 5.08139 -1.20005e-19)
(16.584 5.01535 6.15454e-20)
(16.59 4.95446 -1.24859e-19)
(16.5993 4.89184 1.24977e-19)
(16.6053 4.83377 -6.11609e-20)
(16.6151 4.77742 -1.78497e-19)
(16.623 4.72275 1.2176e-19)
(16.6319 4.66875 6.19223e-20)
(16.6397 4.61753 0)
(16.6485 4.56781 -1.92443e-19)
(16.6567 4.51995 1.29159e-19)
(16.6663 4.47252 -6.49604e-20)
(16.6743 4.42717 2.0136e-19)
(16.6823 4.38241 -2.03034e-19)
(16.6907 4.3387 1.35385e-19)
(16.6996 4.2965 -6.70985e-20)
(16.7134 4.25148 0)
(19.5486 -3.47794 -2.49564e-19)
(19.4509 -3.49872 -1.29991e-19)
(19.3461 -3.52201 -1.36976e-19)
(19.235 -3.54279 -5.6025e-21)
(19.1168 -3.56184 0)
(18.9913 -3.57895 4.82966e-19)
(18.858 -3.59406 6.77162e-20)
(18.7166 -3.60706 -1.40728e-19)
(18.5668 -3.61792 -1.38669e-19)
(18.4083 -3.62655 1.47507e-19)
(18.2409 -3.63292 -4.28796e-19)
(18.0645 -3.63696 1.51736e-19)
(17.8788 -3.63867 -2.96122e-19)
(17.6838 -3.63798 1.46666e-19)
(17.4794 -3.63488 -3.0183e-19)
(17.2656 -3.62936 -7.60789e-20)
(17.0425 -3.6214 -7.28984e-19)
(16.81 -3.61096 6.61327e-19)
(16.5682 -3.59805 -8.39005e-20)
(16.3172 -3.58263 0)
(16.057 -3.56471 0)
(15.7876 -3.54424 0)
(15.5092 -3.52123 9.34134e-20)
(15.2216 -3.49556 -1.0038e-19)
(14.9249 -3.46726 -5.08075e-20)
(14.6188 -3.43626 1.87125e-21)
(14.3032 -3.40245 -4.75839e-19)
(13.9777 -3.36583 4.42056e-19)
(13.6417 -3.32619 5.33785e-19)
(13.2947 -3.28339 -6.8552e-20)
(12.9357 -3.23725 -8.38745e-19)
(12.5634 -3.1875 3.24665e-19)
(12.1762 -3.13371 0)
(11.7717 -3.07528 0)
(11.347 -3.01151 0)
(10.8978 -2.94131 5.66917e-20)
(10.4179 -2.86297 2.72023e-19)
(9.89826 -2.77376 -2.39679e-19)
(9.3244 -2.66922 -7.33339e-19)
(8.67387 -2.54135 7.93965e-19)
(7.92171 -2.37276 0)
(7.14479 -2.1361 2.02866e-19)
(7.7261 -1.96359 -3.78424e-18)
(19.5046 -3.44907 5.31483e-19)
(19.4141 -3.46771 -2.87397e-19)
(19.3175 -3.4888 0)
(19.2156 -3.50774 2.90702e-19)
(19.1077 -3.52527 1.8341e-20)
(18.9937 -3.54123 -1.63939e-19)
(18.8732 -3.55558 1.47281e-19)
(18.7458 -3.56822 1.46606e-19)
(18.6112 -3.5791 0)
(18.4692 -3.58813 1.48289e-19)
(18.3194 -3.59524 -2.97457e-19)
(18.1616 -3.60038 -1.50694e-19)
(17.9955 -3.60348 3.03517e-19)
(17.8209 -3.60449 0)
(17.6375 -3.60333 2.36841e-19)
(17.4452 -3.59996 0)
(17.2438 -3.59432 1.64189e-19)
(17.0332 -3.58634 4.17427e-19)
(16.813 -3.57595 -3.39676e-19)
(16.5833 -3.5631 -3.52387e-19)
(16.3437 -3.54771 7.25526e-19)
(16.0942 -3.52972 9.62283e-20)
(15.8344 -3.50905 -3.88945e-19)
(15.5641 -3.48556 1.03727e-19)
(15.2831 -3.45917 1.0677e-19)
(14.9909 -3.42975 -1.69002e-19)
(14.687 -3.39717 -5.89372e-19)
(14.3709 -3.36127 4.96043e-19)
(14.0418 -3.3218 0)
(13.6988 -3.27854 -2.11455e-19)
(13.3407 -3.23113 3.01954e-19)
(12.966 -3.17917 4.94653e-19)
(12.5728 -3.12213 -2.66225e-19)
(12.1586 -3.05924 -1.96334e-19)
(11.72 -2.98954 2.16061e-19)
(11.2525 -2.9117 1.21881e-19)
(10.7495 -2.8238 2.7519e-19)
(10.2017 -2.72296 -3.14734e-19)
(9.59637 -2.60424 -8.35116e-19)
(8.92237 -2.45945 8.91913e-19)
(8.21298 -2.28084 -1.9785e-18)
(7.80798 -2.12003 1.69905e-19)
(9.69483 -2.22918 3.26323e-18)
(19.4648 -3.42306 -1.3785e-19)
(19.3809 -3.44009 4.49975e-19)
(19.2915 -3.45903 -7.62959e-20)
(19.1974 -3.47614 -1.15176e-19)
(19.0981 -3.49207 3.82589e-20)
(18.9934 -3.50667 1.54484e-19)
(18.8829 -3.5199 -1.52563e-19)
(18.7662 -3.53167 1.5394e-19)
(18.6432 -3.54191 -1.53498e-19)
(18.5134 -3.55053 1.53955e-19)
(18.3765 -3.55745 -1.56857e-19)
(18.2322 -3.5626 -4.70955e-19)
(18.0802 -3.5659 -1.61648e-19)
(17.9202 -3.56727 7.23697e-19)
(17.7519 -3.56667 -4.06668e-19)
(17.5749 -3.56401 2.49237e-19)
(17.3891 -3.5592 -4.22539e-19)
(17.1941 -3.55218 1.18454e-21)
(16.9895 -3.54287 -2.68336e-19)
(16.7752 -3.53117 7.32693e-19)
(16.5508 -3.517 -3.77154e-19)
(16.3159 -3.50024 -9.74151e-20)
(16.0702 -3.48077 0)
(15.8133 -3.45844 -3.17655e-19)
(15.5447 -3.43309 4.43221e-19)
(15.2638 -3.40455 1.15536e-19)
(14.9701 -3.37262 1.2167e-19)
(14.6627 -3.33705 -1.30686e-19)
(14.3407 -3.29757 0)
(14.0031 -3.25388 0)
(13.6485 -3.20555 1.21038e-21)
(13.2752 -3.15209 -8.44213e-20)
(12.8812 -3.09286 -9.16698e-20)
(12.4636 -3.02705 0)
(12.019 -2.95361 0)
(11.5424 -2.87108 -3.10232e-19)
(11.027 -2.7775 -7.11701e-20)
(10.4639 -2.66987 1.60828e-19)
(9.84365 -2.5433 0)
(9.17164 -2.39038 -6.67147e-19)
(8.54846 -2.20997 1.92712e-18)
(8.51794 -2.0927 -1.98304e-18)
(10.9921 -2.35993 -6.00947e-19)
(19.4289 -3.39918 -1.47499e-19)
(19.3505 -3.41426 -1.58904e-19)
(19.2671 -3.43092 1.61276e-19)
(19.1795 -3.44606 4.04649e-20)
(19.0872 -3.4602 1.21876e-19)
(18.9899 -3.47322 4.23433e-20)
(18.8874 -3.48506 -4.00763e-20)
(18.7794 -3.49567 0)
(18.6655 -3.50497 0)
(18.5454 -3.51285 0)
(18.4187 -3.51925 3.26071e-19)
(18.2853 -3.52408 1.65497e-19)
(18.1445 -3.52724 8.15309e-20)
(17.9962 -3.52868 -4.22058e-19)
(17.84 -3.52832 3.41771e-19)
(17.6754 -3.52608 8.65472e-20)
(17.5021 -3.52187 0)
(17.3198 -3.51559 -9.04216e-20)
(17.1279 -3.50713 3.75509e-19)
(16.9262 -3.4964 -3.84313e-19)
(16.7141 -3.48332 3.98858e-19)
(16.4912 -3.46772 2.27208e-21)
(16.257 -3.44947 2.34243e-21)
(16.0111 -3.42839 -5.54268e-19)
(15.7528 -3.40427 -2.32025e-19)
(15.4814 -3.37688 0)
(15.1961 -3.34595 0)
(14.896 -3.31121 1.34224e-19)
(14.58 -3.27229 0)
(14.2469 -3.22884 -1.53853e-19)
(13.8952 -3.18042 2.47501e-19)
(13.5231 -3.12646 -3.52341e-19)
(13.1283 -3.06626 1.48109e-21)
(12.7078 -2.99896 1.04404e-19)
(12.2578 -2.92345 8.92903e-22)
(11.773 -2.83822 1.25817e-19)
(11.2467 -2.7412 1.41048e-19)
(10.6703 -2.62922 -1.60287e-19)
(10.0388 -2.49736 3.74429e-19)
(9.37599 -2.34003 -1.54895e-18)
(8.84361 -2.16487 2.1579e-18)
(9.12847 -2.08347 -9.14473e-19)
(11.8964 -2.44179 2.40679e-18)
(19.3971 -3.37732 0)
(19.3239 -3.39042 -1.66962e-19)
(19.2461 -3.40508 8.52548e-20)
(19.1644 -3.41854 2.53615e-19)
(19.0786 -3.4312 1.74083e-21)
(18.9882 -3.44291 -4.03896e-20)
(18.8931 -3.45363 -1.26648e-19)
(18.7928 -3.46336 8.41382e-20)
(18.6872 -3.47198 -8.38619e-20)
(18.5759 -3.47941 0)
(18.4585 -3.48554 -2.54477e-19)
(18.3347 -3.49027 -1.70609e-19)
(18.2041 -3.49351 3.46951e-19)
(18.0662 -3.49517 -1.75061e-19)
(17.9206 -3.49516 0)
(17.7669 -3.49343 0)
(17.6047 -3.48988 -3.71644e-19)
(17.4336 -3.48437 3.78319e-19)
(17.2529 -3.47675 -9.76285e-20)
(17.0622 -3.46693 -4.01631e-19)
(16.8609 -3.45482 -2.30529e-21)
(16.6484 -3.44032 8.55167e-19)
(16.4243 -3.42325 -4.42474e-19)
(16.1878 -3.40341 0)
(15.9384 -3.38054 1.2002e-19)
(15.6752 -3.35438 -1.26684e-19)
(15.3973 -3.32458 0)
(15.1037 -3.29079 -1.40426e-19)
(14.7932 -3.25264 0)
(14.4643 -3.20971 6.31378e-19)
(14.1152 -3.16157 -3.36022e-19)
(13.7441 -3.10764 1.801e-19)
(13.3485 -3.04709 -3.90406e-19)
(12.9252 -2.97898 2.11799e-19)
(12.47 -2.90214 -1.15705e-19)
(11.9775 -2.81507 2.57601e-19)
(11.4406 -2.71562 0)
(10.8518 -2.60057 3.24653e-19)
(10.2109 -2.46502 -7.44657e-19)
(9.55914 -2.30508 8.75719e-19)
(9.10872 -2.13761 3.51182e-21)
(9.64148 -2.08845 -1.42178e-18)
(12.5695 -2.50083 -9.74986e-19)
(19.3692 -3.35673 -3.33046e-19)
(19.3007 -3.36853 3.45251e-19)
(19.228 -3.3816 -1.3122e-19)
(19.1518 -3.39371 -2.18473e-19)
(19.0719 -3.40517 -1.74077e-19)
(18.9878 -3.41576 -1.29918e-19)
(18.8991 -3.4255 1.29989e-19)
(18.8057 -3.43447 8.73023e-20)
(18.7073 -3.44256 -8.70104e-20)
(18.6035 -3.44964 0)
(18.4941 -3.45556 8.77763e-20)
(18.3785 -3.46024 0)
(18.2565 -3.46358 -8.94561e-20)
(18.1275 -3.46542 0)
(17.991 -3.46566 -1.85156e-19)
(17.8465 -3.4643 1.87464e-19)
(17.6936 -3.46133 0)
(17.5319 -3.45655 0)
(17.3607 -3.44969 3.02229e-19)
(17.1794 -3.44057 1.14367e-21)
(16.9873 -3.42915 -2.12941e-19)
(16.7838 -3.41544 1.10667e-19)
(16.5682 -3.39931 -2.28339e-19)
(16.3398 -3.38059 0)
(16.098 -3.359 0)
(15.8417 -3.33419 1.29555e-19)
(15.5702 -3.30574 0)
(15.2821 -3.27319 1.4321e-19)
(14.9761 -3.23596 4.5687e-19)
(14.6507 -3.19353 -4.82043e-19)
(14.3038 -3.14557 -1.72403e-19)
(13.9335 -3.09181 0)
(13.5375 -3.03144 1.98898e-19)
(13.1121 -2.96298 -2.15453e-19)