# Forces     
# CofR       : (0.000000e+00 0.000000e+00 0.000000e+00)
# Time       forces(pressure viscous porous) moment(pressure viscous porous)
5.000000e+00	((-4.525178e+02 -1.243282e+03 9.656301e-18) (4.013866e-01 -1.363687e-01 -3.207588e-19) (0.000000e+00 0.000000e+00 0.000000e+00)) ((6.216412e+01 -2.262589e+01 -3.382226e+02) (6.818437e-03 2.006933e-02 2.213213e-03) (0.000000e+00 0.000000e+00 0.000000e+00))
1.000000e+01	((-1.618357e+02 -4.446400e+02 -5.317684e-18) (3.443421e-01 -2.226467e-01 -1.777512e-20) (0.000000e+00 0.000000e+00 0.000000e+00)) ((2.223200e+01 -8.091787e+00 -1.250002e+02) (1.113234e-02 1.721711e-02 -2.372981e-02) (0.000000e+00 0.000000e+00 0.000000e+00))
1.500000e+01	((1.953221e+01 5.366426e+01 -3.884204e-18) (3.344315e-01 -1.738206e-01 1.376934e-19) (0.000000e+00 0.000000e+00 0.000000e+00)) ((-2.683213e+00 9.766104e-01 9.996688e+00) (8.691031e-03 1.672157e-02 -1.291450e-02) (0.000000e+00 0.000000e+00 0.000000e+00))
2.000000e+01	((1.669081e+01 4.585758e+01 -4.923555e-18) (3.171941e-01 -1.245042e-01 2.212234e-19) (0.000000e+00 0.000000e+00 0.000000e+00)) ((-2.292879e+00 8.345405e-01 2.914940e+00) (6.225209e-03 1.585971e-02 -2.530399e-03) (0.000000e+00 0.000000e+00 0.000000e+00))
2.500000e+01	((5.080528e+00 1.395859e+01 -4.143299e-18) (2.971925e-01 -1.067441e-01 1.787637e-19) (0.000000e+00 0.000000e+00 0.000000e+00)) ((-6.979296e-01 2.540264e-01 -4.358559e+00) (5.337203e-03 1.485962e-02 5.179431e-05) (0.000000e+00 0.000000e+00 0.000000e+00))
3.000000e+01	((1.044996e+01 2.871099e+01 -3.940431e-18) (2.727322e-01 -9.745121e-02 1.832011e-19) (0.000000e+00 0.000000e+00 0.000000e+00)) ((-1.435550e+00 5.224981e-01 1.845995e+00) (4.872560e-03 1.363661e-02 2.605273e-04) (0.000000e+00 0.000000e+00 0.000000e+00))
3.500000e+01	((1.274328e+01 3.501183e+01 -4.960072e-18) (2.485227e-01 -8.939142e-02 2.449795e-19) (0.000000e+00 0.000000e+00 0.000000e+00)) ((-1.750591e+00 6.371640e-01 3.243258e+00) (4.469571e-03 1.242613e-02 1.207984e-04) (0.000000e+00 0.000000e+00 0.000000e+00))
4.000000e+01	((1.174537e+01 3.227009e+01 -5.177964e-18) (2.269666e-01 -8.215644e-02 2.649677e-19) (0.000000e+00 0.000000e+00 0.000000e+00)) ((-1.613504e+00 5.872683e-01 1.619778e+00) (4.107822e-03 1.134833e-02 4.124069e-07) (0.000000e+00 0.000000e+00 0.000000e+00))
4.500000e+01	((1.223722e+01 3.362144e+01 -5.423027e-18) (2.091716e-01 -7.597004e-02 2.795018e-19) (0.000000e+00 0.000000e+00 0.000000e+00)) ((-1.681072e+00 6.118609e-01 2.097830e+00) (3.798502e-03 1.045858e-02 -4.602837e-05) (0.000000e+00 0.000000e+00 0.000000e+00))
5.000000e+01	((1.268755e+01 3.485874e+01 -5.900186e-18) (1.934364e-01 -7.027483e-02 3.070360e-19) (0.000000e+00 0.000000e+00 0.000000e+00)) ((-1.742937e+00 6.343777e-01 2.106495e+00) (3.513742e-03 9.671818e-03 -4.215851e-05) (0.000000e+00 0.000000e+00 0.000000e+00))
5.500000e+01	((1.321269e+01 3.630154e+01 -5.958137e-18) (1.793620e-01 -6.517504e-02 3.138821e-19) (0.000000e+00 0.000000e+00 0.000000e+00)) ((-1.815077e+00 6.606345e-01 2.204282e+00) (3.258752e-03 8.968098e-03 -3.913984e-05) (0.000000e+00 0.000000e+00 0.000000e+00))
6.000000e+01	((1.368394e+01 3.759628e+01 -6.128866e-18) (1.661343e-01 -6.037323e-02 3.347153e-19) (0.000000e+00 0.000000e+00 0.000000e+00)) ((-1.879814e+00 6.841969e-01 2.504364e+00) (3.018662e-03 8.306715e-03 -3.283385e-05) (0.000000e+00 0.000000e+00 0.000000e+00))
6.500000e+01	((1.410063e+01 3.874114e+01 -6.402073e-18) (1.535455e-01 -5.579934e-02 3.527656e-19) (0.000000e+00 0.000000e+00 0.000000e+00)) ((-1.937057e+00 7.050316e-01 2.510130e+00) (2.789967e-03 7.677275e-03 -3.288788e-05) (0.000000e+00 0.000000e+00 0.000000e+00))
7.000000e+01	((1.451603e+01 3.988245e+01 -6.595639e-18) (1.416637e-01 -5.146407e-02 3.652948e-19) (0.000000e+00 0.000000e+00 0.000000e+00)) ((-1.994122e+00 7.258015e-01 2.703491e+00) (2.573204e-03 7.083184e-03 -3.334885e-05) (0.000000e+00 0.000000e+00 0.000000e+00))
7.500000e+01	((1.491907e+01 4.098979e+01 -6.737163e-18) (1.301830e-01 -4.728988e-02 3.861422e-19) (0.000000e+00 0.000000e+00 0.000000e+00)) ((-2.049489e+00 7.459533e-01 2.761271e+00) (2.364494e-03 6.509148e-03 -3.275664e-05) (0.000000e+00 0.000000e+00 0.000000e+00))
8.000000e+01	((1.531577e+01 4.207971e+01 -6.952404e-18) (1.193520e-01 -4.334081e-02 4.044938e-19) (0.000000e+00 0.000000e+00 0.000000e+00)) ((-2.103986e+00 7.657883e-01 2.848083e+00) (2.167040e-03 5.967602e-03 -3.387810e-05) (0.000000e+00 0.000000e+00 0.000000e+00))
8.500000e+01	((1.552364e+01 4.265085e+01 -7.126014e-18) (1.088603e-01 -3.952793e-02 4.190249e-19) (0.000000e+00 0.000000e+00 0.000000e+00)) ((-2.132542e+00 7.761821e-01 2.850679e+00) (1.976397e-03 5.443017e-03 -3.345594e-05) (0.000000e+00 0.000000e+00 0.000000e+00))
9.000000e+01	((1.581162e+01 4.344206e+01 -7.346774e-18) (9.883616e-02 -3.586792e-02 4.609967e-19) (0.000000e+00 0.000000e+00 0.000000e+00)) ((-2.172103e+00 7.905809e-01 2.852631e+00) (1.793396e-03 4.941808e-03 -3.659881e-05) (0.000000e+00 0.000000e+00 0.000000e+00))
9.500000e+01	((1.602839e+01 4.403764e+01 -7.565023e-18) (8.937289e-02 -3.240721e-02 5.015184e-19) (0.000000e+00 0.000000e+00 0.000000e+00)) ((-2.201882e+00 8.014196e-01 2.785527e+00) (1.620361e-03 4.468645e-03 -4.034252e-05) (0.000000e+00 0.000000e+00 0.000000e+00))
1.000000e+02	((1.613988e+01 4.434395e+01 -7.733151e-18) (8.031954e-02 -2.910001e-02 5.322687e-19) (0.000000e+00 0.000000e+00 0.000000e+00)) ((-2.217198e+00 8.069940e-01 2.762163e+00) (1.455000e-03 4.015977e-03 -4.357849e-05) (0.000000e+00 0.000000e+00 0.000000e+00))
1.050000e+02	((1.625219e+01 4.465251e+01 -7.916542e-18) (7.174947e-02 -2.595959e-02 5.964352e-19) (0.000000e+00 0.000000e+00 0.000000e+00)) ((-2.232626e+00 8.126093e-01 2.698519e+00) (1.297980e-03 3.587473e-03 -4.854607e-05) (0.000000e+00 0.000000e+00 0.000000e+00))
1.100000e+02	((1.633250e+01 4.487317e+01 -8.080611e-18) (6.372814e-02 -2.303088e-02 6.639372e-19) (0.000000e+00 0.000000e+00 0.000000e+00)) ((-2.243659e+00 8.166250e-01 2.655414e+00) (1.151544e-03 3.186407e-03 -5.056536e-05) (0.000000e+00 0.000000e+00 0.000000e+00))
1.150000e+02	((1.637539e+01 4.499102e+01 -8.223492e-18) (5.619620e-02 -2.026710e-02 7.159972e-19) (0.000000e+00 0.000000e+00 0.000000e+00)) ((-2.249551e+00 8.187696e-01 2.596520e+00) (1.013355e-03 2.809810e-03 -5.566654e-05) (0.000000e+00 0.000000e+00 0.000000e+00))
1.200000e+02	((1.639064e+01 4.503292e+01 -8.237923e-18) (4.916572e-02 -1.770141e-02 7.129353e-19) (0.000000e+00 0.000000e+00 0.000000e+00)) ((-2.251646e+00 8.195321e-01 2.564639e+00) (8.850705e-04 2.458286e-03 -5.693580e-05) (0.000000e+00 0.000000e+00 0.000000e+00))
1.250000e+02	((1.641214e+01 4.509198e+01 -8.241522e-18) (4.260850e-02 -1.530044e-02 6.514587e-19) (0.000000e+00 0.000000e+00 0.000000e+00)) ((-2.254599e+00 8.206069e-01 2.516400e+00) (7.650222e-04 2.130425e-03 -6.010378e-05) (0.000000e+00 0.000000e+00 0.000000e+00))
1.300000e+02	((1.642364e+01 4.512359e+01 -8.082998e-18) (3.648492e-02 -1.307056e-02 6.032612e-19) (0.000000e+00 0.000000e+00 0.000000e+00)) ((-2.256180e+00 8.211822e-01 2.480576e+00) (6.535280e-04 1.824246e-03 -6.025712e-05) (0.000000e+00 0.000000e+00 0.000000e+00))
1.350000e+02	((1.640876e+01 4.508271e+01 -7.717826e-18) (3.074435e-02 -1.099583e-02 5.318080e-19) (0.000000e+00 0.000000e+00 0.000000e+00)) ((-2.254135e+00 8.204382e-01 2.467559e+00) (5.497917e-04 1.537218e-03 -5.653148e-05) (0.000000e+00 0.000000e+00 0.000000e+00))
1.400000e+02	((1.641114e+01 4.508922e+01 -7.485776e-18) (2.527061e-02 -9.019812e-03 4.599280e-19) (0.000000e+00 0.000000e+00 0.000000e+00)) ((-2.254461e+00 8.205568e-01 2.462832e+00) (4.509906e-04 1.263530e-03 -5.236804e-05) (0.000000e+00 0.000000e+00 0.000000e+00))
1.450000e+02	((1.643409e+01 4.515230e+01 -7.006353e-18) (2.042336e-02 -7.323871e-03 3.847870e-19) (0.000000e+00 0.000000e+00 0.000000e+00)) ((-2.257615e+00 8.217047e-01 2.472757e+00) (3.661936e-04 1.021168e-03 -3.687367e-05) (0.000000e+00 0.000000e+00 0.000000e+00))
1.500000e+02	((1.645886e+01 4.522033e+01 -6.485355e-18) (1.595756e-02 -5.753462e-03 3.348998e-19) (0.000000e+00 0.000000e+00 0.000000e+00)) ((-2.261017e+00 8.229428e-01 2.506979e+00) (2.876731e-04 7.978778e-04 -2.419465e-05) (0.000000e+00 0.000000e+00 0.000000e+00))
1.550000e+02	((1.649925e+01 4.533133e+01 -5.970445e-18) (1.173435e-02 -4.188033e-03 3.035622e-19) (0.000000e+00 0.000000e+00 0.000000e+00)) ((-2.266566e+00 8.249627e-01 2.575345e+00) (2.094016e-04 5.867175e-04 -3.050347e-05) (0.000000e+00 0.000000e+00 0.000000e+00))
1.600000e+02	((1.656176e+01 4.550307e+01 -5.446870e-18) (7.722331e-03 -2.722094e-03 2.831826e-19) (0.000000e+00 0.000000e+00 0.000000e+00)) ((-2.275153e+00 8.280881e-01 2.674792e+00) (1.361047e-04 3.861166e-04 -3.232231e-05) (0.000000e+00 0.000000e+00 0.000000e+00))
1.650000e+02	((1.665812e+01 4.576781e+01 -4.920509e-18) (3.968508e-03 -1.349527e-03 2.665400e-19) (0.000000e+00 0.000000e+00 0.000000e+00)) ((-2.288390e+00 8.329061e-01 2.817582e+00) (6.747634e-05 1.984254e-04 -3.462018e-05) (0.000000e+00 0.000000e+00 0.000000e+00))
1.700000e+02	((1.678738e+01 4.612295e+01 -4.376239e-18) (4.022949e-04 -4.485061e-05 2.463655e-19) (0.000000e+00 0.000000e+00 0.000000e+00)) ((-2.306147e+00 8.393690e-01 2.995704e+00) (2.242531e-06 2.011475e-05 -3.747851e-05) (0.000000e+00 0.000000e+00 0.000000e+00))
1.750000e+02	((1.696350e+01 4.660682e+01 -4.078089e-18) (-2.925015e-03 1.179829e-03 2.367255e-19) (0.000000e+00 0.000000e+00 0.000000e+00)) ((-2.330341e+00 8.481748e-01 3.247230e+00) (-5.899143e-05 -1.462508e-04 -4.239126e-05) (0.000000e+00 0.000000e+00 0.000000e+00))
1.800000e+02	((1.714168e+01 4.709636e+01 -3.549375e-18) (-6.139318e-03 2.360637e-03 2.146141e-19) (0.000000e+00 0.000000e+00 0.000000e+00)) ((-2.354818e+00 8.570838e-01 3.568405e+00) (-1.180318e-04 -3.069659e-04 -4.652958e-05) (0.000000e+00 0.000000e+00 0.000000e+00))
1.850000e+02	((1.734774e+01 4.766252e+01 -3.071059e-18) (-9.167609e-03 3.467777e-03 1.935805e-19) (0.000000e+00 0.000000e+00 0.000000e+00)) ((-2.383126e+00 8.673871e-01 3.922827e+00) (-1.733888e-04 -4.583805e-04 -5.062574e-05) (0.000000e+00 0.000000e+00 0.000000e+00))
1.900000e+02	((1.763320e+01 4.844681e+01 -2.789986e-18) (-1.197274e-02 4.510054e-03 1.800966e-19) (0.000000e+00 0.000000e+00 0.000000e+00)) ((-2.422341e+00 8.816599e-01 4.334652e+00) (-2.255027e-04 -5.986371e-04 -5.923159e-05) (0.000000e+00 0.000000e+00 0.000000e+00))
1.950000e+02	((1.792706e+01 4.925420e+01 -2.297182e-18) (-1.464545e-02 5.447072e-03 1.555324e-19) (0.000000e+00 0.000000e+00 0.000000e+00)) ((-2.462710e+00 8.963532e-01 4.889615e+00) (-2.723536e-04 -7.322725e-04 -5.418957e-05) (0.000000e+00 0.000000e+00 0.000000e+00))
2.000000e+02	((1.827880e+01 5.022058e+01 -2.213232e-18) (-1.690204e-02 6.249805e-03 1.507888e-19) (0.000000e+00 0.000000e+00 0.000000e+00)) ((-2.511029e+00 9.139398e-01 5.443533e+00) (-3.124902e-04 -8.451018e-04 -5.915961e-05) (0.000000e+00 0.000000e+00 0.000000e+00))
2.050000e+02	((1.853560e+01 5.092614e+01 -1.813796e-18) (-1.887537e-02 6.961418e-03 1.299555e-19) (0.000000e+00 0.000000e+00 0.000000e+00)) ((-2.546307e+00 9.267799e-01 6.081864e+00) (-3.480709e-04 -9.437683e-04 -5.863338e-05) (0.000000e+00 0.000000e+00 0.000000e+00))
2.100000e+02	((1.883722e+01 5.175483e+01 -1.571724e-18) (-2.066223e-02 7.606091e-03 1.171919e-19) (0.000000e+00 0.000000e+00 0.000000e+00)) ((-2.587742e+00 9.418610e-01 6.722488e+00) (-3.803045e-04 -1.033111e-03 -6.492504e-05) (0.000000e+00 0.000000e+00 0.000000e+00))
2.150000e+02	((1.925898e+01 5.291362e+01 -1.330693e-18) (-2.183192e-02 8.036253e-03 1.042936e-19) (0.000000e+00 0.000000e+00 0.000000e+00)) ((-2.645681e+00 9.629491e-01 7.546148e+00) (-4.018127e-04 -1.091596e-03 -6.984840e-05) (0.000000e+00 0.000000e+00 0.000000e+00))
2.200000e+02	((1.937132e+01 5.322227e+01 -1.138898e-18) (-2.266432e-02 8.333734e-03 9.359207e-20) (0.000000e+00 0.000000e+00 0.000000e+00)) ((-2.661113e+00 9.685661e-01 8.235024e+00) (-4.166867e-04 -1.133216e-03 -6.937426e-05) (0.000000e+00 0.000000e+00 0.000000e+00))
2.250000e+02	((1.955520e+01 5.372747e+01 -9.194351e-19) (-2.290788e-02 8.424264e-03 8.211684e-20) (0.000000e+00 0.000000e+00 0.000000e+00)) ((-2.686373e+00 9.777600e-01 8.885754e+00) (-4.212132e-04 -1.145394e-03 -7.068499e-05) (0.000000e+00 0.000000e+00 0.000000e+00))
2.300000e+02	((1.957028e+01 5.376891e+01 -8.963733e-19) (-2.228074e-02 8.193542e-03 8.028246e-20) (0.000000e+00 0.000000e+00 0.000000e+00)) ((-2.688445e+00 9.785142e-01 9.391679e+00) (-4.096771e-04 -1.114037e-03 -7.483272e-05) (0.000000e+00 0.000000e+00 0.000000e+00))
2.350000e+02	((1.940876e+01 5.332513e+01 -7.522085e-19) (-2.085125e-02 7.671818e-03 7.218220e-20) (0.000000e+00 0.000000e+00 0.000000e+00)) ((-2.666257e+00 9.704381e-01 9.823278e+00) (-3.835909e-04 -1.042562e-03 -7.218854e-05) (0.000000e+00 0.000000e+00 0.000000e+00))
2.400000e+02	((1.899963e+01 5.220105e+01 -8.131129e-19) (-1.835004e-02 6.761305e-03 7.355270e-20) (0.000000e+00 0.000000e+00 0.000000e+00)) ((-2.610053e+00 9.499816e-01 1.008318e+01) (-3.380653e-04 -9.175021e-04 -7.016359e-05) (0.000000e+00 0.000000e+00 0.000000e+00))
2.450000e+02	((1.840626e+01 5.057078e+01 -5.129292e-19) (-1.460707e-02 5.401344e-03 5.765997e-20) (0.000000e+00 0.000000e+00 0.000000e+00)) ((-2.528539e+00 9.203130e-01 1.006817e+01) (-2.700672e-04 -7.303537e-04 -6.656833e-05) (0.000000e+00 0.000000e+00 0.000000e+00))
2.500000e+02	((1.755835e+01 4.824118e+01 -4.040645e-19) (-9.347145e-03 3.497733e-03 5.043460e-20) (0.000000e+00 0.000000e+00 0.000000e+00)) ((-2.412059e+00 8.779177e-01 9.850532e+00) (-1.748866e-04 -4.673572e-04 -6.525388e-05) (0.000000e+00 0.000000e+00 0.000000e+00))
2.550000e+02	((1.620285e+01 4.451696e+01 -5.319764e-20) (-2.817476e-03 1.111580e-03 3.091134e-20) (0.000000e+00 0.000000e+00 0.000000e+00)) ((-2.225848e+00 8.101425e-01 9.299614e+00) (-5.557901e-05 -1.408738e-04 -6.064362e-05) (0.000000e+00 0.000000e+00 0.000000e+00))
2.600000e+02	((1.474812e+01 4.052013e+01 1.194605e-19) (4.692518e-03 -1.625177e-03 2.052835e-20) (0.000000e+00 0.000000e+00 0.000000e+00)) ((-2.026007e+00 7.374062e-01 8.528225e+00) (8.125884e-05 2.346259e-04 -5.989259e-05) (0.000000e+00 0.000000e+00 0.000000e+00))
2.650000e+02	((1.322276e+01 3.632924e+01 2.192608e-19) (1.357844e-02 -4.840776e-03 1.597486e-20) (0.000000e+00 0.000000e+00 0.000000e+00)) ((-1.816462e+00 6.611382e-01 7.648012e+00) (2.420388e-04 6.789218e-04 -5.817301e-05) (0.000000e+00 0.000000e+00 0.000000e+00))
2.700000e+02	((1.127643e+01 3.098174e+01 3.582920e-19) (2.312484e-02 -8.312787e-03 1.176525e-20) (0.000000e+00 0.000000e+00 0.000000e+00)) ((-1.549087e+00 5.638216e-01 6.481069e+00) (4.156394e-04 1.156242e-03 -5.642740e-05) (0.000000e+00 0.000000e+00 0.000000e+00))
2.750000e+02	((9.474724e+00 2.603159e+01 8.027760e-19) (3.280765e-02 -1.184377e-02 -8.739216e-21) (0.000000e+00 0.000000e+00 0.000000e+00)) ((-1.301579e+00 4.737362e-01 5.391310e+00) (5.921887e-04 1.640382e-03 -5.719589e-05) (0.000000e+00 0.000000e+00 0.000000e+00))
2.800000e+02	((7.652540e+00 2.102518e+01 6.676494e-19) (4.255604e-02 -1.537167e-02 -8.135788e-21) (0.000000e+00 0.000000e+00 0.000000e+00)) ((-1.051259e+00 3.826270e-01 4.233707e+00) (7.685836e-04 2.127802e-03 -5.962521e-05) (0.000000e+00 0.000000e+00 0.000000e+00))
2.850000e+02	((5.865580e+00 1.611555e+01 1.211819e-18) (5.142732e-02 -1.861779e-02 -4.325076e-20) (0.000000e+00 0.000000e+00 0.000000e+00)) ((-8.057773e-01 2.932790e-01 3.198859e+00) (9.308893e-04 2.571366e-03 -5.736037e-05) (0.000000e+00 0.000000e+00 0.000000e+00))
2.900000e+02	((4.903797e+00 1.347307e+01 1.716624e-18) (5.905980e-02 -2.137868e-02 -7.844925e-20) (0.000000e+00 0.000000e+00 0.000000e+00)) ((-6.736535e-01 2.451899e-01 2.589189e+00) (1.068934e-03 2.952990e-03 -5.919380e-05) (0.000000e+00 0.000000e+00 0.000000e+00))
2.950000e+02	((3.899381e+00 1.071346e+01 1.728134e-18) (6.488476e-02 -2.349141e-02 -8.608463e-20) (0.000000e+00 0.000000e+00 0.000000e+00)) ((-5.356730e-01 1.949691e-01 2.069615e+00) (1.174571e-03 3.244238e-03 -5.818459e-05) (0.000000e+00 0.000000e+00 0.000000e+00))
3.000000e+02	((3.615361e+00 9.933120e+00 2.139031e-18) (6.846106e-02 -2.481852e-02 -1.071555e-19) (0.000000e+00 0.000000e+00 0.000000e+00)) ((-4.966560e-01 1.807681e-01 2.065739e+00) (1.240926e-03 3.423053e-03 -5.363180e-05) (0.000000e+00 0.000000e+00 0.000000e+00))
3.050000e+02	((3.844718e+00 1.056327e+01 2.202117e-18) (6.974123e-02 -2.525276e-02 -1.131999e-19) (0.000000e+00 0.000000e+00 0.000000e+00)) ((-5.281636e-01 1.922359e-01 2.441689e+00) (1.262638e-03 3.487061e-03 -5.164506e-05) (0.000000e+00 0.000000e+00 0.000000e+00))
3.100000e+02	((4.714107e+00 1.295190e+01 2.251284e-18) (6.917199e-02 -2.504637e-02 -1.224251e-19) (0.000000e+00 0.000000e+00 0.000000e+00)) ((-6.475949e-01 2.357053e-01 3.313405e+00) (1.252318e-03 3.458599e-03 -4.629885e-05) (0.000000e+00 0.000000e+00 0.000000e+00))
3.150000e+02	((5.667351e+00 1.557091e+01 2.245469e-18) (6.802168e-02 -2.461746e-02 -1.224936e-19) (0.000000e+00 0.000000e+00 0.000000e+00)) ((-7.785456e-01 2.833675e-01 4.228379e+00) (1.230873e-03 3.401084e-03 -4.353581e-05) (0.000000e+00 0.000000e+00 0.000000e+00))
3.200000e+02	((6.408209e+00 1.760640e+01 2.176257e-18) (6.779734e-02 -2.454674e-02 -1.179162e-19) (0.000000e+00 0.000000e+00 0.000000e+00)) ((-8.803201e-01 3.204105e-01 4.829485e+00) (1.227337e-03 3.389867e-03 -4.869967e-05) (0.000000e+00 0.000000e+00 0.000000e+00))
3.250000e+02	((6.504040e+00 1.786970e+01 1.798580e-18) (6.937671e-02 -2.513087e-02 -9.851384e-20) (0.000000e+00 0.000000e+00 0.000000e+00)) ((-8.934848e-01 3.252020e-01 4.769469e+00) (1.256543e-03 3.468836e-03 -5.256802e-05) (0.000000e+00 0.000000e+00 0.000000e+00))
3.300000e+02	((6.299755e+00 1.730843e+01 1.517423e-18) (7.224671e-02 -2.617263e-02 -8.241019e-20) (0.000000e+00 0.000000e+00 0.000000e+00)) ((-8.654213e-01 3.149877e-01 4.458896e+00) (1.308632e-03 3.612335e-03 -4.755836e-05) (0.000000e+00 0.000000e+00 0.000000e+00))
3.350000e+02	((6.208288e+00 1.705712e+01 1.463778e-18) (7.553505e-02 -2.736774e-02 -8.028733e-20) (0.000000e+00 0.000000e+00 0.000000e+00)) ((-8.528562e-01 3.104144e-01 4.296329e+00) (1.368387e-03 3.776752e-03 -4.317283e-05) (0.000000e+00 0.000000e+00 0.000000e+00))
3.400000e+02	((6.046928e+00 1.661379e+01 1.240925e-18) (7.862877e-02 -2.849035e-02 -6.185465e-20) (0.000000e+00 0.000000e+00 0.000000e+00)) ((-8.306895e-01 3.023464e-01 4.060328e+00) (1.424518e-03 3.931439e-03 -4.396164e-05) (0.000000e+00 0.000000e+00 0.000000e+00))
3.450000e+02	((5.813250e+00 1.597176e+01 1.201596e-18) (8.162424e-02 -2.958009e-02 -5.496905e-20) (0.000000e+00 0.000000e+00 0.000000e+00)) ((-7.985882e-01 2.906625e-01 3.875940e+00) (1.479005e-03 4.081212e-03 -4.053180e-05) (0.000000e+00 0.000000e+00 0.000000e+00))
3.500000e+02	((5.586992e+00 1.535013e+01 1.165016e-18) (8.446301e-02 -3.061498e-02 -5.431586e-20) (0.000000e+00 0.000000e+00 0.000000e+00)) ((-7.675063e-01 2.793496e-01 3.679180e+00) (1.530749e-03 4.223150e-03 -4.143263e-05) (0.000000e+00 0.000000e+00 0.000000e+00))
3.550000e+02	((5.262798e+00 1.445941e+01 9.937933e-19) (8.716965e-02 -3.159468e-02 -4.848650e-20) (0.000000e+00 0.000000e+00 0.000000e+00)) ((-7.229705e-01 2.631399e-01 3.432644e+00) (1.579734e-03 4.358483e-03 -3.904329e-05) (0.000000e+00 0.000000e+00 0.000000e+00))
3.600000e+02	((4.983680e+00 1.369254e+01 8.698625e-19) (8.975261e-02 -3.253646e-02 -4.588533e-20) (0.000000e+00 0.000000e+00 0.000000e+00)) ((-6.846269e-01 2.491840e-01 3.206912e+00) (1.626823e-03 4.487630e-03 -3.918197e-05) (0.000000e+00 0.000000e+00 0.000000e+00))
3.650000e+02	((4.837186e+00 1.329005e+01 7.684235e-19) (9.218832e-02 -3.341849e-02 -4.364605e-20) (0.000000e+00 0.000000e+00 0.000000e+00)) ((-6.645024e-01 2.418593e-01 3.063319e+00) (1.670925e-03 4.609416e-03 -3.800159e-05) (0.000000e+00 0.000000e+00 0.000000e+00))
3.700000e+02	((4.693971e+00 1.289657e+01 6.721029e-19) (9.436275e-02 -3.421048e-02 -3.924360e-20) (0.000000e+00 0.000000e+00 0.000000e+00)) ((-6.448285e-01 2.346986e-01 2.898535e+00) (1.710524e-03 4.718137e-03 -3.740261e-05) (0.000000e+00 0.000000e+00 0.000000e+00))
3.750000e+02	((4.670854e+00 1.283305e+01 5.553398e-19) (9.636812e-02 -3.493737e-02 -3.444221e-20) (0.000000e+00 0.000000e+00 0.000000e+00)) ((-6.416527e-01 2.335427e-01 2.784913e+00) (1.746869e-03 4.818406e-03 -3.811668e-05) (0.000000e+00 0.000000e+00 0.000000e+00))
3.800000e+02	((4.676953e+00 1.284981e+01 4.281724e-19) (9.807663e-02 -3.555961e-02 -2.978252e-20) (0.000000e+00 0.000000e+00 0.000000e+00)) ((-6.424905e-01 2.338476e-01 2.696414e+00) (1.777980e-03 4.903832e-03 -3.747921e-05) (0.000000e+00 0.000000e+00 0.000000e+00))
3.850000e+02	((4.754887e+00 1.306393e+01 3.074685e-19) (9.950463e-02 -3.607791e-02 -2.541269e-20) (0.000000e+00 0.000000e+00 0.000000e+00)) ((-6.531966e-01 2.377443e-01 2.622047e+00) (1.803896e-03 4.975232e-03 -3.784082e-05) (0.000000e+00 0.000000e+00 0.000000e+00))
3.900000e+02	((4.893876e+00 1.344580e+01 1.944650e-19) (1.006862e-01 -3.650743e-02 -2.057626e-20) (0.000000e+00 0.000000e+00 0.000000e+00)) ((-6.722901e-01 2.446938e-01 2.562891e+00) (1.825372e-03 5.034312e-03 -3.818592e-05) (0.000000e+00 0.000000e+00 0.000000e+00))
3.950000e+02	((5.071017e+00 1.393249e+01 8.346621e-20) (1.016055e-01 -3.683893e-02 -1.411028e-20) (0.000000e+00 0.000000e+00 0.000000e+00)) ((-6.966246e-01 2.535508e-01 2.524453e+00) (1.841947e-03 5.080274e-03 -3.899248e-05) (0.000000e+00 0.000000e+00 0.000000e+00))
4.000000e+02	((5.265547e+00 1.446696e+01 -2.641676e-20) (1.022538e-01 -3.707340e-02 -7.911162e-21) (0.000000e+00 0.000000e+00 0.000000e+00)) ((-7.233480e-01 2.632774e-01 2.497747e+00) (1.853670e-03 5.112692e-03 -3.979039e-05) (0.000000e+00 0.000000e+00 0.000000e+00))
4.050000e+02	((5.470363e+00 1.502969e+01 -2.509110e-19) (1.026581e-01 -3.722167e-02 6.316123e-21) (0.000000e+00 0.000000e+00 0.000000e+00)) ((-7.514843e-01 2.735181e-01 2.483450e+00) (1.861084e-03 5.132906e-03 -4.011163e-05) (0.000000e+00 0.000000e+00 0.000000e+00))
4.100000e+02	((5.743146e+00 1.577915e+01 -3.476147e-19) (1.028237e-01 -3.727750e-02 1.247868e-20) (0.000000e+00 0.000000e+00 0.000000e+00)) ((-7.889576e-01 2.871573e-01 2.479994e+00) (1.863875e-03 5.141183e-03 -4.156815e-05) (0.000000e+00 0.000000e+00 0.000000e+00))
4.150000e+02	((5.995444e+00 1.647233e+01 -5.313063e-19) (1.027813e-01 -3.725568e-02 2.594137e-20) (0.000000e+00 0.000000e+00 0.000000e+00)) ((-8.236167e-01 2.997722e-01 2.481862e+00) (1.862784e-03 5.139064e-03 -4.347254e-05) (0.000000e+00 0.000000e+00 0.000000e+00))
4.200000e+02	((6.236506e+00 1.713465e+01 -7.037958e-19) (1.025023e-01 -3.715243e-02 3.984455e-20) (0.000000e+00 0.000000e+00 0.000000e+00)) ((-8.567324e-01 3.118253e-01 2.488485e+00) (1.857622e-03 5.125115e-03 -4.477158e-05) (0.000000e+00 0.000000e+00 0.000000e+00))
4.250000e+02	((6.531241e+00 1.794443e+01 -7.749683e-19) (1.020134e-01 -3.697005e-02 4.602456e-20) (0.000000e+00 0.000000e+00 0.000000e+00)) ((-8.972213e-01 3.265621e-01 2.505109e+00) (1.848502e-03 5.100671e-03 -4.648214e-05) (0.000000e+00 0.000000e+00 0.000000e+00))
4.300000e+02	((6.848251e+00 1.881540e+01 -9.381990e-19) (1.013523e-01 -3.672357e-02 5.898015e-20) (0.000000e+00 0.000000e+00 0.000000e+00)) ((-9.407702e-01 3.424126e-01 2.524834e+00) (1.836179e-03 5.067615e-03 -4.825540e-05) (0.000000e+00 0.000000e+00 0.000000e+00))
4.350000e+02	((7.136017e+00 1.960603e+01 -1.097173e-18) (1.005726e-01 -3.643277e-02 7.097203e-20) (0.000000e+00 0.000000e+00 0.000000e+00)) ((-9.803017e-01 3.568008e-01 2.543293e+00) (1.821639e-03 5.028632e-03 -4.993826e-05) (0.000000e+00 0.000000e+00 0.000000e+00))
4.400000e+02	((7.351405e+00 2.019781e+01 -1.243697e-18) (9.956354e-02 -3.606626e-02 8.186297e-20) (0.000000e+00 0.000000e+00 0.000000e+00)) ((-1.009890e+00 3.675703e-01 2.556489e+00) (1.803313e-03 4.978177e-03 -5.081432e-05) (0.000000e+00 0.000000e+00 0.000000e+00))
4.450000e+02	((7.652596e+00 2.102532e+01 -1.282935e-18) (9.836909e-02 -3.562807e-02 8.587849e-20) (0.000000e+00 0.000000e+00 0.000000e+00)) ((-1.051266e+00 3.826298e-01 2.586346e+00) (1.781403e-03 4.918455e-03 -5.240981e-05) (0.000000e+00 0.000000e+00 0.000000e+00))
4.500000e+02	((7.951180e+00 2.184568e+01 -1.405203e-18) (9.705417e-02 -3.514540e-02 9.803988e-20) (0.000000e+00 0.000000e+00 0.000000e+00)) ((-1.092284e+00 3.975590e-01 2.615906e+00) (1.757270e-03 4.852709e-03 -5.384738e-05) (0.000000e+00 0.000000e+00 0.000000e+00))
4.550000e+02	((8.251218e+00 2.267003e+01 -1.447672e-18) (9.558727e-02 -3.460720e-02 1.027358e-19) (0.000000e+00 0.000000e+00 0.000000e+00)) ((-1.133501e+00 4.125609e-01 2.650494e+00) (1.730360e-03 4.779364e-03 -5.530513e-05) (0.000000e+00 0.000000e+00 0.000000e+00))
4.600000e+02	((8.511915e+00 2.338628e+01 -1.575208e-18) (9.396056e-02 -3.401807e-02 1.141669e-19) (0.000000e+00 0.000000e+00 0.000000e+00)) ((-1.169314e+00 4.255957e-01 2.683946e+00) (1.700903e-03 4.698028e-03 -5.521336e-05) (0.000000e+00 0.000000e+00 0.000000e+00))
4.650000e+02	((8.813830e+00 2.421579e+01 -1.617644e-18) (9.218749e-02 -3.337501e-02 1.197200e-19) (0.000000e+00 0.000000e+00 0.000000e+00)) ((-1.210790e+00 4.406915e-01 2.729314e+00) (1.668751e-03 4.609375e-03 -5.525489e-05) (0.000000e+00 0.000000e+00 0.000000e+00))
4.700000e+02	((9.117031e+00 2.504883e+01 -1.654743e-18) (9.024268e-02 -3.266982e-02 1.257067e-19) (0.000000e+00 0.000000e+00 0.000000e+00)) ((-1.252441e+00 4.558516e-01 2.784647e+00) (1.633491e-03 4.512134e-03 -5.518471e-05) (0.000000e+00 0.000000e+00 0.000000e+00))
4.750000e+02	((9.419867e+00 2.588086e+01 -1.694415e-18) (8.816174e-02 -3.191320e-02 1.312974e-19) (0.000000e+00 0.000000e+00 0.000000e+00)) ((-1.294043e+00 4.709933e-01 2.847513e+00) (1.595660e-03 4.408087e-03 -5.548857e-05) (0.000000e+00 0.000000e+00 0.000000e+00))
4.800000e+02	((9.667745e+00 2.656190e+01 -1.752654e-18) (8.592208e-02 -3.110211e-02 1.412688e-19) (0.000000e+00 0.000000e+00 0.000000e+00)) ((-1.328095e+00 4.833872e-01 2.908298e+00) (1.555105e-03 4.296104e-03 -5.525066e-05) (0.000000e+00 0.000000e+00 0.000000e+00))
4.850000e+02	((9.988843e+00 2.744411e+01 -1.708106e-18) (8.352425e-02 -3.023284e-02 1.448428e-19) (0.000000e+00 0.000000e+00 0.000000e+00)) ((-1.372206e+00 4.994421e-01 3.002837e+00) (1.511642e-03 4.176213e-03 -5.527497e-05) (0.000000e+00 0.000000e+00 0.000000e+00))
4.900000e+02	((1.035199e+01 2.844184e+01 -1.744996e-18) (8.104109e-02 -2.932826e-02 1.663327e-19) (0.000000e+00 0.000000e+00 0.000000e+00)) ((-1.422092e+00 5.175994e-01 3.121508e+00) (1.466413e-03 4.052055e-03 -5.549547e-05) (0.000000e+00 0.000000e+00 0.000000e+00))
4.950000e+02	((1.060038e+01 2.912431e+01 -1.786395e-18) (7.849468e-02 -2.840475e-02 1.898226e-19) (0.000000e+00 0.000000e+00 0.000000e+00)) ((-1.456215e+00 5.300192e-01 3.217397e+00) (1.420238e-03 3.924734e-03 -5.545257e-05) (0.000000e+00 0.000000e+00 0.000000e+00))
5.000000e+02	((1.092937e+01 3.002820e+01 -1.734249e-18) (7.585444e-02 -2.744967e-02 1.535396e-19) (0.000000e+00 0.000000e+00 0.000000e+00)) ((-1.501410e+00 5.464687e-01 3.364116e+00) (1.372483e-03 3.792722e-03 -5.536510e-05) (0.000000e+00 0.000000e+00 0.000000e+00))
5.050000e+02	((1.128212e+01 3.099735e+01 -1.680669e-18) (7.323067e-02 -2.649609e-02 1.323074e-19) (0.000000e+00 0.000000e+00 0.000000e+00)) ((-1.549868e+00 5.641058e-01 3.532072e+00) (1.324805e-03 3.661534e-03 -5.553441e-05) (0.000000e+00 0.000000e+00 0.000000e+00))
5.100000e+02	((1.161858e+01 3.192177e+01 -1.631174e-18) (7.056687e-02 -2.552845e-02 1.192599e-19) (0.000000e+00 0.000000e+00 0.000000e+00)) ((-1.596088e+00 5.809288e-01 3.717071e+00) (1.276422e-03 3.528344e-03 -5.579363e-05) (0.000000e+00 0.000000e+00 0.000000e+00))
5.150000e+02	((1.195031e+01 3.283320e+01 -1.582824e-18) (6.789484e-02 -2.455842e-02 1.102826e-19) (0.000000e+00 0.000000e+00 0.000000e+00)) ((-1.641660e+00 5.975154e-01 3.921066e+00) (1.227921e-03 3.394742e-03 -5.604805e-05) (0.000000e+00 0.000000e+00 0.000000e+00))
5.200000e+02	((1.228434e+01 3.375094e+01 -1.533621e-18) (6.524005e-02 -2.359462e-02 1.032775e-19) (0.000000e+00 0.000000e+00 0.000000e+00)) ((-1.687547e+00 6.142170e-01 4.147451e+00) (1.179731e-03 3.262003e-03 -5.635584e-05) (0.000000e+00 0.000000e+00 0.000000e+00))
5.250000e+02	((1.262339e+01 3.468249e+01 -1.482860e-18) (6.259790e-02 -2.263561e-02 9.725489e-20) (0.000000e+00 0.000000e+00 0.000000e+00)) ((-1.734124e+00 6.311697e-01 4.402565e+00) (1.131780e-03 3.129895e-03 -5.672075e-05) (0.000000e+00 0.000000e+00 0.000000e+00))
5.300000e+02	((1.296506e+01 3.562120e+01 -1.429859e-18) (5.995432e-02 -2.167691e-02 9.236065e-20) (0.000000e+00 0.000000e+00 0.000000e+00)) ((-1.781060e+00 6.482530e-01 4.686294e+00) (1.083845e-03 2.997716e-03 -5.717464e-05) (0.000000e+00 0.000000e+00 0.000000e+00))
5.350000e+02	((1.330130e+01 3.654501e+01 -1.375661e-18) (5.729287e-02 -2.071230e-02 8.802885e-20) (0.000000e+00 0.000000e+00 0.000000e+00)) ((-1.827250e+00 6.650648e-01 4.993142e+00) (1.035615e-03 2.864644e-03 -5.749045e-05) (0.000000e+00 0.000000e+00 0.000000e+00))
5.400000e+02	((1.362353e+01 3.743034e+01 -1.321344e-18) (5.471389e-02 -1.977738e-02 8.416692e-20) (0.000000e+00 0.000000e+00 0.000000e+00)) ((-1.871517e+00 6.811765e-01 5.317995e+00) (9.888690e-04 2.735695e-03 -5.764391e-05) (0.000000e+00 0.000000e+00 0.000000e+00))
5.450000e+02	((1.392430e+01 3.825670e+01 -1.267827e-18) (5.233787e-02 -1.891606e-02 8.084235e-20) (0.000000e+00 0.000000e+00 0.000000e+00)) ((-1.912835e+00 6.962150e-01 5.653361e+00) (9.458028e-04 2.616894e-03 -5.792348e-05) (0.000000e+00 0.000000e+00 0.000000e+00))
5.500000e+02	((1.419424e+01 3.899835e+01 -1.216897e-18) (5.022777e-02 -1.815113e-02 7.789765e-20) (0.000000e+00 0.000000e+00 0.000000e+00)) ((-1.949918e+00 7.097121e-01 5.990551e+00) (9.075564e-04 2.511389e-03 -5.811306e-05) (0.000000e+00 0.000000e+00 0.000000e+00))
5.550000e+02	((1.442089e+01 3.962107e+01 -1.171202e-18) (4.840585e-02 -1.749078e-02 7.539346e-20) (0.000000e+00 0.000000e+00 0.000000e+00)) ((-1.981053e+00 7.210446e-01 6.317143e+00) (8.745391e-04 2.420292e-03 -5.818203e-05) (0.000000e+00 0.000000e+00 0.000000e+00))