# Forces     
# CofR       : (0.000000e+00 0.000000e+00 0.000000e+00)
# Time       forces(pressure viscous porous) moment(pressure viscous porous)
5.000000e+00	((-8.374923e+02 -2.300991e+03 3.006486e-18) (4.865296e-01 -1.185823e-01 -8.706994e-20) (0.000000e+00 0.000000e+00 0.000000e+00)) ((1.150495e+02 -4.187461e+01 -6.133412e+02) (5.929113e-03 2.432648e-02 1.383298e-02) (0.000000e+00 0.000000e+00 0.000000e+00))
1.000000e+01	((-5.204996e+02 -1.430061e+03 1.136827e-18) (4.253916e-01 -2.023647e-01 -8.915177e-20) (0.000000e+00 0.000000e+00 0.000000e+00)) ((7.150304e+01 -2.602498e+01 -3.916207e+02) (1.011823e-02 2.126958e-02 -1.143351e-02) (0.000000e+00 0.000000e+00 0.000000e+00))
1.500000e+01	((-1.885536e+02 -5.180467e+02 -5.979086e-19) (4.148728e-01 -1.896832e-01 -3.124720e-20) (0.000000e+00 0.000000e+00 0.000000e+00)) ((2.590233e+01 -9.427680e+00 -1.499436e+02) (9.484161e-03 2.074364e-02 -9.518986e-03) (0.000000e+00 0.000000e+00 0.000000e+00))
2.000000e+01	((-3.261797e+01 -8.961713e+01 -1.131014e-18) (4.084549e-01 -1.648962e-01 4.375670e-21) (0.000000e+00 0.000000e+00 0.000000e+00)) ((4.480857e+00 -1.630898e+00 -3.231998e+01) (8.244808e-03 2.042274e-02 -4.116218e-03) (0.000000e+00 0.000000e+00 0.000000e+00))
2.500000e+01	((1.380709e+01 3.793466e+01 -9.943922e-19) (3.980174e-01 -1.488326e-01 1.403103e-20) (0.000000e+00 0.000000e+00 0.000000e+00)) ((-1.896733e+00 6.903547e-01 4.408314e+00) (7.441630e-03 1.990087e-02 -1.125862e-03) (0.000000e+00 0.000000e+00 0.000000e+00))
3.000000e+01	((1.763897e+01 4.846265e+01 -1.013161e-18) (3.849441e-01 -1.399470e-01 1.500298e-20) (0.000000e+00 0.000000e+00 0.000000e+00)) ((-2.423132e+00 8.819485e-01 7.604703e+00) (6.997349e-03 1.924721e-02 -1.151474e-04) (0.000000e+00 0.000000e+00 0.000000e+00))
3.500000e+01	((1.328651e+01 3.650436e+01 -1.042692e-18) (3.707715e-01 -1.341290e-01 1.406224e-20) (0.000000e+00 0.000000e+00 0.000000e+00)) ((-1.825218e+00 6.643253e-01 3.824207e+00) (6.706450e-03 1.853858e-02 4.249937e-05) (0.000000e+00 0.000000e+00 0.000000e+00))
4.000000e+01	((1.060247e+01 2.913002e+01 -1.091623e-18) (3.562049e-01 -1.290509e-01 1.387674e-20) (0.000000e+00 0.000000e+00 0.000000e+00)) ((-1.456501e+00 5.301234e-01 1.300852e+00) (6.452543e-03 1.781024e-02 -4.459441e-07) (0.000000e+00 0.000000e+00 0.000000e+00))
4.500000e+01	((1.021473e+01 2.806473e+01 -1.157195e-18) (3.423081e-01 -1.242229e-01 1.506665e-20) (0.000000e+00 0.000000e+00 0.000000e+00)) ((-1.403236e+00 5.107366e-01 7.717328e-01) (6.211147e-03 1.711540e-02 -4.667137e-05) (0.000000e+00 0.000000e+00 0.000000e+00))
5.000000e+01	((1.068282e+01 2.935079e+01 -1.202001e-18) (3.283891e-01 -1.192712e-01 1.614602e-20) (0.000000e+00 0.000000e+00 0.000000e+00)) ((-1.467540e+00 5.341411e-01 1.026310e+00) (5.963561e-03 1.641945e-02 -6.276815e-05) (0.000000e+00 0.000000e+00 0.000000e+00))
5.500000e+01	((1.106467e+01 3.039991e+01 -1.235319e-18) (3.151616e-01 -1.145050e-01 1.694702e-20) (0.000000e+00 0.000000e+00 0.000000e+00)) ((-1.519996e+00 5.532335e-01 1.220457e+00) (5.725250e-03 1.575808e-02 -6.242985e-05) (0.000000e+00 0.000000e+00 0.000000e+00))
6.000000e+01	((1.128913e+01 3.101662e+01 -1.263807e-18) (3.022194e-01 -1.098295e-01 1.749707e-20) (0.000000e+00 0.000000e+00 0.000000e+00)) ((-1.550831e+00 5.644567e-01 1.223114e+00) (5.491475e-03 1.511097e-02 -5.568590e-05) (0.000000e+00 0.000000e+00 0.000000e+00))
6.500000e+01	((1.157761e+01 3.180922e+01 -1.286633e-18) (2.897294e-01 -1.053054e-01 1.810636e-20) (0.000000e+00 0.000000e+00 0.000000e+00)) ((-1.590461e+00 5.788807e-01 1.268105e+00) (5.265270e-03 1.448647e-02 -4.986928e-05) (0.000000e+00 0.000000e+00 0.000000e+00))
7.000000e+01	((1.189830e+01 3.269028e+01 -1.308186e-18) (2.776733e-01 -1.009350e-01 1.846503e-20) (0.000000e+00 0.000000e+00 0.000000e+00)) ((-1.634514e+00 5.949148e-01 1.356033e+00) (5.046749e-03 1.388366e-02 -4.449611e-05) (0.000000e+00 0.000000e+00 0.000000e+00))
7.500000e+01	((1.217677e+01 3.345539e+01 -1.326546e-18) (2.660306e-01 -9.671813e-02 1.917134e-20) (0.000000e+00 0.000000e+00 0.000000e+00)) ((-1.672769e+00 6.088386e-01 1.417420e+00) (4.835907e-03 1.330153e-02 -3.865491e-05) (0.000000e+00 0.000000e+00 0.000000e+00))
8.000000e+01	((1.247494e+01 3.427461e+01 -1.342982e-18) (2.547680e-01 -9.263362e-02 2.006028e-20) (0.000000e+00 0.000000e+00 0.000000e+00)) ((-1.713731e+00 6.237472e-01 1.480886e+00) (4.631681e-03 1.273840e-02 -3.470513e-05) (0.000000e+00 0.000000e+00 0.000000e+00))
8.500000e+01	((1.277219e+01 3.509130e+01 -1.358308e-18) (2.439353e-01 -8.869919e-02 2.099945e-20) (0.000000e+00 0.000000e+00 0.000000e+00)) ((-1.754565e+00 6.386097e-01 1.544958e+00) (4.434960e-03 1.219676e-02 -3.226434e-05) (0.000000e+00 0.000000e+00 0.000000e+00))
9.000000e+01	((1.306311e+01 3.589057e+01 -1.376443e-18) (2.336552e-01 -8.496433e-02 2.196327e-20) (0.000000e+00 0.000000e+00 0.000000e+00)) ((-1.794529e+00 6.531553e-01 1.606500e+00) (4.248217e-03 1.168276e-02 -3.032035e-05) (0.000000e+00 0.000000e+00 0.000000e+00))
9.500000e+01	((1.336488e+01 3.671969e+01 -1.391699e-18) (2.241981e-01 -8.152160e-02 2.295810e-20) (0.000000e+00 0.000000e+00 0.000000e+00)) ((-1.835985e+00 6.682440e-01 1.666385e+00) (4.076080e-03 1.120990e-02 -3.000931e-05) (0.000000e+00 0.000000e+00 0.000000e+00))
1.000000e+02	((1.365772e+01 3.752427e+01 -1.405753e-18) (2.154182e-01 -7.832687e-02 2.395550e-20) (0.000000e+00 0.000000e+00 0.000000e+00)) ((-1.876214e+00 6.828861e-01 1.720255e+00) (3.916344e-03 1.077091e-02 -2.951729e-05) (0.000000e+00 0.000000e+00 0.000000e+00))
1.050000e+02	((1.394473e+01 3.831283e+01 -1.418222e-18) (2.071155e-01 -7.530386e-02 2.479290e-20) (0.000000e+00 0.000000e+00 0.000000e+00)) ((-1.915641e+00 6.972366e-01 1.774039e+00) (3.765193e-03 1.035578e-02 -2.951837e-05) (0.000000e+00 0.000000e+00 0.000000e+00))
1.100000e+02	((1.422244e+01 3.907583e+01 -1.429090e-18) (1.991875e-01 -7.241395e-02 2.578583e-20) (0.000000e+00 0.000000e+00 0.000000e+00)) ((-1.953792e+00 7.111222e-01 1.824324e+00) (3.620698e-03 9.959374e-03 -3.032045e-05) (0.000000e+00 0.000000e+00 0.000000e+00))
1.150000e+02	((1.449224e+01 3.981710e+01 -1.443946e-18) (1.916547e-01 -6.966651e-02 2.728742e-20) (0.000000e+00 0.000000e+00 0.000000e+00)) ((-1.990855e+00 7.246122e-01 1.871336e+00) (3.483325e-03 9.582735e-03 -3.148893e-05) (0.000000e+00 0.000000e+00 0.000000e+00))
1.200000e+02	((1.474927e+01 4.052327e+01 -1.456696e-18) (1.845287e-01 -6.706499e-02 2.893815e-20) (0.000000e+00 0.000000e+00 0.000000e+00)) ((-2.026163e+00 7.374633e-01 1.913706e+00) (3.353249e-03 9.226435e-03 -3.327385e-05) (0.000000e+00 0.000000e+00 0.000000e+00))
1.250000e+02	((1.499389e+01 4.119535e+01 -1.467790e-18) (1.777200e-01 -6.457765e-02 3.178001e-20) (0.000000e+00 0.000000e+00 0.000000e+00)) ((-2.059768e+00 7.496943e-01 1.950822e+00) (3.228882e-03 8.886001e-03 -3.547557e-05) (0.000000e+00 0.000000e+00 0.000000e+00))
1.300000e+02	((1.521914e+01 4.181424e+01 -1.480412e-18) (1.711810e-01 -6.218639e-02 3.419028e-20) (0.000000e+00 0.000000e+00 0.000000e+00)) ((-2.090712e+00 7.609570e-01 1.981010e+00) (3.109320e-03 8.559048e-03 -3.824513e-05) (0.000000e+00 0.000000e+00 0.000000e+00))
1.350000e+02	((1.543937e+01 4.241933e+01 -1.495348e-18) (1.648556e-01 -5.987161e-02 3.576692e-20) (0.000000e+00 0.000000e+00 0.000000e+00)) ((-2.120966e+00 7.719687e-01 2.008695e+00) (2.993581e-03 8.242779e-03 -4.141119e-05) (0.000000e+00 0.000000e+00 0.000000e+00))
1.400000e+02	((1.563886e+01 4.296740e+01 -1.506665e-18) (1.587370e-01 -5.763181e-02 3.593540e-20) (0.000000e+00 0.000000e+00 0.000000e+00)) ((-2.148370e+00 7.819428e-01 2.028410e+00) (2.881591e-03 7.936852e-03 -4.472607e-05) (0.000000e+00 0.000000e+00 0.000000e+00))
1.450000e+02	((1.582800e+01 4.348707e+01 -1.522543e-18) (1.528450e-01 -5.547483e-02 3.724689e-20) (0.000000e+00 0.000000e+00 0.000000e+00)) ((-2.174354e+00 7.914001e-01 2.042955e+00) (2.773742e-03 7.642252e-03 -4.803544e-05) (0.000000e+00 0.000000e+00 0.000000e+00))
1.500000e+02	((1.599440e+01 4.394426e+01 -1.534844e-18) (1.471606e-01 -5.339374e-02 3.922966e-20) (0.000000e+00 0.000000e+00 0.000000e+00)) ((-2.197213e+00 7.997202e-01 2.051184e+00) (2.669687e-03 7.358028e-03 -5.131560e-05) (0.000000e+00 0.000000e+00 0.000000e+00))
1.550000e+02	((1.614316e+01 4.435296e+01 -1.548033e-18) (1.416354e-01 -5.137105e-02 4.322801e-20) (0.000000e+00 0.000000e+00 0.000000e+00)) ((-2.217648e+00 8.071579e-01 2.054777e+00) (2.568553e-03 7.081769e-03 -5.455095e-05) (0.000000e+00 0.000000e+00 0.000000e+00))
1.600000e+02	((1.628723e+01 4.474878e+01 -1.562972e-18) (1.362731e-01 -4.941036e-02 4.947421e-20) (0.000000e+00 0.000000e+00 0.000000e+00)) ((-2.237439e+00 8.143613e-01 2.056395e+00) (2.470518e-03 6.813655e-03 -5.715326e-05) (0.000000e+00 0.000000e+00 0.000000e+00))
1.650000e+02	((1.641602e+01 4.510265e+01 -1.579012e-18) (1.310958e-01 -4.751732e-02 5.157035e-20) (0.000000e+00 0.000000e+00 0.000000e+00)) ((-2.255133e+00 8.208012e-01 2.052930e+00) (2.375866e-03 6.554788e-03 -5.970259e-05) (0.000000e+00 0.000000e+00 0.000000e+00))
1.700000e+02	((1.652794e+01 4.541013e+01 -1.595563e-18) (1.260884e-01 -4.568701e-02 5.364197e-20) (0.000000e+00 0.000000e+00 0.000000e+00)) ((-2.270506e+00 8.263968e-01 2.045706e+00) (2.284350e-03 6.304422e-03 -6.206750e-05) (0.000000e+00 0.000000e+00 0.000000e+00))
1.750000e+02	((1.662794e+01 4.568488e+01 -1.612810e-18) (1.212247e-01 -4.390987e-02 5.063854e-20) (0.000000e+00 0.000000e+00 0.000000e+00)) ((-2.284244e+00 8.313968e-01 2.035409e+00) (2.195494e-03 6.061233e-03 -6.422535e-05) (0.000000e+00 0.000000e+00 0.000000e+00))
1.800000e+02	((1.671679e+01 4.592901e+01 -1.630488e-18) (1.165005e-01 -4.218609e-02 4.918922e-20) (0.000000e+00 0.000000e+00 0.000000e+00)) ((-2.296451e+00 8.358397e-01 2.023678e+00) (2.109305e-03 5.825026e-03 -6.576002e-05) (0.000000e+00 0.000000e+00 0.000000e+00))
1.850000e+02	((1.679286e+01 4.613801e+01 -1.648143e-18) (1.119196e-01 -4.051521e-02 4.454831e-20) (0.000000e+00 0.000000e+00 0.000000e+00)) ((-2.306901e+00 8.396432e-01 2.011191e+00) (2.025761e-03 5.595980e-03 -6.707804e-05) (0.000000e+00 0.000000e+00 0.000000e+00))
1.900000e+02	((1.686266e+01 4.632977e+01 -1.666864e-18) (1.074876e-01 -3.889961e-02 4.100575e-20) (0.000000e+00 0.000000e+00 0.000000e+00)) ((-2.316489e+00 8.431330e-01 1.996492e+00) (1.944980e-03 5.374378e-03 -6.807154e-05) (0.000000e+00 0.000000e+00 0.000000e+00))
1.950000e+02	((1.691838e+01 4.648287e+01 -1.684968e-18) (1.031818e-01 -3.733102e-02 3.643525e-20) (0.000000e+00 0.000000e+00 0.000000e+00)) ((-2.324144e+00 8.459192e-01 1.983087e+00) (1.866551e-03 5.159092e-03 -6.885267e-05) (0.000000e+00 0.000000e+00 0.000000e+00))
2.000000e+02	((1.697343e+01 4.663412e+01 -1.704280e-18) (9.900649e-02 -3.581106e-02 3.194568e-20) (0.000000e+00 0.000000e+00 0.000000e+00)) ((-2.331706e+00 8.486717e-01 1.968057e+00) (1.790553e-03 4.950324e-03 -6.930399e-05) (0.000000e+00 0.000000e+00 0.000000e+00))
2.050000e+02	((1.701433e+01 4.674647e+01 -1.722640e-18) (9.495190e-02 -3.434129e-02 2.471514e-20) (0.000000e+00 0.000000e+00 0.000000e+00)) ((-2.337324e+00 8.507163e-01 1.954781e+00) (1.717065e-03 4.747595e-03 -6.827029e-05) (0.000000e+00 0.000000e+00 0.000000e+00))
2.100000e+02	((1.705407e+01 4.685567e+01 -1.741248e-18) (9.102597e-02 -3.292017e-02 2.056409e-20) (0.000000e+00 0.000000e+00 0.000000e+00)) ((-2.342783e+00 8.527035e-01 1.940789e+00) (1.646009e-03 4.551299e-03 -6.676539e-05) (0.000000e+00 0.000000e+00 0.000000e+00))
2.150000e+02	((1.708834e+01 4.694981e+01 -1.756052e-18) (8.721325e-02 -3.154142e-02 1.413207e-20) (0.000000e+00 0.000000e+00 0.000000e+00)) ((-2.347491e+00 8.544168e-01 1.927374e+00) (1.577071e-03 4.360663e-03 -6.496825e-05) (0.000000e+00 0.000000e+00 0.000000e+00))
2.200000e+02	((1.712294e+01 4.704490e+01 -1.769756e-18) (8.350633e-02 -3.020096e-02 6.812028e-21) (0.000000e+00 0.000000e+00 0.000000e+00)) ((-2.352245e+00 8.561472e-01 1.912552e+00) (1.510048e-03 4.175316e-03 -6.325726e-05) (0.000000e+00 0.000000e+00 0.000000e+00))
2.250000e+02	((1.714644e+01 4.710944e+01 -1.783950e-18) (7.997644e-02 -2.894144e-02 -1.519332e-22) (0.000000e+00 0.000000e+00 0.000000e+00)) ((-2.355472e+00 8.573218e-01 1.899773e+00) (1.447072e-03 3.998822e-03 -5.760648e-05) (0.000000e+00 0.000000e+00 0.000000e+00))
2.300000e+02	((1.716986e+01 4.717379e+01 -1.792364e-18) (7.660804e-02 -2.775678e-02 -1.002339e-20) (0.000000e+00 0.000000e+00 0.000000e+00)) ((-2.358690e+00 8.584929e-01 1.885722e+00) (1.387839e-03 3.830402e-03 -4.819875e-05) (0.000000e+00 0.000000e+00 0.000000e+00))
2.350000e+02	((1.718151e+01 4.720580e+01 -1.798249e-18) (7.337047e-02 -2.660806e-02 -2.378484e-20) (0.000000e+00 0.000000e+00 0.000000e+00)) ((-2.360290e+00 8.590753e-01 1.875621e+00) (1.330403e-03 3.668524e-03 -4.139918e-05) (0.000000e+00 0.000000e+00 0.000000e+00))
2.400000e+02	((1.719451e+01 4.724153e+01 -1.804840e-18) (7.021201e-02 -2.547173e-02 -3.856691e-20) (0.000000e+00 0.000000e+00 0.000000e+00)) ((-2.362077e+00 8.597257e-01 1.864172e+00) (1.273586e-03 3.510600e-03 -3.834939e-05) (0.000000e+00 0.000000e+00 0.000000e+00))
2.450000e+02	((1.720480e+01 4.726980e+01 -1.799269e-18) (6.712721e-02 -2.436020e-02 -5.251667e-20) (0.000000e+00 0.000000e+00 0.000000e+00)) ((-2.363490e+00 8.602401e-01 1.853107e+00) (1.218010e-03 3.356360e-03 -3.571082e-05) (0.000000e+00 0.000000e+00 0.000000e+00))
2.500000e+02	((1.720999e+01 4.728405e+01 -1.792056e-18) (6.410011e-02 -2.326229e-02 -5.808222e-20) (0.000000e+00 0.000000e+00 0.000000e+00)) ((-2.364203e+00 8.604995e-01 1.842714e+00) (1.163115e-03 3.205006e-03 -3.476422e-05) (0.000000e+00 0.000000e+00 0.000000e+00))
2.550000e+02	((1.721533e+01 4.729872e+01 -1.780172e-18) (6.115146e-02 -2.219354e-02 -5.898790e-20) (0.000000e+00 0.000000e+00 0.000000e+00)) ((-2.364936e+00 8.607664e-01 1.831666e+00) (1.109677e-03 3.057573e-03 -3.363661e-05) (0.000000e+00 0.000000e+00 0.000000e+00))
2.600000e+02	((1.721780e+01 4.730551e+01 -1.764319e-18) (5.826458e-02 -2.114466e-02 -6.306541e-20) (0.000000e+00 0.000000e+00 0.000000e+00)) ((-2.365275e+00 8.608899e-01 1.821097e+00) (1.057233e-03 2.913229e-03 -3.308562e-05) (0.000000e+00 0.000000e+00 0.000000e+00))
2.650000e+02	((1.722119e+01 4.731482e+01 -1.743946e-18) (5.543322e-02 -2.010463e-02 -6.419250e-20) (0.000000e+00 0.000000e+00 0.000000e+00)) ((-2.365741e+00 8.610594e-01 1.809783e+00) (1.005231e-03 2.771661e-03 -3.510912e-05) (0.000000e+00 0.000000e+00 0.000000e+00))
2.700000e+02	((1.722650e+01 4.732942e+01 -1.717284e-18) (5.267755e-02 -1.909919e-02 -5.949207e-20) (0.000000e+00 0.000000e+00 0.000000e+00)) ((-2.366471e+00 8.613251e-01 1.797866e+00) (9.549594e-04 2.633877e-03 -3.549993e-05) (0.000000e+00 0.000000e+00 0.000000e+00))
2.750000e+02	((1.723011e+01 4.733934e+01 -1.686123e-18) (4.999180e-02 -1.812140e-02 -5.229753e-20) (0.000000e+00 0.000000e+00 0.000000e+00)) ((-2.366967e+00 8.615056e-01 1.787168e+00) (9.060702e-04 2.499590e-03 -3.533243e-05) (0.000000e+00 0.000000e+00 0.000000e+00))
2.800000e+02	((1.724280e+01 4.737421e+01 -1.648490e-18) (4.737695e-02 -1.716542e-02 -4.690910e-20) (0.000000e+00 0.000000e+00 0.000000e+00)) ((-2.368710e+00 8.621402e-01 1.773474e+00) (8.582711e-04 2.368848e-03 -3.608692e-05) (0.000000e+00 0.000000e+00 0.000000e+00))
2.850000e+02	((1.725211e+01 4.739977e+01 -1.609242e-18) (4.482135e-02 -1.623452e-02 -4.278917e-20) (0.000000e+00 0.000000e+00 0.000000e+00)) ((-2.369989e+00 8.626053e-01 1.764395e+00) (8.117261e-04 2.241068e-03 -3.601782e-05) (0.000000e+00 0.000000e+00 0.000000e+00))
2.900000e+02	((1.726870e+01 4.744536e+01 -1.560919e-18) (4.232414e-02 -1.532073e-02 -4.034670e-20) (0.000000e+00 0.000000e+00 0.000000e+00)) ((-2.372268e+00 8.634349e-01 1.754286e+00) (7.660364e-04 2.116207e-03 -3.687388e-05) (0.000000e+00 0.000000e+00 0.000000e+00))
2.950000e+02	((1.728798e+01 4.749834e+01 -1.509908e-18) (3.987792e-02 -1.442769e-02 -3.711301e-20) (0.000000e+00 0.000000e+00 0.000000e+00)) ((-2.374917e+00 8.643991e-01 1.748374e+00) (7.213845e-04 1.993896e-03 -3.724810e-05) (0.000000e+00 0.000000e+00 0.000000e+00))
3.000000e+02	((1.731313e+01 4.756745e+01 -1.452724e-18) (3.749700e-02 -1.356397e-02 -3.388695e-20) (0.000000e+00 0.000000e+00 0.000000e+00)) ((-2.378372e+00 8.656567e-01 1.745288e+00) (6.781984e-04 1.874850e-03 -3.631977e-05) (0.000000e+00 0.000000e+00 0.000000e+00))
3.050000e+02	((1.734430e+01 4.765306e+01 -1.391082e-18) (3.516342e-02 -1.270545e-02 -2.818655e-20) (0.000000e+00 0.000000e+00 0.000000e+00)) ((-2.382653e+00 8.672148e-01 1.747207e+00) (6.352726e-04 1.758171e-03 -3.816026e-05) (0.000000e+00 0.000000e+00 0.000000e+00))
3.100000e+02	((1.738220e+01 4.775719e+01 -1.326113e-18) (3.288723e-02 -1.188197e-02 -2.255534e-20) (0.000000e+00 0.000000e+00 0.000000e+00)) ((-2.387859e+00 8.691098e-01 1.755556e+00) (5.940986e-04 1.644361e-03 -3.677734e-05) (0.000000e+00 0.000000e+00 0.000000e+00))
3.150000e+02	((1.742804e+01 4.788314e+01 -1.257811e-18) (3.066341e-02 -1.106261e-02 -1.968571e-20) (0.000000e+00 0.000000e+00 0.000000e+00)) ((-2.394157e+00 8.714018e-01 1.771405e+00) (5.531304e-04 1.533171e-03 -3.884590e-05) (0.000000e+00 0.000000e+00 0.000000e+00))
3.200000e+02	((1.748085e+01 4.802823e+01 -1.188520e-18) (2.848751e-02 -1.027294e-02 -1.768439e-20) (0.000000e+00 0.000000e+00 0.000000e+00)) ((-2.401411e+00 8.740423e-01 1.796848e+00) (5.136471e-04 1.424376e-03 -3.809156e-05) (0.000000e+00 0.000000e+00 0.000000e+00))
3.250000e+02	((1.754475e+01 4.820380e+01 -1.111103e-18) (2.636208e-02 -9.492810e-03 -1.604040e-20) (0.000000e+00 0.000000e+00 0.000000e+00)) ((-2.410190e+00 8.772375e-01 1.833375e+00) (4.746405e-04 1.318104e-03 -3.941861e-05) (0.000000e+00 0.000000e+00 0.000000e+00))
3.300000e+02	((1.761751e+01 4.840370e+01 -1.037299e-18) (2.428022e-02 -8.734055e-03 -1.474598e-20) (0.000000e+00 0.000000e+00 0.000000e+00)) ((-2.420185e+00 8.808753e-01 1.883498e+00) (4.367027e-04 1.214011e-03 -3.946265e-05) (0.000000e+00 0.000000e+00 0.000000e+00))
3.350000e+02	((1.770215e+01 4.863626e+01 -9.625345e-19) (2.224798e-02 -7.991417e-03 -1.167109e-20) (0.000000e+00 0.000000e+00 0.000000e+00)) ((-2.431813e+00 8.851076e-01 1.947851e+00) (3.995709e-04 1.112399e-03 -3.999602e-05) (0.000000e+00 0.000000e+00 0.000000e+00))
3.400000e+02	((1.779684e+01 4.889643e+01 -8.870062e-19) (2.025789e-02 -7.264128e-03 -8.371928e-21) (0.000000e+00 0.000000e+00 0.000000e+00)) ((-2.444821e+00 8.898422e-01 2.029103e+00) (3.632064e-04 1.012894e-03 -4.054483e-05) (0.000000e+00 0.000000e+00 0.000000e+00))
3.450000e+02	((1.790527e+01 4.919433e+01 -8.064911e-19) (1.831265e-02 -6.557516e-03 -6.815496e-21) (0.000000e+00 0.000000e+00 0.000000e+00)) ((-2.459717e+00 8.952636e-01 2.130129e+00) (3.278758e-04 9.156324e-04 -4.013881e-05) (0.000000e+00 0.000000e+00 0.000000e+00))
3.500000e+02	((1.802650e+01 4.952739e+01 -7.352337e-19) (1.639718e-02 -5.850069e-03 -4.246921e-21) (0.000000e+00 0.000000e+00 0.000000e+00)) ((-2.476370e+00 9.013248e-01 2.250784e+00) (2.925034e-04 8.198592e-04 -4.245136e-05) (0.000000e+00 0.000000e+00 0.000000e+00))
3.550000e+02	((1.816279e+01 4.990186e+01 -6.604870e-19) (1.453434e-02 -5.171400e-03 -1.444384e-21) (0.000000e+00 0.000000e+00 0.000000e+00)) ((-2.495093e+00 9.081396e-01 2.396151e+00) (2.585700e-04 7.267168e-04 -4.259110e-05) (0.000000e+00 0.000000e+00 0.000000e+00))
3.600000e+02	((1.831168e+01 5.031092e+01 -5.902807e-19) (1.271043e-02 -4.497013e-03 1.445963e-21) (0.000000e+00 0.000000e+00 0.000000e+00)) ((-2.515546e+00 9.155839e-01 2.564585e+00) (2.248507e-04 6.355213e-04 -4.504298e-05) (0.000000e+00 0.000000e+00 0.000000e+00))
3.650000e+02	((1.847576e+01 5.076174e+01 -5.226067e-19) (1.093223e-02 -3.845861e-03 1.812780e-21) (0.000000e+00 0.000000e+00 0.000000e+00)) ((-2.538087e+00 9.237881e-01 2.760408e+00) (1.922931e-04 5.466113e-04 -4.598823e-05) (0.000000e+00 0.000000e+00 0.000000e+00))
3.700000e+02	((1.865032e+01 5.124132e+01 -4.610176e-19) (9.190407e-03 -3.203131e-03 2.434375e-21) (0.000000e+00 0.000000e+00 0.000000e+00)) ((-2.562066e+00 9.325158e-01 2.980729e+00) (1.601565e-04 4.595203e-04 -4.807064e-05) (0.000000e+00 0.000000e+00 0.000000e+00))
3.750000e+02	((1.883581e+01 5.175095e+01 -4.069007e-19) (7.502267e-03 -2.592430e-03 3.498053e-21) (0.000000e+00 0.000000e+00 0.000000e+00)) ((-2.587548e+00 9.417903e-01 3.224645e+00) (1.296215e-04 3.751133e-04 -4.733611e-05) (0.000000e+00 0.000000e+00 0.000000e+00))
3.800000e+02	((1.903712e+01 5.230405e+01 -3.591281e-19) (5.870692e-03 -2.001512e-03 5.127222e-21) (0.000000e+00 0.000000e+00 0.000000e+00)) ((-2.615202e+00 9.518559e-01 3.500327e+00) (1.000756e-04 2.935346e-04 -4.677224e-05) (0.000000e+00 0.000000e+00 0.000000e+00))
3.850000e+02	((1.925037e+01 5.288996e+01 -3.156496e-19) (4.292959e-03 -1.427435e-03 4.784870e-21) (0.000000e+00 0.000000e+00 0.000000e+00)) ((-2.644498e+00 9.625185e-01 3.806744e+00) (7.137174e-05 2.146480e-04 -4.678932e-05) (0.000000e+00 0.000000e+00 0.000000e+00))
3.900000e+02	((1.946628e+01 5.348318e+01 -2.813618e-19) (2.769884e-03 -8.792535e-04 4.195738e-21) (0.000000e+00 0.000000e+00 0.000000e+00)) ((-2.674159e+00 9.733142e-01 4.135698e+00) (4.396267e-05 1.384942e-04 -4.540744e-05) (0.000000e+00 0.000000e+00 0.000000e+00))
3.950000e+02	((1.968794e+01 5.409217e+01 -2.536309e-19) (1.304935e-03 -3.412482e-04 3.531088e-21) (0.000000e+00 0.000000e+00 0.000000e+00)) ((-2.704608e+00 9.843969e-01 4.490737e+00) (1.706241e-05 6.524673e-05 -4.656262e-05) (0.000000e+00 0.000000e+00 0.000000e+00))
4.000000e+02	((1.991067e+01 5.470412e+01 -2.326313e-19) (-9.364446e-05 1.662782e-04 1.778162e-21) (0.000000e+00 0.000000e+00 0.000000e+00)) ((-2.735206e+00 9.955336e-01 4.870309e+00) (-8.313909e-06 -4.682223e-06 -4.625734e-05) (0.000000e+00 0.000000e+00 0.000000e+00))
4.050000e+02	((2.013120e+01 5.531001e+01 -2.182428e-19) (-1.415743e-03 6.472118e-04 1.145604e-21) (0.000000e+00 0.000000e+00 0.000000e+00)) ((-2.765500e+00 1.006560e+00 5.271362e+00) (-3.236059e-05 -7.078716e-05 -4.624447e-05) (0.000000e+00 0.000000e+00 0.000000e+00))
4.100000e+02	((2.034433e+01 5.589558e+01 -2.099666e-19) (-2.647755e-03 1.095261e-03 -1.415286e-22) (0.000000e+00 0.000000e+00 0.000000e+00)) ((-2.794779e+00 1.017216e+00 5.690095e+00) (-5.476306e-05 -1.323878e-04 -4.622814e-05) (0.000000e+00 0.000000e+00 0.000000e+00))
4.150000e+02	((2.054538e+01 5.644796e+01 -2.071293e-19) (-3.774893e-03 1.504829e-03 -1.241468e-21) (0.000000e+00 0.000000e+00 0.000000e+00)) ((-2.822398e+00 1.027269e+00 6.122556e+00) (-7.524147e-05 -1.887446e-04 -4.623644e-05) (0.000000e+00 0.000000e+00 0.000000e+00))
4.200000e+02	((2.072784e+01 5.694928e+01 -2.089823e-19) (-4.777127e-03 1.868352e-03 -7.367360e-22) (0.000000e+00 0.000000e+00 0.000000e+00)) ((-2.847464e+00 1.036392e+00 6.563163e+00) (-9.341759e-05 -2.388563e-04 -4.655715e-05) (0.000000e+00 0.000000e+00 0.000000e+00))
4.250000e+02	((2.088464e+01 5.738008e+01 -2.146641e-19) (-5.634104e-03 2.178732e-03 3.025114e-21) (0.000000e+00 0.000000e+00 0.000000e+00)) ((-2.869004e+00 1.044232e+00 7.004965e+00) (-1.089366e-04 -2.817052e-04 -4.693813e-05) (0.000000e+00 0.000000e+00 0.000000e+00))
4.300000e+02	((2.100656e+01 5.771504e+01 -2.232447e-19) (-6.319159e-03 2.426341e-03 7.093032e-21) (0.000000e+00 0.000000e+00 0.000000e+00)) ((-2.885752e+00 1.050328e+00 7.439711e+00) (-1.213170e-04 -3.159580e-04 -4.742189e-05) (0.000000e+00 0.000000e+00 0.000000e+00))
4.350000e+02	((2.108424e+01 5.792846e+01 -2.338282e-19) (-6.802475e-03 2.598103e-03 1.039602e-20) (0.000000e+00 0.000000e+00 0.000000e+00)) ((-2.896423e+00 1.054212e+00 7.858658e+00) (-1.299051e-04 -3.401237e-04 -4.941740e-05) (0.000000e+00 0.000000e+00 0.000000e+00))
4.400000e+02	((2.110873e+01 5.799576e+01 -2.454902e-19) (-7.043708e-03 2.680317e-03 1.285393e-20) (0.000000e+00 0.000000e+00 0.000000e+00)) ((-2.899788e+00 1.055437e+00 8.254007e+00) (-1.340159e-04 -3.521854e-04 -5.231109e-05) (0.000000e+00 0.000000e+00 0.000000e+00))
4.450000e+02	((2.106813e+01 5.788421e+01 -2.574044e-19) (-6.990128e-03 2.658494e-03 1.468266e-20) (0.000000e+00 0.000000e+00 0.000000e+00)) ((-2.894210e+00 1.053406e+00 8.611958e+00) (-1.329247e-04 -3.495064e-04 -5.294866e-05) (0.000000e+00 0.000000e+00 0.000000e+00))
4.500000e+02	((2.095029e+01 5.756043e+01 -2.687452e-19) (-6.588517e-03 2.510302e-03 1.601675e-20) (0.000000e+00 0.000000e+00 0.000000e+00)) ((-2.878022e+00 1.047514e+00 8.924380e+00) (-1.255151e-04 -3.294259e-04 -5.334143e-05) (0.000000e+00 0.000000e+00 0.000000e+00))
4.550000e+02	((2.074477e+01 5.699578e+01 -2.785213e-19) (-5.785063e-03 2.216451e-03 1.699136e-20) (0.000000e+00 0.000000e+00 0.000000e+00)) ((-2.849789e+00 1.037238e+00 9.179340e+00) (-1.108225e-04 -2.892531e-04 -5.308618e-05) (0.000000e+00 0.000000e+00 0.000000e+00))
4.600000e+02	((2.044107e+01 5.616138e+01 -2.859973e-19) (-4.522580e-03 1.756800e-03 1.771105e-20) (0.000000e+00 0.000000e+00 0.000000e+00)) ((-2.808069e+00 1.022054e+00 9.366409e+00) (-8.784001e-05 -2.261290e-04 -5.183404e-05) (0.000000e+00 0.000000e+00 0.000000e+00))
4.650000e+02	((2.002633e+01 5.502188e+01 -2.904471e-19) (-2.742431e-03 1.109567e-03 1.821454e-20) (0.000000e+00 0.000000e+00 0.000000e+00)) ((-2.751094e+00 1.001316e+00 9.472233e+00) (-5.547837e-05 -1.371216e-04 -4.986764e-05) (0.000000e+00 0.000000e+00 0.000000e+00))
4.700000e+02	((1.948763e+01 5.354182e+01 -2.911027e-19) (-3.971402e-04 2.571408e-04 1.869339e-20) (0.000000e+00 0.000000e+00 0.000000e+00)) ((-2.677091e+00 9.743814e-01 9.482647e+00) (-1.285704e-05 -1.985701e-05 -4.737976e-05) (0.000000e+00 0.000000e+00 0.000000e+00))
4.750000e+02	((1.880848e+01 5.167588e+01 -2.805061e-19) (2.544003e-03 -8.114872e-04 1.896305e-20) (0.000000e+00 0.000000e+00 0.000000e+00)) ((-2.583794e+00 9.404242e-01 9.386247e+00) (4.057436e-05 1.272001e-04 -4.418173e-05) (0.000000e+00 0.000000e+00 0.000000e+00))
4.800000e+02	((1.800242e+01 4.946124e+01 -2.680490e-19) (6.099583e-03 -2.103055e-03 1.908597e-20) (0.000000e+00 0.000000e+00 0.000000e+00)) ((-2.473062e+00 9.001210e-01 9.176848e+00) (1.051528e-04 3.049792e-04 -4.049511e-05) (0.000000e+00 0.000000e+00 0.000000e+00))
4.850000e+02	((1.705509e+01 4.685847e+01 -2.515987e-19) (1.024883e-02 -3.610836e-03 1.911116e-20) (0.000000e+00 0.000000e+00 0.000000e+00)) ((-2.342923e+00 8.527544e-01 8.850836e+00) (1.805418e-04 5.124417e-04 -3.659268e-05) (0.000000e+00 0.000000e+00 0.000000e+00))
4.900000e+02	((1.597503e+01 4.389104e+01 -2.292980e-19) (1.494810e-02 -5.318384e-03 1.913564e-20) (0.000000e+00 0.000000e+00 0.000000e+00)) ((-2.194552e+00 7.987517e-01 8.410694e+00) (2.659192e-04 7.474048e-04 -3.204244e-05) (0.000000e+00 0.000000e+00 0.000000e+00))
4.950000e+02	((1.478228e+01 4.061399e+01 -2.008067e-19) (2.012085e-02 -7.199186e-03 1.946691e-20) (0.000000e+00 0.000000e+00 0.000000e+00)) ((-2.030699e+00 7.391142e-01 7.868635e+00) (3.599593e-04 1.006042e-03 -2.820357e-05) (0.000000e+00 0.000000e+00 0.000000e+00))
5.000000e+02	((1.350927e+01 3.711642e+01 -1.663713e-19) (2.564974e-02 -9.212031e-03 2.032013e-20) (0.000000e+00 0.000000e+00 0.000000e+00)) ((-1.855821e+00 6.754636e-01 7.247733e+00) (4.606015e-04 1.282487e-03 -2.611226e-05) (0.000000e+00 0.000000e+00 0.000000e+00))
5.050000e+02	((1.220015e+01 3.351962e+01 -1.268192e-19) (3.138790e-02 -1.130129e-02 2.166062e-20) (0.000000e+00 0.000000e+00 0.000000e+00)) ((-1.675981e+00 6.100073e-01 6.578667e+00) (5.650643e-04 1.569395e-03 -2.428654e-05) (0.000000e+00 0.000000e+00 0.000000e+00))
5.100000e+02	((1.090383e+01 2.995804e+01 -8.328253e-20) (3.714155e-02 -1.339689e-02 2.043339e-20) (0.000000e+00 0.000000e+00 0.000000e+00)) ((-1.497902e+00 5.451917e-01 5.898903e+00) (6.698444e-04 1.857077e-03 -2.301338e-05) (0.000000e+00 0.000000e+00 0.000000e+00))
5.150000e+02	((9.691860e+00 2.662816e+01 -3.868422e-20) (4.269609e-02 -1.542059e-02 1.739757e-20) (0.000000e+00 0.000000e+00 0.000000e+00)) ((-1.331408e+00 4.845930e-01 5.259738e+00) (7.710294e-04 2.134804e-03 -2.245200e-05) (0.000000e+00 0.000000e+00 0.000000e+00))
5.200000e+02	((8.596764e+00 2.361941e+01 8.259444e-21) (4.786678e-02 -1.730456e-02 1.486029e-20) (0.000000e+00 0.000000e+00 0.000000e+00)) ((-1.180971e+00 4.298382e-01 4.689741e+00) (8.652281e-04 2.393339e-03 -2.211453e-05) (0.000000e+00 0.000000e+00 0.000000e+00))
5.250000e+02	((7.652244e+00 2.102437e+01 5.597770e-20) (5.249339e-02 -1.899037e-02 1.260399e-20) (0.000000e+00 0.000000e+00 0.000000e+00)) ((-1.051218e+00 3.826122e-01 4.214125e+00) (9.495184e-04 2.624669e-03 -2.193755e-05) (0.000000e+00 0.000000e+00 0.000000e+00))
5.300000e+02	((6.933224e+00 1.904887e+01 8.511184e-20) (5.647648e-02 -2.044235e-02 1.103840e-20) (0.000000e+00 0.000000e+00 0.000000e+00)) ((-9.524436e-01 3.466612e-01 3.881295e+00) (1.022117e-03 2.823824e-03 -2.189693e-05) (0.000000e+00 0.000000e+00 0.000000e+00))
5.350000e+02	((6.421656e+00 1.764335e+01 1.228451e-19) (5.978384e-02 -2.164594e-02 9.902329e-21) (0.000000e+00 0.000000e+00 0.000000e+00)) ((-8.821677e-01 3.210828e-01 3.690705e+00) (1.082297e-03 2.989192e-03 -2.203740e-05) (0.000000e+00 0.000000e+00 0.000000e+00))
5.400000e+02	((6.072941e+00 1.668527e+01 1.586244e-19) (6.251470e-02 -2.264087e-02 8.913580e-21) (0.000000e+00 0.000000e+00 0.000000e+00)) ((-8.342633e-01 3.036471e-01 3.609949e+00) (1.132043e-03 3.125735e-03 -2.246629e-05) (0.000000e+00 0.000000e+00 0.000000e+00))
5.450000e+02	((5.968333e+00 1.639786e+01 1.735684e-19) (6.482577e-02 -2.348059e-02 8.679953e-21) (0.000000e+00 0.000000e+00 0.000000e+00)) ((-8.198929e-01 2.984166e-01 3.661259e+00) (1.174029e-03 3.241288e-03 -2.286576e-05) (0.000000e+00 0.000000e+00 0.000000e+00))
5.500000e+02	((5.923462e+00 1.627457e+01 1.855159e-19) (6.687093e-02 -2.422298e-02 9.104078e-21) (0.000000e+00 0.000000e+00 0.000000e+00)) ((-8.137287e-01 2.961731e-01 3.727494e+00) (1.211149e-03 3.343546e-03 -2.270087e-05) (0.000000e+00 0.000000e+00 0.000000e+00))
5.550000e+02	((5.904601e+00 1.622276e+01 1.928213e-19) (6.880724e-02 -2.492767e-02 9.664088e-21) (0.000000e+00 0.000000e+00 0.000000e+00)) ((-8.111378e-01 2.952301e-01 3.788188e+00) (1.246384e-03 3.440362e-03 -2.250230e-05) (0.000000e+00 0.000000e+00 0.000000e+00))