/*--------------------------------*- C++ -*----------------------------------*\
| =========                 |                                                 |
| \\      /  F ield         | OpenFOAM: The Open Source CFD Toolbox           |
|  \\    /   O peration     | Version:  2.3.0                                 |
|   \\  /    A nd           | Web:      www.OpenFOAM.org                      |
|    \\/     M anipulation  |                                                 |
\*---------------------------------------------------------------------------*/
FoamFile
{
    version     2.0;
    format      ascii;
    class       volScalarField;
    location    "4000";
    object      nuTilda;
}
// * * * * * * * * * * * * * * * * * * * * * * * * * * * * * * * * * * * * * //

dimensions      [0 2 -1 0 0 0 0];

internalField   nonuniform List<scalar> 
38296
(
0.0723102
0.0706551
0.0689998
0.0673389
0.0656734
0.0640042
0.062332
0.0606582
0.0589838
0.0573098
0.0556367
0.0539653
0.0522964
0.0506301
0.0489674
0.0473086
0.0456545
0.0440055
0.0423621
0.0407245
0.0390935
0.0374692
0.0358522
0.0342433
0.0326425
0.0310501
0.0294669
0.0278933
0.0263305
0.0247789
0.0232397
0.0217143
0.0202051
0.0187153
0.0172485
0.0158102
0.0144081
0.0130541
0.0117623
0.0105449
0.00939821
0.00823431
0.00642342
0.0732559
0.0717854
0.0703111
0.0688309
0.067346
0.0658567
0.0643641
0.0628688
0.0613713
0.0598726
0.0583726
0.056872
0.0553709
0.0538692
0.0523674
0.0508659
0.0493647
0.0478645
0.0463653
0.0448673
0.0433713
0.0418779
0.0403868
0.0388995
0.0374163
0.0359379
0.0344657
0.0330013
0.031546
0.0301018
0.0286717
0.0272594
0.0258701
0.0245094
0.0231837
0.0219032
0.0206798
0.0195284
0.0184653
0.0175091
0.0166793
0.0159938
0.0154641
0.0741498
0.0728343
0.0715156
0.0701912
0.0688615
0.0675272
0.0661887
0.0648464
0.0635008
0.0621519
0.0608002
0.0594458
0.0580887
0.0567288
0.0553661
0.0540009
0.052633
0.0512628
0.0498903
0.0485158
0.0471402
0.0457639
0.044387
0.0430111
0.0416368
0.040265
0.0388979
0.0375372
0.0361846
0.0348431
0.0335171
0.0322105
0.0309288
0.0296786
0.0284667
0.0273036
0.0262005
0.0251688
0.024222
0.023374
0.0226367
0.0220224
0.0215373
0.0749843
0.0738038
0.0726199
0.0714299
0.0702344
0.0690333
0.067827
0.0666156
0.0653991
0.0641778
0.0629523
0.0617221
0.0604876
0.0592482
0.0580039
0.0567543
0.0554998
0.0542401
0.0529753
0.0517061
0.050433
0.049156
0.0478762
0.0465946
0.0453125
0.0440312
0.0427522
0.0414781
0.0402109
0.038954
0.0377119
0.0364882
0.035289
0.0341205
0.0329908
0.0319082
0.030883
0.0299253
0.0290471
0.0282587
0.0275707
0.0269899
0.0265229
0.0757579
0.0746955
0.0736291
0.072556
0.0714761
0.0703896
0.0692966
0.068197
0.0670908
0.0659783
0.0648597
0.0637349
0.062604
0.0614668
0.0603228
0.0591714
0.0580127
0.0568462
0.0556726
0.0544921
0.053305
0.0521119
0.0509136
0.0497113
0.0485064
0.0473002
0.0460945
0.0448918
0.0436947
0.0425066
0.0413313
0.0401733
0.0390379
0.0379317
0.0368625
0.0358377
0.0348667
0.0339595
0.0331258
0.0323755
0.0317165
0.0311559
0.0306994
0.0764688
0.0755121
0.0745492
0.0735775
0.0725976
0.0716099
0.0706141
0.0696104
0.0685987
0.0675788
0.0665507
0.0655148
0.0644714
0.0634207
0.0623617
0.0612941
0.0602165
0.059129
0.0580321
0.0569263
0.0558119
0.0546894
0.0535595
0.0524231
0.051282
0.050138
0.0489932
0.0478498
0.0467102
0.045578
0.0444568
0.043351
0.042266
0.0412082
0.0401843
0.0392027
0.0382721
0.0374011
0.0365991
0.0358749
0.0352357
0.0346889
0.0342399
0.0771233
0.0762602
0.0753872
0.0745033
0.0736097
0.072707
0.071795
0.070874
0.0699434
0.0690026
0.0680511
0.0670897
0.0661203
0.0651426
0.0641561
0.0631599
0.0621523
0.0611322
0.0600999
0.0590568
0.0580039
0.0569415
0.0558694
0.0547881
0.0537001
0.0526078
0.0515133
0.0504188
0.0493269
0.0482409
0.0471645
0.0461015
0.0450573
0.0440377
0.0430494
0.0421014
0.0412008
0.0403572
0.0395797
0.0388754
0.0382507
0.0377136
0.0372699
0.0777321
0.0769467
0.0761503
0.0753417
0.0745217
0.0736935
0.0728532
0.0720033
0.0711425
0.0702706
0.069385
0.0684857
0.0675775
0.0666613
0.0657363
0.0648015
0.0638555
0.0628944
0.0619164
0.0609247
0.0599234
0.058913
0.057891
0.0568568
0.0558128
0.0547629
0.0537104
0.0526574
0.0516044
0.0505571
0.0495185
0.0484919
0.047481
0.0464923
0.0455329
0.0446114
0.0437331
0.0429111
0.042154
0.0414679
0.0408524
0.0403225
0.039882
0.0783086
0.0775823
0.0768479
0.0761038
0.0753402
0.07458
0.0738003
0.0730119
0.0722093
0.0713972
0.070572
0.0697231
0.0688626
0.0679954
0.0671194
0.0662344
0.0653409
0.0644351
0.0635042
0.0625537
0.0615919
0.0606259
0.0596481
0.0586561
0.0576476
0.0566312
0.0556123
0.0545976
0.053578
0.0525628
0.0515557
0.0505625
0.0495788
0.0486181
0.0476807
0.0467851
0.0459234
0.0451169
0.0443798
0.0437171
0.0431032
0.0425833
0.0421451
0.00560662
0.00633274
0.00720855
0.00804542
0.00884447
0.00962259
0.01039
0.0111553
0.0119229
0.0126967
0.0134796
0.0142732
0.0150772
0.0158899
0.0167089
0.0175343
0.0183776
0.0192635
0.0202023
0.0211919
0.0222241
0.0232939
0.0243983
0.0255359
0.0267073
0.0279091
0.0291395
0.0303957
0.0316765
0.0329803
0.0343068
0.0356548
0.0370237
0.0384127
0.0398213
0.0412487
0.0426944
0.0441578
0.0456383
0.047135
0.0486475
0.0501759
0.0517195
0.0150988
0.0148958
0.0148466
0.0149387
0.0151585
0.0154901
0.0159198
0.016433
0.017018
0.0176644
0.0183636
0.019107
0.0198896
0.0207049
0.0215494
0.0224213
0.0233206
0.0242454
0.0251974
0.0261734
0.0271725
0.0281934
0.0292343
0.0302962
0.0313768
0.0324769
0.0335948
0.03473
0.0358823
0.0370506
0.0382356
0.039436
0.0406519
0.041883
0.0431289
0.0443894
0.0456644
0.0469533
0.0482555
0.0495709
0.0508994
0.0522416
0.0535995
0.0211801
0.0209456
0.020834
0.0208438
0.0209679
0.021198
0.0215234
0.0219332
0.0224183
0.0229687
0.0235761
0.0242335
0.0249337
0.0256724
0.0264448
0.0272471
0.0280763
0.0289314
0.0298094
0.0307082
0.0316269
0.0325633
0.0335171
0.0344868
0.0354716
0.036471
0.0374837
0.0385102
0.039549
0.0406006
0.041664
0.0427393
0.0438263
0.0449249
0.0460346
0.0471556
0.0482876
0.0494302
0.0505831
0.0517461
0.0529192
0.0541025
0.0552963
0.0261686
0.0259241
0.0257911
0.0257666
0.0258476
0.0260258
0.0262947
0.0266447
0.0270673
0.0275538
0.0280981
0.0286914
0.0293292
0.0300047
0.0307138
0.0314536
0.03222
0.0330102
0.0338214
0.0346519
0.0354998
0.0363629
0.0372405
0.0381308
0.0390331
0.0399469
0.0408712
0.0418053
0.0427491
0.0437019
0.044664
0.0456345
0.0466135
0.0476008
0.0485965
0.0496003
0.0506121
0.0516313
0.0526579
0.0536916
0.0547323
0.0557808
0.0568378
0.0303472
0.0300984
0.0299526
0.0299086
0.0299629
0.0301098
0.0303421
0.0306522
0.0310321
0.0314746
0.0319725
0.0325193
0.0331089
0.0337361
0.0343971
0.0350868
0.0358021
0.0365393
0.0372959
0.0380699
0.0388587
0.0396607
0.0404744
0.0412985
0.0421322
0.0429744
0.0438242
0.0446815
0.0455459
0.0464168
0.0472938
0.0481768
0.0490653
0.0499595
0.0508594
0.0517647
0.052675
0.0535898
0.0545089
0.0554322
0.0563598
0.0572924
0.0582307
0.0338899
0.0336379
0.0334848
0.0334287
0.0334656
0.0335911
0.0337981
0.0340801
0.0344293
0.0348389
0.0353025
0.0358134
0.0363671
0.0369575
0.0375805
0.0382307
0.0389041
0.0395982
0.0403102
0.0410373
0.0417775
0.0425285
0.043289
0.0440577
0.0448337
0.0456157
0.0464041
0.0471977
0.0479959
0.0487978
0.0496034
0.0504128
0.0512258
0.052042
0.0528613
0.0536835
0.0545079
0.0553338
0.0561611
0.0569899
0.0578208
0.0586539
0.0594909
0.0369213
0.0366681
0.0365109
0.036446
0.0364704
0.0365805
0.0367702
0.0370306
0.0373562
0.0377409
0.0381779
0.0386619
0.0391877
0.0397505
0.0403432
0.0409604
0.0415992
0.0422581
0.0429336
0.0436221
0.0443208
0.0450289
0.0457446
0.0464668
0.047194
0.0479268
0.0486639
0.0494043
0.0501467
0.0508904
0.0516357
0.0523839
0.0531338
0.0538842
0.0546354
0.0553871
0.0561386
0.0568885
0.0576364
0.0583846
0.0591324
0.0598797
0.0606282
0.0395359
0.0392826
0.0391241
0.0390515
0.0390662
0.0391641
0.0393439
0.039584
0.0398915
0.0402566
0.0406733
0.0411356
0.0416418
0.0421854
0.0427504
0.0433385
0.0439475
0.0445805
0.045225
0.0458788
0.0465428
0.0472146
0.0478933
0.0485761
0.0492621
0.0499544
0.0506488
0.0513444
0.0520393
0.0527328
0.0534274
0.0541262
0.0548225
0.0555161
0.0562106
0.0569019
0.0575915
0.0582752
0.0589533
0.0596343
0.0603105
0.0609832
0.0616553
0.0418044
0.04155
0.0413986
0.0413128
0.0413207
0.0414084
0.0415909
0.0417946
0.0420984
0.0424457
0.0428455
0.0432909
0.0437893
0.0443176
0.0448458
0.0454136
0.0459976
0.0466178
0.0472237
0.0478476
0.0484846
0.0491243
0.0497734
0.0504219
0.0510734
0.0517383
0.0523929
0.0530514
0.0537027
0.0543528
0.0550072
0.0556709
0.0563159
0.0569626
0.0576144
0.0582484
0.0588848
0.0595111
0.0601277
0.0607584
0.0613685
0.061978
0.062587
0.0183638
0.0173399
0.0163558
0.0154127
0.0145094
0.0136449
0.0128178
0.0120271
0.0112722
0.0105522
0.00986648
0.00921451
0.00859535
0.00800904
0.00745521
0.00693404
0.00644682
0.00599586
0.00558521
0.00522185
0.00490859
0.00463426
0.00438809
0.00416285
0.00395362
0.00375685
0.00356971
0.00338979
0.00321474
0.00304248
0.00287103
0.00269847
0.00252278
0.00234221
0.00215498
0.00195939
0.00175387
0.00153698
0.00130754
0.00106435
0.000808687
0.000576952
0.000684049
0.0183097
0.0173583
0.0164447
0.0155662
0.0147217
0.0139099
0.01313
0.0123812
0.0116626
0.0109736
0.0103136
0.00968231
0.00907903
0.00850352
0.00795542
0.00743481
0.00694242
0.00647928
0.00604782
0.00565276
0.00530015
0.00499078
0.00471602
0.0044678
0.00424
0.00402803
0.00382835
0.003638
0.00345452
0.00327547
0.00309872
0.00292211
0.00274346
0.00256063
0.00237146
0.0021739
0.00196593
0.00174578
0.00151208
0.0012669
0.00104006
0.00106666
0.00174033
0.0182591
0.0173826
0.0165367
0.0157203
0.0149319
0.0141708
0.0134361
0.0127272
0.0120435
0.0113843
0.0107493
0.0101382
0.00955046
0.00898595
0.00844442
0.00792573
0.00743028
0.00695877
0.00651265
0.00609479
0.00570992
0.00536451
0.00505748
0.00478148
0.0045301
0.00429831
0.00408203
0.00387791
0.00368292
0.00349439
0.00330994
0.00312712
0.00294351
0.00275667
0.00256418
0.00236361
0.00215237
0.00192842
0.00169163
0.0014569
0.00134727
0.00180913
0.00287198
0.0182129
0.0174059
0.0166228
0.0158633
0.0151265
0.0144119
0.0137189
0.0130469
0.0123955
0.0117641
0.0111524
0.0105602
0.0099875
0.00943396
0.00889932
0.00838364
0.00788731
0.00741057
0.0069544
0.00652069
0.00611274
0.00573626
0.00539744
0.00509248
0.00481507
0.00456048
0.00432464
0.00410396
0.00389509
0.00369491
0.00350067
0.0033098
0.00311965
0.00292748
0.00273061
0.00252605
0.002311
0.00208349
0.00184713
0.00164669
0.00175098
0.00263389
0.00392937
0.0181736
0.0174281
0.0167018
0.015994
0.0153043
0.0146322
0.0139772
0.0133389
0.0127169
0.0121111
0.011521
0.0109466
0.010388
0.00984496
0.00931745
0.00880552
0.00830944
0.00782946
0.0073664
0.00692155
0.00649699
0.00609714
0.00572912
0.00539607
0.00509261
0.00481402
0.0045568
0.00431747
0.0040926
0.00387898
0.00367358
0.00347338
0.00327549
0.00307698
0.00287483
0.00266575
0.00244668
0.00221624
0.00198509
0.00184784
0.00222043
0.00343197
0.0048923
0.0181385
0.017449
0.0167742
0.0161133
0.0154662
0.0148327
0.0142121
0.0136045
0.0130096
0.0124272
0.011857
0.0112991
0.0107537
0.0102207
0.00970019
0.00919228
0.0086973
0.00821545
0.00774742
0.00729414
0.00685732
0.00644005
0.00604815
0.00568899
0.00536049
0.00505821
0.00477899
0.00451993
0.00427781
0.00404945
0.00383161
0.00362107
0.00341459
0.00320896
0.00300092
0.00278691
0.00256381
0.00233122
0.00211107
0.00206339
0.00271187
0.00416955
0.00576581
0.018106
0.0174682
0.0168404
0.0162221
0.0156139
0.0150154
0.0144263
0.0138466
0.0132763
0.0127153
0.0121634
0.0116209
0.0110877
0.0105641
0.0100504
0.00954643
0.00905283
0.00856982
0.00809793
0.00763813
0.00719174
0.00676121
0.00635085
0.00596819
0.00561657
0.00529185
0.00499116
0.00471218
0.00445224
0.00420831
0.00397718
0.00375545
0.00353975
0.00332658
0.00311227
0.00289309
0.00266584
0.00243204
0.00222827
0.00228938
0.00319438
0.00484201
0.00655742
0.0180762
0.0174859
0.0169011
0.0163221
0.0157491
0.0151829
0.0146223
0.0140675
0.0135196
0.0129784
0.0124435
0.011915
0.0113933
0.0108789
0.0103716
0.00987154
0.00937947
0.00889586
0.00842108
0.00795563
0.00750124
0.00705984
0.00663461
0.00623191
0.00585899
0.00551345
0.00519235
0.00489377
0.00461583
0.00435622
0.00411148
0.00387792
0.00365251
0.00343167
0.00321136
0.00298726
0.00275598
0.00252175
0.00233894
0.00251915
0.0036518
0.00545386
0.00727698
0.0180506
0.0175021
0.0169591
0.0164156
0.0158737
0.0153402
0.0148067
0.0142725
0.0137433
0.0132212
0.0127044
0.012189
0.0116773
0.0111733
0.0106756
0.0101805
0.0096902
0.0092081
0.00873328
0.00826251
0.00780014
0.00735025
0.00691318
0.0064933
0.00610125
0.00573481
0.00539355
0.00507582
0.00477712
0.00449845
0.00424158
0.0039985
0.00375969
0.00352611
0.00329516
0.00306553
0.00283156
0.00259778
0.00244269
0.00274902
0.00407796
0.00600777
0.00793069
0.0012498
0.00174907
0.00212897
0.00248164
0.00295337
0.0034949
0.00409384
0.00474665
0.00545108
0.00620681
0.00701355
0.00787238
0.00878316
0.00974641
0.0107633
0.0118353
0.0129636
0.0141507
0.0153979
0.0167079
0.0180827
0.0195248
0.021037
0.0226218
0.0242825
0.0260216
0.0278426
0.0297485
0.0317427
0.0338285
0.0360095
0.0382889
0.0406702
0.0431572
0.0457528
0.0484604
0.0512829
0.0542218
0.0572766
0.0604405
0.0636957
0.0670087
0.0703385
0.00262731
0.00336601
0.00398132
0.00451571
0.00500123
0.00547683
0.00605356
0.00671194
0.00743986
0.00823096
0.00908185
0.00999066
0.0109563
0.0119784
0.0130557
0.0141879
0.0153748
0.0166172
0.0179161
0.0192723
0.0206875
0.0221634
0.0237016
0.025304
0.0269727
0.0287098
0.0305177
0.0323988
0.0343555
0.0363902
0.0385056
0.0407043
0.0429888
0.0453616
0.0478253
0.0503821
0.053034
0.0557812
0.0586223
0.0615495
0.0645453
0.0675819
0.0706255
0.00393746
0.00485707
0.00564893
0.00633918
0.00695512
0.00752457
0.00808382
0.00871995
0.00945203
0.0102644
0.0111478
0.0120964
0.0131067
0.0141766
0.0153041
0.0164864
0.0177224
0.019011
0.0203522
0.0217463
0.0231938
0.0246954
0.0262522
0.0278655
0.0295364
0.0312666
0.0330575
0.0349108
0.0368282
0.0388115
0.0408624
0.0429828
0.0451747
0.0474397
0.0497795
0.0521959
0.0546892
0.0572592
0.0599025
0.0626104
0.0653665
0.068147
0.0709264
0.00514037
0.00620176
0.00713014
0.00794708
0.00867657
0.00934298
0.00997315
0.0106106
0.0113508
0.0121849
0.0130999
0.0140869
0.0151397
0.0162544
0.0174281
0.0186566
0.0199366
0.0212665
0.0226451
0.0240717
0.0255465
0.0270693
0.0286406
0.0302609
0.031931
0.0336518
0.0354242
0.0372493
0.0391281
0.0410617
0.0430513
0.0450983
0.0472039
0.0493693
0.0515956
0.0538833
0.056232
0.0586402
0.0611029
0.0636109
0.0661492
0.0686986
0.0712393
0.006232
0.00741502
0.00845795
0.00938161
0.0102085
0.010962
0.0116668
0.0123562
0.0131043
0.0139616
0.0149095
0.0159351
0.0170299
0.0181883
0.0194062
0.0206776
0.0219985
0.0233661
0.0247786
0.0262347
0.0277333
0.0292741
0.030857
0.0324823
0.0341502
0.0358611
0.0376152
0.0394132
0.0412553
0.0431423
0.0450749
0.047054
0.0490806
0.0511553
0.0532784
0.0554492
0.0576665
0.0599267
0.0622245
0.0645505
0.0668917
0.069233
0.0715593
0.00722067
0.00851167
0.00965476
0.0106708
0.0115825
0.0124125
0.013185
0.0139296
0.0147012
0.0155883
0.0165717
0.0176368
0.0187736
0.0199746
0.0212344
0.0225463
0.0239052
0.0253078
0.0267516
0.0282342
0.0297538
0.0313098
0.0329024
0.0345315
0.0361969
0.0378982
0.0396351
0.0414074
0.0432153
0.045059
0.046939
0.0488561
0.0508112
0.0528043
0.0548345
0.0568995
0.0589965
0.0611212
0.0632678
0.0654282
0.0675913
0.069745
0.0718776
0.0081174
0.0095051
0.0107376
0.0118349
0.0128208
0.0137176
0.0145505
0.0153478
0.016155
0.0170737
0.0180933
0.0191981
0.0203764
0.0216184
0.0229176
0.0242668
0.0256611
0.0270967
0.0285698
0.0300761
0.0316133
0.0331818
0.0347828
0.0364157
0.038079
0.0397712
0.0414918
0.0432403
0.0450163
0.0468196
0.0486512
0.0505122
0.0524034
0.0543241
0.0562714
0.0582401
0.060226
0.0622255
0.064233
0.0662428
0.0682453
0.0702302
0.0721886
0.0089338
0.0104104
0.0117217
0.0128897
0.0139409
0.0148948
0.0157815
0.0166312
0.01748
0.0184278
0.0194828
0.0206276
0.0218482
0.0231288
0.0244631
0.0258463
0.0272738
0.0287419
0.0302439
0.0317699
0.0333183
0.034897
0.0365067
0.0381448
0.0398069
0.0414901
0.0431953
0.0449217
0.0466675
0.0484323
0.0502188
0.0520293
0.0538651
0.0557236
0.0575977
0.0594773
0.0613584
0.0632414
0.0651209
0.0669951
0.0688521
0.0706858
0.0724883
0.0096829
0.0112445
0.0126211
0.0138478
0.0149568
0.0159533
0.0168901
0.0177933
0.0186836
0.0196566
0.0207484
0.0219356
0.0232034
0.0245158
0.0258772
0.0272924
0.0287518
0.0302569
0.0317895
0.0333238
0.0348713
0.0364641
0.0380858
0.0397322
0.0413925
0.0430647
0.0447564
0.0464633
0.0481777
0.0499035
0.0516484
0.0534143
0.0552049
0.0570133
0.0588255
0.0606183
0.0623941
0.06417
0.065935
0.067688
0.0694094
0.0711068
0.072776
0.000407668
0.00170863
0.00316982
0.00469965
0.00626813
0.00785655
0.0094587
0.0110712
0.0126897
0.0143133
0.0159424
0.0175768
0.0192173
0.0208638
0.0225174
0.0241791
0.0258492
0.0275274
0.029214
0.0309093
0.0326139
0.0343274
0.0360489
0.0377788
0.0395164
0.0412616
0.0430136
0.044772
0.0465362
0.0483058
0.05008
0.0518577
0.0536382
0.0554208
0.0572048
0.0589887
0.0607721
0.0625533
0.0643313
0.0661048
0.0678727
0.0696342
0.0713959
0.000192741
0.00101761
0.00211749
0.00336561
0.00471162
0.00612833
0.00759855
0.00911058
0.0106558
0.0122294
0.0138272
0.0154462
0.0170839
0.0187381
0.020408
0.0220928
0.0237914
0.025503
0.0272267
0.0289623
0.0307095
0.0324669
0.0342344
0.0360113
0.0377972
0.0395912
0.0413926
0.043201
0.0450152
0.0468348
0.0486588
0.0504864
0.0523164
0.0541482
0.0559805
0.0578126
0.059643
0.0614708
0.0632946
0.0651133
0.0669255
0.06873
0.0705297
0.000206745
0.000868961
0.00178608
0.00284162
0.00400521
0.00525612
0.00657944
0.0079647
0.00940295
0.0108878
0.0124135
0.0139749
0.0155684
0.0171904
0.0188383
0.0205098
0.0222029
0.0239156
0.025646
0.0273932
0.0291561
0.030933
0.0327228
0.0345251
0.0363385
0.0381621
0.0399947
0.0418356
0.0436835
0.0455376
0.0473972
0.0492608
0.0511272
0.0529954
0.0548647
0.0567336
0.0586008
0.060465
0.0623252
0.0641798
0.0660276
0.0678676
0.0696996
0.000217727
0.000741624
0.00154079
0.00247321
0.00351584
0.00465094
0.00586601
0.00715112
0.00849867
0.00990203
0.0113552
0.0128535
0.0143928
0.0159697
0.0175802
0.0192221
0.0208926
0.0225888
0.0243087
0.026051
0.0278137
0.0295947
0.031393
0.033207
0.0350351
0.0368758
0.0387284
0.0405912
0.0424631
0.0443428
0.0462289
0.0481204
0.0500157
0.0519139
0.0538135
0.0557132
0.0576116
0.0595072
0.061399
0.0632851
0.0651647
0.0670362
0.0688967
0.000226047
0.000647454
0.0013648
0.00221004
0.0031637
0.00421037
0.00533884
0.0065409
0.00780966
0.00913895
0.010524
0.01196
0.0134435
0.0149706
0.0165378
0.0181426
0.0197817
0.0214526
0.023153
0.0248804
0.026633
0.0284086
0.0302051
0.0320214
0.0338552
0.0357048
0.0375689
0.0394457
0.0413341
0.043232
0.0451384
0.0470515
0.0489701
0.0508925
0.0528173
0.0547431
0.0566682
0.0585913
0.0605108
0.0624251
0.0643326
0.0662318
0.0681182
0.000229817
0.000583942
0.00124144
0.00201985
0.00290297
0.00387729
0.0049336
0.00606461
0.00726413
0.00852734
0.00984965
0.0112271
0.0126562
0.0141336
0.0156563
0.017221
0.018825
0.0204658
0.0221407
0.0238473
0.0255836
0.027347
0.0291353
0.0309471
0.0327797
0.0346316
0.0365008
0.0383856
0.0402844
0.0421952
0.0441162
0.0460459
0.0479828
0.0499249
0.0518706
0.0538185
0.0557666
0.0577136
0.0596575
0.0615965
0.0635287
0.0654522
0.0673621
0.000231197
0.000537859
0.00114665
0.00187168
0.00269756
0.00361244
0.00460827
0.00567849
0.00681828
0.00802304
0.00928888
0.0106125
0.0119905
0.0134204
0.0148989
0.0164233
0.0179909
0.0195991
0.0212455
0.0229278
0.0246434
0.02639
0.0281656
0.0299678
0.0317945
0.0336435
0.0355128
0.037401
0.0393053
0.041224
0.0431553
0.0450973
0.0470483
0.0490061
0.0509692
0.0529356
0.0549035
0.056871
0.0588363
0.0607971
0.0627517
0.0646973
0.0666283
0.000231849
0.000501167
0.00106962
0.00175088
0.00252943
0.00339451
0.00433895
0.00535725
0.00644483
0.00759786
0.00881321
0.0100878
0.0114188
0.0128037
0.0142398
0.0157249
0.017256
0.0188309
0.0204475
0.0221032
0.0237958
0.0255228
0.0272821
0.0290711
0.0308881
0.0327303
0.0345962
0.0364832
0.0383891
0.0403121
0.04225
0.0442004
0.046162
0.0481324
0.0501094
0.0520913
0.0540759
0.0560613
0.0580454
0.0600261
0.0620012
0.0639682
0.0659205
0.000232129
0.000471131
0.00100573
0.00165021
0.00238868
0.00321141
0.00411173
0.0050847
0.00612632
0.00723348
0.00840343
0.00963338
0.0109211
0.012264
0.0136602
0.0151071
0.0166027
0.0181447
0.0197308
0.0213591
0.0230271
0.0247326
0.0264731
0.0282468
0.030051
0.0318837
0.0337427
0.0356254
0.03753
0.0394537
0.0413948
0.0433509
0.0453202
0.0472999
0.0492879
0.0512825
0.0532812
0.0552821
0.057283
0.0592818
0.0612765
0.0632659
0.0652488
0.000232241
0.000446077
0.000951763
0.00156482
0.00226877
0.00305466
0.00391628
0.00484936
0.00585047
0.00691679
0.00804577
0.00923502
0.0104828
0.011787
0.0131454
0.0145562
0.0160175
0.0175272
0.0190834
0.0206837
0.0223266
0.0240092
0.0257299
0.0274862
0.0292758
0.0310964
0.0329461
0.0348222
0.0367223
0.0386445
0.040586
0.042545
0.0445189
0.0465054
0.0485021
0.050507
0.0525176
0.0545318
0.0565475
0.0585621
0.0605737
0.0625806
0.0645771
0.000232268
0.000424793
0.000905408
0.00149089
0.00216475
0.00291835
0.00374594
0.00464366
0.00560849
0.00663808
0.0077299
0.00888218
0.0100934
0.0113613
0.0126845
0.0140612
0.0154896
0.0169683
0.0184948
0.0200679
0.0216851
0.0233446
0.0250443
0.026782
0.0285553
0.0303624
0.0322009
0.0340681
0.035962
0.0378801
0.03982
0.0417794
0.0437556
0.0457468
0.0477499
0.0497628
0.0517833
0.0538089
0.055837
0.0578654
0.0598922
0.0619153
0.0639316
0.000232281
0.000406543
0.000865569
0.00142629
0.00207341
0.00279834
0.00359559
0.00446171
0.00539405
0.00639029
0.00744831
0.00856682
0.00974402
0.0109783
0.0122685
0.0136131
0.0150104
0.016459
0.0179571
0.0195031
0.0210951
0.0227311
0.0244095
0.0261278
0.0278841
0.0296763
0.0315021
0.0333589
0.0352447
0.037157
0.0390933
0.041051
0.0430279
0.0450214
0.0470289
0.0490481
0.0510763
0.0531112
0.0551502
0.0571908
0.0592302
0.061265
0.0632846
0.000232338
0.000390773
0.000830601
0.00136912
0.00199248
0.00269176
0.00346184
0.00429947
0.00520215
0.00616797
0.0071952
0.00828239
0.00942822
0.0106315
0.0118909
0.0132051
0.0145729
0.0159928
0.0174633
0.0189829
0.0205501
0.0221631
0.0238198
0.0255183
0.0272569
0.0290333
0.0308454
0.0326907
0.034567
0.0364719
0.0384027
0.0403573
0.042333
0.0443272
0.0463375
0.0483608
0.0503952
0.0524377
0.054486
0.0565374
0.0585897
0.0606411
0.0626902
0.000232451
0.000376923
0.000799492
0.001318
0.00191993
0.00259603
0.00334159
0.00415342
0.00502911
0.00596716
0.00696605
0.00802435
0.00914129
0.0103155
0.011546
0.0128317
0.0141715
0.0155639
0.017008
0.0185021
0.0200452
0.0216351
0.0232704
0.0249491
0.0266695
0.0284295
0.0302271
0.0320598
0.0339256
0.0358218
0.0377461
0.0396959
0.0416688
0.0436623
0.0456735
0.0476998
0.0497386
0.0517872
0.0538432
0.0559037
0.0579666
0.0600298
0.0620891
0.000232505
0.000364543
0.000771479
0.00127182
0.0018545
0.00250955
0.00323254
0.0040207
0.0048718
0.0057844
0.00675708
0.00778884
0.00887882
0.010026
0.0112294
0.0124882
0.0138012
0.0151678
0.0165863
0.018056
0.0195754
0.0211429
0.0227569
0.024416
0.026118
0.0278613
0.0296438
0.0314634
0.0333174
0.0352041
0.0371207
0.0390646
0.0410336
0.0430248
0.0450354
0.0470632
0.0491052
0.0511585
0.0532203
0.0552884
0.0573595
0.0594304
0.0614923
0.000232462
0.000353365
0.000746125
0.00122981
0.00179486
0.00243076
0.00313323
0.00389979
0.00472827
0.00561727
0.0065658
0.00757277
0.00863764
0.00975928
0.0109373
0.0121706
0.0134586
0.0148002
0.0161945
0.0176407
0.0191371
0.0206825
0.0222759
0.0239153
0.0255989
0.0273253
0.0290925
0.0308981
0.03274
0.0346162
0.0365241
0.0384613
0.0404253
0.0424129
0.044422
0.0464499
0.0484935
0.0505501
0.0526168
0.0546908
0.0567694
0.0588497
0.060928
0.000232382
0.000343229
0.000723036
0.00119176
0.0017403
0.00235861
0.0030422
0.00378875
0.00459632
0.00546356
0.00638956
0.00737359
0.00841487
0.00951281
0.0106668
0.0118761
0.0131401
0.014458
0.0158292
0.0172526
0.0187268
0.0202511
0.021824
0.0234439
0.0251094
0.0268189
0.0285704
0.0303618
0.0321911
0.0340562
0.0359547
0.0378842
0.0398418
0.0418253
0.0438317
0.0458585
0.0479027
0.0499613
0.0520316
0.0541105
0.056195
0.0582817
0.0603649
0.000232459
0.000334315
0.000702302
0.00115735
0.0016904
0.00229236
0.00295853
0.00368653
0.00447464
0.00532159
0.0062266
0.0071891
0.0082083
0.00928381
0.0104152
0.0116019
0.0128432
0.0141386
0.0154875
0.016889
0.0183418
0.0198455
0.0213984
0.0229992
0.0246467
0.0263393
0.0280751
0.0298521
0.0316685
0.0335221
0.0354107
0.0373315
0.0392823
0.0412605
0.0432633
0.0452881
0.0473317
0.0493913
0.0514641
0.0535469
0.0556361
0.0577287
0.059819
0.000232559
0.000326227
0.000683236
0.00112564
0.00164432
0.00223109
0.00288101
0.00359183
0.00436182
0.00518979
0.00607525
0.00701753
0.00801605
0.00907045
0.0101807
0.0113458
0.0125655
0.0138394
0.015167
0.0165473
0.0179798
0.0194633
0.0209967
0.0225789
0.0242086
0.0258844
0.0276044
0.029367
0.0311703
0.0330119
0.0348899
0.0368017
0.0387449
0.0407173
0.0427157
0.0447374
0.0467796
0.0488393
0.0509137
0.0529992
0.0550929
0.0571912
0.0592883
0.000232697
0.000319743
0.000665672
0.00109621
0.00160143
0.00217418
0.00280908
0.00350373
0.00425671
0.00506706
0.00593414
0.00685737
0.00783648
0.00887119
0.00996102
0.0111058
0.0123051
0.0135585
0.0148655
0.0162257
0.0176382
0.0191023
0.0206169
0.0221808
0.0237931
0.0254523
0.0271566
0.0289048
0.0306944
0.032524
0.0343911
0.0362934
0.0382287
0.0401943
0.0421875
0.0442055
0.0462456
0.0483046
0.0503797
0.0524677
0.0545654
0.0566698
0.0587758
0.000233295
0.000316547
0.000649551
0.00106898
0.00156168
0.00212132
0.00274206
0.00342167
0.00415885
0.00495266
0.00580237
0.00670766
0.00766835
0.00868407
0.00975473
0.0108801
0.0120599
0.0132938
0.0145814
0.015922
0.0173154
0.0187606
0.0202568
0.021803
0.0233984
0.0250411
0.02673
0.0284633
0.0302395
0.0320568
0.0339128
0.0358052
0.037732
0.0396903
0.0416777
0.0436916
0.0457285
0.0477864
0.0498615
0.0519511
0.0540523
0.0561625
0.058278
0.000234518
0.000316637
0.00063473
0.00104365
0.00152455
0.00207179
0.00267934
0.00334486
0.00406712
0.00484527
0.00567869
0.00656723
0.00751046
0.00850837
0.00956096
0.0106678
0.0118289
0.0130441
0.0143128
0.0156349
0.0170097
0.0184367
0.019915
0.0214439
0.0230223
0.024649
0.0263226
0.0280415
0.0298043
0.031609
0.0334536
0.035336
0.0372538
0.0392045
0.0411857
0.0431944
0.0452282
0.0472838
0.0493584
0.0514488
0.0535521
0.0556648
0.0577811
0.000236157
0.000318381
0.000621014
0.00101998
0.00149003
0.00202553
0.00262059
0.00327287
0.00398109
0.00474441
0.00556246
0.00643498
0.00736168
0.0083427
0.0093779
0.0104673
0.0116105
0.0128076
0.0140584
0.0153626
0.0167197
0.018129
0.0195899
0.021102
0.022664
0.0242748
0.0259333
0.027638
0.0293873
0.0311794
0.0330126
0.0348845
0.0367931
0.0387358
0.0407102
0.0427137
0.0447432
0.0467962
0.0488695
0.05096
0.0530647
0.0551813
0.0573079
0.000237927
0.000320528
0.000608429
0.000998041
0.00145787
0.00198204
0.00256536
0.00320513
0.00390001
0.00464939
0.00545281
0.00631018
0.00722127
0.00818618
0.00920486
0.0102774
0.0114037
0.0125838
0.0138172
0.015104
0.0164439
0.0178361
0.0192804
0.0207759
0.0223219
0.0239173
0.0255609
0.0272513
0.0289872
0.0307668
0.0325882
0.0344497
0.0363489
0.0382832
0.0402507
0.0422482
0.0442732
0.0463228
0.0483942
0.0504839
0.0525889
0.0547058
0.0568295
0.000239644
0.000322506
0.000596794
0.000977523
0.00142758
0.00194107
0.00251323
0.00314106
0.00382337
0.00455954
0.00534921
0.00619203
0.00708832
0.00803791
0.00904093
0.0100974
0.0112075
0.0123711
0.0135879
0.014858
0.0161812
0.0175571
0.018985
0.0204645
0.0219948
0.023575
0.0252038
0.0268804
0.028603
0.0303701
0.0321799
0.0340308
0.0359201
0.0378461
0.0398059
0.0417973
0.0438174
0.0458632
0.047932
0.0500203
0.0521252
0.054243
0.0563715
0.00024123
0.000324135
0.00058585
0.000958242
0.00139913
0.00190243
0.00246405
0.00308069
0.00375105
0.00447465
0.0052511
0.00608031
0.00696246
0.0078974
0.00888535
0.00992642
0.0110208
0.0121686
0.0133694
0.0146236
0.0159308
0.0172905
0.0187028
0.0201667
0.0216816
0.023247
0.0248615
0.0265242
0.0282336
0.0299884
0.0317866
0.0336266
0.0355062
0.0374234
0.0393756
0.0413605
0.0433751
0.0454168
0.0474827
0.0495695
0.0516743
0.0537941
0.0559282
0.000242619
0.000325356
0.000575677
0.000940108
0.00137219
0.00186584
0.00241741
0.00302339
0.00368248
0.0043941
0.00515802
0.00597428
0.00684282
0.00776376
0.0087374
0.0097637
0.0108431
0.0119756
0.0131611
0.0143998
0.0156914
0.0170358
0.0184327
0.0198814
0.0213816
0.0229323
0.0245328
0.0261818
0.0278782
0.0296205
0.0314073
0.0332365
0.0351062
0.0370145
0.0389588
0.0409369
0.0429459
0.0449832
0.0470457
0.0491307
0.0512351
0.053356
0.0554917
0.000243882
0.000326508
0.000566151
0.000922921
0.00134669
0.00183119
0.00237325
0.00296905
0.00361729
0.00431746
0.00506947
0.00587326
0.00672886
0.00763641
0.00859633
0.0096086
0.0106736
0.0117915
0.0129622
0.0141859
0.0154626
0.016792
0.0181739
0.019608
0.0210935
0.02263
0.0242167
0.0258522
0.0275358
0.029266
0.0310411
0.0328594
0.0347194
0.0366185
0.0385549
0.040526
0.042529
0.0445614
0.0466205
0.0487031
0.0508063
0.0529272
0.0550636
0.000245137
0.000327349
0.000557179
0.000906795
0.00132263
0.00179832
0.00233116
0.00291732
0.0035553
0.00424464
0.00498523
0.00577718
0.0066204
0.00751517
0.00846187
0.00946059
0.0105117
0.0116155
0.012772
0.0139813
0.0152435
0.0165584
0.0179258
0.0193454
0.0208168
0.0223395
0.0239125
0.025535
0.0272058
0.0289238
0.0306874
0.0324951
0.034345
0.0362351
0.0381632
0.0401269
0.0421238
0.0441513
0.0462062
0.048286
0.0503875
0.0525076
0.0546442
0.000246195
0.000327853
0.000548716
0.000891421
0.00129978
0.00176723
0.00229114
0.002868
0.00349627
0.00417523
0.00490491
0.00568548
0.00651678
0.00739919
0.00833316
0.00931889
0.0103568
0.011447
0.0125898
0.0137851
0.0150332
0.016334
0.0176875
0.0190932
0.0205508
0.0220598
0.0236195
0.0252289
0.0268874
0.0285933
0.0303456
0.0321426
0.0339824
0.0358633
0.037783
0.0397394
0.0417299
0.0437518
0.0458025
0.0478789
0.0499778
0.052096
0.0542307
0.000247158
0.000328373
0.000540918
0.000876876
0.00127814
0.00173778
0.00225313
0.00282108
0.00343989
0.00410892
0.00482824
0.00559776
0.00641772
0.00728831
0.00821014
0.00918336
0.0102084
0.0112856
0.012415
0.0135968
0.0148314