/*--------------------------------*- C++ -*----------------------------------*\
| =========                 |                                                 |
| \\      /  F ield         | OpenFOAM: The Open Source CFD Toolbox           |
|  \\    /   O peration     | Version:  2.3.0                                 |
|   \\  /    A nd           | Web:      www.OpenFOAM.org                      |
|    \\/     M anipulation  |                                                 |
\*---------------------------------------------------------------------------*/
FoamFile
{
    version     2.0;
    format      ascii;
    class       volScalarField;
    location    "4000";
    object      p;
}
// * * * * * * * * * * * * * * * * * * * * * * * * * * * * * * * * * * * * * //

dimensions      [0 2 -2 0 0 0 0];

internalField   nonuniform List<scalar> 
38296
(
6.83946e-05
1.19297
3.01314
4.93735
6.83906
8.73252
10.6289
12.528
14.4265
16.3236
18.2195
20.1131
22.004
23.8895
25.7703
27.6409
29.501
31.345
33.1698
34.9668
36.7304
38.4482
40.1123
41.7075
43.2132
44.6192
45.895
47.0197
47.96
48.671
49.1111
49.2156
48.9102
48.0931
46.6456
44.3918
41.1138
36.5506
30.3213
21.9373
10.3099
-7.8558
-41.8159
-1.52681
-0.427701
1.2452
3.02216
4.79104
6.56162
8.34082
10.1268
11.9216
13.7201
15.5245
17.3333
19.144
20.9583
22.7735
24.5893
26.4045
28.2179
30.0287
31.8361
33.6381
35.4295
37.208
38.9658
40.6922
42.3775
44.002
45.5442
46.9722
48.2525
49.335
50.1585
50.6463
50.7041
50.2211
49.0578
47.0429
43.9763
39.6295
33.7375
25.9737
15.777
2.09906
-3.31804
-2.311
-0.857568
0.657612
2.14763
3.62358
5.0939
6.55434
8.00748
9.44818
10.8772
12.2904
13.6862
15.0605
16.4115
17.7327
19.0221
20.273
21.481
22.6388
23.7381
24.7697
25.7235
26.587
27.344
27.9774
28.4627
28.7741
28.8799
28.7408
28.3078
27.5288
26.3308
24.6373
22.3591
19.3899
15.6076
10.89
5.10391
-1.86842
-10.1297
-19.7129
-30.4645
-4.77102
-3.95129
-2.70367
-1.40307
-0.116515
1.16041
2.43348
3.69949
4.95835
6.20953
7.45028
8.67909
9.89494
11.0934
12.2718
13.4258
14.5516
15.6443
16.6996
17.7113
18.6708
19.5706
20.4007
21.1482
21.7985
22.335
22.7353
22.9726
23.0196
22.8391
22.3882
21.6211
20.4807
18.9042
16.8222
14.1588
10.8328
6.76717
1.88796
-3.8556
-10.4918
-17.9894
-26.2486
-6.21633
-5.53482
-4.45153
-3.32069
-2.20764
-1.10488
-0.00906484
1.07633
2.1534
3.21898
4.27196
5.31071
6.33263
7.33593
8.31264
9.26
10.1736
11.0473
11.8751
12.6517
13.366
14.01
14.5742
15.047
15.4156
15.6632
15.77
15.7095
15.4555
14.9763
14.2342
13.1865
11.7887
9.98644
7.72536
4.94871
1.59643
-2.38104
-7.02382
-12.3543
-18.3534
-24.9664
-32.0825
-7.45525
-6.9759
-6.04217
-5.05895
-4.08855
-3.12923
-2.17118
-1.23062
-0.29092
0.631999
1.54502
2.44532
3.33255
4.20581
5.05501
5.86845
6.65104
7.39513
8.09107
8.74257
9.33438
9.85126
10.2829
10.6234
10.861
10.9849
10.9742
10.8026
10.4409
9.86877
9.05016
7.94419
6.5092
4.70894
2.49062
-0.184377
-3.36816
-7.09312
-11.3853
-16.2588
-21.6808
-27.5952
-33.9177
-8.50554
-8.33656
-7.51477
-6.64841
-5.78898
-4.9417
-4.09588
-3.28756
-2.45071
-1.64201
-0.845654
-0.0642434
0.708845
1.48581
2.25389
2.96941
3.65294
4.29573
4.87017
5.41134
5.90444
6.32521
6.64304
6.86685
6.97901
6.98999
6.87675
6.61405
6.14888
5.49319
4.60859
3.45475
1.97673
0.172996
-2.0287
-4.62965
-7.70015
-11.2509
-15.2921
-19.8561
-24.9121
-30.3628
-36.1813
-9.15724
-9.44096
-8.81602
-8.08729
-7.34845
-6.56032
-5.77834
-5.12667
-4.3832
-3.66679
-2.94724
-2.28138
-1.65111
-0.985783
-0.279969
0.366967
1.00195
1.62214
2.12141
2.58358
3.00965
3.39461
3.6523
3.8126
3.8293
3.75516
3.57245
3.28428
2.74689
2.03796
1.12895
-0.0210067
-1.51795
-3.28342
-5.46631
-7.96718
-10.9314
-14.3049
-18.0725
-22.3245
-27.1867
-32.3222
-37.8315
-9.4901
-9.91346
-9.63905
-9.19962
-8.76504
-8.29922
-7.22164
-6.79766
-6.26244
-5.75125
-5.07806
-4.47909
-4.12345
-3.78822
-3.31528
-2.96791
-2.62781
-2.07625
-1.68706
-1.29713
-0.939285
-0.536343
-0.357991
-0.185638
-0.274757
-0.420134
-0.594405
-0.69609
-1.21891
-1.84172
-2.61134
-3.55905
-4.98467
-6.50796
-8.55211
-10.7463
-13.5228
-16.5837
-20.0069
-24.2613
-28.9347
-33.6179
-38.8665
-106.768
-118.473
-119.942
-127.546
-136.034
-141.969
-146.208
-149.591
-152.375
-154.621
-156.414
-157.859
-159.02
-159.951
-160.683
-161.259
-161.693
-161.996
-162.21
-162.331
-162.388
-162.381
-162.321
-162.228
-162.099
-161.952
-161.78
-161.594
-161.399
-161.197
-160.997
-160.795
-160.598
-160.405
-160.218
-160.039
-159.867
-159.702
-159.547
-159.401
-159.266
-159.148
-159.178
-17.5187
-38.5408
-56.7375
-72.3403
-85.6549
-96.7994
-106.086
-113.833
-120.281
-125.607
-130
-133.617
-136.587
-139.032
-141.045
-142.709
-144.103
-145.285
-146.293
-147.162
-147.933
-148.619
-149.241
-149.811
-150.338
-150.833
-151.292
-151.728
-152.135
-152.518
-152.877
-153.211
-153.523
-153.812
-154.077
-154.322
-154.548
-154.753
-154.943
-155.117
-155.275
-155.41
-155.592
-41.9768
-53.3638
-63.8791
-73.4301
-82.0914
-89.8605
-96.7719
-102.866
-108.245
-112.969
-117.125
-120.783
-124.019
-126.875
-129.42
-131.692
-133.718
-135.541
-137.185
-138.668
-140.01
-141.225
-142.332
-143.335
-144.25
-145.085
-145.843
-146.538
-147.174
-147.758
-148.298
-148.791
-149.253
-149.678
-150.074
-150.445
-150.792
-151.118
-151.426
-151.716
-151.991
-152.247
-152.533
-35.0892
-44.2068
-53.276
-62.036
-70.3314
-78.0366
-85.1091
-91.5315
-97.3314
-102.54
-107.197
-111.35
-115.063
-118.374
-121.333
-123.976
-126.351
-128.484
-130.409
-132.153
-133.733
-135.174
-136.494
-137.703
-138.816
-139.841
-140.792
-141.674
-142.497
-143.26
-143.975
-144.639
-145.263
-145.848
-146.394
-146.906
-147.388
-147.842
-148.271
-148.675
-149.055
-149.418
-149.773
-39.5484
-47.1948
-54.8391
-62.2982
-69.4343
-76.1581
-82.421
-88.1948
-93.4735
-98.2901
-102.664
-106.623
-110.213
-113.459
-116.413
-119.085
-121.523
-123.744
-125.775
-127.64
-129.349
-130.918
-132.363
-133.697
-134.933
-136.076
-137.142
-138.129
-139.051
-139.907
-140.71
-141.459
-142.16
-142.819
-143.438
-144.02
-144.571
-145.095
-145.591
-146.061
-146.509
-146.954
-147.335
-40.5301
-47.3197
-54.1528
-60.8826
-67.4017
-73.6126
-79.4724
-84.9364
-89.9965
-94.6558
-98.9302
-102.839
-106.417
-109.686
-112.674
-115.4
-117.895
-120.192
-122.301
-124.231
-126.004
-127.642
-129.153
-130.556
-131.854
-133.062
-134.187
-135.235
-136.216
-137.131
-137.985
-138.789
-139.544
-140.251
-140.919
-141.547
-142.147
-142.724
-143.262
-143.774
-144.258
-144.732
-144.982
-42.2248
-48.4325
-54.7054
-60.8862
-66.9181
-72.6826
-78.1686
-83.2825
-88.0601
-92.5032
-96.6255
-100.423
-103.932
-107.145
-110.076
-112.789
-115.279
-117.584
-119.694
-121.62
-123.415
-125.078
-126.624
-128.076
-129.407
-130.657
-131.814
-132.892
-133.901
-134.848
-135.728
-136.567
-137.359
-138.094
-138.795
-139.444
-140.067
-140.683
-141.244
-141.788
-142.295
-142.781
-142.962
-43.4416
-49.2295
-55.0912
-60.8911
-66.5547
-71.93
-77.1101
-82.0162
-86.6095
-90.9322
-94.9537
-98.6248
-102.015
-105.163
-108.077
-110.761
-113.196
-115.479
-117.614
-119.547
-121.388
-123.075
-124.654
-126.132
-127.441
-128.703
-129.873
-130.978
-132.018
-132.988
-133.869
-134.739
-135.568
-136.281
-136.986
-137.645
-138.292
-138.919
-139.464
-140.035
-140.56
-141.032
-141.258
-43.9243
-49.346
-54.8787
-60.3878
-65.7442
-70.911
-76.8157
-81.5215
-86.5933
-90.8949
-94.6423
-97.9237
-101.097
-104.443
-107.466
-109.952
-111.886
-114.661
-117.039
-118.968
-120.826
-122.463
-123.969
-125.324
-126.415
-127.658
-128.818
-129.953
-130.99
-131.896
-132.67
-133.557
-134.316
-134.802
-135.43
-136.076
-136.975
-137.608
-137.926
-138.535
-139.024
-139.361
-139.542
-113.566
-113.561
-113.571
-113.575
-113.575
-113.571
-113.564
-113.552
-113.534
-113.51
-113.478
-113.438
-113.387
-113.324
-113.248
-113.157
-113.048
-112.923
-112.78
-112.621
-112.449
-112.264
-112.073
-111.879
-111.688
-111.505
-111.336
-111.188
-111.065
-110.975
-110.921
-110.91
-110.946
-111.033
-111.174
-111.372
-111.63
-111.949
-112.331
-112.772
-113.263
-113.911
-115.409
-112.921
-112.881
-112.864
-112.845
-112.824
-112.802
-112.778
-112.753
-112.727
-112.701
-112.676
-112.651
-112.628
-112.607
-112.589
-112.574
-112.562
-112.553
-112.548
-112.543
-112.541
-112.538
-112.534
-112.529
-112.521
-112.51
-112.495
-112.474
-112.449
-112.418
-112.383
-112.344
-112.3
-112.253
-112.204
-112.152
-112.097
-112.038
-111.975
-111.911
-111.883
-112.074
-113.258
-112.297
-112.265
-112.236
-112.203
-112.168
-112.132
-112.095
-112.057
-112.018
-111.979
-111.94
-111.902
-111.865
-111.829
-111.796
-111.765
-111.737
-111.713
-111.69
-111.671
-111.654
-111.637
-111.621
-111.605
-111.587
-111.567
-111.543
-111.515
-111.481
-111.439
-111.389
-111.329
-111.258
-111.175
-111.078
-110.966
-110.839
-110.695
-110.537
-110.383
-110.327
-110.763
-112.306
-111.743
-111.712
-111.676
-111.635
-111.591
-111.545
-111.497
-111.446
-111.393
-111.339
-111.282
-111.222
-111.161
-111.098
-111.034
-110.967
-110.9
-110.831
-110.761
-110.69
-110.618
-110.546
-110.473
-110.399
-110.324
-110.25
-110.175
-110.099
-110.022
-109.945
-109.867
-109.784
-109.698
-109.607
-109.51
-109.407
-109.298
-109.183
-109.07
-108.991
-109.087
-109.872
-111.555
-111.268
-111.222
-111.177
-111.129
-111.079
-111.026
-110.97
-110.912
-110.851
-110.788
-110.723
-110.655
-110.585
-110.512
-110.437
-110.36
-110.28
-110.198
-110.114
-110.028
-109.938
-109.847
-109.753
-109.656
-109.557
-109.456
-109.353
-109.249
-109.145
-109.039
-108.932
-108.826
-108.717
-108.606
-108.491
-108.373
-108.254
-108.136
-108.029
-107.98
-108.183
-109.181
-110.807
-110.842
-110.784
-110.733
-110.68
-110.625
-110.566
-110.506
-110.443
-110.377
-110.31
-110.239
-110.166
-110.09
-110.012
-109.931
-109.847
-109.761
-109.672
-109.581
-109.486
-109.388
-109.288
-109.183
-109.074
-108.961
-108.844
-108.723
-108.599
-108.474
-108.348
-108.223
-108.098
-107.974
-107.847
-107.716
-107.58
-107.443
-107.309
-107.192
-107.157
-107.451
-108.57
-110.12
-110.454
-110.39
-110.336
-110.281
-110.222
-110.159
-110.096
-110.029
-109.959
-109.888
-109.814
-109.737
-109.655
-109.57
-109.482
-109.391
-109.296
-109.198
-109.098
-108.993
-108.885
-108.773
-108.657
-108.536
-108.409
-108.275
-108.135
-107.989
-107.843
-107.697
-107.551
-107.408
-107.277
-107.149
-107.014
-106.872
-106.724
-106.585
-106.474
-106.451
-106.813
-107.974
-109.47
-110.098
-110.035
-109.981
-109.924
-109.866
-109.799
-109.734
-109.664
-109.589
-109.518
-109.442
-109.363
-109.277
-109.186
-109.093
-108.998
-108.896
-108.79
-108.683
-108.573
-108.455
-108.333
-108.21
-108.081
-107.945
-107.8
-107.644
-107.478
-107.307
-107.132
-106.96
-106.793
-106.645
-106.517
-106.367
-106.208
-106.033
-105.877
-105.772
-105.783
-106.215
-107.391
-108.831
-109.787
-109.718
-109.66
-109.604
-109.552
-109.474
-109.414
-109.345
-109.258
-109.187
-109.113
-109.035
-108.951
-108.848
-108.748
-108.652
-108.548
-108.425
-108.31
-108.199
-108.076
-107.933
-107.802
-107.665
-107.526
-107.368
-107.202
-107
-106.823
-106.652
-106.42
-106.16
-106.056
-106.025
-105.926
-105.796
-105.577
-105.421
-105.4
-105.397
-105.775
-106.675
-108.087
-119.023
-120.522
-120.996
-121.22
-121.36
-121.424
-121.427
-121.394
-121.342
-121.28
-121.212
-121.14
-121.065
-120.989
-120.912
-120.835
-120.758
-120.682
-120.607
-120.534
-120.464
-120.399
-120.34
-120.286
-120.242
-120.206
-120.181
-120.168
-120.169
-120.184
-120.215
-120.264
-120.331
-120.419
-120.528
-120.659
-120.814
-120.994
-121.199
-121.43
-121.687
-121.97
-122.253
-115.729
-117.585
-118.835
-119.6
-120.051
-120.307
-120.447
-120.515
-120.537
-120.531
-120.511
-120.484
-120.456
-120.429
-120.407
-120.391
-120.381
-120.377
-120.381
-120.392
-120.409
-120.433
-120.462
-120.496
-120.535
-120.578
-120.623
-120.672
-120.723
-120.776
-120.832
-120.889
-120.948
-121.012
-121.077
-121.148
-121.223
-121.304
-121.392
-121.486
-121.589
-121.701
-121.817
-114.24
-115.946
-117.285
-118.239
-118.886
-119.314
-119.587
-119.753
-119.848
-119.897
-119.916
-119.916
-119.904
-119.886
-119.866
-119.845
-119.827
-119.811
-119.799
-119.791
-119.788
-119.789
-119.797
-119.81
-119.829
-119.854
-119.884
-119.922
-119.966
-120.016
-120.074
-120.138
-120.209
-120.288
-120.373
-120.465
-120.563
-120.665
-120.772
-120.882
-120.995
-121.111
-121.218
-113.263
-114.796
-116.066
-117.042
-117.76
-118.271
-118.624
-118.863
-119.019
-119.119
-119.182
-119.218
-119.238
-119.247
-119.251
-119.251
-119.251
-119.253
-119.256
-119.264
-119.274
-119.289
-119.307
-119.33
-119.356
-119.387
-119.422
-119.462
-119.507
-119.555
-119.609
-119.67
-119.734
-119.807
-119.885
-119.971
-120.061
-120.158
-120.259
-120.365
-120.477
-120.6
-120.724
-112.403
-113.859
-115.093
-116.079
-116.832
-117.389
-117.795
-118.084
-118.285
-118.426
-118.523
-118.59
-118.635
-118.665
-118.687
-118.702
-118.716
-118.729
-118.743
-118.76
-118.778
-118.8
-118.823
-118.85
-118.879
-118.913
-118.951
-118.994
-119.041
-119.091
-119.147
-119.208
-119.273
-119.348
-119.431
-119.519
-119.607
-119.702
-119.801
-119.899
-120.001
-120.113
-120.224
-111.644
-113.054
-114.268
-115.266
-116.041
-116.624
-117.068
-117.395
-117.628
-117.8
-117.926
-118.016
-118.082
-118.131
-118.168
-118.198
-118.224
-118.248
-118.275
-118.303
-118.33
-118.358
-118.385
-118.414
-118.446
-118.482
-118.522
-118.566
-118.614
-118.665
-118.725
-118.786
-118.852
-118.929
-119.022
-119.109
-119.193
-119.286
-119.384
-119.472
-119.564
-119.675
-119.803
-110.985
-112.412
-113.626
-114.641
-115.419
-115.997
-116.465
-116.81
-117.051
-117.243
-117.386
-117.486
-117.564
-117.62
-117.665
-117.704
-117.736
-117.77
-117.81
-117.857
-117.887
-117.919
-117.947
-117.978
-118.016
-118.059
-118.111
-118.167
-118.223
-118.282
-118.349
-118.4
-118.458
-118.541
-118.659
-118.745
-118.816
-118.913
-119.012
-119.077
-119.152
-119.266
-119.421
-110.272
-111.719
-112.914
-114.004
-114.781
-115.347
-115.906
-116.269
-116.514
-116.769
-116.946
-117.065
-117.176
-117.245
-117.312
-117.379
-117.43
-117.505
-117.582
-117.649
-117.659
-117.701
-117.723
-117.755
-117.797
-117.838
-117.898
-117.933
-117.956
-117.973
-118.01
-118.007
-118.064
-118.205
-118.398
-118.427
-118.44
-118.575
-118.698
-118.701
-118.741
-118.896
-119.189
-110.241
-112.576
-114.124
-115.152
-115.82
-115.833
-116.326
-116.55
-116.479
-116.633
-116.674
-116.58
-116.59
-116.542
-116.525
-116.512
-116.459
-116.472
-116.45
-116.42
-116.336
-116.388
-116.327
-116.331
-116.364
-116.418
-116.499
-116.507
-116.57
-116.723
-116.98
-117.15
-117.503
-117.912
-118.175
-117.814
-117.858
-118.376
-118.546
-118.316
-118.27
-118.649
-119.329
191.041
186.424
178.49
169.986
161.302
152.358
143.371
134.651
126.346
118.527
111.245
104.478
98.2301
92.4499
87.1063
82.148
77.5318
73.2206
69.1648
65.3348
61.6916
58.2099
54.863
51.6315
48.4976
45.4475
42.4713
39.5561
36.7018
33.8932
31.1371
28.4214
25.7489
23.1132
20.5181
17.9568
15.4293
12.9368
10.4798
8.04858
5.62271
3.32998
1.78765
129.553
128.231
124.386
120.222
116.16
112.185
108.263
104.402
100.604
96.8582
93.1725
89.5293
85.9434
82.4068
78.9193
75.4897
72.1146
68.8004
65.552
62.358
59.2312
56.1667
53.1636
50.2202
47.3335
44.502
41.7211
38.9885
36.3024
33.6538
31.0469
28.4758
25.94
23.4339
20.9591
18.5134
16.0952
13.704
11.3398
8.99934
6.65991
4.40621
2.73314
126.368
125.952
124.713
123.061
120.969
118.479
115.645
112.526
109.174
105.637
101.962
98.1878
94.356
90.5
86.6436
82.8105
79.0218
75.2869
71.6233
68.028
64.5167
61.082
57.7277
54.451
51.2504
48.1261
45.0673
42.0779
39.1524
36.2852
33.4744
30.7174
28.0102
25.3511
22.7353
20.163
17.6297
15.1358
12.6766
10.2517
7.84896
5.49732
3.28577
118.476
117.447
115.928
114.169
112.207
110.053
107.722
105.234
102.607
99.8576
97.0018
94.0533
91.0266
87.9366
84.7961
81.6143
78.4101
75.1898
71.965
68.7416
65.5325
62.3448
59.1797
56.0474
52.9482
49.8879
46.8668
43.8882
40.9515
38.0588
35.2066
32.399
29.6335
26.9086
24.2234
21.5784
18.9714
16.4008
13.8668
11.3681
8.90475
6.45511
3.90802
104.971
104.516
103.894
103.058
102.018
100.78
99.3518
97.741
95.9569
94.0071
91.9042
89.6584
87.2829
84.7926
82.1992
79.5168
76.7599
73.9413
71.0747
68.1692
65.2363
62.2896
59.331
56.3735
53.426
50.4872
47.5666
44.6673
41.7909
38.9435
36.1255
33.3353
30.5787
27.8541
25.1612
22.5017
19.8762
17.2809
14.7198
12.1921
9.7076
7.22064
4.49343
95.4183
95.2209
94.8962
94.3789
93.6964
92.8501
91.8434
90.6783
89.358
87.8871
86.2716
84.5175
82.6322
80.6239
78.5005
76.2723
73.9474
71.5353
69.0487
66.4948
63.8837
61.2291
58.5328
55.808
53.0617
50.3025
47.5351
44.7659
42.0021
39.2442
36.5015
33.7713
31.0618
28.3737
25.7064
23.0642
20.4482
17.8563
15.2917
12.758
10.2645
7.76031
4.95578
87.7681
87.6171
87.3269
86.8906
86.3381
85.6684
84.8803
83.9708
82.9401
81.7871
80.5113
79.1158
77.6003
75.9697
74.2266
72.3759
70.4239
68.3755
66.2377
64.0193
61.7244
59.3655
56.9457
54.4781
51.9641
49.4169
46.8391
44.2395
41.6246
38.9993
36.3697
33.739
31.1116
28.4933
25.8849
23.2898
20.7113
18.1496
15.6069
13.0871
10.6029
8.10417
5.29438
80.5366
80.4296
80.2095
79.8795
79.4583
78.9434
78.3323
77.6237
76.8135
75.9003
74.8821
73.7585
72.5281
71.1923
69.7511
68.207
66.5623
64.8203
62.9845
61.0621
59.0556
56.9722
54.8167
52.5967
50.3191
47.9901
45.6147
43.2026
40.757
38.2851
35.7936
33.2861
30.7682
28.2453
25.7203
23.1969
20.6802
18.1693
15.6712
13.1847
10.7232
8.23175
5.42989
73.8672
73.8075
73.6545
73.4116
73.0921
72.6953
72.2182
71.6583
71.0128
70.2791
69.4556
68.5396
67.53
66.4249
65.2244
63.9278
62.5363
61.0516
59.4742
57.8079
56.0556
54.2219
52.31
50.3249
48.2726
46.1566
43.9853
41.762
39.4947
37.1862
34.8466
32.4765
30.084
27.6743
25.2506
22.8176
20.3819
17.9425
15.5076
13.0822
10.6832
8.265
5.56511
67.8345
67.8006
67.6854
67.4942
67.2411
66.9236
66.5393
66.0854
65.5598
64.9595
64.2821
63.5242
62.6847
61.7608
60.751
59.6539
58.469
57.1965
55.8368
54.3899
52.8588
51.2449
49.5502
47.7795
45.9366
44.0223
42.0465
40.009
37.9184
35.7771
33.5925
31.368
29.1103
26.8239
24.514
22.1835
19.8403
17.4844
15.1218
12.7575
10.4104
8.0459
5.21837
62.2596
62.2449
62.1575
62.0053
61.8013
61.5436
61.2289
60.856
60.4217
59.9241
59.3595
58.7252
58.0197
57.2394
56.3825
55.4472
54.4317
53.3354
52.1574
50.8971
49.5558
48.1334
46.6319
45.0523
43.3992
41.6722
39.8778
38.0181
36.0967
34.1198
32.09
30.0133
27.8935
25.736
23.5463
21.3268
19.0856
16.8242
14.5498
12.2696
10.0037
7.73152
5.27327
57.0403
57.0433
56.9798
56.8617
56.6984
56.4895
56.2316
55.9231
55.5622
55.1462
54.6716
54.137
53.5389
52.8747
52.1422
51.3396
50.4639
49.5147
48.4893
47.3879
46.2092
44.9529
43.6206
42.2115
40.728
39.1715
37.5446
35.8497
34.0893
32.2684
30.3893
28.4569
26.4745
24.4475
22.38
20.2761
18.1404
15.9769
13.7895
11.5821
9.367
7.09899
4.4125
52.1583
52.1738
52.1275
52.0343
51.9028
51.7316
51.5182
51.2614
50.9587
50.6078
50.2063
49.7513
49.2406
48.6713
48.0414
47.348
46.5891
45.7627
44.8666
43.8996
42.861
41.749
40.5639
39.3051
37.9736
36.5702
35.0958
33.5532
31.9426
30.2688
28.5332
26.7397
24.8923
22.9937
21.049
19.0614
17.0358
14.975
12.8839
10.7703
8.64642
6.46619
3.89824
47.5545
47.58
47.5484
47.4767
47.3714
47.2312
47.0547
46.8396
46.5842
46.2866
45.9446
45.5551
45.1167
44.6263
44.0813
43.4794
42.8183
42.0954
41.3093
40.4574
39.5391
38.5522
37.4961
36.3697
35.1733
33.9067
32.5709
31.1664
29.6947
28.1577
26.5574
24.8959
23.1776
21.4039
19.5802
17.7072
15.7928
13.8373
11.8458
9.82572
7.7954
5.72148
3.26868
43.197
43.2303
43.21
43.1556
43.0719
42.9574
42.8108
42.6307
42.4148
42.162
41.8694
41.5352
41.157
40.7325
40.2589
39.7342
39.1557
38.5213
37.8288
37.0761
36.2619
35.3835
34.4401
33.4307
32.3543
31.21
29.9992
28.7206
27.3757
25.9648
24.4913
22.9544
21.3583
19.7047
17.997
16.2373
14.431
12.5788
10.6856
8.75446
6.80075
4.79541
2.40026
39.0478
39.0882
39.0788
39.0403
38.9754
38.883
38.7619
38.6117
38.4298
38.2144
37.9641
37.6763
37.3496
36.9807
36.5682
36.1092
35.6016
35.043
34.4312
33.7645
33.0403
32.2567
31.4128
30.5062
29.5363
28.5019
27.4029
26.2389
25.0093
23.7152
22.3581
20.9379
19.4576
17.9181
16.3218
14.6717
12.971
11.2226
9.42974
7.59809
5.74385
3.84876
1.65242
35.087
35.1351
35.1351
35.1098
35.0616
34.9887
34.8903
34.7655
34.6126
34.4298
34.2153
33.9676
33.6843
33.3635
33.0031
32.6005
32.1538
31.6608
31.1193
30.5272
29.8817
29.1813
28.4247
27.6094
26.734
25.7981
24.7998
23.7391
22.615
21.4281
20.1787
18.8669
17.4944
16.0623
14.5724
13.0271
11.4288
9.77953
8.08354
6.34481
4.57666
2.76728
0.685831
31.2894
31.3458
31.3558
31.3435
31.3103
31.2548
31.1761
31.0739
30.9463
30.7917
30.6086
30.3957
30.1505
29.8713
29.5561
29.2029
28.8091
28.3732
27.8928
27.3659
26.7896
26.1629
25.4831
24.7487
23.9579
23.1099
22.2027
21.2352
20.2075
19.1184
17.9684
16.7572
15.4852
14.1541
12.7649
11.3183
9.81795
8.26419
6.66082
5.01185
3.32812
1.60053
-0.37135
27.6751
27.7321
27.7456
27.7415
27.7187
27.6764
27.6135
27.5297
27.4233
27.2923
27.1362
26.9528
26.7403
26.4969
26.2214
25.9109
25.5635
25.1775
24.7507
24.2809
23.7661
23.2041
22.5928
21.9305
21.2153
20.446
19.6209
18.7382
17.798
16.7982
15.7398
14.6213
13.4433
12.2066
10.9118
9.55959
8.15196
6.68991
5.17547
3.61164
2.00771
0.349524
-1.57208
24.1734
24.239
24.2618
24.2682
24.257
24.2279
24.1805
24.1137
24.0261
23.9168
23.7845
23.6273
23.4438
23.2326
22.9915
22.7187
22.4122
22.0702
21.6906
21.2715
20.8108
20.3065
19.7565
19.1586
18.5113
17.8129
17.0616
16.2564
15.3954
14.4778
13.5032
12.4708
11.38
10.2315
9.02538
7.76198
6.4429
5.06835
3.64092
2.16122
0.639809
-0.940148
-2.80895
20.8101
20.882
20.9101
20.9236
20.9217
20.9044
20.8697
20.8176
20.747
20.6569
20.5453
20.4113
20.2536
20.0702
19.8597
19.6203
19.3502
19.0473
18.71
18.3358
17.9235
17.4705
16.975
16.4351
15.8491
15.2148
14.5304
13.795
13.0065
12.1643
11.2668
10.3136
9.3041
8.23777
7.11487
5.93581
4.70082
3.41068
2.06691
0.670882
-0.765836
-2.25345
-4.04002
17.5661
17.6444
17.6774
17.6978
17.704
17.696
17.6728
17.6338
17.5781
17.5045
17.4114
17.2981
17.1626
17.0039
16.8208
16.6109
16.3729
16.105
15.8051
15.4716
15.1024
14.6955
14.249
13.7613
13.2303
12.6541
12.0309
11.3588
10.6369
9.86332
9.03726
8.1573
7.22293
6.23349
5.18845
4.08854
2.9332
1.72323
0.459102
-0.858718
-2.21899
-3.62014
-5.32318
14.4289
14.5124
14.5497
14.5763
14.5902
14.5915
14.5785
14.5512
14.5089
14.45
14.3737
14.2789
14.1638
14.0277
13.8688
13.6857
13.4764
13.2395
12.9734
12.6761
12.3458
11.9805
11.5783
11.1376
10.6565
10.1328
9.56508
8.95117
8.29014
7.5797
6.81929
6.00707
5.14248
4.22469
3.25284
2.22729
1.14763
0.0140703
-1.17275
-2.41213
-3.69579
-5.01294
-6.50947
11.3916
11.4786
11.5192
11.552
11.5734
11.5825
11.5792
11.5629
11.5324
11.4872
11.4259
11.3476
11.2509
11.1347
10.9977
10.8385
10.6553
10.4468
10.211
9.94642
9.65131
9.32359
8.96181
8.56384
8.12804
7.65234
7.13509
6.57432
5.96897
5.31669
4.61672
3.86729
3.0677
2.21647
1.31313
0.357421
-0.650988
-1.71253
-2.82683
-3.99478
-5.21405
-6.47467
-7.84996
8.44785
8.53688
8.5808
8.61902
8.64638
8.66313
8.66858
8.66178
8.64242
8.60936
8.56199
8.49848
8.4187
8.32077
8.20369
8.06604
7.90659
7.72372
7.51528
7.28031
7.01698
6.72356
6.3983
6.03915
5.64457
5.21271
4.74172
4.22988
3.67565
3.07696
2.43273
1.7415
1.0019
0.212948
-0.62619
-1.51645
-2.45728
-3.44993
-4.49305
-5.58723
-6.73018
-7.90318
-9.04729
5.58779
5.67805
5.7251
5.76866
5.80242
5.82614
5.83956
5.84198
5.83265
5.81113
5.77597
5.72646
5.6619
5.58066
5.48171
5.36371
5.22567
5.06597
4.88269
4.67484
4.44066
4.17824
3.88639
3.56279
3.20584
2.81411
2.38555
1.91856
1.4113
0.862299
0.269641
-0.367656
-1.05151
-1.78252
-2.56187
-3.39032
-4.26814
-5.19552
-6.17123
-7.19464
-8.26349
-9.36405
-10.3606
2.80989
2.89986
2.95054
2.99923
3.0379
3.06805
3.08894
3.09964
3.09953
3.08806
3.06431
3.02771
2.97685
2.91062
2.82823
2.72812
2.6095
2.47101
2.31067
2.12751
1.91968
1.68589
1.42447
1.13339
0.81127
0.456435
0.066981
-0.358989
-0.822892
-1.32623
-1.87099
-2.45849
-3.09034
-3.76745
-4.49128
-5.26228
-6.08169
-6.94958
-7.8657
-8.83055
-9.84632
-10.9148
-11.9466
0.0976806
0.191833
0.246923
0.300084
0.344566
0.381347
0.409252
0.427864
0.436475
0.434456
0.421511
0.396478
0.358306
0.306098
0.238992
0.155499
0.054775
-0.0643556
-0.203632
-0.364292
-0.547643
-0.755338
-0.988865
-1.25
-1.54033
-1.86122
-2.21464
-2.60249
-3.02618
-3.48738
-3.98788
-4.52917
-5.11256
-5.73962
-6.41138
-7.12899
-7.89357
-8.70567
-9.56551
-10.4739
-11.4339
-12.4492
-13.4448
-2.517
-2.42702
-2.37356
-2.31877
-2.27159
-2.23104
-2.19805
-2.17331
-2.15761
-2.1513
-2.15512
-2.16958
-2.19633
-2.23593
-2.28906
-2.35743
-2.44172
-2.543
-2.66293
-2.80266
-2.96369
-3.14739
-3.35513
-3.58868
-3.84954
-4.13918
-4.45955
-4.81218
-5.19864
-5.62069
-6.08009
-6.57823
-7.11649
-7.6968
-8.31992
-8.98746
-9.70013
-10.459
-11.2643
-12.1164
-13.0171
-13.968
-14.8928
-5.09051
-4.99922
-4.94067
-4.88116
-4.82915
-4.78338
-4.74437
-4.71297
-4.68968
-4.67534
-4.67024
-4.6749
-4.69081
-4.71874
-4.75918
-4.81352
-4.88254
-4.96742
-5.06956
-5.19009
-5.33044
-5.49193
-5.67599
-5.88407
-6.11761
-6.3783
-6.66793
-6.98802
-7.34004
-7.72578
-8.14671
-8.60461
-9.10102
-9.63743
-10.2151
-10.8354
-11.4995
-12.2085
-12.9631
-13.7639
-14.6133
-15.5165
-16.4151
-7.61331
-7.51722
-7.45452
-7.38981
-7.33202
-7.28005
-7.23467
-7.19626
-7.16545
-7.14307
-7.1289
-7.12436
-7.1301
-7.14695
-7.17529
-7.21639
-7.27112
-7.34067
-7.4263
-7.52921
-7.65034
-7.79117
-7.95296
-8.13742
-8.3458
-8.57978
-8.84084
-9.13039
-9.45031
-9.8021
-10.1873
-10.6077
-11.0649
-11.5602
-12.0951
-12.671
-13.2893
-13.9515
-14.658
-15.4105
-16.2112
-17.0682
-17.9399
-10.0424
-9.95096
-9.88928
-9.82412
-9.76483
-9.70995
-9.6607
-9.61756
-9.5812
-9.55188
-9.53066
-9.51785
-9.51454
-9.52096
-9.53838
-9.56739
-9.60913
-9.6646
-9.73518
-9.8213
-9.92469
-10.0464
-10.1877
-10.3502
-10.5351
-10.7441
-10.9784
-11.2398
-11.5297
-11.8499
-12.2018
-12.587
-13.0073
-13.4639
-13.9584
-14.4925
-15.0675
-15.6848
-16.3454
-17.0511
-17.8039
-18.6138
-19.4637
-12.4504
-12.353
-12.2857
-12.2154
-12.1511
-12.0912
-12.0366
-11.9876
-11.9452
-11.9093
-11.8806
-11.8602
-11.8478
-11.8449
-11.8519
-11.8697
-11.8992
-11.9418
-11.9979
-12.0686
-12.1555
-12.2593
-12.3817
-12.5236
-12.6868
-12.8723
-13.0817
-13.3167
-13.5787
-13.8693
-14.1898
-14.5422
-14.9277
-15.3479
-15.8045
-16.2989
-16.8325
-17.4069
-18.0231
-18.6826
-19.3869
-20.1443
-20.9457
-14.7792
-14.6846
-14.618
-14.547
-14.4806
-14.4177
-14.3591
-14.3059
-14.2582
-14.2163
-14.1811
-14.1532
-14.1328
-14.1209
-14.1184
-14.1256
-14.144
-14.1739
-14.2165
-14.2729
-14.3441
-14.4316
-14.5361
-14.659
-14.8018
-14.9655
-15.1516
-15.3619
-15.5977
-15.8603
-16.1516
-16.4729
-16.8258
-17.2117
-17.6324
-18.0892
-18.5835
-19.1167
-19.6898
-20.3039
-20.9595
-21.6603
-22.3892
-17.0791
-16.9822
-16.9115
-16.8356
-16.7651
-16.698
-16.6351
-16.577
-16.5237
-16.4759
-16.4343
-16.3994
-16.3714
-16.3512
-16.3394
-16.337
-16.3446
-16.3629
-16.3932
-16.4362
-16.4929
-16.5647
-16.6525
-16.7575
-16.881
-17.0244
-17.1888
-17.376
-17.5869
-17.8235
-18.0872
-18.3794
-18.7015
-19.0551
-19.4419
-19.863
-20.3201
-20.8145
-21.3471
-21.9194
-22.5304
-23.1806
-23.8934
-19.3372
-19.2351
-19.1605
-19.081
-19.0064
-18.9348
-18.8672
-18.8037
-18.745
-18.6915
-18.6435
-18.6016
-18.5663
-18.538
-18.5176
-18.5059
-18.5033
-18.5107
-18.5292
-18.5595
-18.6029
-18.66
-18.7321
-18.8203
-18.9259
-19.05
-19.194
-19.3593
-19.5472
-19.7593
-19.9969
-20.2614
-20.5546
-20.8779
-21.2326
-21.6201
-22.042
-22.4995
-22.9932
-23.5243
-24.0926
-24.6957
-25.2871
-21.5172
-21.4187
-21.3472
-21.2677
-21.1924
-21.1192
-21.0487
-20.9821
-20.9194
-20.8612
-20.8078
-20.76
-20.7178
-20.6825
-20.6543
-20.6338
-20.6217
-20.6189
-20.6263
-20.6449
-20.6756
-20.7189
-20.7761
-20.8485
-20.9373
-21.0433
-21.1682
-21.3129
-21.4791
-21.6681
-21.8811
-22.1196
-22.3854
-22.6799
-23.0042
-23.3603
-23.7492
-24.1722
-24.6305
-25.1252
-25.6584
-26.2332
-26.806
-23.6719
-23.5735
-23.4997
-23.4179
-23.3396
-23.2634
-23.1898
-23.1193
-23.0524
-22.9895
-22.9313
-22.8776
-22.8292
-22.7868
-22.751
-22.7223
-22.7014
-22.6892
-22.6863
-22.6936
-22.7122
-22.7425
-22.7859
-22.8437
-22.9163
-23.0054
-23.1121
-23.2374
-23.3831
-23.5502
-23.7401
-23.9542
-24.1941
-24.4613
-24.7571
-25.083
-25.4407
-25.8313
-26.2563
-26.7173
-27.2174
-27.7661
-28.3332
-25.7985
-25.6971
-25.6203
-25.5348
-25.4531
-25.3727
-25.2949
-25.2202
-25.1485
-25.0806
-25.0166
-24.9572
-24.9027
-24.8534
-24.8104
-24.7738
-24.7444
-24.7233
-24.7107
-24.7073
-24.7142
-24.7323
-24.7625
-24.8063
-24.864
-24.937
-25.0265
-25.1337
-25.2599
-25.4063
-25.5743
-25.7652
-25.9806
-26.2219
-26.4906
-26.788
-27.1157
-27.4753
-27.8684
-28.2968
-28.7646
-29.2832
-29.833
-27.8747
-27.7736
-27.6967
-27.6095
-27.5247
-27.4416
-27.3605
-27.2819
-27.206
-27.1333
-27.0642
-26.9993
-26.9388
-26.8835
-26.8334
-26.7893
-26.752
-26.7221
-26.7001
-26.6866
-26.6829
-26.6894
-26.7074
-26.7378
-26.7812
-26.839
-26.9123
-27.0022
-27.1099
-27.2368
-27.3841
-27.553
-27.7451
-27.9618
-28.2045
-28.4746
-28.7735
-29.1028
-29.464
-29.8584
-30.2879
-30.7589
-31.2698
-29.9093
-29.8085
-29.7308
-29.6422
-29.5557
-29.4702
-29.3862
-29.3042
-29.2249
-29.1483
-29.0748
-29.0047
-28.9389
-28.8775
-28.821
-28.77
-28.7251
-28.687
-28.6561
-28.6333
-28.6194
-28.6149
-28.6212
-28.6389
-28.6689
-28.7123
-28.7701
-28.8437
-28.934
-29.0423
-29.1699
-29.3179
-29.4878
-29.6811
-29.8991
-30.143
-30.4144
-30.7145
-31.045
-31.4069
-31.8007
-32.2337
-32.7379
-31.9152
-31.8127
-31.7329
-31.6419
-31.5526
-31.4642
-31.3771
-31.2918
-31.2088
-31.1282
-31.0505
-30.9757
-30.9045
-30.8374
-30.7748
-30.7172
-30.6652
-30.6191
-30.5799
-30.5483
-30.5247
-30.5098
-30.5048
-30.5106
-30.5279
-30.5576
-30.601
-30.659
-30.7326
-30.8234
-30.9321
-31.0604
-31.2093
-31.3802
-31.5746
-31.7936
-32.0387
-32.311
-32.612
-32.9427
-33.3017
-33.6955
-34.1739
-33.873
-33.7723
-33.6936
-33.6027
-33.5126
-33.4225
-33.333
-33.245
-33.1586
-33.0743
-32.9925
-32.9134
-32.8374
-32.7647
-32.6963
-32.6325
-32.5736
-32.5201
-32.473
-32.4327
-32.3999
-32.3752
-32.3596
-32.354
-32.359
-32.3759
-32.4053
-32.4485
-32.5066
-32.5806
-32.6715
-32.781
-32.9099
-33.0596
-33.2315
-33.4267
-33.6467
-33.8928
-34.1658
-34.4666
-34.7944
-35.1604
-35.6101
-35.7933
-35.696
-35.6181
-35.5274
-35.4365
-35.3451
-35.2541
-35.1638
-35.0746
-34.9873
-34.9017
-34.8184
-34.7378
-34.6602
-34.5863
-34.5166
-34.451
-34.3906
-34.336
-34.2875
-34.2458
-34.2118
-34.1864
-34.17