/*--------------------------------*- C++ -*----------------------------------*\
| =========                 |                                                 |
| \\      /  F ield         | OpenFOAM: The Open Source CFD Toolbox           |
|  \\    /   O peration     | Version:  2.3.0                                 |
|   \\  /    A nd           | Web:      www.OpenFOAM.org                      |
|    \\/     M anipulation  |                                                 |
\*---------------------------------------------------------------------------*/
FoamFile
{
    version     2.0;
    format      ascii;
    class       volScalarField;
    location    "1000";
    object      nut;
}
// * * * * * * * * * * * * * * * * * * * * * * * * * * * * * * * * * * * * * //

dimensions      [0 2 -1 0 0 0 0];

internalField   nonuniform List<scalar> 
6617
(
0.0512154
0.0463057
0.0423643
0.0392579
0.0360625
0.0330163
0.030164
0.0275024
0.0250229
0.0227183
0.0206328
0.0191447
0.0590637
0.0552137
0.0517983
0.0489117
0.0465684
0.0447453
0.0434066
0.0425061
0.0419936
0.0418179
0.0419266
0.0422719
0.0660618
0.0632894
0.0609001
0.0589263
0.0573567
0.056166
0.0553214
0.054786
0.0545216
0.054488
0.0546499
0.0549709
0.0719297
0.0699091
0.068193
0.0667879
0.065678
0.0648411
0.0642513
0.0638843
0.063715
0.0637199
0.0638775
0.0641666
0.0768278
0.0753255
0.0740514
0.0730072
0.07218
0.0715535
0.0711122
0.0708399
0.070722
0.070745
0.0708958
0.0711609
0.0809198
0.0797743
0.0787985
0.0779931
0.0773492
0.0768569
0.0765078
0.0762935
0.0762055
0.0762367
0.0763793
0.0766251
0.0843581
0.0834503
0.0826809
0.0820399
0.0815207
0.0811188
0.080831
0.0806544
0.0805855
0.080621
0.0807567
0.0809872
0.0872255
0.086503
0.0858849
0.0853624
0.0849326
0.0845945
0.0843492
0.0841985
0.0841425
0.0841801
0.0843099
0.0845283
0.0896437
0.089056
0.0885527
0.0881175
0.087755
0.0874651
0.0872493
0.0871176
0.08707
0.0871091
0.0872346
0.0874428
0.0916966
0.0912027
0.0907952
0.0904214
0.0901105
0.0898638
0.0896638
0.0895477
0.0895061
0.0895466
0.0896727
0.0898745
0.0207811
0.0244221
0.0268944
0.0295046
0.0326098
0.0363284
0.0406603
0.0455603
0.0509668
0.0568066
0.0629899
0.0693805
0.0427768
0.0434954
0.0445501
0.0459964
0.047884
0.0502497
0.0531123
0.0564714
0.0603045
0.0645707
0.0692109
0.0741178
0.0554164
0.0560198
0.0568496
0.0579381
0.0593167
0.0610153
0.0630573
0.0654588
0.0682262
0.0713517
0.0748098
0.0785135
0.0645689
0.0651041
0.0658105
0.0667061
0.0678099
0.0691404
0.0707137
0.0725441
0.074642
0.0770111
0.0796464
0.0825096
0.07153
0.0720153
0.0726384
0.0734095
0.0743386
0.0754356
0.0767099
0.0781706
0.0798258
0.081681
0.0837381
0.0859848
0.0769674
0.0774136
0.077976
0.0786593
0.0794677
0.0804055
0.0814765
0.0826853
0.0840363
0.0855336
0.0871779
0.0889516
0.081308
0.0817234
0.0822397
0.082858
0.083579
0.0844024
0.0853278
0.0863562
0.0874895
0.0887296
0.090077
0.091516
0.0848316
0.0852221
0.0857022
0.0862707
0.0869265
0.0876657
0.0884826
0.089377
0.0903489
0.0913978
0.092517
0.0936791
0.0877308
0.0881018
0.0885533
0.0890817
0.089687
0.0903655
0.0910974
0.0918905
0.0927395
0.0936477
0.0946
0.09557
0.0901441
0.0905007
0.0909303
0.0914247
0.0919861
0.0926239
0.0932826
0.0940092
0.0947587
0.0955657
0.0963928
0.0972804
0.0830483
0.0694915
0.0576329
0.04736
0.0386052
0.0312419
0.0251196
0.0202287
0.0168582
0.0138689
0.0108238
0.00747859
0.092656
0.0811536
0.0709478
0.0619956
0.0544611
0.0482822
0.0427512
0.0374516
0.0322707
0.0270762
0.0217177
0.0160354
0.103918
0.0946908
0.0864495
0.0788938
0.0718387
0.0651473
0.0586518
0.0521914
0.0456298
0.0388636
0.0317992
0.0243567
0.11595
0.107994
0.100378
0.093012
0.0858124
0.0786848
0.0715284
0.0642397
0.0567126
0.048851
0.0405713
0.0318017
0.126368
0.118974
0.111649
0.104353
0.0970346
0.0896204
0.0820287
0.0741693
0.0659484
0.0572737
0.04806
0.0382304
0.134855
0.127849
0.120755
0.113548
0.106181
0.0985921
0.0907046
0.0824339
0.0736896
0.0643786
0.0544108
0.043705
0.141698
0.135037
0.128174
0.121084
0.113724
0.106034
0.0979408
0.0893613
0.0802061
0.0703795
0.0597877
0.0483433
0.147214
0.140892
0.134269
0.12732
0.120001
0.11226
0.104022
0.0952028
0.0857146
0.0754595
0.06434
0.0522641
0.151674
0.145686
0.139313
0.132522
0.125265
0.11751
0.109169
0.100161
0.0903951
0.0797742
0.0681962
0.055568
0.1553
0.149626
0.143505
0.136901
0.1297
0.121967
0.113559
0.104407
0.0944013
0.0834557
0.071464
0.0583331
0.00369512
0.00153877
0.00191452
0.00255013
0.00341658
0.00469586
0.00645673
0.00868358
0.0114534
0.0148553
0.0189837
0.0239366
0.00974338
0.00395183
0.00251881
0.0032996
0.00440574
0.00585727
0.00772177
0.00998441
0.0127121
0.0159775
0.0198527
0.0243725
0.016266
0.00783593
0.00358023
0.00416043
0.00548067
0.00708875
0.00904402
0.0113346
0.0140136
0.0171344
0.0207467
0.0248842
0.0222904
0.0121002
0.0052117
0.00507452
0.00656448
0.00830827
0.0103409
0.0126516
0.0152777
0.0182578
0.0216428
0.0255442
0.0275651
0.016091
0.00720984
0.00602758
0.0076128
0.00948067
0.0115785
0.0139021
0.0164767
0.0193349
0.0225258
0.026112
0.0320778
0.0195964
0.0092979
0.00701661
0.00861819
0.0105898
0.012743
0.0150749
0.0176027
0.0203528
0.0233599
0.0266533
0.0359003
0.0225959
0.0112804
0.00802217
0.00957267
0.0116288
0.0138291
0.0161668
0.0186523
0.021303
0.0241381
0.0271708
0.0391224
0.025135
0.0130678
0.00901488
0.0104723
0.0125956
0.0148368
0.0171784
0.0196245
0.022183
0.0248609
0.0276673
0.0418151
0.027257
0.0146511
0.00997659
0.011309
0.013494
0.0157731
0.0181154
0.0205224
0.0229944
0.0255284
0.0281264
0.0439755
0.0287696
0.0156335
0.0107665
0.0121546
0.0143361
0.0165863
0.0189239
0.0213124
0.0237077
0.0261161
0.0285803
0.000819111
0.0028191
0.00626893
0.0101915
0.014288
0.0185486
0.0229322
0.0273742
0.0317834
0.0360136
0.0404155
0.0452084
0.000643017
0.00168875
0.00426537
0.00766823
0.0112069
0.0148955
0.0188148
0.0229956
0.0273757
0.0318393
0.0363856
0.0411351
0.000380496
0.00105403
0.00270965
0.00529754
0.00908693
0.0134351
0.017659
0.0217855
0.0258816
0.0299915
0.0341663
0.0385436
0.000402458
0.000849888
0.00217738
0.00424876
0.00732868
0.0117068
0.0164251
0.0211036
0.025588
0.0297629
0.0336444
0.0374842
0.000367205
0.000758083
0.0019175
0.00372023
0.00637782
0.0101775
0.0151345
0.0202306
0.0252378
0.0299327
0.0340711
0.0377101
0.000360392
0.000689165
0.00173437
0.00335871
0.00574691
0.00915733
0.0139042
0.0192761
0.0246946
0.0299365
0.03467
0.0386283
0.000350636
0.000644803
0.00161408
0.00311913
0.00532295
0.00846027
0.0128467
0.0183716
0.0241188
0.0298
0.0351257
0.0396852
0.000345908
0.000612773
0.00152765
0.0029472
0.00501851
0.00795752
0.0120558
0.0175546
0.0235695
0.0296205
0.0354363
0.0406
0.000341599
0.000588496
0.00146318
0.00282068
0.0047971
0.00759547
0.01149
0.0168231
0.0230575
0.0294369
0.0356688
0.0413657
0.000337902
0.000568289
0.00140998
0.00271645
0.00461606
0.00730214
0.0110352
0.0161616
0.0225575
0.0292411
0.0358475
0.0420101
0.000333904
0.000550201
0.0013629
0.00262391
0.00445686
0.00704601
0.0106393
0.0155678
0.0220251
0.0289852
0.0359364
0.0425164
0.000329553
0.000533507
0.00131982
0.00253791
0.0043099
0.00681199
0.0102825
0.0150391
0.0214309
0.0286342
0.0359104
0.0428933
0.000324761
0.000517276
0.00127824
0.00245544
0.00416899
0.00658789
0.00994215
0.0145381
0.020766
0.0281647
0.0357384
0.0430798
0.000319699
0.000501944
0.00123915
0.00237803
0.00403636
0.00637608
0.00961859
0.0140582
0.0200815
0.0276064
0.0354545
0.0431596
0.000314419
0.000487197
0.00120199
0.00230513
0.00391233
0.00617901
0.00931829
0.0136127
0.0194344
0.0269879
0.0350771
0.0431034
0.000309007
0.000473313
0.00116712
0.00223697
0.00379683
0.00599668
0.0090429
0.0132083
0.0188513
0.0263324
0.0346281
0.0429434
0.00030353
0.000460097
0.00113412
0.00217264
0.00368796
0.0058253
0.0087854
0.0128335
0.0183177
0.0256556
0.0341218
0.0426971
0.000298015
0.00044781
0.00110347
0.0021128
0.00358642
0.00566509
0.00854425
0.0124824
0.0178189
0.0249847
0.0335849
0.0424014
0.000292428
0.00043618
0.00107469
0.00205685
0.00349173
0.0055158
0.00831936
0.0121541
0.0173505
0.0243367
0.0330252
0.0420759
0.000286733
0.000425228
0.00104766
0.00200435
0.00340303
0.00537634
0.00810981
0.0118484
0.0169138
0.0237246
0.0324385
0.0416841
0.00028089
0.000414736
0.00102181
0.00195427
0.00331868
0.00524421
0.00791214
0.0115615
0.0165057
0.0231535
0.0318303
0.0412416
0.000274873
0.000404719
0.000997024
0.00190612
0.00323751
0.00511726
0.00772295
0.0112885
0.0161201
0.0226162
0.0311932
0.0407386
0.000268701
0.000395131
0.000973108
0.00185942
0.00315851
0.00499345
0.00753843
0.0110232
0.0157484
0.0221052
0.0305529
0.0402318
0.000262395
0.000386095
0.0009503
0.00181447
0.00308191
0.0048726
0.00735736
0.0107619
0.015382
0.0216039
0.0299068
0.0397291
0.000256009
0.000377724
0.000928808
0.00177163
0.00300823
0.00475524
0.00717983
0.0105033
0.0150162
0.0210981
0.0292284
0.0391445
0.000249566
0.000370045
0.0009088
0.00173136
0.00293839
0.00464297
0.00700821
0.0102506
0.0146549
0.0205947
0.0285509
0.0385348
0.000243136
0.000363132
0.000890441
0.00169398
0.00287305
0.0045372
0.00684519
0.010008
0.0143033
0.0200955
0.0278565
0.0378211
0.000236735
0.000356871
0.000873553
0.00165932
0.00281221
0.00443839
0.00669228
0.00977923
0.0139696
0.0196174
0.0271803
0.0370373
0.000230441
0.000351398
0.000858421
0.00162786
0.00275629
0.00434704
0.00655027
0.00956651
0.0136596
0.0191748
0.0265586
0.0362573
0.000224314
0.00034661
0.000844986
0.00159971
0.00270542
0.0042632
0.00641892
0.0093685
0.0133706
0.0187647
0.0259916
0.0355484
0.000218442
0.000342777
0.000833767
0.00157582
0.00266071
0.00418833
0.0062996
0.00918534
0.0130988
0.0183738
0.025447
0.0348302
0.000212869
0.000339625
0.000824297
0.00155565
0.00262274
0.00412406
0.00619542
0.00902168
0.012849
0.018005
0.0249262
0.0341785
0.000207716
0.000337366
0.000817114
0.00153993
0.00259246
0.00407209
0.00610981
0.00888452
0.0126333
0.0176698
0.0244053
0.03336
0.000203122
0.000335843
0.00081205
0.00152851
0.0025699
0.0040328
0.00604429
0.00877835
0.0124653
0.0174088
0.0240058
0.032757
0.000199158
0.00033546
0.000809847
0.00152235
0.00255604
0.00400703
0.00599895
0.0087017
0.0123408
0.0172151
0.0237212
0.0323825
0.000195778
0.00033576
0.000809855
0.00152089
0.00255068
0.00399478
0.00597356
0.00865283
0.0122525
0.017065
0.0234792
0.0320153
0.000193065
0.000337041
0.000812663
0.00152487
0.00255467
0.00399737
0.00597038
0.00863545
0.0122063
0.0169662
0.0232931
0.0316905
0.000191065
0.000339042
0.000817728
0.00153363
0.00256755
0.00401482
0.00599079
0.00865367
0.0122113
0.0169373
0.023195
0.0314704
0.000189811
0.00034209
0.000825427
0.00154742
0.00258921
0.00404675
0.0060343
0.00870772
0.0122703
0.0169871
0.023207
0.0313918
0.000189229
0.00034566
0.000834827
0.001565
0.00261815
0.00409117
0.00609819
0.00879436
0.0123803
0.0171153
0.0233357
0.0314857
0.000189373
0.000350174
0.000846543
0.00158688
0.00265431
0.00414704
0.00617995
0.0089089
0.0125345
0.0173132
0.0235732
0.0317271
0.000190219
0.000355352
0.000860008
0.0016124
0.00269693
0.00421315
0.00627737
0.00904717
0.012725
0.0175696
0.023913
0.0321887
0.000191742
0.000361735
0.000876025
0.00164251
0.00274683
0.00428995
0.00639021
0.00920708
0.0129454
0.0178659
0.0243011
0.0326751
0.000193734
0.000368825
0.000893766
0.00167617
0.00280306
0.00437692
0.00651812
0.00938847
0.0131954
0.0182027
0.0247479
0.0332686
0.000196315
0.000376688
0.000913673
0.00171396
0.00286621
0.00447447
0.00666149
0.00959184
0.0134759
0.0185798
0.0252401
0.0338837
0.000199362
0.000385509
0.000935652
0.00175573
0.00293598
0.00458214
0.0068197
0.00981676
0.0137874
0.0190018
0.025799
0.0345945
0.000203037
0.000395517
0.000960398
0.00180223
0.0030131
0.00470068
0.00699343
0.0100632
0.0141288
0.0194664
0.0264278
0.035475
0.000207072
0.000406549
0.000987183
0.00185259
0.00309665
0.00482917
0.00718178
0.0103301
0.0144972
0.0199628
0.0270759
0.0362619
0.000211559
0.000418605
0.00101645
0.00190749
0.0031872
0.00496753
0.00738403
0.0106165
0.0148937
0.0205039
0.0278071
0.0372474
0.00021612
0.000431611
0.00104808
0.00196658
0.00328436
0.00511542
0.00759896
0.0109195
0.0153114
0.0210717
0.0285752
0.0383034
0.000220986
0.000445799
0.00108256
0.00203038
0.00338831
0.00527267
0.00782608
0.0112372
0.0157457
0.0216538
0.0293422
0.0392865
0.000225793
0.000460726
0.00111891
0.00209757
0.00349786
0.00543838
0.00806498
0.0115699
0.0161976
0.0222563
0.030134
0.0403196
0.000230441
0.000476557
0.00115757
0.00216881
0.00361383
0.0056129
0.00831572
0.0119179
0.0166677
0.0228781
0.0309422
0.0413608
0.000234601
0.000492964
0.00119787
0.0022432
0.00373485
0.00579532
0.00857738
0.0122805
0.0171566
0.023522
0.0317707
0.0423864
0.000238637
0.000510522
0.00124059
0.00232153
0.00386154
0.00598561
0.00884999
0.0126579
0.0176657
0.0241941
0.0326451
0.0435245
0.000242161
0.000528841
0.00128467
0.00240247
0.00399265
0.00618272
0.00913233
0.0130481
0.0181899
0.0248822
0.0335293
0.0446326
0.000244934
0.000548164
0.00133065
0.00248683
0.00412911
0.00638698
0.00942393
0.0134501
0.0187285
0.0255878
0.034434
0.0457689
0.000246947
0.0005681
0.00137842
0.00257443
0.00427045
0.00659862
0.00972532
0.0138643
0.0192828
0.0263125
0.0353631
0.0469388
0.000248291
0.00058933
0.00142871
0.00266604
0.00441748
0.00681779
0.0100365
0.0142909
0.0198518
0.0270537
0.0363099
0.0481304
0.000248655
0.000611283
0.0014807
0.00276103
0.00456983
0.0070445
0.0103579
0.0147298
0.0204341
0.0278082
0.0372669
0.0493202
0.000247803
0.000634557
0.00153566
0.00286068
0.00472878
0.00727998
0.01069
0.0151812
0.0210297
0.0285751
0.0382332
0.0505163
0.000245533
0.000658897
0.001593
0.00296461
0.004894
0.00752432
0.0110335
0.0156462
0.02164
0.0293543
0.0392038
0.0516969
0.000241515
0.000684996
0.00165376
0.00307403
0.00506716
0.00777917
0.0113905
0.0161272
0.0222672
0.030149
0.0401827
0.0528671
0.000234846
0.000712366
0.0017177
0.00318918
0.00524915
0.00804593
0.011763
0.0166271
0.0229158
0.0309654
0.0411794
0.0540456
0.000224698
0.000741637
0.00178629
0.00331225
0.00544276
0.00832807
0.0121547
0.0171501
0.0235912
0.0318109
0.0422066
0.0552559
0.000210706
0.000773132
0.00185991
0.00344436
0.00565011
0.00862878
0.0125699
0.017702
0.0243006
0.0326938
0.0432708
0.0564971
0.000194329
0.000808886
0.00194076
0.00358865
0.00587597
0.00895506
0.0130164
0.0182912
0.0250522
0.0336221
0.0443804
0.0577774
0.000181053
0.000851555
0.00203053
0.00374777
0.00612516
0.00931463
0.0135061
0.01893
0.0258594
0.0346103
0.0455507
0.059116
0.000159734
0.000898486
0.00213175
0.00392673
0.00640448
0.0097179
0.0140546
0.0196403
0.0267432
0.0356772
0.046795
0.0605091
0.000158401
0.000949039
0.00224667
0.00413082
0.00672363
0.0101785
0.0146812
0.0204515
0.027746
0.0368627
0.0481581
0.0620499
0.000169587
0.00100757
0.00238159
0.00437165
0.00710069
0.0107225
0.0154208
0.021408
0.0289243
0.0382401
0.0496632
0.0635811
0.000183647
0.00108116
0.00254891
0.00466859
0.00756513
0.0113921
0.0163302
0.022583
0.0303734
0.0399419
0.0515483
0.0655018
0.000205982
0.00118302
0.00278222
0.00507863
0.00819736
0.0122903
0.0175322
0.0241156
0.0322466
0.0421379
0.0540138
0.0681376
0.000234169
0.0012906
0.00306948
0.00562224
0.00906537
0.0135398
0.0192042
0.0262303
0.0347937
0.0450688
0.0572423
0.0715161
0.000269073
0.00179999
0.00408775
0.00716367
0.0111139
0.0160943
0.022254
0.029748
0.0387371
0.0493733
0.0617776
0.0760979
0.000835994
0.00379489
0.00766034
0.0122476
0.0174743
0.0232284
0.0294467
0.0360683
0.0430272
0.0502471
0.0576621
0.0651752
0.000461977
0.00214275
0.00489609
0.00852991
0.0130005
0.0182637
0.024254
0.0308908
0.0380736
0.0456837
0.0535931
0.0616561
0.000639971
0.00182191
0.00410694
0.00716361
0.0110293
0.0157244
0.0212454
0.0275566
0.0345836
0.0422145
0.0503093
0.058719
0.000613488
0.00154602
0.00353326
0.00621591
0.00966741
0.0139404
0.0190691
0.0250558
0.0318598
0.0393919
0.0475137
0.0560325
0.000608871
0.00133687
0.00310246
0.00551515
0.00865866
0.0126017
0.0174011
0.0230872
0.0296495
0.0370259
0.0450948
0.0536636
0.000609315
0.0011951
0.00279583
0.0050043
0.00790575
0.0115786
0.0160949
0.0215058
0.027827
0.0350248
0.0430071
0.0516248
0.000610934
0.00109256
0.00256385
0.00461103
0.0073166
0.0107648
0.0150377
0.0202021
0.0262944
0.0333052
0.0411655
0.0497245
0.000613479
0.0010124
0.00237739
0.00429295
0.00683611
0.0100949
0.0141579
0.019103
0.0249827
0.0318085
0.0395335
0.0480364
0.000616884
0.00094829
0.00222615
0.00402927
0.0064353
0.00953185
0.0134119
0.0181611
0.0238446
0.0304902
0.0380687
0.0464663
0.000620347
0.000896022
0.00210037
0.00380671
0.00609504
0.0090508
0.0127696
0.0173431
0.0228462
0.0293202
0.0367545
0.0450671
0.00062364
0.000852311
0.00199311
0.00361535
0.00580137
0.00863355
0.0122092
0.0166244
0.0219613
0.028273
0.0355641
0.0437625
0.000626731
0.000815049
0.00190007
0.00344832
0.00554426
0.00826692
0.0117145
0.0159862
0.0211703
0.0273301
0.034485
0.042589
0.00062964
0.000782858
0.00181831
0.0033007
0.00531663
0.00794124
0.0112732
0.0154139
0.0204561
0.0264699
0.0334802
0.0414259
0.000632401
0.000754828
0.00174609
0.00317008
0.0051132
0.00764934
0.0108763
0.0148967
0.0198071
0.025684
0.0325653
0.040441
0.000635031
0.000730954
0.00168199
0.00305382
0.00493009
0.00738577
0.0105167
0.0144264
0.019214
0.0249607
0.0317088
0.039423
0.000638392
0.000717108
0.00162464
0.0029492
0.00476411
0.00714619
0.0101888
0.0139959
0.0186684
0.0242912
0.0309128
0.0385193
0.000643257
0.000716529
0.00157288
0.00285423
0.00461271
0.00692716
0.00988831
0.0136001
0.0181656
0.0236745
0.0301895
0.0377448
0.000649066
0.000722695
0.001526
0.00276748
0.00447387
0.00672592
0.00961168
0.0132352
0.0177012
0.0231044
0.029515
0.0369552
0.000654955
0.000730128
0.00148341
0.00268791
0.004346
0.00654034
0.00935622
0.0128977
0.0172712
0.0225754
0.028887
0.0362437
0.000660472
0.000736774
0.00144456
0.00261452
0.00422762
0.00636852
0.00911953
0.0125847
0.0168719
0.0220828
0.0282988
0.03556
0.000665524
0.000742289
0.00140902
0.00254684
0.00411844
0.00620906
0.00889964
0.0122935
0.0164996
0.0216214
0.0277426
0.0348981
0.000670152
0.000746763
0.00137643
0.00248439
0.00401768
0.00606064
0.00869464
0.0120216
0.0161507
0.0211863
0.0272112
0.0342539
0.000674394
0.000750408
0.00134659
0.00242664
0.00392418
0.00592208
0.00850291
0.0117666
0.0158224
0.0207752
0.0267109
0.0336794
0.000678312
0.00075344
0.00131977
0.002373
0.00383691
0.00579227
0.00832298
0.011527
0.0155134
0.020389
0.0262478
0.0331655
0.000682025
0.000756535
0.00129943
0.0023231
0.00375522
0.00567035
0.0081537
0.0113011
0.0152216
0.020023
0.025799
0.0325953
0.000685743
0.000761018
0.00129079
0.00227681
0.00367856
0.00555558
0.00799416
0.011088
0.0149463
0.0196791
0.0253897
0.0321865
0.000689648
0.000767511
0.00129247
0.00223409
0.00360648
0.00544734
0.00784356
0.0108868
0.0146863
0.0193537
0.0249921
0.0316621
0.000693689
0.000775238
0.00129909
0.00219461
0.00353865
0.0053451
0.00770124
0.0106967
0.0144407
0.0190463
0.0246214
0.0312656
0.000697771
0.000783577
0.00130694
0.00215803
0.00347465
0.00524835
0.00756656
0.0105166
0.0142075
0.0187525
0.0242545
0.0307606
0.000701884
0.000791606
0.00131415
0.002124
0.0034143
0.0051571
0.0074389
0.0103456
0.0139857
0.0184727
0.0239135
0.0304106
0.000705814
0.000798964
0.00132004
0.00209221
0.00335746
0.0050711
0.00731755
0.010183
0.0137745
0.0182051
0.023581
0.0299673
0.00070957
0.000805543
0.0013245
0.00206239
0.00330395
0.00498989
0.00720237
0.0100283
0.0135729
0.017949
0.0232624
0.0295941
0.000713166
0.000811489
0.00132781
0.00203446
0.00325347
0.00491305
0.00709293
0.00988094
0.0133806
0.0177045
0.0229599
0.0292351
0.000716617
0.00081681
0.00133005
0.00200818
0.00320567
0.00483998
0.00698867
0.00974038
0.0131971
0.0174713
0.0226718
0.0288905
0.000719957
0.000821588
0.00133134
0.0019834
0.00316035
0.00477043
0.00688904
0.00960594
0.0130214
0.0172479
0.0223955
0.0285567
0.000723188
0.000825886
0.0013318
0.00196
0.00311732
0.00470412
0.00679372
0.00947719
0.0128531
0.0170336
0.0221294
0.0282337
0.000726315
0.000829868
0.00133177
0.00193824
0.00307632
0.00464087
0.00670279
0.00935423
0.0126918
0.0168283
0.0218778
0.0279531
0.00072936
0.000833554
0.0013315
0.00191918
0.00303729
0.00458039
0.00661572
0.00923633
0.0125377
0.0166331
0.0216394
0.0276693
0.000732372
0.000837134
0.00133168
0.00190482
0.00300037
0.00452264
0.00653215
0.00912345
0.0123903
0.0164466
0.02141
0.0273871
0.000735387
0.000840805
0.00133319
0.00189731
0.00296565
0.0044674
0.00645229
0.00901548
0.0122494
0.0162679
0.0211885
0.0271142
0.000738458
0.00084484
0.00133667
0.00189622
0.00293306
0.00441469
0.00637619
0.00891226
0.0121144
0.0160962
0.0209751
0.0268542
0.000741612
0.000849415
0.0013423
0.00189987
0.00290274
0.00436474
0.00630394
0.00881331
0.0119851
0.0159313
0.0207675
0.0265889
0.000744755
0.000854229
0.00134946
0.00190602
0.00287471
0.00431711
0.00623481
0.00871846
0.0118608
0.0157727
0.0205706
0.0263708
0.000747952
0.000859639
0.00135755
0.00191304
0.00284846
0.00427178
0.00616893
0.00862762
0.0117415
0.0156203
0.0203818
0.0261409
0.000751508
0.000865087
0.00136604
0.00192019
0.00282401
0.00422892
0.00610616
0.00854085
0.0116276
0.0154754
0.0202053
0.0259458
0.000754961
0.000870708
0.00137471
0.00192706
0.00280105
0.00418812
0.00604621
0.00845776
0.0115185
0.0153364
0.0200311
0.0257043
0.000758436
0.000875973
0.00138307
0.00193333
0.00277966
0.00414931
0.00598885
0.00837829
0.0114142
0.015204
0.0198693
0.0255409
0.000761868
0.000881307
0.00139093
0.0019388
0.00275939
0.00411239
0.00593432
0.00830268
0.0113148
0.0150769
0.019707
0.025294
0.000765601
0.000886294
0.00139825
0.0019436
0.00274028
0.00407749
0.00588245
0.00823039
0.0112198
0.0149551
0.0195541
0.0251389
0.000769212
0.000891322
0.00140531
0.00194781
0.00272235
0.00404443
0.00583296
0.00816128
0.0111288
0.0148387
0.0194107
0.0249724
0.000772931
0.000895932
0.0014117
0.00195143
0.00270535
0.00401285
0.00578597
0.00809549
0.011042
0.0147279
0.0192734
0.0247996
0.000776664
0.000900375
0.0014176
0.00195444
0.00268931
0.00398281
0.00574098
0.00803276
0.0109593
0.0146221
0.0191409
0.0246296
0.000780402
0.000904611
0.00142313
0.00195707
0.00267431
0.00395454
0.00569845
0.007973
0.0108806
0.014521
0.0190117
0.024458
0.000784194
0.000908925
0.00142845
0.00195945
0.00266077
0.00392794
0.00565814
0.00791651
0.0108056
0.0144244
0.0188901
0.0243239
0.00078807
0.000912973
0.00143334
0.00196158
0.00264857
0.0039028
0.00562033
0.00786343
0.0107343
0.0143325
0.018774
0.0241733
0.000792083
0.000916981
0.00143805
0.00196378
0.00263847
0.00387928
0.00558462
0.00781362
0.0106675
0.0142462
0.0186663
0.0240535
0.000796185
0.000920994
0.00144278
0.00196645
0.00263115
0.00385777
0.00555153
0.00776691
0.0106044
0.0141646
0.0185631
0.0239115
0.000800323
0.000924878
0.00144764
0.00196984
0.00262722
0.00383817
0.00552071
0.00772326
0.0105452
0.0140883
0.0184678
0.0238118
0.000804592
0.000929096
0.0014527
0.00197415
0.00262642
0.0038204
0.00549249
0.00768321
0.0104905
0.0140176
0.0183801
0.0237001
0.000809427
0.000933389
0.0014581
0.00197959
0.00262865
0.00380479
0.00546668
0.00764623
0.0104403
0.0139527
0.0182968
0.0235842
0.000814337
0.000937967
0.0014642
0.00198624
0.00263338
0.00379133
0.00544345
0.00761272
0.0103945
0.0138935
0.018224
0.0235166
0.000819461
0.000942566
0.00147065
0.00199388
0.00263985
0.00377988
0.00542281
0.00758268
0.0103532
0.0138398
0.0181533
0.0233916
0.000824896
0.000947416
0.00147757
0.00200229
0.00264754
0.00377048
0.00540519
0.00755679
0.0103171
0.0137928
0.0180973
0.023377
0.00083065
0.00095248
0.00148491
0.00201136
0.00265615
0.00376342
0.00539057
0.00753482
0.0102865
0.0137532
0.0180456
0.0232582
0.000836791
0.000957873
0.00149278
0.00202099
0.00266548
0.00375867
0.00537908
0.0075171
0.0102616
0.0137201
0.0180004
0.0232126
0.000843383
0.000963346
0.00150079
0.00203089
0.00267525
0.00375627
0.00537127
0.00750429
0.0102426
0.0136941
0.0179635
0.0231508
0.000850515
0.000969056
0.00150902
0.00204104
0.00268547
0.0037565
0.00536736
0.00749701
0.0102309
0.0136765
0.0179357
0.0231082
0.000858244
0.000975067
0.00151762
0.00205149
0.00269608
0.00375982
0.00536812
0.00749575
0.0102268
0.0136684
0.0179196
0.0230814
0.000866642
0.000981131
0.0015264
0.00206215
0.00270744
0.00376671
0.00537411
0.00750155
0.0102318
0.013671
0.0179174
0.0230827
0.000875885
0.000987655
0.00153534
0.00207303
0.00271947
0.00377794
0.00538686
0.00751632
0.0102478
0.0136868
0.0179333
0.0231062
0.000886795
0.000994639
0.00154461
0.00208427
0.00273253
0.00379463
0.00540772
0.00754194
0.0102777
0.0137198
0.0179683
0.0231328
0.000899428
0.00100304
0.00155555
0.00209705
0.00274787
0.00382018
0.00544099
0.00758289
0.0103259
0.0137738
0.0180297
0.0232193
0.000913423
0.00100708
0.00156295
0.00210713
0.00276227
0.00384921
0.00548208
0.00763658
0.0103919
0.0138506
0.0181132
0.0232654
0.000947138
0.00104048
0.00159387
0.00214026
0.00280469
0.00393176
0.0055835
0.00775225
0.010517
0.01398
0.0182454
0.0234582
0.000746559
0.000932164
0.0015351
0.00207535
0.0027312
0.00386846
0.00553325
0.00772145
0.0105142
0.0140148
0.0183305
0.0235481
0.119275
0.103374
0.184415
0.256506
0.0808095
0.0554527
0.138584
0.0498232
0.136407
0.0796798
0.280175
0.136433
0.18217
0.0796451
0.180994
0.0987915
0.0912527
0.139981
0.136644
0.138634
0.0989543
0.136024
0.0933005
0.174228
0.133171
0.20597
0.215071
0.0978955
0.0595996
0.166413
0.116461
0.13443
0.0872593
0.102699
0.137488
0.126698
0.420168
0.131231
0.0924869
0.113551
0.0951407
0.123652
0.0630845
0.135368
0.115206
0.220197
0.136327
0.126812
0.0989456
0.179703
0.136125
0.131413
0.175926
0.078087
0.0484621
0.0678762
0.137421
0.139383
0.140028
0.13755
0.0500375
0.0411228
0.107769
0.209337
0.11936
0.0595283
0.139096
0.129627
0.110207
0.0379547
0.130685
0.127452
0.104289
0.102723
0.129746
0.103967
0.0482277
0.136946
0.0648922
0.0496791
0.0491082
0.14005
0.137571
0.251722
0.135487
0.126148
0.140082
0.128751
0.140097
0.0729891
0.228238
0.140527
0.0795909
0.138709
0.138434
0.25885
0.139685
0.133779
0.292202
0.138292
0.135449
0.0614136
0.0851272
0.167757
0.138302
0.202261
0.138343
0.0827607
0.117633
0.139022
0.140064
0.139155
0.125599
0.26106
0.22217
0.119736
0.0876705
0.0498496
0.0923576
0.134099
0.103315
0.138158
0.134141
0.0942576
0.154809
0.0693065
0.0680715
0.0995853
0.147801
0.139425
0.13952
0.0617251
0.184389
0.139007
0.13625
0.0312612
0.0607574
0.133589
0.0328663
0.13704
0.0383863
0.0810662
0.104937
0.140049
0.139897
0.13978
0.135441
0.122028
0.140044
0.0764409
0.126048
0.0747876
0.110912
0.111409
0.140782
0.164197
0.126938
0.116861
0.229219
0.135849
0.133607
0.100005
0.141769
0.0833385
0.0823982
0.207162
0.139721
0.0346327
0.103112
0.169387
0.184006
0.0192954
0.118632
0.170507
0.138019
0.131534
0.132144
0.0720209
0.136779
0.0838424
0.10016
0.055936
0.134323
0.13907
0.0504449
0.0767632
0.137702
0.160899
0.139881
0.13721
0.138126
0.13753
0.289686
0.134812
0.142843
0.232665
0.137227
0.16047
0.0876665
0.103722
0.152443
0.0301082
0.0436041
0.0996463
0.132492
0.125152
0.139264
0.243396
0.13728
0.028888
0.133914
0.0528676
0.115288
0.0975831
0.0653738
0.132525
0.137566
0.136748
0.138735
0.14603
0.24042
0.138324
0.12976
0.0477605
0.13982
0.147263
0.0662682
0.0854161
0.111005
0.0982926
0.0806265
0.0965855
0.13512
0.043359
0.112323
0.151227
0.0908355
0.041415
0.070631
0.12979
0.139994
0.263926
0.138036
0.110173
0.133788
0.0722089
0.0511694
0.138626
0.0877548
0.124512
0.139733
0.0433068
0.0640375
0.104459
0.189916
0.24207
0.0430065
0.125358
0.2007
0.133663
0.0603827
0.154399
0.108234
0.198422
0.15335
0.139947
0.1879
0.214436
0.130835
0.106292
0.137706
0.117066
0.140012
0.136549
0.125353
0.133861
0.125349
0.101677
0.0988616
0.0881441
0.130764
0.137545
0.135636
0.0619597
0.115295
0.0744812
0.131119
0.135018
0.208653
0.138327
0.106325
0.122582
0.137664
0.0820327
0.124728
0.103376
0.127203
0.0789276
0.13939
0.139074
0.0973439
0.0533624
0.219357
0.0744457
0.26086
0.0722544
0.134823
0.138884
0.135708
0.0293685
0.0989332
0.267538
0.0754942
0.179178
0.125358
0.0934855
0.139621
0.0726238
0.0539849
0.0791921
0.110595
0.0855872
0.13342
0.137833
0.203607
0.122362
0.0456583
0.139363
0.127264
0.133943
0.128065
0.137268
0.126499
0.135239
0.139982
0.119446
0.068713
0.0424658
0.115574
0.0836854
0.0898548
0.13149
0.109197
0.0959277
0.156413
0.127833
0.14526
0.0947922
0.135328
0.12971
0.139335
0.108781
0.07594
0.130487
0.136622
0.108939
0.11977
0.128046
0.112173
0.128966
0.0944529
0.140024
0.126103
0.25778
0.132109
0.138019
0.138604
0.0979993
0.128684
0.138621
0.134979
0.087035
0.133213
0.129858
0.0905465
0.117821
0.125942
0.0874834
0.138521
0.133553
0.134669
0.100174
0.139761
0.0883467
0.108275
0.0563304
0.0337922
0.0602092
0.120221
0.131824
0.138
0.13986
0.0936571
0.13475
0.235176
0.0919256
0.167414
0.0362503
0.0478477
0.131468
0.0492058
0.169183
0.119415
0.132853
0.135092
0.0542285
0.0854243
0.0328878
0.195535
0.100981
0.139162
0.106297
0.123621
0.140035
0.0896442
0.113681
0.253134
0.119487
0.134571
0.0900362
0.0973678
0.137552
0.179835
0.0709129
0.20439
0.0453401
0.076861
0.137511
0.0983974
0.141936
0.0590748
0.13825
0.0881529
0.138828
0.139015
0.157793
0.137295
0.115054
0.0627777
0.0723436
0.135045
0.0944324
0.131865
0.101316
0.173223
0.136627
0.123546
0.13496
0.136019
0.135751
0.133086
0.138271
0.0911207
0.0285432
0.211897
0.123468
0.128103
0.192646
0.181291
0.149484
0.213853
0.136668
0.0951661
0.0927211
0.139182
0.223386
0.0613377
0.13959
0.0357114
0.134205
0.0735894
0.131291
0.0725975
0.108094
0.0438748
0.0682108
0.0417124
0.121064
0.135937
0.100963
0.0595324
0.137906
0.138518
0.136287
0.0542085
0.0763269
0.125927
0.117433
0.140082
0.140091
0.227546
0.0648963
0.109213
0.136143
0.102179
0.183244
0.0651564
0.0988298
0.126106
0.0462834
0.129788
0.104226
0.208274
0.140218
0.11035
0.138413
0.112623
0.131996
0.107689
0.142755
0.11024
0.0961729
0.210599
0.120564
0.139923
0.10346
0.0451968
0.0553458
0.124572
0.105323
0.139665
0.0957062
0.130241
0.128118
0.125577
0.138184
0.137625
0.138321
0.0961341
0.0555178
0.132833
0.132699
0.10211
0.124784
0.13538
0.0631404
0.0756255
0.128361
0.121582
0.118416
0.138137
0.136516
0.267211
0.139786
0.13769
0.116294
0.139855
0.136655
0.110335
0.136347
0.0461758
0.136224
0.130262
0.137538
0.0475486
0.065075
0.0575028
0.156933
0.140617
0.136017
0.081861
0.139077
0.07124
0.120218
0.132382
0.0445087
0.133118
0.199239
0.102251
0.144011
0.0289696
0.127739
0.139493
0.0831067