/*--------------------------------*- C++ -*----------------------------------*\
| =========                 |                                                 |
| \\      /  F ield         | OpenFOAM: The Open Source CFD Toolbox           |
|  \\    /   O peration     | Version:  2.3.0                                 |
|   \\  /    A nd           | Web:      www.OpenFOAM.org                      |
|    \\/     M anipulation  |                                                 |
\*---------------------------------------------------------------------------*/
FoamFile
{
    version     2.0;
    format      ascii;
    class       surfaceScalarField;
    location    "1000";
    object      phi;
}
// * * * * * * * * * * * * * * * * * * * * * * * * * * * * * * * * * * * * * //

dimensions      [0 3 -1 0 0 0 0];

internalField   nonuniform List<scalar> 
13119
(
-0.0248367
-0.0198745
0.0228288
0.0220464
-0.027017
-0.0161978
0.0183788
-0.0284938
-0.0131549
0.0146323
-0.0292982
-0.0106201
0.011425
-0.0295017
-0.00851035
0.00871381
-0.0292221
-0.00675517
0.00647607
-0.0285859
-0.00531118
0.00467454
-0.0277252
-0.00412672
0.00326658
-0.0267414
-0.00316795
0.00218333
-0.0257176
-0.00240463
0.00138174
-0.0247628
-0.0018068
0.000850901
-0.00133984
-0.0241083
0.000685907
-0.0214067
-0.0177586
0.01929
-0.0229342
-0.0146705
-0.0239572
-0.012132
-0.0245357
-0.0100414
-0.0247248
-0.00832141
-0.024565
-0.00691459
-0.0241106
-0.00576597
-0.0234035
-0.00483333
-0.0224899
-0.00408188
-0.0214128
-0.0034813
-0.020219
-0.00300107
-0.00261939
-0.0189391
-0.0186822
-0.016057
0.01698
-0.0198152
-0.0135378
-0.0204829
-0.0114646
-0.0207687
-0.00975578
-0.0207458
-0.00834459
-0.0204757
-0.00718466
-0.0200107
-0.00623127
-0.0193983
-0.00544555
-0.0186743
-0.00480619
-0.0178717
-0.00428366
-0.0170171
-0.00385599
-0.00351553
-0.0161207
-0.0164393
-0.0146416
0.0150236
-0.0173722
-0.0126051
-0.017912
-0.0109251
-0.0181285
-0.00953931
-0.0180859
-0.00838748
-0.0178354
-0.00743521
-0.0174204
-0.00664651
-0.0168743
-0.00599159
-0.016233
-0.00544776
-0.0155165
-0.00500009
-0.0147445
-0.00462816
-0.00432219
-0.0139378
-0.0145346
-0.0134241
0.013317
-0.0153267
-0.0118131
-0.0157735
-0.0104785
-0.0159481
-0.0093648
-0.015897
-0.00843876
-0.0156695
-0.00766267
-0.0153026
-0.00701363
-0.0148246
-0.00646962
-0.0142604
-0.00601209
-0.0136341
-0.0056263
-0.0129566
-0.00530587
-0.00503617
-0.0122425
-0.0129274
-0.0123623
0.0118656
-0.0136202
-0.0111203
-0.0140157
-0.0100831
-0.0141669
-0.00921364
-0.0141222
-0.00848354
-0.0139221
-0.0078628
-0.0135984
-0.00733746
-0.0131743
-0.00689377
-0.0126715
-0.00651502
-0.0121074
-0.00619035
-0.0114979
-0.00591541
-0.00568223
-0.0108519
-0.0115501
-0.0114097
0.0105974
-0.0121694
-0.010501
-0.0125212
-0.00973139
-0.0126581
-0.00907682
-0.0126227
-0.00851904
-0.0124453
-0.00804026
-0.012155
-0.00762777
-0.0117776
-0.00727122
-0.0113289
-0.00696374
-0.0108218
-0.00669752
-0.0102687
-0.00646855
-0.00626874
-0.0096822
-0.0103663
-0.0105616
0.00951819
-0.0109193
-0.00994792
-0.0112383
-0.00941247
-0.0113637
-0.0089514
-0.0113337
-0.00854906
-0.0111776
-0.00819641
-0.0109198
-0.00788567
-0.010581
-0.00760999
-0.0101749
-0.00736987
-0.00971702
-0.00715543
-0.00921725
-0.00696836
-0.0068041
-0.0086819
-0.00932797
-0.00980049
0.00856686
-0.0098332
-0.00944276
-0.0101212
-0.00912444
-0.0102393
-0.00883333
-0.0102155
-0.00857291
-0.0100749
-0.00833701
-0.00984236
-0.00811823
-0.00953515
-0.00791722
-0.0091685
-0.0077365
-0.00875383
-0.00757013
-0.0082985
-0.00742367
-0.00728922
-0.0078134
-0.00841721
0.00772756
-0.00911081
-0.00887295
-0.00898691
-0.00914029
-0.0088571
-0.00924877
-0.00872484
-0.00923069
-0.00859104
-0.00910392
-0.00846381
-0.00889511
-0.00832707
-0.00861706
-0.00819525
-0.00828531
-0.00806827
-0.00790567
-0.00794975
-0.00749268
-0.00783669
-0.00704968
-0.00773219
-0.0217103
-0.00116753
-0.00123156
-0.0197103
-0.00130035
-0.000699582
-0.0178511
-0.00152785
-0.000332185
-0.0160815
-0.00184528
7.55921e-05
-0.0144097
-0.00227201
0.000599843
-0.0128626
-0.00283579
0.00128859
-0.0114931
-0.0035681
0.00219854
-0.0103664
-0.00451025
0.0033834
-0.0095548
-0.0057112
0.0048997
-0.00912966
-0.00723239
0.00680716
-0.00915754
-0.00914992
0.00917807
-0.0115491
0.0121215
-0.00972999
-0.0176044
-0.00250273
-0.0162827
-0.00262187
-0.0150092
-0.00280179
-0.0137953
-0.00305903
-0.0126613
-0.00340625
-0.0116289
-0.00386818
-0.0107249
-0.0044722
-0.0099845
-0.00525071
-0.00944891
-0.00624683
-0.00917089
-0.00751042
-0.00922063
-0.00910014
-0.0110785
-0.00969129
-0.0152091
-0.00341457
-0.0142923
-0.00353845
-0.0133813
-0.00371283
-0.0124907
-0.00394954
-0.0116358
-0.00426122
-0.0108381
-0.00466575
-0.0101246
-0.00518575
-0.00953129
-0.00584397
-0.00910305
-0.00667509
-0.00889468
-0.00771879
-0.00897111
-0.00902377
-0.0106408
-0.00940882
-0.0131244
-0.00422803
-0.0123358
-0.00432704
-0.0115774
-0.00447128
-0.0108582
-0.00466861
-0.0101898
-0.00492961
-0.00958623
-0.00526927
-0.00906858
-0.00570338
-0.0086621
-0.00625043
-0.00839909
-0.00693808
-0.00832362
-0.0077943
-0.00849112
-0.00885627
-0.0101672
-0.00896484
-0.0115282
-0.00494247
-0.0108432
-0.00501194
-0.0101934
-0.00512114
-0.0095877
-0.0052742
-0.00903399
-0.00548332
-0.00854724
-0.00575596
-0.00814521
-0.00610538
-0.0078481
-0.00654751
-0.00768559
-0.00710058
-0.00769292
-0.00778695
-0.00791491
-0.00863435
-0.00966877
-0.00841326
-0.0102054
-0.00558899
-0.00959325
-0.00562404
-0.00901985
-0.00569457
-0.00849132
-0.0058027
-0.00801949
-0.00595514
-0.00761596
-0.00615946
-0.00729527
-0.00642604
-0.00707715
-0.00676561
-0.00698645
-0.00719126
-0.0070522
-0.00772122
-0.00731244
-0.00837409
-0.00916973
-0.00781143
-0.00909826
-0.00617298
-0.00854613
-0.00617617
-0.00803246
-0.00620825
-0.00756644
-0.0062687
-0.00715599
-0.00636559
-0.00681109
-0.00650434
-0.00654821
-0.0066889
-0.00638431
-0.00692949
-0.00634017
-0.00723538
-0.00644292
-0.00761846
-0.00672652
-0.00809047
-0.00866317
-0.00723302
-0.00814887
-0.00670604
-0.00764848
-0.00667655
-0.00718815
-0.0066686
-0.00677191
-0.00668492
-0.00640857
-0.00672894
-0.00611003
-0.00680285
-0.00589043
-0.0069085
-0.00576382
-0.00705608
-0.00575142
-0.00724779
-0.00587609
-0.00749378
-0.00616759
-0.00779897
-0.00816675
-0.00666401
-0.00732821
-0.0071912
-0.00687387
-0.00713092
-0.00645738
-0.00708508
-0.00608462
-0.00705772
-0.00576048
-0.00705303
-0.00549888
-0.00706448
-0.00531091
-0.00709642
-0.00521312
-0.00715389
-0.00522181
-0.00723908
-0.00535796
-0.00735767
-0.00564851
-0.00750845
-0.00768922
-0.00612604
-0.00660884
-0.00763207
-0.00619482
-0.00754493
-0.0058157
-0.00746421
-0.00548121
-0.00739218
-0.0051929
-0.00734138
-0.00496108
-0.00729628
-0.004799
-0.00725857
-0.00471869
-0.00723419
-0.00474274
-0.00721508
-0.00488232
-0.00721812
-0.00516774
-0.00722308
-0.00562301
-0.00723396
0.00426776
-0.00154014
0.00187783
-0.00460557
0.00404634
-0.000680716
0.000902135
0.00389187
-3.85572e-05
0.000192841
0.00375475
0.000428844
-0.00029154
0.0035903
0.000763662
-0.000599482
0.00335987
0.00100856
-0.000777695
0.00302653
0.00119947
-0.000866393
0.00255235
0.00137658
-0.000901706
0.00188587
0.00157998
-0.00091376
0.000957836
0.00185813
-0.000929105
-0.000352157
0.00227846
-0.000968901
0.00294316
-0.00226789
-0.00102639
0.00373061
-0.00119414
-0.00407665
0.00347608
-0.000426157
0.00326301
0.000174363
0.00304694
0.000644937
0.00278634
0.00102401
0.00244673
0.00134823
0.00199214
0.00165374
0.00139342
0.00197541
0.000620432
0.00235265
-0.000346531
0.00282523
-0.00150233
0.00343388
0.00418602
-0.00274497
0.00310453
-0.00083533
-0.00346332
0.00281782
-0.00013944
0.00255979
0.000432276
0.00229309
0.000911618
0.00198543
0.00133143
0.00160878
0.00172488
0.00114014
0.00212214
0.00055954
0.00255602
-0.000145702
0.00305765
-0.00097728
0.00365683
-0.00191603
0.00437242
0.00519345
-0.0029234
0.00251125
-0.000486703
-0.0028598
0.00222471
0.000147122
0.00196376
0.000693149
0.00169778
0.00117756
0.00139991
0.00162916
0.00104786
0.00207689
0.00062361
0.00254619
0.000112612
0.00306697
-0.000496439
0.00366651
-0.00120537
0.00436569
-0.00201349
0.00518034
0.00609757
-0.00291767
0.00200217
-0.000171013
-0.00231778
0.00174051
0.000408789
0.00150374
0.000929869
0.00126426
0.00141702
0.000998897
0.00189442
0.000689734
0.00238601
0.000319089
0.00291671
-0.000124222
0.00351023
-0.000651673
0.00419383
-0.00127329
0.00498725
-0.00199203
0.00589895
0.00692071
-0.00281526
0.00158259
0.000103852
-0.00185744
0.00135777
0.000633622
0.00115463
0.00113297
0.000949695
0.00162193
0.000722733
0.00212131
0.000456088
0.00265262
0.000134772
0.00323794
-0.000254235
0.00389919
-0.000719473
0.00465898
-0.00127331
0.00554103
-0.00192376
0.00654931
0.00767199
-0.00267511
0.00124161
0.000333176
-0.00147092
0.00105588
0.00081934
0.000888478
0.00130033
0.000717692
0.0017927
0.000526282
0.00231266
0.000297396
0.00288147
1.7459e-05
0.00351782
-0.000325397
0.00424201
-0.000742074
0.00507559
-0.00123975
0.00603865
-0.00183005
0.00713953
0.00836071
-0.00251884
0.000964793
0.000517328
-0.00114895
0.00081639
0.000967737
0.000681861
0.00143483
0.000541642
0.00193289
0.000382432
0.00247183
0.000185963
0.00307791
-6.03121e-05
0.00376404
-0.000365993
0.00454765
-0.000739032
0.00544858
-0.00119064
0.00649022
-0.00173059
0.00767944
0.00899206
-0.00236199
0.000738855
0.00065902
-0.000880475
0.00062268
0.00108395
0.00051691
0.00154062
0.000403112
0.00204669
0.000273406
0.00260152
0.000105537
0.00324575
-0.00010974
0.00397929
-0.000385953
0.00482384
-0.000720667
0.00578326
-0.00112989
0.0068994
-0.00162298
0.00817249
0.00957328
-0.00220424
0.000561209
0.000769834
-0.000671925
0.000468119
0.00117709
0.00038387
0.00162493
0.000293374
0.00213721
0.000192695
0.0027022
5.09749e-05
0.00338745
-0.000137166
0.00416741
-0.000385232
0.00507188
-0.000687944
0.00608594
-0.00106227
0.00727369
-0.0015112
0.00862139
-0.00204178
0.0101038
-0.00318704
0.00435121
-0.00343262
-0.00446512
0.00596917
-0.00469045
-0.00573247
0.00719075
-0.00592386
-0.00681992
0.00836618
-0.00727843
-0.00767737
0.00968158
-0.00882432
-0.00825722
0.0111933
-0.0106134
-0.00852416
0.0129632
-0.0126963
-0.00841513
0.0150412
-0.0151503
-0.00787418
0.0175075
-0.0180484
-0.0068237
0.0204272
-0.0214778
-0.00517813
0.0238953
-0.025541
0.0280064
-0.03035
-0.00283458
-0.00377931
0.00538516
-0.00488129
0.00707143
-0.00600965
0.00831884
-0.00695418
0.00931091
-0.0076752
0.0104024
-0.00814093
0.0116591
-0.00831551
0.0131377
-0.00815738
0.0148831
-0.00760681
0.0169569
-0.00659672
0.0194171
-0.00504512
0.0223437
0.0258252
-0.00286392
-0.00393366
0.00639522
-0.00490066
0.00803852
-0.00588028
0.00929827
-0.00671714
0.0101478
-0.00735267
0.0110379
-0.00776182
0.0120683
-0.0079051
0.0132809
-0.00774454
0.0147225
-0.00722644
0.0164388
-0.00628637
0.018477
-0.00484638
0.0209037
0.0237841
-0.00280543
-0.00386417
0.00734153
-0.00475086
0.00892515
-0.00561562
0.0101629
-0.00636197
0.0108942
-0.00693011
0.0116059
-0.00729484
0.012433
-0.00742254
0.0134086
-0.00727285
0.0145728
-0.00679131
0.0159572
-0.00592562
0.0176113
-0.00460281
0.0195808
0.0219225
-0.0027411
-0.00368967
0.00821581
-0.00451511
0.00975051
-0.00528546
0.0109331
-0.00596052
0.0115691
-0.00647605
0.0121213
-0.00680576
0.0127627
-0.00691989
0.0135227
-0.00678039
0.0144333
-0.00634272
0.0155195
-0.00555178
0.0168203
-0.00433857
0.0183676
0.020216
-0.00263215
-0.00347815
0.00901875
-0.0042387
0.010511
-0.00493804
0.0116323
-0.00554928
0.0121803
-0.00601662
0.0125886
-0.00631641
0.0130624
-0.00642442
0.0136306
-0.00629735
0.0143062
-0.00589832
0.0151205
-0.00517235
0.0160944
-0.00406799
0.0172632
0.0186577
-0.00250967
-0.00325817
0.00975801
-0.00395774
0.0112104
-0.00459248
0.012267
-0.00514165
0.0127294
-0.00556672
0.0130136
-0.00584216
0.0133378
-0.00593785
0.0137263
-0.00582562
0.0141939
-0.00546207
0.0147569
-0.00480518
0.0154375
-0.00379631
0.0162543
0.0172377
-0.00237637
-0.00303742
0.0104334
-0.00367611
0.0118491
-0.00425024
0.012841
-0.00475294
0.013232
-0.00513949
0.0134001
-0.0053892
0.0135874
-0.00547876
0.0138158
-0.00537349
0.0140886
-0.00504529
0.0144287
-0.00444635
0.0148385
-0.00353157
0.0153395
0.0159416
-0.00223547
-0.00282565
0.0110547
-0.00341057
0.0124339
-0.00392992
0.0133603
-0.0043824
0.0136844
-0.0047367
0.0137543
-0.00496407
0.0138148
-0.00504246
0.0138941
-0.00495094
0.0139971
-0.00465121
0.0141289
-0.00410928
0.0142966
-0.00327295
0.0145032
0.0147652
-0.00209658
-0.0026071
0.01162
-0.00312199
0.0129488
-0.00359331
0.0138316
-0.0040223
0.0141134
-0.00435537
0.0140874
-0.00456392
0.0140233
-0.00463721
0.0139674
-0.00455232
0.0139122
-0.00428133
0.0138579
-0.0037883
0.0138035
-0.00303021
0.0137451
0.0136933
-0.00195831
0.00219433
-0.00150808
0.0042616
-0.00121628
0.00652458
-0.000881066
0.00907258
-0.000364503
0.0118464
0.000492759
0.0146782
0.00184299
0.0173457
0.00380865
0.0196012
0.00645851
0.0212208
0.00980601
0.0220568
0.0137968
0.0221077
0.0183275
0.0233863
0.0215501
-0.000285189
-0.00122433
-1.37264e-06
-0.00150052
0.000744607
-0.00162819
0.0019808
-0.00160058
0.00377012
-0.0012972
0.00616779
-0.000554523
0.00914421
0.000832088
0.0124725
0.00313023
0.0157375
0.00654112
0.0184438
0.0110906
0.0201858
0.0165856
0.0227365
0.0208349
-8.91868e-05
-0.00113572
-0.000166006
-0.00142317
-0.00015106
-0.00164361
4.35049e-05
-0.00179497
0.000570676
-0.00182488
0.00164189
-0.00162559
0.00347754
-0.00100378
0.00620819
0.000399604
0.00970182
0.00304748
0.013468
0.00732449
0.0167816
0.0132713
0.0205027
0.0190152
-1.71957e-05
-0.00111931
-4.31147e-06
-0.00143611
4.03471e-05
-0.00168894
0.000144935
-0.00189946
0.000359932
-0.00204016
0.000782953
-0.00204853
0.00158121
-0.00180204
0.00303546
-0.00105463
0.00544509
0.000637941
0.00884755
0.00392171
0.012746
0.00937277
0.0169881
0.0162603
-1.3969e-05
-0.00110537
-2.05388e-05
-0.00142888
-9.03536e-06
-0.00170052
3.73353e-05
-0.00194559
0.000148204
-0.00215109
0.000372301
-0.00227261
0.000797648
-0.00222742
0.00159313
-0.00185002
0.00304649
-0.000815463
0.00550303
0.00146537
0.0090222
0.00585301
0.0129779
0.0130326
-8.34257e-06
-0.00109777
-5.74625e-06
-0.00143139
1.0341e-05
-0.00171706
4.95874e-05
-0.00198475
0.000127741
-0.00222934
0.000274093
-0.00241904
0.000538466
-0.00249179
0.00101986
-0.00233146
0.00190474
-0.00170027
0.00351279
-0.00014302
0.00621644
0.00314958
0.00918494
0.0100097
-2.73909e-06
-0.0010946
2.94214e-07
-0.00143359
1.25418e-05
-0.00172927
4.12932e-05
-0.00201317
9.84074e-05
-0.00228646
0.000203595
-0.00252424
0.000389855
-0.00267806
0.00071738
-0.00265902
0.00130666
-0.00228959
0.0023781
-0.00121441
0.00429758
0.00123027
0.00611398
0.00736903
-1.243e-06
-0.00109387
2.98991e-06
-0.00143746
1.43063e-05
-0.00174096
3.90746e-05
-0.00203768
8.45945e-05
-0.00233202
0.000166627
-0.00260628
0.000307937
-0.00281944
0.000548926
-0.00290006
0.00096817
-0.00270888
0.0017195
-0.00196568
0.00307693
-0.000126869
0.00376726
0.00542365
-4.26545e-08
-0.00109307
3.6782e-06
-0.00144011
1.20477e-05
-0.00174914
3.02924e-05
-0.00205547
6.52169e-05
-0.00236702
0.000128944
-0.00266993
0.000239539
-0.00293009
0.000425758
-0.00308633
0.000742513
-0.00302566
0.0012973
-0.00252034
0.00228951
-0.00111943
0.00201105
0.00404587
-1.5624e-06
-0.00109174
-4.12849e-07
-0.00144078
3.95972e-06
-0.00175395
1.64299e-05
-0.00206759
4.16382e-05
-0.00239234
8.99506e-05
-0.00271814
0.000175267
-0.00301542
0.000320009
-0.00323109
0.000563952
-0.00326948
0.000983841
-0.00294043
0.00172542
-0.00186071
0.000705352
0.00303113
-2.89322e-06
-0.00108784
-4.38385e-06
-0.00143796
-4.19298e-06
-0.0017538
1.72412e-06
-0.0020728
1.71674e-05
-0.00240777
5.05839e-05
-0.00275125
0.000114079
-0.00307882
0.000226072
-0.00334293
0.000416593
-0.00345994
0.000744274
-0.00326791
0.0013194
-0.00243598
-0.000326295
0.00235141
-5.41785e-06
-0.0010823
-9.96961e-06
-0.00143254
-1.42219e-05
-0.00174981
-1.39613e-05
-0.00207241
-7.00231e-06
-0.0024147
1.40962e-05
-0.00277199
5.87452e-05
-0.00312333
0.000142362
-0.00342644
0.000289133
-0.00360648
0.000543415
-0.0035223
0.000992993
-0.00288536
-0.00110052
0.00176805
-6.77254e-06
-0.00107445
-1.37226e-05
-0.00142409
-2.11275e-05
-0.00174205
-2.58954e-05
-0.00206677
-2.5863e-05
-0.00241465
-1.47239e-05
-0.00278268
1.55015e-05
-0.00315339
7.85649e-05
-0.00348925
0.000195157
-0.00372285
0.000404053
-0.00373095
0.000782547
-0.00326343
-0.00182354
0.00150628
-8.74157e-06
-0.00106563
-1.77607e-05
-0.0014141
-2.83032e-05
-0.00173178
-3.67005e-05
-0.00205762
-4.20935e-05
-0.00240926
-3.88251e-05
-0.00278544
-2.06001e-05
-0.00317141
2.43237e-05
-0.00353385
0.000113338
-0.0038115
0.000277989
-0.00389526
0.000584336
-0.00356921
-0.00239599
0.00115706
-9.38903e-06
-0.00105533
-1.9694e-05
-0.00140228
-3.22966e-05
-0.00171898
-4.35448e-05
-0.00204537
-5.31567e-05
-0.00239955
-5.58919e-05
-0.0027821
-4.6454e-05
-0.00318056
-1.45294e-05
-0.00356538
5.54997e-05
-0.00388116
0.000190744
-0.00403003
0.000444797
-0.00382317
-0.00287715
0.000926015
-1.05563e-05
-0.00104451
-2.2142e-05
-0.00138948
-3.64903e-05
-0.00170477
-5.01697e-05
-0.00203078
-6.31063e-05
-0.00238654
-7.07378e-05
-0.00277384
-6.87481e-05
-0.00318226
-4.82049e-05
-0.00358553
4.39971e-06
-0.00393326
0.000110972
-0.00413639
0.000315618
-0.00402744
-0.00327093
0.00070919
-1.06285e-05
-0.00103283
-2.32309e-05
-0.00137528
-3.87835e-05
-0.00168896
-5.45185e-05
-0.00201399
-7.03134e-05
-0.00237061
-8.20512e-05
-0.00276144
-8.59573e-05
-0.003178
-7.42514e-05
-0.00359676
-3.53588e-05
-0.0039717
4.98715e-05
-0.00422119
0.000217322
-0.00419492
-0.00359324
0.000539684
-1.15441e-05
-0.00102087
-2.48667e-05
-0.00136063
-4.18379e-05
-0.00167204
-5.90016e-05
-0.00199585
-7.69975e-05
-0.00235248
-9.19511e-05
-0.0027458
-0.000100832
-0.00316876
-9.6476e-05
-0.00360065
-6.85131e-05
-0.00399914
-5.11005e-07
-0.00428895
0.000138331
-0.00433363
-0.00386217
0.00040763
-1.17625e-05
-0.00100811
-2.59297e-05
-0.00134485
-4.39292e-05
-0.00165378
-6.28095e-05
-0.00197586
-8.30291e-05
-0.00233204
-0.000101135
-0.00272697
-0.000114391
-0.0031551
-0.000116631
-0.00359789
-9.83204e-05
-0.0040169
-4.44937e-05
-0.00434243
7.22878e-05
-0.00444997
-0.004101
0.000311469
-1.25348e-05
-0.000994913
-2.75841e-05
-0.00132831
-4.68541e-05
-0.00163444
-6.72361e-05
-0.0019544
-8.95536e-05
-0.00230953
-0.000110644
-0.00270511
-0.000128368
-0.00313696
-0.00013715
-0.00358853
-0.000128808
-0.00402467
-9.02068e-05
-0.00438048
1.44498e-06
-0.00454141
-0.00428535
0.000186413
-1.30542e-05
-0.00098089
-2.90432e-05
-0.00131065
-4.95019e-05
-0.00161374
-7.14452e-05
-0.00193129
-9.59222e-05
-0.00228482
-0.000119818
-0.00268039
-0.000141618
-0.0031147
-0.000156318
-0.00357323
-0.000156358
-0.00402398
-0.000129725
-0.00440667
-5.54588e-05
-0.00461517
-0.00444723
0.000106948
-1.39375e-05
-0.000966198
-3.08638e-05
-0.00129211
-5.26708e-05
-0.00159186
-7.61459e-05
-0.00190666
-0.000102632
-0.00225811
-0.00012938
-0.00265281
-0.000155224
-0.00308837
-0.000175847
-0.00355197
-0.000185012
-0.00401415
-0.000172513
-0.00441868
-0.000121089
-0.00466598
-0.00456913
1.38159e-06
-1.45982e-05
-0.000950797
-3.24876e-05
-0.00127254
-5.53162e-05
-0.00156889
-8.02165e-05
-0.00188054
-0.000108487
-0.00222959
-0.000137649
-0.00262273
-0.000166893
-0.00305862
-0.000192393
-0.00352582
-0.000208525
-0.00399735
-0.000205733
-0.00442088
-0.000168161
-0.00470306
-0.00466906
-6.74978e-05
-1.5218e-05
-0.000934648
-3.37969e-05
-0.00125217
-5.78412e-05
-0.00154469
-8.39225e-05
-0.00185318
-0.000113927
-0.00219935
-0.000145336
-0.00259043
-0.000177832
-0.00302563
-0.000207999
-0.00349503
-0.000230833
-0.00397385
-0.000237706
-0.00441348
-0.000213771
-0.00472639
-0.00475338
-0.000128929
-1.57732e-05
-0.000918051
-3.51756e-05
-0.00123106
-5.99573e-05
-0.00151976
-8.70542e-05
-0.00182486
-0.000118376
-0.00216781
-0.000151755
-0.00255616
-0.000187075
-0.00298988
-0.000221407
-0.00346006
-0.000250682
-0.00394398
-0.000267394
-0.0043962
-0.000258974
-0.0047344
-0.00480789
-0.000203868
-1.60605e-05
-0.000900781
-3.59062e-05
-0.0012093
-6.13199e-05
-0.0014941
-8.92951e-05
-0.00179562
-0.000121715
-0.00213518
-0.000156596
-0.00252048
-0.000193986
-0.00295205
-0.000231524
-0.00342198
-0.000265418
-0.00390951
-0.000288653
-0.00437248
-0.000288907
-0.00473391
-0.00485454
-0.000241885
-1.65769e-05
-0.000883516
-3.69185e-05
-0.00118732
-6.27114e-05
-0.00146826
-9.12448e-05
-0.00176595
-0.000124344
-0.0021019
-0.000160127
-0.00248393
-0.000199404
-0.00291242
-0.000239932
-0.00338089
-0.000278842
-0.00387001
-0.000310912
-0.00434014
-0.000325569
-0.00471872
-0.00487773
-0.000301918
-1.64922e-05
-0.000865717
-3.68644e-05
-0.00116504
-6.27978e-05
-0.00144202
-9.13766e-05
-0.00173618
-0.000124604
-0.00206851
-0.000161194
-0.00244658
-0.00020135
-0.00287185
-0.000243446
-0.00333822
-0.000285216
-0.00382763
-0.000322194
-0.00430266
-0.000346109
-0.0046946
-0.00488173
-0.000341772
-1.6754e-05
-0.000848364
-3.72664e-05
-0.00114302
-6.29175e-05
-0.00141638
-9.09595e-05
-0.00170706
-0.000123966
-0.00203525
-0.000160277
-0.00240952
-0.00020044
-0.00283128
-0.000242996
-0.00329505
-0.000286267
-0.0037838
-0.000325454
-0.00426295
-0.000353666
-0.00466641
-0.0048777
-0.000357903
-1.60549e-05
-0.000830855
-3.58672e-05
-0.00112129
-6.08092e-05
-0.00139095
-8.88395e-05
-0.00167785
-0.000121295
-0.00200258
-0.000157096
-0.00237293
-0.00019704
-0.00279088
-0.000239931
-0.00325167
-0.000283708
-0.0037394
-0.000325078
-0.00422139
-0.000356084
-0.00463514
-0.00487161
-0.000362304
-1.60864e-05
-0.000814226
-3.55702e-05
-0.00110054
-5.99381e-05
-0.00136663
-8.6644e-05
-0.00165015
-0.000117808
-0.00197115
-0.00015231
-0.00233773
-0.000191459
-0.00275134
-0.000234162
-0.00320843
-0.000278714
-0.00369432
-0.000321818
-0.00417779
-0.000356787
-0.00460005
-0.00485421
-0.000373906
-1.5115e-05
-0.000797697
-3.37251e-05
-0.00108019
-5.66647e-05
-0.00134311
-8.21667e-05
-0.00162355
-0.000111928
-0.00194119
-0.000145394
-0.00230348
-0.000183074
-0.00271327
-0.000224617
-0.0031664
-0.00026875
-0.00364957
-0.000312885
-0.0041332
-0.000350746
-0.00456177
-0.00483801
-0.000366465
-1.46932e-05
-0.00078261
-3.22694e-05
-0.00106157
-5.37801e-05
-0.00132165
-7.72418e-05
-0.00159917
-0.000105034
-0.00191314
-0.000135977
-0.00227182
-0.000171403
-0.00267751
-0.000210543
-0.0031267
-0.000253669
-0.0036059
-0.000299004
-0.00408739
-0.000343594
-0.00451653
-0.00479757
-0.000383484
-1.25662e-05
-0.000768351
-2.83878e-05
-0.00104401
-4.77865e-05
-0.00130148
-6.95966e-05
-0.00157634
-9.48694e-05
-0.00188758
-0.000123043
-0.00224296
-0.000155099
-0.0026451
-0.000190409
-0.00309085
-0.000228253
-0.00356757
-0.000266615
-0.00404842
-0.000301391
-0.00448153
-0.00477184
-0.000326801
-1.19754e-05
-0.000755952
-2.63452e-05
-0.00102873
-4.38459e-05
-0.00128395
-6.28533e-05
-0.00155654
-8.50572e-05
-0.00186506
-0.000109975
-0.00221742
-0.000138225
-0.0026165
-0.000169746
-0.00305885
-0.000203036
-0.00353376
-0.000235838
-0.0040153
-0.000262017
-0.00445505
-0.00476721
-0.00026655
-1.00432e-05
-0.00074425
-2.2504e-05
-0.0010146
-3.75845e-05
-0.00126804
-5.43712e-05
-0.00153875
-7.38721e-05
-0.0018452
-9.58844e-05
-0.00219477
-0.000121119
-0.00259081
-0.000148999
-0.00303048
-0.000178997
-0.00350315
-0.000209734
-0.00398416
-0.000236749
-0.00442776
-0.0047535
-0.000249993
-9.17264e-06
-0.000734716
-1.97402e-05
-0.00100313
-3.28066e-05
-0.00125498
-4.66575e-05
-0.00152413
-6.3257e-05
-0.00182827
-8.16371e-05
-0.00217566
-0.000102866
-0.00256912
-0.000126287
-0.0030064
-0.000152237
-0.00347655
-0.000179016
-0.00395687
-0.000203747
-0.00440221
-0.00473376
-0.000223004
-6.65944e-06
-0.000726143
-1.51508e-05
-0.000992866
-2.56726e-05
-0.0012436
-3.7309e-05
-0.00151141
-5.09547e-05
-0.00181416
-6.61533e-05
-0.00215973
-8.35639e-05
-0.00255113
-0.000102818
-0.00298646
-0.000123542
-0.0034552
-0.000144678
-0.00393495
-0.000164059
-0.00438247
-0.0047211
-0.000176153
-6.1757e-06
-0.000719825
-1.28059e-05
-0.000985382
-2.11798e-05
-0.00123525
-2.98072e-05
-0.00150202
-4.01154e-05
-0.00180348
-5.15597e-05
-0.00214756
-6.46632e-05
-0.00253758
-7.9523e-05
-0.002971
-9.51578e-05
-0.00343896
-0.000110887
-0.00391888
-0.000123934
-0.00436896
-0.00471455
-0.000130419
-3.93547e-06
-0.000714349
-8.58894e-06
-0.000979259
-1.45208e-05
-0.00122873
-2.0794e-05
-0.0014948
-2.83651e-05
-0.00179567
-3.67262e-05
-0.00213862
-4.64245e-05
-0.00252744
-5.67988e-05
-0.00296019
-6.76268e-05
-0.00342764
-7.80483e-05
-0.00390822
-8.59571e-05
-0.00436094
-0.00471431
-8.62397e-05
-3.40269e-06
-0.000711148
-6.1201e-06
-0.000976012
-1.00513e-05
-0.00122504
-1.3663e-05
-0.00149065
-1.82829e-05
-0.00179092
-2.32048e-05
-0.00213327
-2.90564e-05
-0.00252143
-3.51063e-05
-0.00295386
-4.10581e-05
-0.00342146
-4.6005e-05
-0.00390304
-4.84766e-05
-0.00435852
-0.0047146
-4.83209e-05
-7.15469e-07
-0.000708803
-1.74502e-06
-0.00097371
-3.15304e-06
-0.00122299
-4.84229e-06
-0.00148837
-7.41471e-06
-0.00178828
-9.77985e-06
-0.00213064
-1.21658e-05
-0.00251894
-1.4072e-05
-0.00295189
-1.48501e-05
-0.00342058
-1.33063e-05
-0.00390457
-7.04305e-06
-0.00436475
-0.00473212
1.08421e-05
-5.60246e-07
-0.00070838
7.59029e-07
-0.000974922
6.20806e-07
-0.00122318
1.09282e-06
-0.00148872
1.07504e-06
-0.00178829
1.54294e-06
-0.00213103
2.45223e-06
-0.00251989
4.00453e-06
-0.0029534
7.29818e-06
-0.00342383
1.36855e-05
-0.00391089
2.50066e-05
-0.00437549
-0.00474617
3.92704e-05
1.39477e-06
-0.000708617
3.40967e-06
-0.000976025
5.42119e-06
-0.00122455
7.30348e-06
-0.00149024
9.48803e-06
-0.00179032
1.23318e-05
-0.00213373
1.55211e-05
-0.00252298
2.03279e-05
-0.00295806
2.7534e-05
-0.00343082
3.91003e-05
-0.00392189
5.79477e-05
-0.00439426
-0.00478333
9.63986e-05
2.26495e-06
-0.000710989
5.80315e-06
-0.000979435
8.83889e-06
-0.00122771
1.23575e-05
-0.00149352
1.63436e-05
-0.00179416
2.05243e-05
-0.0021376
2.62872e-05
-0.00252847
3.34355e-05
-0.00296482
4.29719e-05
-0.00343988
5.58643e-05
-0.00393445
7.45733e-05
-0.00441193
-0.00480679
9.88444e-05
4.56438e-06
-0.000713896
9.293e-06
-0.000982983
1.36374e-05
-0.00123124
1.82992e-05
-0.00149754
2.31351e-05
-0.0017985
2.91255e-05
-0.00214313
3.619e-05
-0.0025351
4.61284e-05
-0.00297425
5.85273e-05
-0.00345189
7.53271e-05
-0.00395043
9.70396e-05
-0.00443341
-0.00482995
0.000121424
4.95365e-06
-0.000718748
1.09737e-05
-0.000988673
1.58532e-05
-0.00123602
2.06486e-05
-0.00150195
2.7205e-05
-0.0018047
3.45267e-05
-0.00215
4.35693e-05
-0.00254369
5.49601e-05
-0.0029852
7.01976e-05
-0.00346655
9.03072e-05
-0.00397048
0.000119865
-0.00446163
-0.00488298
0.000173426
6.8617e-06
-0.000723896
1.24252e-05
-0.000993188
1.78738e-05
-0.00124065
2.39234e-05
-0.00150741
2.979e-05
-0.00181008
3.80969e-05
-0.00215782
4.77334e-05
-0.0025528
5.99515e-05
-0.00299686
7.57449e-05
-0.00348197
9.68566e-05
-0.0039908
0.000123619
-0.00448808
-0.00490782
0.000149257
6.7896e-06
-0.000730717
1.28354e-05
-0.000998984
1.81285e-05
-0.00124589
2.396e-05
-0.00151283
3.07764e-05
-0.0018164
3.81405e-05
-0.00216468
4.87169e-05
-0.00256288
6.19992e-05
-0.00300967
7.97596e-05
-0.00349919
0.000104394
-0.00401522
0.000138837
-0.00452129
-0.00495457
0.000185635
7.54253e-06
-0.000736635
1.36853e-05
-0.00100399
1.87138e-05
-0.0012499
2.37432e-05
-0.00151718
2.90831e-05
-0.00182116
3.58687e-05
-0.00217098
4.44275e-05
-0.0025709
5.69748e-05
-0.0030217
7.45741e-05
-0.00351646
9.99842e-05
-0.00403985
0.000136812
-0.0045581
-0.00501529
0.000197521
7.35345e-06
-0.000744297
1.16932e-05
-0.00100832
1.56556e-05
-0.00125399
1.86929e-05
-0.00151999
2.28549e-05
-0.001825
2.85433e-05
-0.00217628
3.55896e-05
-0.00257757
4.55623e-05
-0.00303135
6.04593e-05
-0.00353089
8.17533e-05
-0.00406092
0.000112404
-0.00458857
-0.00505054
0.00014753
7.16614e-06
-0.00075032
1.05332e-05
-0.00101101
1.22422e-05
-0.00125508
1.43458e-05
-0.00152167
1.60342e-05
-0.00182638
1.81551e-05
-0.0021781
2.26607e-05
-0.00258166
2.92053e-05
-0.00303756
4.06197e-05
-0.00354181
5.9087e-05
-0.00407903
8.85143e-05
-0.0046178
-0.00510024
0.000139149
5.17009e-06
-0.000756234
6.74899e-06
-0.00101281
6.65317e-06
-0.00125527
6.01599e-06
-0.00152097
5.15614e-06
-0.00182542
4.25628e-06
-0.00217689
4.2868e-06
-0.00258147
6.06204e-06
-0.0030389
1.2093e-05
-0.00354733
2.4445e-05
-0.00409084
4.74467e-05
-0.00463972
-0.00513998
8.78214e-05
4.27783e-06
-0.000759379
4.30885e-06
-0.00101234
1.90443e-06
-0.00125242
-1.75656e-06
-0.00151703
-6.80391e-06
-0.00182028
-1.19691e-05
-0.0021715
-1.73075e-05
-0.00257588
-2.01061e-05
-0.00303574
-2.06938e-05
-0.00354647
-1.51543e-05
-0.00409565
-1.33176e-06
-0.00465365
-0.00515961
1.93787e-05
2.39418e-06
-0.000762566
-1.13107e-06
-0.00100921
-6.17638e-06
-0.00124777
-1.39763e-05
-0.00150934
-2.26843e-05
-0.00181161
-3.1976e-05
-0.0021621
-4.23683e-05
-0.00256549
-5.21113e-05
-0.00302591
-5.91711e-05
-0.00353918
-6.12156e-05
-0.00409371
-5.263e-05
-0.00466167
-0.00519111
-2.13893e-05
-1.3552e-07
-0.000761759
-5.6887e-06
-0.00100347
-1.47102e-05
-0.00123848
-2.55876e-05
-0.00149841
-3.93052e-05
-0.00179793
-5.5453e-05
-0.00214598
-7.19891e-05
-0.00254898
-8.97981e-05
-0.00300811
-0.000106873
-0.00352224
-0.000119485
-0.0040809
-0.000124383
-0.00465715
-0.00519925
-0.000116114
-3.79579e-06
-0.00075896
-1.23141e-05
-0.000995515
-2.47872e-05
-0.00122642
-4.05786e-05
-0.00148288
-5.93116e-05
-0.00177934
-8.11718e-05
-0.00212427
-0.0001058
-0.00252459
-0.000132335
-0.00298177
-0.000157992
-0.00349666
-0.000181761
-0.00405755
-0.000198198
-0.00464039
-0.0051962
-0.000201889
-5.98232e-06
-0.000752267
-1.77599e-05
-0.000983646
-3.45259e-05
-0.00120934
-5.61513e-05
-0.00146136
-8.12541e-05
-0.0017544
-0.000110555
-0.00209514
-0.000143908
-0.00249142
-0.000178989
-0.00294683
-0.000216151
-0.00345974
-0.000251439
-0.00402223
-0.000280824
-0.00461163
-0.00518064
-0.000296697
-9.62831e-06
-0.000743534
-2.65217e-05
-0.000967419
-4.84912e-05
-0.00118785
-7.51762e-05
-0.00143498
-0.000107605
-0.00172215
-0.000144292
-0.00205863
-0.000186393
-0.00244953
-0.000232716
-0.0029007
-0.000281491
-0.0034111
-0.000330259
-0.00397387
-0.000373379
-0.00456856
-0.00515169
-0.000402911
-1.30289e-05
-0.000730179
-3.41383e-05
-0.000946366
-6.14663e-05
-0.00116027
-9.52649e-05
-0.00140131
-0.00013511
-0.0016824
-0.000181999
-0.00201188
-0.00023436
-0.00239729
-0.000293502
-0.00284167
-0.000356342