/*--------------------------------*- C++ -*----------------------------------*\
| =========                 |                                                 |
| \\      /  F ield         | OpenFOAM: The Open Source CFD Toolbox           |
|  \\    /   O peration     | Version:  2.3.0                                 |
|   \\  /    A nd           | Web:      www.OpenFOAM.org                      |
|    \\/     M anipulation  |                                                 |
\*---------------------------------------------------------------------------*/
FoamFile
{
    version     2.0;
    format      ascii;
    class       volScalarField;
    location    "9000";
    object      p;
}
// * * * * * * * * * * * * * * * * * * * * * * * * * * * * * * * * * * * * * //

dimensions      [0 2 -2 0 0 0 0];

internalField   nonuniform List<scalar> 
15443
(
0.000300435
-1.32045
-2.35345
-3.40442
-4.40901
-5.36964
-6.25991
-7.04789
-7.70418
-8.17209
-8.41234
-8.36611
-7.96377
-7.16697
-5.88802
-4.01585
-1.36008
2.12537
6.50245
12.3462
19.9389
25.6699
24.8117
33.2586
10.6383
10.7704
11.3532
12.011
12.8509
13.9081
15.249
16.9461
19.0943
21.7936
25.1559
29.2943
34.3264
40.3659
47.525
55.8953
65.5774
76.6292
89.0836
102.973
118.228
134.529
151.672
169.599
19.7937
20.7792
22.1685
23.6563
25.3358
27.2242
29.3514
31.7395
34.4196
37.4226
40.7877
44.5589
48.7868
53.5206
58.8202
64.7248
71.2902
78.5364
86.4738
95.0856
104.299
114.029
124.223
134.781
27.8436
29.3306
31.2504
33.3031
35.5793
38.1032
40.9168
44.0534
47.5446
51.4291
55.74
60.5092
65.7574
71.5064
77.768
84.5458
91.8269
99.585
107.773
116.312
125.096
133.998
142.867
151.531
34.6957
36.4033
38.5683
40.8402
43.3015
45.9673
48.8588
51.9999
55.406
59.1083
63.1214
67.476
72.191
77.2891
82.7757
88.6632
94.938
101.588
108.57
115.837
123.312
130.895
138.479
145.947
40.6793
42.3718
44.6381
47.0051
49.5608
52.3178
55.2914
58.5039
61.9645
65.6988
69.7211
74.0488
78.6889
83.658
88.9524
94.5754
100.511
106.745
113.23
119.923
126.755
133.648
140.516
147.264
45.9141
47.3612
49.6103
51.969
54.4934
57.2021
60.1041
63.2235
66.5685
70.1492
73.9875
78.096
82.4843
87.1588
92.1288
97.3873
102.919
108.711
114.729
120.929
127.252
133.632
139.993
146.256
49.7975
51.3847
53.6426
56.0017
58.4832
61.1383
63.9586
66.984
70.2348
73.6946
77.3996
81.3451
85.5485
89.9979
94.7226
99.7109
104.936
110.388
116.047
121.883
127.825
133.827
139.819
145.713
53.5483
55.0702
57.1559
59.412
61.7573
64.3078
67.0278
69.9762
73.0981
76.367
79.9298
83.7232
87.7676
92.0338
96.5748
101.339
106.323
111.524
116.929
122.472
128.086
133.796
139.546
145.242
57.1331
58.727
60.4511
62.4829
64.5356
66.8364
69.3387
72.2701
75.2999
78.1813
81.4534
85.058
88.9907
93.1522
97.6025
102.19
106.956
112.056
117.556
123.09
128.471
133.903
139.489
145.168
92.4808
131.093
156.735
176.656
192.846
205.899
216.316
224.544
231.053
236.242
240.308
243.361
245.5
246.812
247.379
247.287
246.622
245.466
243.9
242
239.835
237.443
234.74
231.729
186.101
198.818
209.226
217.839
224.873
230.494
234.867
238.163
240.546
242.143
243.062
243.414
243.3
242.816
242.04
241.037
239.851
238.511
237.033
235.422
233.662
231.748
229.899
228.308
145.467
156.033
166.183
175.666
184.344
192.159
199.087
205.147
210.379
214.831
218.552
221.6
224.028
225.888
227.229
228.1
228.546
228.611
228.336
227.76
226.905
225.785
224.609
223.746
159.864
167.835
175.384
182.404
188.819
194.596
199.718
204.202
208.072
211.366
214.125
216.396
218.225
219.655
220.727
221.478
221.942
222.145
222.11
221.857
221.391
220.703
219.955
219.528
153.25
160.373
167.234
173.731
179.788
185.355
190.405
194.933
198.944
202.459
205.502
208.102
210.291
212.099
213.557
214.695
215.541
216.12
216.456
216.568
216.465
216.145
215.768
215.727
153.834
160.208
166.33
172.126
177.538
182.526
187.07
191.164
194.813
198.036
200.852
203.285
205.365
207.117
208.567
209.743
210.67
211.37
211.861
212.159
212.27
212.199
212.12
212.408
152.369
158.31
164.013
169.415
174.471
179.146
183.424
187.297
190.771
193.86
196.585
198.962
201.024
202.783
204.266
205.499
206.51
207.312
207.922
208.351
208.604
208.684
208.734
209.039
151.461
157.068
162.45
167.532
172.306
176.716
180.764
184.433
187.731
190.673
193.296
195.591
197.609
199.323
200.783
202.018
203.063
203.916
204.595
205.099
205.453
205.665
205.808
206.265
150.671
156.073
161.254
166.06
170.614
174.768
178.613
182.09
185.224
188.044
190.619
192.837
194.804
196.429
197.84
199.057
200.145
201.049
201.768
202.3
202.713
203.013
203.231
203.243
150.542
156.035
161.03
165.406
169.769
173.508
177.086
180.291
183.217
185.916
188.407
190.22
192.273
193.805
195.194
196.462
197.708
198.655
199.395
199.974
200.495
200.867
201.191
201.017
-68.404
-68.4944
-68.5209
-68.4868
-68.3967
-68.2547
-68.0662
-67.839
-67.5821
-67.3002
-66.9971
-66.6776
-66.3452
-66.0023
-65.6478
-65.276
-64.8733
-64.4085
-63.8349
-63.1043
-62.1673
-60.9174
-58.9337
-54.6507
-69.1346
-69.1509
-69.1364
-69.0739
-68.9696
-68.8327
-68.67
-68.4851
-68.2809
-68.0588
-67.8165
-67.5483
-67.2448
-66.8897
-66.4609
-65.9299
-65.2656
-64.4218
-63.3073
-61.7582
-59.5219
-56.2217
-51.5221
-45.5035
-69.5952
-69.7914
-69.9215
-70.0003
-70.036
-70.0297
-69.9799
-69.8843
-69.7377
-69.5343
-69.2653
-68.9189
-68.4808
-67.9313
-67.243
-66.3744
-65.2666
-63.8399
-61.9833
-59.5342
-56.2759
-51.9894
-46.5791
-40.3156
-69.9957
-70.0714
-70.2287
-70.3396
-70.3919
-70.3899
-70.333
-70.2156
-70.0304
-69.7687
-69.4195
-68.9667
-68.3909
-67.6669
-66.7627
-65.6324
-64.2139
-62.4237
-60.1507
-57.2572
-53.6106
-49.1394
-43.8945
-38.1644
-70.1704
-70.1222
-70.2868
-70.3987
-70.4424
-70.4251
-70.3476
-70.1991
-69.9708
-69.6507
-69.2271
-68.6836
-67.9979
-67.1412
-66.0807
-64.7645
-63.1345
-61.1066
-58.5928
-55.4928
-51.7156
-47.2386
-42.1635
-36.7654
-69.7664
-70.0113
-70.1459
-70.2276
-70.2454
-70.1983
-70.0948
-69.9173
-69.6544
-69.2881
-68.8065
-68.1968
-67.4364
-66.4871
-65.3196
-63.8874
-62.1328
-59.9766
-57.3265
-54.1088
-50.2788
-45.825
-40.8544
-35.6291
-69.7834
-69.7905
-69.8878
-69.9425
-69.9246
-69.8345
-69.7092
-69.5079
-69.2236
-68.822
-68.2919
-67.6286
-66.8111
-65.796
-64.5535
-63.0444
-61.2241
-59.0025
-56.297
-53.0435
-49.219
-44.7822
-39.9177
-34.8399
-69.2074
-69.4088
-69.5117
-69.5674
-69.5329
-69.3719
-69.2324
-69.0067
-68.7262
-68.3148
-67.7366
-67.0219
-66.1894
-65.1221
-63.8076
-62.2242
-60.3963
-58.201
-55.4869
-52.1779
-48.3137
-43.6959
-38.7951
-33.8306
-68.4863
-68.8455
-69.0852
-69.2165
-69.1749
-68.8107
-68.6887
-68.4766
-68.2401
-67.8212
-67.1476
-66.3386
-65.5336
-64.4027
-62.9854
-61.3062
-59.5915
-57.5472
-54.901
-51.536
-48.1529
-43.4843
-38.7428
-34.0343
-65.3493
-67.1149
-68.0936
-68.9662
-68.8712
-67.9511
-67.7621
-67.8775
-68.1821
-68.2275
-67.4569
-66.4939
-65.9727
-64.6694
-62.5178
-60.3156
-59.2944
-59.3321
-56.6117
-50.681
-43.8634
-36.3105
-32.0488
-29.7487
-45.3469
-40.22
-36.064
-32.1787
-28.459
-24.9492
-21.6451
-18.5266
-15.5644
-12.7225
-9.96282
-7.25414
-4.57465
-1.90782
0.758384
3.43014
6.11311
8.80982
11.5227
14.2549
17.0088
19.7618
22.5322
25.6097
-38.8467
-35.379
-32.9244
-30.333
-27.5483
-24.6533
-21.7064
-18.7549
-15.8312
-12.9552
-10.1375
-7.38274
-4.68692
-2.04423
0.554319
3.11756
5.65702
8.18143
10.6997
13.2224
15.7575
18.286
20.836
23.6374
-34.1836
-29.9311
-27.5209
-25.3477
-23.1057
-20.7827
-18.4025
-15.9889
-13.5593
-11.127
-8.70183
-6.29052
-3.89723
-1.52215
0.836084
3.17973
5.5124
7.83726
10.1595
12.4856
14.8202
17.1512
19.5092
22.0579
-32.5442
-28.043
-25.5293
-23.441
-21.319
-19.1487
-16.948
-14.7312
-12.5086
-10.2853
-8.06663
-5.85343
-3.64831
-1.44988
0.742706
2.93075
5.11575
7.30026
9.48733
11.6801
13.8799
16.0788
18.2972
20.6421
-31.4676
-27.0307
-24.4338
-22.4111
-20.3579
-18.263
-16.1386
-14.0007
-11.8604
-9.72346
-7.59526
-5.47785
-3.37315
-1.2806
0.80043
2.87236
4.93685
6.9966
9.05335
11.1113
13.1742
15.2413
17.3193
19.4693
-30.5253
-26.1558
-23.416
-21.3925
-19.3676
-17.3234
-15.2589
-13.1878
-11.1186
-9.05647
-7.00757
-4.97397
-2.95711
-0.957661
1.0244
2.99282
4.94767
6.89199
8.82609
10.7522
12.6768
14.6038
16.5341
18.4663
-29.8673
-25.5237
-22.6246
-20.5489
-18.5157
-16.4939
-14.4674
-12.4449
-10.4304
-8.42899
-6.44619
-4.48329
-2.5418
-0.62346
1.27388
3.15337
5.01525
6.85945
8.68468
10.4916
12.288
14.0767
15.8604
17.6282
-28.9494
-24.649
-21.7652
-19.7682
-17.7981
-15.8252
-13.8392
-11.8546
-9.87786
-7.91907
-5.98541
-4.07487
-2.19023
-0.336768
1.49254
3.3019
5.08927
6.85137
8.58495
10.284
11.9697
13.641
15.3014
16.9927
-29.0809
-24.4901
-21.3584
-19.2972
-17.2771
-15.2955
-13.3135
-11.3394
-9.37513
-7.43548
-5.53638
-3.65902
-1.8125
-0.0198311
1.75072
3.50924
5.24216
6.93725
8.5837
10.1605
11.7471
13.3128
14.8604
16.4979
-24.9285
-20.6311
-19.2692
-18.3139
-16.683
-14.8495
-12.9236
-10.9804
-9.02601
-7.10773
-5.27973
-3.43232
-1.62402
0.0826054
1.81739
3.55227
5.24241
6.85305
8.42924
9.89582
11.436
12.9524
14.4385
16.1146
-111.644
-110.158
-109.223
-107.759
-104.747
-100.401
-95.1455
-89.2546
-82.9581
-76.3634
-69.708
-63.1799
-56.8682
-50.8268
-45.1185
-39.8007
-34.9088
-30.4642
-26.4681
-22.9009
-19.7162
-16.8508
-14.2668
-11.9978
-75.2327
-75.2352
-74.9345
-74.4148
-73.7493
-73.0706
-72.5012
-72.076
-71.8115
-71.5744
-71.0528
-69.9519
-68.1642
-65.6862
-62.5447
-58.8067
-54.5843
-50.0022
-45.2352
-40.4429
-35.7796
-31.362
-27.2339
-23.7768
-82.9601
-82.8924
-82.937
-82.99
-83.0337
-83.028
-82.8933
-82.5254
-81.8261
-80.7885
-79.4686
-77.9444
-76.2464
-74.2744
-71.8892
-69.0369
-65.7083
-61.9004
-57.6591
-53.0699
-48.269
-43.4068
-38.6097
-34.1833
-78.7441
-78.7306
-78.6773
-78.6031
-78.515
-78.4165
-78.3066
-78.1768
-78.0078
-77.7717
-77.434
-76.9446
-76.2322
-75.2943
-74.1448
-72.6651
-70.7269
-68.2497
-65.1964
-61.573
-57.443
-52.9155
-48.1824
-43.174
-79.2463
-79.2472
-79.2541
-79.2534
-79.2434
-79.219
-79.1738
-79.1001
-78.988
-78.821
-78.5754
-78.2264
-77.7439
-77.0887
-76.2193
-75.1202
-73.7546
-72.0265
-69.8427
-67.1387
-63.8706
-60.0399
-55.8358
-50.4596
-78.402
-78.4008
-78.3931
-78.3779
-78.3556
-78.3251
-78.285
-78.2329
-78.1645
-78.0733
-77.9486
-77.7743
-77.5284
-77.1847
-76.7074
-76.0481
-75.1632
-74.0103
-72.505
-70.5631
-68.1049
-65.047
-61.5737
-56.0418
-78.2436
-78.2444
-78.2435
-78.2374
-78.2263
-78.2085
-78.1822
-78.1451
-78.094
-78.0244
-77.93
-77.8017
-77.6259
-77.3844
-77.0556
-76.6088
-76.0031
-75.1921
-74.122
-72.7144
-70.8839
-68.5104
-65.7594
-60.595
-77.9673
-77.9671
-77.9643
-77.9569
-77.9451
-77.928
-77.9047
-77.8737
-77.8334
-77.7809
-77.7122
-77.6217
-77.5009
-77.3374
-77.1145
-76.8112
-76.3981
-75.8346
-75.0735
-74.0558
-72.7054
-70.8974
-68.7571
-64.2483
-77.8277
-77.8279
-77.8263
-77.8207
-77.8109
-77.7967
-77.7769
-77.7505
-77.7162
-77.6718
-77.6146
-77.5406
-77.4444
-77.3181
-77.1498
-76.9241
-76.6205
-76.2104
-75.6537
-74.9019
-73.8975
-72.5342
-70.8835
-67.0912
-77.7146
-77.7144
-77.7124
-77.7069
-77.6976
-77.6841
-77.6659
-77.642
-77.6114
-77.5727
-77.5239
-77.462
-77.3829
-77.2815
-77.1495
-76.9751
-76.7434
-76.4333
-76.0151
-75.448
-74.6881
-73.659
-72.3864
-69.4528
-77.6543
-77.6538
-77.6517
-77.6464
-77.6377
-77.6252
-77.6084
-77.5866
-77.5588
-77.5239
-77.4802
-77.4256
-77.3571
-77.2706
-77.1606
-77.0187
-76.8332
-76.5884
-76.2624
-75.8237
-75.2371
-74.4461
-73.4448
-71.2437
-77.6259
-77.6253
-77.6231
-77.6182
-77.6101
-77.5985
-77.583
-77.5629
-77.5375
-77.5058
-77.4666
-77.418
-77.3577
-77.2824
-77.1881
-77.0688
-76.9155
-76.7167
-76.4558
-76.1092
-75.6487
-75.0311
-74.2325
-72.5393
-77.6319
-77.6308
-77.6283
-77.6236
-77.616
-77.6052
-77.5909
-77.5725
-77.5494
-77.5207
-77.4854
-77.4421
-77.3887
-77.3226
-77.2406
-77.1384
-77.0097
-76.8452
-76.6325
-76.3538
-75.9879
-75.5005
-74.8619
-73.5631
-77.6612
-77.66
-77.6576
-77.6533
-77.6465
-77.6367
-77.6239
-77.6075
-77.5869
-77.5614
-77.5302
-77.4921
-77.4455
-77.3883
-77.3177
-77.2306
-77.1225
-76.9866
-76.814
-76.5917
-76.3052
-75.9304
-75.4466
-74.4525
-77.7125
-77.7111
-77.7087
-77.7048
-77.6987
-77.6899
-77.6784
-77.6639
-77.6458
-77.6235
-77.5964
-77.5636
-77.5237
-77.475
-77.4154
-77.3422
-77.2525
-77.1418
-77.0036
-76.8288
-76.6079
-76.3278
-75.9867
-75.2452
-77.7785
-77.777
-77.7746
-77.7711
-77.7656
-77.7579
-77.7479
-77.7352
-77.7196
-77.7005
-77.6774
-77.6495
-77.6159
-77.5752
-77.5256
-77.4653
-77.3921
-77.3029
-77.1934
-77.0577
-76.8896
-76.6776
-76.4054
-75.868
-77.8541
-77.8528
-77.8506
-77.8476
-77.8429
-77.8363
-77.8276
-77.8168
-77.8034
-77.7871
-77.7675
-77.7441
-77.7159
-77.6821
-77.641
-77.591
-77.5305
-77.4572
-77.3674
-77.2557
-77.115
-76.9296
-76.6713
-76.0893
-77.9378
-77.9365
-77.9344
-77.9317
-77.9276
-77.9217
-77.9141
-77.9047
-77.8932
-77.8793
-77.8626
-77.8428
-77.8192
-77.7908
-77.7566
-77.715
-77.6646
-77.6036
-77.529
-77.4359
-77.3178
-77.1611
-76.9353
-76.3537
-78.0251
-78.0236
-78.0215
-78.0191
-78.0154
-78.0102
-78.0036
-77.9954
-77.9855
-77.9735
-77.9593
-77.9424
-77.9223
-77.8983
-77.8695
-77.8344
-77.7918
-77.7401
-77.6766
-77.5976
-77.4974
-77.3653
-77.1771
-76.783
-78.1126
-78.1113
-78.1094
-78.1073
-78.1042
-78.0996
-78.0938
-78.0866
-78.078
-78.0676
-78.0552
-78.0407
-78.0234
-78.0029
-77.9781
-77.9479
-77.9109
-77.8656
-77.8095
-77.7385
-77.6463
-77.5265
-77.3578
-76.8599
-78.2006
-78.1993
-78.1975
-78.1955
-78.1927
-78.1886
-78.1833
-78.177
-78.1693
-78.1601
-78.1493
-78.1366
-78.1216
-78.1037
-78.0823
-78.0561
-78.024
-77.9845
-77.9357
-77.8741
-77.7946
-77.6882
-77.5449
-77.3805
-78.2862
-78.285
-78.2833
-78.2815
-78.279
-78.2753
-78.2706
-78.2649
-78.2581
-78.2499
-78.2404
-78.2291
-78.2159
-78.2003
-78.1815
-78.1585
-78.1302
-78.0952
-78.0517
-77.9966
-77.9251
-77.8272
-77.6854
-77.4732
-78.3696
-78.3684
-78.3668
-78.3651
-78.3628
-78.3594
-78.3551
-78.3499
-78.3437
-78.3364
-78.3278
-78.3177
-78.306
-78.2921
-78.2755
-78.2554
-78.2306
-78.1998
-78.1615
-78.1132
-78.0512
-77.969
-77.8478
-77.5811
-78.4491
-78.448
-78.4465
-78.445
-78.4429
-78.4398
-78.4359
-78.4311
-78.4254
-78.4187
-78.4109
-78.4018
-78.3912
-78.3788
-78.3641
-78.3463
-78.3245
-78.2975
-78.2641
-78.2224
-78.1697
-78.1001
-78.0024
-77.8331
-78.5255
-78.5244
-78.523
-78.5215
-78.5196
-78.5167
-78.513
-78.5085
-78.5031
-78.4968
-78.4896
-78.4811
-78.4713
-78.4599
-78.4465
-78.4305
-78.4109
-78.387
-78.3575
-78.3214
-78.2767
-78.2211
-78.15
-78.0263
-78.598
-78.597
-78.5956
-78.5942
-78.5923
-78.5896
-78.586
-78.5817
-78.5765
-78.5705
-78.5635
-78.5554
-78.5461
-78.5353
-78.5226
-78.5075
-78.4893
-78.4669
-78.4393
-78.4051
-78.3622
-78.3105
-78.2398
-77.9682
-78.6666
-78.6657
-78.6644
-78.6631
-78.6613
-78.6587
-78.6552
-78.651
-78.6459
-78.64
-78.6331
-78.6252
-78.616
-78.6053
-78.5929
-78.5781
-78.5604
-78.5389
-78.5126
-78.4805
-78.4406
-78.3889
-78.3192
-78.3318
-78.7328
-78.7319
-78.7305
-78.7292
-78.7274
-78.7248
-78.7213
-78.717
-78.712
-78.706
-78.699
-78.6909
-78.6816
-78.6707
-78.6581
-78.6431
-78.6251
-78.6031
-78.576
-78.542
-78.498
-78.4409
-78.3615
-78.1812
-78.7963
-78.7953
-78.7939
-78.7926
-78.7908
-78.7881
-78.7846
-78.7802
-78.7751
-78.7689
-78.7618
-78.7535
-78.7438
-78.7327
-78.7197
-78.7043
-78.686
-78.6639
-78.6372
-78.6046
-78.5645
-78.5158
-78.4694
-78.5226
-78.8571
-78.8562
-78.8549
-78.8536
-78.8518
-78.8491
-78.8456
-78.8412
-78.8359
-78.8296
-78.8222
-78.8136
-78.8036
-78.7919
-78.7783
-78.7622
-78.743
-78.7196
-78.691
-78.6555
-78.6102
-78.5499
-78.4667
-78.371
-78.9173
-78.9164
-78.9151
-78.9137
-78.9118
-78.9091
-78.9055
-78.901
-78.8955
-78.889
-78.8814
-78.8724
-78.8621
-78.8499
-78.8358
-78.8191
-78.7992
-78.7752
-78.7459
-78.7101
-78.6655
-78.6083
-78.5319
-78.4537
-78.9768
-78.9759
-78.9744
-78.973
-78.971
-78.9682
-78.9645
-78.9598
-78.9543
-78.9476
-78.9397
-78.9305
-78.9198
-78.9074
-78.8927
-78.8755
-78.8551
-78.8305
-78.8007
-78.7644
-78.7195
-78.6624
-78.5886
-78.5129
-79.035
-79.0342
-79.0328
-79.0314
-79.0295
-79.0268
-79.023
-79.0183
-79.0127
-79.0059
-78.9979
-78.9886
-78.9776
-78.9649
-78.95
-78.9325
-78.9118
-78.8871
-78.8573
-78.8215
-78.7781
-78.7246
-78.6576
-78.5902
-79.0943
-79.0934
-79.092
-79.0905
-79.0885
-79.0857
-79.0819
-79.0772
-79.0714
-79.0645
-79.0564
-79.0469
-79.0358
-79.0229
-79.0078
-78.9901
-78.9692
-78.9444
-78.9148
-78.8793
-78.8365
-78.784
-78.7177
-78.6457
-79.1536
-79.1527
-79.1513
-79.1498
-79.1478
-79.145
-79.1411
-79.1363
-79.1306
-79.1236
-79.1155
-79.1059
-79.0947
-79.0817
-79.0665
-79.0487
-79.0279
-79.0032
-78.9739
-78.9389
-78.8973
-78.847
-78.7854
-78.7142
-79.2135
-79.2127
-79.2112
-79.2097
-79.2077
-79.2048
-79.201
-79.1962
-79.1904
-79.1834
-79.1752
-79.1656
-79.1544
-79.1414
-79.1262
-79.1085
-79.0877
-79.0632
-79.0343
-79
-78.9595
-78.9116
-78.8548
-78.7882
-79.2743
-79.2734
-79.2719
-79.2704
-79.2684
-79.2655
-79.2617
-79.2569
-79.2511
-79.2441
-79.2359
-79.2263
-79.2151
-79.2021
-79.1869
-79.1692
-79.1485
-79.1242
-79.0956
-79.0618
-79.0221
-78.9756
-78.9218
-78.8572
-79.3359
-79.3351
-79.3335
-79.332
-79.3299
-79.3271
-79.3233
-79.3185
-79.3127
-79.3057
-79.2976
-79.288
-79.2769
-79.2639
-79.2488
-79.2312
-79.2106
-79.1865
-79.158
-79.1243
-79.0847
-79.0379
-78.9798
-78.8739
-79.3985
-79.3976
-79.3961
-79.3945
-79.3925
-79.3896
-79.3858
-79.381
-79.3752
-79.3684
-79.3602
-79.3507
-79.3397
-79.3268
-79.3119
-79.2945
-79.2741
-79.2504
-79.2225
-79.1897
-79.1514
-79.107
-79.0542
-78.9843
-79.4619
-79.4611
-79.4595
-79.4579
-79.4559
-79.4531
-79.4493
-79.4445
-79.4388
-79.432
-79.4239
-79.4145
-79.4036
-79.3908
-79.376
-79.3588
-79.3388
-79.3154
-79.288
-79.256
-79.219
-79.1779
-79.1344
-79.0468
-79.5263
-79.5255
-79.5239
-79.5223
-79.5203
-79.5175
-79.5137
-79.509
-79.5033
-79.4966
-79.4886
-79.4793
-79.4684
-79.4558
-79.4412
-79.4242
-79.4044
-79.3813
-79.3543
-79.3226
-79.2856
-79.2428
-79.1937
-79.1219
-79.5917
-79.5909
-79.5892
-79.5877
-79.5856
-79.5829
-79.5791
-79.5744
-79.5688
-79.5621
-79.5542
-79.545
-79.5343
-79.5219
-79.5074
-79.4907
-79.4712
-79.4484
-79.4219
-79.3909
-79.355
-79.3136
-79.2657
-79.2068
-79.6583
-79.6574
-79.6557
-79.6541
-79.652
-79.6492
-79.6454
-79.6408
-79.6352
-79.6286
-79.6208
-79.6117
-79.6011
-79.5888
-79.5746
-79.558
-79.5388
-79.5165
-79.4904
-79.46
-79.4246
-79.3835
-79.3351
-79.2728
-79.7248
-79.7241
-79.7224
-79.7208
-79.7188
-79.7161
-79.7124
-79.7078
-79.7023
-79.6958
-79.6881
-79.6791
-79.6686
-79.6565
-79.6425
-79.6262
-79.6073
-79.5854
-79.5598
-79.5302
-79.496
-79.4569
-79.4137
-79.3926
-79.7929
-79.7921
-79.7904
-79.7888
-79.7868
-79.784
-79.7804
-79.7758
-79.7703
-79.7638
-79.7562
-79.7473
-79.737
-79.725
-79.7112
-79.6951
-79.6764
-79.6547
-79.6293
-79.5994
-79.5645
-79.5249
-79.4767
-79.3515
-79.8616
-79.8608
-79.859
-79.8573
-79.8553
-79.8525
-79.8489
-79.8444
-79.839
-79.8325
-79.825
-79.8162
-79.806
-79.7942
-79.7806
-79.7648
-79.7464
-79.7252
-79.7005
-79.672
-79.6395
-79.602
-79.5577
-79.5403
-79.9302
-79.9295
-79.9278
-79.9262
-79.9242
-79.9216
-79.918
-79.9135
-79.9082
-79.9019
-79.8944
-79.8857
-79.8757
-79.864
-79.8505
-79.8349
-79.8167
-79.7957
-79.7712
-79.7429
-79.7098
-79.6684
-79.6128
-79.6098
-80.0005
-79.9997
-79.9979
-79.9963
-79.9942
-79.9915
-79.9879
-79.9835
-79.9781
-79.9718
-79.9645
-79.9559
-79.9459
-79.9344
-79.921
-79.9056
-79.8876
-79.8669
-79.8428
-79.8148
-79.7827
-79.7476
-79.7118
-79.6193
-80.0709
-80.0701
-80.0683
-80.0666
-80.0645
-80.0618
-80.0582
-80.0538
-80.0485
-80.0423
-80.035
-80.0265
-80.0166
-80.0052
-79.9919
-79.9766
-79.9588
-79.9382
-79.9142
-79.8864
-79.8541
-79.8174
-79.7793
-79.7379
-80.1411
-80.1404
-80.1386
-80.137
-80.135
-80.1324
-80.1289
-80.1245
-80.1193
-80.1131
-80.1059
-80.0975
-80.0878
-80.0765
-80.0634
-80.0482
-80.0305
-80.01
-79.9862
-79.9583
-79.9257
-79.8871
-79.8414
-79.7877
-80.2126
-80.2119
-80.2101
-80.2084
-80.2064
-80.2037
-80.2002
-80.1958
-80.1906
-80.1845
-80.1774
-80.169
-80.1594
-80.1482
-80.1352
-80.1202
-80.1028
-80.0826
-80.0591
-80.0317
-79.9999
-79.9629
-79.9205
-79.8748
-80.2844
-80.2837
-80.2817
-80.28
-80.2779
-80.2752
-80.2717
-80.2674
-80.2622
-80.2562
-80.2491
-80.2409
-80.2313
-80.2203
-80.2075
-80.1927
-80.1755
-80.1555
-80.1323
-80.1051
-80.0734
-80.0366
-79.9958
-79.9314
-80.3555
-80.3549
-80.353
-80.3514
-80.3494
-80.3468
-80.3433
-80.3391
-80.3341
-80.3281
-80.3211
-80.313
-80.3036
-80.2927
-80.2801
-80.2655
-80.2487
-80.2291
-80.2065
-80.1802
-80.1499
-80.1155
-80.0768
-80.0278
-80.4278
-80.4273
-80.4254
-80.4237
-80.4217
-80.4191
-80.4156
-80.4114
-80.4064
-80.4004
-80.3935
-80.3854
-80.3761
-80.3653
-80.3529
-80.3384
-80.3218
-80.3025
-80.2803
-80.2547
-80.2254
-80.1912
-80.1489
-80.0875
-80.5011
-80.5004
-80.4982
-80.4964
-80.4942
-80.4914
-80.4879
-80.4836
-80.4786
-80.4727
-80.4658
-80.4578
-80.4486
-80.4379
-80.4255
-80.4112
-80.3948
-80.3759
-80.3543
-80.3297
-80.302
-80.2701
-80.2324
-80.2268
-80.5711
-80.5707
-80.5689
-80.5674
-80.5655
-80.563
-80.5597
-80.5556
-80.5507
-80.5449
-80.5381
-80.5302
-80.521
-80.5103
-80.498
-80.4837
-80.4672
-80.4481
-80.4263
-80.4012
-80.3725
-80.339
-80.3004
-80.2822
-80.6456
-80.645
-80.643
-80.6412
-80.6391
-80.6364
-80.6329
-80.6286
-80.6236
-80.6177
-80.6108
-80.6028
-80.5936
-80.5829
-80.5704
-80.556
-80.5393
-80.52
-80.4976
-80.4717
-80.4418
-80.4094
-80.3768
-80.269
-80.7186
-80.7179
-80.7157
-80.7138
-80.7116
-80.7088
-80.7053
-80.701
-80.696
-80.6902
-80.6833
-80.6753
-80.6661
-80.6553
-80.6429
-80.6284
-80.6116
-80.5921
-80.5694
-80.5431
-80.5124
-80.4774
-80.4365
-80.367
-80.7894
-80.7891
-80.7872
-80.7856
-80.7836
-80.781
-80.7776
-80.7735
-80.7686
-80.7628
-80.756
-80.7481
-80.7388
-80.7281
-80.7156
-80.7011
-80.6842
-80.6646
-80.6419
-80.6155
-80.5852
-80.5502
-80.5088
-80.4606
-80.8639
-80.8635
-80.8613
-80.8594
-80.8572
-80.8545
-80.8509
-80.8467
-80.8417
-80.8358
-80.829
-80.821
-80.8118
-80.8011
-80.7885
-80.774
-80.7571
-80.7374
-80.7146
-80.6881
-80.6573
-80.6215
-80.5804
-80.5263
-80.9368
-80.9362
-80.934
-80.9321
-80.9299
-80.9271
-80.9236
-80.9194
-80.9145
-80.9087
-80.9019
-80.894
-80.8848
-80.8741
-80.8617
-80.8472
-80.8303
-80.8107
-80.7881
-80.7619
-80.732
-80.6979
-80.6587
-80.613
-81.0089
-81.0086
-81.0065
-81.0048
-81.0027
-81
-80.9965
-80.9924
-80.9874
-80.9817
-80.9749
-80.9671
-80.9579
-80.9473
-80.9349
-80.9204
-80.9035
-80.8838
-80.8611
-80.8348
-80.8049
-80.7713
-80.735
-80.7097
-81.083
-81.0825
-81.0801
-81.0781
-81.0758
-81.073
-81.0694
-81.0652
-81.0603
-81.0546
-81.0479
-81.0401
-81.031
-81.0205
-81.0081
-80.9937
-80.9768
-80.9569
-80.9337
-80.9065
-80.8743
-80.8369
-80.7916
-80.695
-81.1533
-81.1531
-81.1511
-81.1494
-81.1474
-81.1448
-81.1416
-81.1376
-81.1329
-81.1273
-81.1208
-81.1131
-81.1042
-81.0938
-81.0816
-81.0673
-81.0505
-81.0309
-81.008
-80.9812
-80.95
-80.9135
-80.8725
-80.8518
-81.2279
-81.2274
-81.2252
-81.2233
-81.221
-81.2183
-81.2148
-81.2107
-81.2059
-81.2003
-81.1938
-81.1863
-81.1775
-81.1672
-81.1552
-81.1411
-81.1246
-81.1052
-81.0824
-81.0557
-81.0245
-80.9891
-80.9509
-80.8749
-81.3005
-81.2999
-81.2974
-81.2954
-81.2931
-81.2903
-81.2869
-81.2828
-81.2781
-81.2727
-81.2663
-81.259
-81.2504
-81.2404
-81.2287
-81.2149
-81.1988
-81.1799
-81.1577
-81.1316
-81.1013
-81.0665
-81.0275
-80.9845
-81.37
-81.3698
-81.3677
-81.3659
-81.3639
-81.3613
-81.358
-81.3542
-81.3497
-81.3444
-81.3383
-81.3312
-81.3229
-81.3132
-81.3019
-81.2885
-81.2728
-81.2544
-81.2328
-81.2074
-81.1775
-81.1423
-81.1001
-81.0433
-81.4418
-81.4414
-81.4389
-81.437
-81.4348
-81.432
-81.4287
-81.4249
-81.4205
-81.4154
-81.4095
-81.4027
-81.3947
-81.3853
-81.3744
-81.3616
-81.3466
-81.329
-81.3083
-81.2842
-81.2563
-81.2242
-81.1873
-81.1602
-81.5092
-81.509
-81.5068
-81.5051
-81.5032
-81.5007
-81.4977
-81.4941
-81.49
-81.4852
-81.4796
-81.473
-81.4654
-81.4565
-81.4461
-81.4338
-81.4194
-81.4024
-81.3825
-81.359
-81.3313
-81.2986
-81.2614
-81.2211
-81.5781
-81.5778
-81.5755
-81.5737
-81.5717
-81.5692
-81.5661
-81.5626
-81.5585
-81.5539
-81.5484
-81.5422
-81.5349
-81.5265
-81.5166
-81.5049
-81.4912
-81.4751
-81.4562
-81.434
-81.4078
-81.3773
-81.3429
-81.298
-81.6446
-81.6441
-81.6417
-81.6398
-81.6377
-81.6352
-81.6322
-81.6288
-81.6249
-81.6205
-81.6154
-81.6095
-81.6027
-81.5947
-81.5854
-81.5745
-81.5617
-81.5465
-81.5288
-81.5082
-81.4841
-81.4563
-81.4242
-81.399
-81.7065
-81.7064
-81.7042
-81.7026
-81.7007
-81.6985
-81.6958
-81.6927
-81.6891
-81.685
-81.6802
-81.6747
-81.6683
-81.6609
-81.6522
-81.642
-81.6299
-81.6158
-81.5992
-81.5797
-81.5571
-81.5308
-81.5002
-81.474
-81.7684
-81.7682
-81.766
-81.7643
-81.7624
-81.7602
-81.7575
-81.7545
-81.751
-81.7471
-81.7427
-81.7375
-81.7316
-81.7247
-81.7166
-81.7071
-81.6959
-81.6827
-81.6671
-81.6489
-81.6275
-81.6027
-81.5751
-81.5517
-81.8272
-81.8268
-81.8244
-81.8226
-81.8207
-81.8185
-81.8159
-81.813
-81.8098
-81.8062
-81.8021
-81.7974
-81.7919
-81.7856
-81.7782
-81.7695
-81.7592
-81.747
-81.7325
-81.7155
-81.6955
-81.6725
-81.6468
-81.6226
-81.8807
-81.8806
-81.8784
-81.8768
-81.8751
-81.8731
-81.8707
-81.8681
-81.8652
-81.8619
-81.8581
-81.8539
-81.849
-81.8433
-81.8366
-81.8287
-81.8192
-81.808
-81.7947
-81.7789
-81.7605
-81.739
-81.7143
-81.6919
-81.9318
-81.9315
-81.9293
-81.9276
-81.9259
-81.9239
-81.9217
-81.9193
-81.9166
-81.9137
-81.9104
-81.9066
-81.9023
-81.8972
-81.8913
-81.8842
-81.8759
-81.8658
-81.8536
-81.8391
-81.8218
-81.8013
-81.7777
-81.7567
-81.9764
-81.9764
-81.9744
-81.973
-81.9717
-81.9701
-81.9682
-81.9661
-81.9638
-81.9613
-81.9585
-81.9552
-81.9515
-81.9472
-81.9421
-81.936
-81.9287
-81.9198
-81.9089
-81.8957
-81.8795
-81.8595
-81.8352
-81.8092
-82.0205
-82.0201
-82.018
-82.0164
-82.0148
-82.013
-82.0111
-82.0091
-82.007
-82.0047
-82.0022
-81.9994
-81.9963
-81.9927
-81.9885
-81.9834
-81.9773
-81.9699
-81.9607
-81.9495
-81.9357
-81.919
-81.8993
-81.8786
-82.0567
-82.0562
-82.054
-82.0525
-82.051
-82.0494
-82.0477
-82.046
-82.0442
-82.0424
-82.0404
-82.0383
-82.0358
-82.0331
-82.0298
-82.0259
-82.0212
-82.0153
-82.0082
-81.9993
-81.9883
-81.9749
-81.9587
-81.9409
-82.0855
-82.0854
-82.0835
-82.0822
-82.081
-82.0798
-82.0785
-82.0772
-82.0758
-82.0745
-82.073
-82.0715
-82.0698
-82.0679
-82.0656
-82.0628
-82.0594
-82.0552
-82.05
-82.0436
-82.0359
-82.0266
-82.0153
-82.0179
-82.1106
-82.1104
-82.1086
-82.1073
-82.1061
-82.1049
-82.1037
-82.1026
-82.1016
-82.1006
-82.0996
-82.0986
-82.0976
-82.0965
-82.0951
-82.0934
-82.0913
-82.0886
-82.0852
-82.0809
-82.0756
-82.0695
-82.0639
-82.0664
-82.1293
-82.1289
-82.1268
-82.1253
-82.1241
-82.1229
-82.1219
-82.1211
-82.1204
-82.1198
-82.1193
-82.119
-82.1186
-82.1183
-82.1179
-82.1173
-82.1163
-82.1149
-82.1129
-82.1101
-82.1067
-82.1027
-82.098
-82.1216
-82.1381
-82.1377
-82.1361
-82.1351
-82.1342
-82.1335
-82.1328
-82.1323
-82.132
-82.1319
-82.132
-82.1322
-82.1327
-82.1332
-82.1337
-82.1341
-82.1342
-82.1338
-82.1327
-82.1302
-82.1256
-82.1168
-82.1008
-82.0799
-82.1442
-82.1435
-82.1413
-82.1399
-82.1387
-82.1377
-82.137
-82.1365
-82.1364
-82.1366
-82.1372
-82.138
-82.1392
-82.1406
-82.1422
-82.1439
-82.1456
-82.1469
-82.1476
-82.1475
-82.1457
-82.1418
-82.1347
-82.1321
-82.1369
-82.1363
-82.1341
-82.1327
-82.1317
-82.131
-82.1307
-82.1308
-82.1312
-82.1321
-82.1335
-82.1352
-82.1374
-82.14
-82.143
-82.1462
-82.1496
-82.1529
-82.1558
-82.158
-82.1588
-82.1573
-82.1519
-82.1508
-82.116
-82.1164
-82.1152
-82.1146
-82.1144
-82.1144
-82.1148
-82.1156
-82.1169
-82.1186
-82.1208
-82.1237
-82.127
-82.131
-82.1355
-82.1405
-82.1459
-82.1516
-82.1574
-82.1631
-82.1682
-82.1723
-82.1756
-82.1843
-82.0927
-82.0924
-82.0908
-82.0901
-82.0898
-82.09
-82.0907
-82.0918
-82.0936
-82.096
-82.0991
-82.1028
-82.1074
-82.1128
-82.1189
-82.1259
-82.1337
-82.1421
-82.151
-82.1604
-82.1699
-82.1794
-82.1888
-82.2078
-82.0558
-82.0558
-82.0546
-82.0542
-82.0542
-82.0547
-82.0558
-82.0575
-82.0599
-82.063
-82.067
-82.0719
-82.0777
-82.0846
-82.0925
-82.1015
-82.1117
-82.1229
-82.1352
-82.1484
-82.1627
-82.1776
-82.1903
-82.1885
-82.0095
-82.0094
-82.0079
-82.0076
-82.0077
-82.0085
-82.0099
-82.0121
-82.0151
-82.019
-82.0239
-82.0298
-82.037
-82.0455
-82.0552
-82.0665
-82.0792
-82.0934
-82.1092
-82.1265
-82.1454
-82.1657
-82.1891
-82.2433
-81.9485
-81.9486
-81.9477
-81.9476
-81.9482
-81.9494
-81.9514
-81.9542
-81.958
-81.9628
-81.9687
-81.9759
-81.9845
-81.9946
-82.0063
-82.0198
-82.0352
-82.0524
-82.0717
-82.0927
-82.1156
-82.1405
-82.1663
-82.1433
-81.8776
-81.8772
-81.8763
-81.8764
-81.8772
-81.8787
-81.881
-81.8843
-81.8887
-81.8942
-81.9011
-81.9095
-81.9195
-81.9313
-81.945
-81.9608
-81.9789
-81.9994
-82.0226
-82.0487
-82.078
-82.1109
-82.1514
-82.2346
-81.7939
-81.7932
-81.792
-81.792
-81.7928
-81.7943
-81.7969
-81.8006
-81.8055
-81.8118
-81.8197
-81.8292
-81.8406
-81.8542
-81.8699
-81.8882
-81.909
-81.9326
-81.9591
-81.9885
-82.0206
-82.0553
-82.0942
-82.112
-81.6913
-81.691
-81.6898
-81.69
-81.6911
-81.6931
-81.6963
-81.7008
-81.7066
-81.714
-81.7231
-81.7342
-81.7473
-81.7628
-81.7808
-81.8015
-81.8253
-81.8523
-81.8826
-81.9164
-81.9537
-81.9943
-82.0383
-82.0704
-81.5681
-81.5688
-81.5688
-81.5699
-81.5721
-81.5752
-81.5794
-81.5849
-81.5919
-81.6006
-81.6111
-81.6237
-81.6387
-81.6562
-81.6766
-81.7001
-81.727
-81.7575
-81.7919
-81.8302
-81.8726
-81.9191
-81.9696
-82.0131
-81.4373
-81.4372
-81.4369
-81.4379
-81.4401
-81.4434
-81.4481
-81.4542
-81.4621
-81.4718
-81.4836
-81.4978
-81.5145
-81.5341
-81.557
-81.5833
-81.6135
-81.6478
-81.6865
-81.7297
-81.7774
-81.8299
-81.8872
-81.931
-81.2853
-81.2855
-81.2856
-81.2871
-81.2898
-81.2938
-81.2992
-81.3062
-81.3151
-81.326
-81.3391
-81.3549
-81.3736
-81.3955
-81.421
-81.4504
-81.4841
-81.5224
-81.5658
-81.6143
-81.6684
-81.7278
-81.7926
-81.8474
-81.1195
-81.1193
-81.1191
-81.1204
-81.1231
-81.1273
-81.1332
-81.1408
-81.1505
-81.1625
-81.1771
-81.1946
-81.2152
-81.2395
-81.2677
-81.3003
-81.3378
-81.3805
-81.4289
-81.4835
-81.5448
-81.6133
-81.6908
-81.7755
-80.9288
-80.9286
-80.9293
-80.9313
-80.935
-80.9401
-80.947
-80.9558
-80.9667
-80.9801
-80.9963
-81.0156
-81.0384
-81.0651
-81.0962
-81.1322
-81.1735
-81.2205
-81.2738
-81.3338
-81.4007
-81.4753
-81.5601
-81.6236
-80.7259
-80.7253
-80.7256
-80.7276
-80.7312
-80.7364
-80.7436
-80.7529
-80.7646
-80.779
-80.7966
-80.8176
-80.8425
-80.8718
-80.9059
-80.9453
-80.9906
-81.0424
-81.1011
-81.1671
-81.241
-81.3232
-81.4151
-81.4956
-80.4989
-80.4979
-80.4977