/*--------------------------------*- C++ -*----------------------------------*\
| =========                 |                                                 |
| \\      /  F ield         | OpenFOAM: The Open Source CFD Toolbox           |
|  \\    /   O peration     | Version:  2.3.0                                 |
|   \\  /    A nd           | Web:      www.OpenFOAM.org                      |
|    \\/     M anipulation  |                                                 |
\*---------------------------------------------------------------------------*/
FoamFile
{
    version     2.0;
    format      ascii;
    class       volScalarField;
    location    "3000";
    object      nuTilda;
}
// * * * * * * * * * * * * * * * * * * * * * * * * * * * * * * * * * * * * * //

dimensions      [0 2 -1 0 0 0 0];

internalField   nonuniform List<scalar> 
6748
(
0.0586232
0.0527748
0.0475745
0.0431981
0.0397363
0.0370951
0.0345651
0.0319916
0.0293995
0.0267566
0.0240878
0.0218706
0.066016
0.061783
0.0580677
0.0548574
0.0521719
0.0500228
0.0483908
0.0472324
0.0464958
0.0461181
0.0460436
0.0462198
0.0722542
0.0692141
0.0666056
0.0644098
0.0626134
0.0611983
0.0601377
0.0593979
0.0589422
0.0587325
0.0587309
0.0589022
0.0775109
0.0752811
0.0733975
0.0718261
0.0705465
0.0695386
0.0687805
0.0682494
0.0679224
0.0677764
0.0677901
0.067942
0.0818753
0.0802198
0.0788169
0.0776427
0.0766808
0.0759165
0.0753355
0.0749241
0.0746694
0.0745579
0.0745777
0.0747157
0.085518
0.0842596
0.0831826
0.0822719
0.0815169
0.0809092
0.0804407
0.0801043
0.0798937
0.0798023
0.0798235
0.0799496
0.0885694
0.0875881
0.0867385
0.0860092
0.0853952
0.0848938
0.0845019
0.0842161
0.0840346
0.0839558
0.0839771
0.084094
0.0911331
0.0903523
0.0896676
0.0890693
0.0885535
0.0881275
0.087791
0.0875419
0.0873803
0.0873088
0.0873294
0.0874396
0.0933003
0.0926663
0.0921044
0.0916097
0.0911596
0.090788
0.0904942
0.0902749
0.0901277
0.0900578
0.0900766
0.0901822
0.0951521
0.0946216
0.0941469
0.0937498
0.0933335
0.0930018
0.0927417
0.09255
0.0924174
0.0923402
0.092355
0.0924571
0.023381
0.0272043
0.0296234
0.0321153
0.0351142
0.0387322
0.0429587
0.0477377
0.053
0.0586693
0.0646641
0.070924
0.0465641
0.0471179
0.0480026
0.0492753
0.0509839
0.0531638
0.0558332
0.0589887
0.0626068
0.0666472
0.0710602
0.0758245
0.0592052
0.0596638
0.0603408
0.0612675
0.0624747
0.0639905
0.065839
0.068036
0.0705878
0.0734905
0.0767333
0.0803431
0.0682108
0.0686095
0.0691719
0.0699165
0.0708607
0.0720216
0.073416
0.0750574
0.0769564
0.0791199
0.081555
0.0843096
0.0749589
0.0753153
0.0758042
0.0764353
0.0772179
0.0781612
0.0792745
0.0805657
0.0820424
0.0837116
0.0855831
0.0877068
0.0801725
0.0804968
0.0809334
0.0814867
0.0821612
0.0829601
0.0838872
0.0849456
0.0861382
0.0874681
0.0889396
0.0905749
0.0843013
0.0846009
0.0849986
0.0854956
0.0860928
0.0867902
0.0875873
0.0884834
0.0894772
0.0905681
0.0917592
0.0930711
0.0876348
0.0879151
0.0882828
0.0887373
0.0892768
0.0898997
0.0906027
0.0913818
0.0922319
0.0931482
0.0941294
0.0951873
0.0903693
0.090633
0.0909774
0.0913985
0.0918932
0.0924596
0.0930928
0.0937849
0.0945281
0.0953156
0.0961392
0.0970092
0.0926408
0.0928852
0.0932107
0.0936047
0.0940617
0.0945832
0.0951635
0.0957855
0.0964427
0.0971334
0.0978645
0.0985777
0.064722
0.0533696
0.0442806
0.0370501
0.031196
0.0263139
0.0223222
0.0195426
0.017161
0.0146666
0.0118993
0.00866608
0.0671923
0.0577752
0.050615
0.045284
0.0415513
0.0384552
0.0352552
0.0318736
0.028306
0.0244958
0.0203592
0.0157943
0.0700321
0.0625829
0.0572322
0.0537112
0.0505747
0.0473452
0.0438898
0.0401347
0.0360301
0.0315315
0.0265922
0.0211668
0.0730965
0.0673388
0.0635434
0.0604344
0.0572883
0.0539224
0.0502484
0.0462025
0.0417292
0.0367751
0.0312864
0.0252134
0.0761981
0.0717529
0.0686783
0.0656767
0.0625013
0.0590385
0.0552102
0.0509504
0.0461971
0.0408858
0.0349513
0.0283286
0.0791766
0.0757989
0.0728657
0.0698877
0.0666867
0.0631572
0.0592183
0.0547965
0.0498187
0.0442097
0.0378913
0.0307849
0.0818987
0.079045
0.0762558
0.0733196
0.070114
0.0665438
0.0625247
0.0579757
0.0528133
0.0469503
0.0402953
0.0327586
0.0844422
0.0817622
0.0790557
0.0761597
0.0729624
0.0693682
0.0652896
0.0606389
0.0553229
0.049242
0.0422916
0.0343718
0.0865408
0.0840079
0.0813809
0.0785316
0.0753534
0.0717487
0.0676237
0.0628883
0.0574438
0.0511833
0.0439856
0.0357304
0.0882784
0.0858613
0.0833149
0.0805209
0.0773727
0.0737706
0.0696069
0.0647917
0.0592323
0.052842
0.0454828
0.0369836
0.00487876
0.00199414
0.00185192
0.00243932
0.00315554
0.00418659
0.00574075
0.00773623
0.0102365
0.0133203
0.017066
0.0215518
0.010565
0.00505355
0.0025795
0.00302125
0.00393206
0.00516872
0.00682239
0.00885518
0.0113183
0.0142731
0.017784
0.0219149
0.0150496
0.00822175
0.00370688
0.00370589
0.00481123
0.00621446
0.00795869
0.0100196
0.0124378
0.0152584
0.0185313
0.0223046
0.0183723
0.0107361
0.00496477
0.00445913
0.0057218
0.00725882
0.00907792
0.0111574
0.0135257
0.016218
0.0192909
0.0228823
0.0208582
0.0126047
0.00613421
0.00524439
0.00662306
0.00826937
0.0101486
0.0122387
0.014559
0.0171434
0.020051
0.0233607
0.0227577
0.0139973
0.00714039
0.00602681
0.00749013
0.00922865
0.0111572
0.013253
0.0155312
0.0180223
0.0207678
0.0237905
0.0242362
0.0150527
0.00798568
0.00677796
0.0083059
0.0101281
0.012098
0.0141979
0.0164393
0.0188433
0.0214291
0.0241924
0.025408
0.0158685
0.00869997
0.00748689
0.00907321
0.0109646
0.0129701
0.0150732
0.01728
0.0195998
0.0220339
0.0245702
0.0263697
0.0165091
0.0092982
0.00814514
0.0097885
0.0117421
0.0137796
0.0158822
0.0180533
0.0202915
0.0225863
0.0249256
0.0273607
0.0173619
0.00995661
0.00876919
0.0104699
0.012445
0.0144701
0.0165763
0.0187428
0.02091
0.0230676
0.0252343
0.00109764
0.00381155
0.00812333
0.0129398
0.0178169
0.0225965
0.0271629
0.0314841
0.0358215
0.0403905
0.0453439
0.0517029
0.00074283
0.00246502
0.00614789
0.00988696
0.0137785
0.0179331
0.0223038
0.0267896
0.0313375
0.0359993
0.0409291
0.0466296
0.000436031
0.00163078
0.00413345
0.00791462
0.01246
0.01677
0.0209594
0.0251103
0.0292841
0.033574
0.038156
0.0433764
0.000531824
0.00135084
0.00341283
0.00656624
0.0110757
0.0158585
0.0205056
0.0248915
0.0289736
0.0328608
0.0368445
0.0413859
0.000499246
0.00120461
0.00303589
0.00581671
0.00986455
0.0148838
0.0199381
0.0248016
0.0292699
0.0332092
0.0367836
0.0405729
0.000492635
0.00109741
0.00276833
0.00530012
0.00898452
0.0139522
0.0192846
0.0245549
0.0295243
0.0338928
0.0375105
0.0407779
0.000481064
0.00102184
0.00257986
0.00493593
0.00835789
0.0131206
0.0186151
0.0241961
0.0295964
0.034492
0.0385156
0.0416728
0.000476141
0.000967678
0.0024392
0.00466474
0.00789366
0.0124247
0.0179747
0.0237935
0.0295464
0.0349266
0.0395059
0.0429965
0.000473243
0.00092953
0.00233399
0.00446044
0.00754068
0.011871
0.0174058
0.0234055
0.0294492
0.0352434
0.0403701
0.044362
0.000473136
0.000902502
0.00225816
0.00431123
0.00727972
0.0114519
0.0169345
0.0230752
0.0293684
0.0355147
0.0411257
0.0456837
0.000474658
0.000883815
0.00220463
0.00420436
0.00708998
0.0111411
0.0165598
0.0228162
0.0293308
0.0357787
0.0417943
0.0468353
0.000477341
0.000871046
0.00216736
0.00412861
0.00695302
0.010912
0.0162662
0.0226241
0.029346
0.0360621
0.0424186
0.04787
0.000480445
0.000862112
0.00214111
0.00407458
0.00685383
0.0107425
0.0160352
0.0224867
0.0294165
0.0363955
0.0430711
0.0489208
0.000483371
0.000855112
0.00212082
0.00403263
0.00677665
0.01061
0.0158441
0.0223748
0.0295099
0.0367532
0.0437412
0.0499624
0.000485848
0.000848945
0.0021031
0.00399599
0.00670925
0.010494
0.0156678
0.0222503
0.0295699
0.0370582
0.0443257
0.0508529
0.00048786
0.0008434
0.00208748
0.00396386
0.00665045
0.0103933
0.0155107
0.0221253
0.0296166
0.0373485
0.0449088
0.0518183
0.000489305
0.000837975
0.00207256
0.00393357
0.00659562
0.0103
0.0153631
0.0219885
0.0296339
0.0375955
0.0454165
0.0525994
0.000490155
0.000832502
0.00205781
0.00390395
0.00654274
0.0102115
0.0152236
0.0218435
0.0296325
0.0378304
0.0459371
0.0534771
0.000490345
0.000826709
0.0020423
0.00387305
0.00648788
0.0101202
0.0150786
0.0216686
0.029573
0.0379921
0.0463642
0.0541862
0.000489935
0.000820712
0.00202629
0.00384145
0.00643235
0.0100287
0.0149344
0.0214793
0.0294692
0.038096
0.0467413
0.0549101
0.000488976
0.00081447
0.00200943
0.00380851
0.00637493
0.00993476
0.0147872
0.0212749
0.0293131
0.0381114
0.0469922
0.0554348
0.000487673
0.000808293
0.00199272
0.00377623
0.00631925
0.00984474
0.0146476
0.0210782
0.0291449
0.038096
0.0472082
0.0559596
0.000486145
0.000801995
0.00197592
0.00374398
0.0062641
0.00975639
0.0145118
0.0208846
0.0289608
0.0380396
0.0473499
0.0563333
0.000484478
0.000795843
0.00195952
0.00371248
0.00621036
0.00967083
0.0143814
0.0206985
0.0287746
0.0379715
0.0474811
0.0567318
0.000482696
0.000789865
0.00194355
0.00368166
0.00615759
0.00958661
0.0142531
0.0205137
0.0285771
0.0378783
0.0475751
0.0570617
0.000480857
0.000784215
0.00192841
0.00365221
0.00610674
0.00950479
0.0141273
0.0203299
0.0283653
0.0377517
0.0476223
0.0573329
0.000479016
0.000778995
0.0019144
0.00362487
0.00605932
0.00942798
0.0140084
0.020154
0.0281511
0.0376044
0.0476366
0.0575659
0.000477188
0.000774212
0.00190165
0.00360004
0.00601619
0.00935808
0.0138998
0.0199922
0.0279473
0.0374531
0.0476369
0.0577857
0.000475369
0.00076978
0.00188998
0.0035775
0.00597735
0.00929535
0.0138027
0.0198471
0.0277598
0.0373057
0.0476263
0.0579788
0.000473566
0.000765635
0.00187914
0.00355668
0.00594187
0.0092388
0.0137161
0.0197192
0.0275943
0.0371731
0.0476176
0.058161
0.000471783
0.000761691
0.00186886
0.00353694
0.00590835
0.00918578
0.0136359
0.019602
0.027443
0.037048
0.047594
0.0582791
0.000469994
0.000758031
0.00185922
0.00351823
0.0058764
0.00913524
0.01356
0.0194932
0.0273078
0.0369538
0.0476264
0.0585123
0.000468144
0.000754567
0.00185008
0.00350025
0.00584517
0.00908473
0.0134821
0.019378
0.0271557
0.03683
0.0476215
0.0586775
0.000466216
0.000751251
0.00184138
0.0034832
0.00581557
0.00903652
0.0134066
0.019263
0.0269932
0.0366681
0.0475454
0.058718
0.000464221
0.000747985
0.00183296
0.00346679
0.00578732
0.00899108
0.0133364
0.0191576
0.0268455
0.0365197
0.0474838
0.0588069
0.000462162
0.000744826
0.00182482
0.00345095
0.0057602
0.00894788
0.0132707
0.0190609
0.0267135
0.0363936
0.0474521
0.0589482
0.000460028
0.000741764
0.00181687
0.00343531
0.00573319
0.00890463
0.0132048
0.0189645
0.0265828
0.0362701
0.0474314
0.0591184
0.000457824
0.000738796
0.00180921
0.00342009
0.00570662
0.00886145
0.0131377
0.0188629
0.0264363
0.0361028
0.0473191
0.059095
0.000455565
0.000736033
0.00180203
0.00340576
0.0056816
0.00882094
0.013075
0.018769
0.0263024
0.0359522
0.0472355
0.0591604
0.000453254
0.000733413
0.00179522
0.00339204
0.00565747
0.00878157
0.0130138
0.0186771
0.0261707
0.0357991
0.0471358
0.059171
0.000450902
0.000731052
0.00178906
0.0033795
0.00563516
0.00874482
0.0129562
0.0185899
0.0260448
0.0356499
0.0470419
0.0592197
0.00044849
0.000728873
0.0017835
0.00336814
0.00561482
0.00871093
0.0129023
0.0185069
0.0259221
0.0354952
0.046921
0.0592024
0.000446068
0.000726866
0.00177857
0.00335818
0.00559713
0.00868156
0.0128555
0.0184343
0.0258138
0.035356
0.0468063
0.0591784
0.000443627
0.000724964
0.00177394
0.00334902
0.00558128
0.00865589
0.0128153
0.0183729
0.0257231
0.0352417
0.0467165
0.0591646
0.000441094
0.000722984
0.00176925
0.0033399
0.00556586
0.00863164
0.0127788
0.018319
0.0256464
0.0351523
0.0466685
0.0592087
0.000438425
0.000720862
0.00176414
0.00332986
0.00554893
0.00860534
0.0127398
0.0182634
0.0255704
0.0350696
0.0466489
0.0593326
0.000435612
0.000718589
0.00175855
0.00331866
0.0055297
0.00857492
0.0126941
0.0181967
0.025476
0.0349534
0.0465723
0.059366
0.000432687
0.000716342
0.00175286
0.00330693
0.00550905
0.00854167
0.0126432
0.0181218
0.0253694
0.0348176
0.0464654
0.059348
0.000429708
0.000714332
0.00174761
0.00329566
0.00548849
0.00850737
0.0125893
0.0180402
0.0252502
0.0346594
0.0463239
0.0593052
0.000426732
0.000712832
0.0017435
0.0032862
0.00547034
0.00847587
0.0125379
0.0179601
0.0251295
0.0344917
0.0461608
0.059241
0.000423793
0.000711987
0.00174095
0.00327943
0.00545622
0.00844983
0.0124934
0.0178878
0.0250171
0.0343305
0.0459946
0.0591659
0.000420915
0.00071191
0.00174031
0.00327616
0.00544764
0.0084317
0.0124593
0.0178286
0.0249198
0.0341836
0.0458308
0.0590688
0.000418044
0.000712654
0.00174174
0.00327673
0.00544549
0.00842351
0.0124396
0.017789
0.0248484
0.0340697
0.0457083
0.0590546
0.000415132
0.000713925
0.00174469
0.0032804
0.00544886
0.00842435
0.0124338
0.0177691
0.0248028
0.0339848
0.0455951
0.0589405
0.000412193
0.000715785
0.00174903
0.00328672
0.00545701
0.00843343
0.0124415
0.0177708
0.0247898
0.033945
0.0455336
0.0588684
0.000409101
0.000718247
0.00175471
0.00329521
0.00546855
0.00844801
0.0124588
0.0177904
0.0248119
0.0339778
0.0456355
0.0591806
0.000405854
0.000721282
0.00176158
0.00330535
0.0054817
0.00846325
0.0124744
0.0178035
0.024819
0.0339788
0.0456716
0.0593411
0.000402511
0.000725329
0.00177074
0.0033193
0.00550018
0.00848479
0.0124956
0.0178185
0.0248177
0.0339477
0.0456242
0.0593622
0.000399028
0.000730457
0.00178251
0.00333825
0.00552676
0.00851828
0.0125332
0.017854
0.0248399
0.0339396
0.0455899
0.0593915
0.000395287
0.000736545
0.00179682
0.00336194
0.0055615
0.00856469
0.0125904
0.0179184
0.0249032
0.0339885
0.0456239
0.0594659
0.000391278
0.000743862
0.00181359
0.00338953
0.0056024
0.00862054
0.0126618
0.0180045
0.025001
0.0340935
0.0457543
0.0596863
0.000386887
0.000752364
0.00183282
0.00342095
0.00564828
0.00868265
0.0127405
0.0180985
0.025107
0.0342078
0.0458987
0.0599836
0.000382015
0.000762448
0.00185541
0.00345787
0.00570146
0.00875313
0.0128272
0.0181968
0.0252075
0.0342937
0.0459613
0.0601459
0.000376622
0.000774756
0.00188284
0.00350292
0.00576668
0.00883944
0.0129328
0.0183156
0.0253269
0.0343898
0.046005
0.0602223
0.000370527
0.000789874
0.00191644
0.00355856
0.00584778
0.0089475
0.0130665
0.0184688
0.0254864
0.0345336
0.0461101
0.060392
0.000363338
0.000808465
0.00195768
0.00362751
0.00594916
0.00908351
0.0132363
0.018666
0.0256966
0.0347314
0.0462606
0.0605584
0.000354192
0.000831017
0.00200811
0.00371255
0.00607496
0.00925332
0.0134498
0.0189165
0.0259673
0.0349934
0.0464757
0.0607949
0.000341469
0.000858447
0.00206997
0.00381699
0.00623003
0.00946461
0.0137182
0.0192356
0.0263197
0.0353441
0.046761
0.060967
0.000321988
0.00089079
0.00214384
0.00394235
0.00641629
0.00971878
0.014042
0.019624
0.0267586
0.035811
0.0472364
0.0615123
0.000291597
0.000929633
0.00223325
0.00409387
0.0066397
0.0100204
0.0144214
0.0200711
0.0272509
0.0363101
0.0476891
0.0618898
0.00024985
0.000978209
0.00234346
0.00427986
0.00691174
0.0103827
0.0148688
0.0205848
0.0277942
0.0368236
0.0480843
0.0620616
0.000229982
0.00104508
0.00248195
0.00451321
0.00725236
0.0108329
0.0154177
0.0212042
0.0284356
0.0374156
0.0485288
0.0622421
0.000232446
0.00114199
0.00266682
0.00482213
0.00770047
0.0114178
0.0161181
0.0219777
0.0292186
0.0381267
0.0490752
0.0625484
0.000241608
0.00132979
0.00303688
0.00539157
0.00846895
0.0123571
0.0171768
0.0230798
0.0302721
0.0390325
0.0497212
0.0628041
0.000383381
0.00200028
0.00429034
0.00715102
0.0105735
0.0146349
0.0194723
0.0252311
0.0321314
0.0405162
0.0507433
0.0632562
0.00116073
0.00459393
0.00886096
0.0137143
0.0190953
0.0249462
0.0312075
0.0378174
0.0447112
0.0518208
0.0590875
0.0664755
0.000126544
0.00192004
0.00491619
0.00877813
0.0134894
0.0189824
0.0251804
0.031972
0.0392417
0.0468662
0.0547269
0.062737
0.000643455
0.00175716
0.00410311
0.00726311
0.0112773
0.0161379
0.0218247
0.0282802
0.0354103
0.0430874
0.0511591
0.0594664
0.000658799
0.00158012
0.00360668
0.00635764
0.0099027
0.0142807
0.019517
0.0256018
0.0324797
0.0400451
0.0481456
0.0565957
0.00067387
0.00138724
0.00318502
0.00564898
0.00885935
0.0128755
0.017749
0.0235022
0.030114
0.0375084
0.0455511
0.0540658
0.00067611
0.00123656
0.00286273
0.00510863
0.0080603
0.0117868
0.0163557
0.021812
0.0281622
0.03536
0.0432969
0.0518198
0.000677627
0.00112605
0.00261675
0.00468908
0.00743185
0.0109187
0.0152274
0.020419
0.0265222
0.0335165
0.0413201
0.0497912
0.000677821
0.00104031
0.00241982
0.00434906
0.00691851
0.0102033
0.0142878
0.0192452
0.0251218
0.0319218
0.0395973
0.0480509
0.000678298
0.000971379
0.00225761
0.00406643
0.00648943
0.00960132
0.0134913
0.0182414
0.0239126
0.0305308
0.0380761
0.0464777
0.000678844
0.000914902
0.00212188
0.00382802
0.00612512
0.00908733
0.0128066
0.0173715
0.0228541
0.0292939
0.0366774
0.0448874
0.000679246
0.000867843
0.00200668
0.00362458
0.0058113
0.00864225
0.0122101
0.0166081
0.0219157
0.0281822
0.0354052
0.0435132
0.000679534
0.00082805
0.00190754
0.00344829
0.00553737
0.00825198
0.0116844
0.0159307
0.0210758
0.0271776
0.0342459
0.0422246
0.000679746
0.000794109
0.00182111
0.00329354
0.00529557
0.00790613
0.0112163
0.015324
0.0203185
0.0262656
0.0331883
0.0410539
0.000680398
0.000769239
0.00174495
0.00315629
0.00508004
0.0075968
0.0107959
0.0147764
0.0196315
0.025434
0.0322186
0.0399663
0.000682682
0.000760648
0.00167722
0.0030335
0.00488631
0.00731792
0.0104155
0.0142791
0.0190048
0.0246713
0.031322
0.0389423
0.000686367
0.000762809
0.00161663
0.00292284
0.00471093
0.00706484
0.0100694
0.0138251
0.0184307
0.0239703
0.0304975
0.0380208
0.000690439
0.000768044
0.00156218
0.00282244
0.0045511
0.00683382
0.00975266
0.0134085
0.0179018
0.0233201
0.029719
0.0370813
0.000694224
0.000772951
0.00151306
0.00273105
0.00440538
0.00662195
0.00946155
0.0130245
0.0174128
0.0227176
0.0290042
0.0363064
0.000697521
0.000776739
0.00146862
0.00264767
0.00427213
0.00642688
0.00919291
0.0126694
0.0169591
0.0221558
0.0283261
0.0354728
0.000700355
0.000779457
0.00142828
0.00257132
0.00414964
0.00624658
0.00894408
0.0123396
0.0165366
0.0216305
0.0276927
0.0347545
0.00070279
0.000781295
0.00139163
0.00250108
0.00403645
0.00607933
0.00871278
0.0120324
0.0161419
0.0211387
0.0270998
0.0340663
0.000704902
0.000782607
0.00135963
0.00243622
0.0039314
0.00592361
0.00849707
0.0117454
0.0157726
0.0206788
0.0265485
0.0334445
0.000706881
0.000784537
0.00133819
0.00237634
0.00383363
0.0057782
0.00829537
0.0114767
0.0154268
0.0202482
0.0260314
0.0328403
0.000708982
0.000788488
0.00133097
0.00232125
0.00374234
0.00564205
0.00810631
0.0112247
0.015102
0.0198428
0.0255395
0.032251
0.000711307
0.000794484
0.00133305
0.00227063
0.00365697
0.00551425
0.00792872
0.0109878
0.0147967
0.0194624
0.0250856
0.0317641
0.000713781
0.000801604
0.00133852
0.002224
0.00357692
0.00539402
0.00776159
0.0107648
0.014509
0.0191026
0.0246445
0.0311858
0.000716232
0.000808765
0.00134402
0.00218085
0.0035018
0.00528104
0.007604
0.0105543
0.0142369
0.0187602
0.0242216
0.0306831
0.000718593
0.000815435
0.00134828
0.00214075
0.00343133
0.00517502
0.00745523
0.0103553
0.0139791
0.0184351
0.023823
0.0302244
0.000720838
0.000821285
0.00135102
0.00210336
0.00336517
0.00507526
0.00731452
0.0101668
0.0137343
0.0181259
0.0234436
0.0297679
0.000722872
0.000826286
0.0013523
0.00206839
0.00330294
0.00498108
0.00718117
0.00998775
0.0135016
0.0178318
0.0230824
0.0293401
0.000724733
0.000830564
0.00135233
0.00203555
0.00324425
0.00489197
0.0070546
0.00981763
0.0132802
0.0175518
0.0227385
0.0289301
0.000726446
0.000834198
0.00135132
0.0020047
0.00318882
0.0048075
0.00693429
0.00965574
0.0130694
0.0172849
0.0224095
0.0285325
0.000728038
0.000837323
0.00134949
0.00197579
0.00313635
0.00472728
0.0068198
0.00950154
0.0128684
0.0170302
0.0220951
0.0281558
0.000729528
0.000840022
0.00134709
0.00194933
0.00308665
0.00465101
0.00671067
0.00935444
0.0126765
0.0167866
0.0217935
0.0277884
0.000730938
0.000842437
0.00134472
0.00192729
0.00303959
0.00457838
0.00660654
0.00921396
0.0124931
0.0165532
0.0215032
0.0274325
0.000732311
0.000844824
0.00134342
0.00191271
0.00299525
0.00450917
0.00650707
0.00907965
0.0123174
0.0163294
0.0212248
0.0270992
0.000733703
0.000847487
0.00134423
0.00190658
0.00295378
0.00444318
0.00641195
0.00895113
0.0121493
0.0161151
0.0209593
0.0267844
0.000735165
0.000850663
0.00134748
0.00190683
0.0029151
0.00438028
0.00632111
0.0088281
0.0119882
0.0159099
0.0207052
0.0264767
0.000736727
0.000854373
0.00135277
0.00191062
0.00287908
0.0043204
0.00623458
0.00871025
0.0118337
0.0157127
0.0204582
0.0261653
0.000738385
0.000858536
0.00135942
0.00191575
0.00284543
0.00426342
0.00615207
0.00859731
0.0116856
0.0155239
0.0202264
0.0259174
0.000740113
0.000862935
0.00136667
0.001921
0.00281391
0.00420917
0.00607324
0.00848905
0.0115436
0.0153432
0.0200045
0.0256454
0.000741886
0.000867374
0.00137399
0.00192572
0.00278425
0.00415751
0.00599788
0.00838526
0.0114075
0.0151704
0.0197915
0.0253902
0.00074368
0.000871707
0.00138099
0.00192964
0.00275624
0.00410829
0.00592575
0.00828575
0.0112771
0.0150047
0.0195875
0.025147
0.000745479
0.00087583
0.00138748
0.0019327
0.00272971
0.00406132
0.00585677
0.00819037
0.011152
0.014846
0.0193917
0.0249091
0.000747273
0.000879703
0.00139335
0.00193487
0.00270448
0.00401648
0.00579069
0.00809895
0.0110322
0.0146935
0.0192009
0.0246607
0.000749062
0.000883293
0.00139859
0.00193624
0.00268049
0.00397362
0.0057274
0.00801128
0.010917
0.0145462
0.0190141
0.0244202
0.000750844
0.000886642
0.00140324
0.00193687
0.00265769
0.00393268
0.00566687
0.00792716
0.0108063
0.0144043
0.0188353
0.0242097
0.000752624
0.000889749
0.00140732
0.00193689
0.0026362
0.00389354
0.00560877
0.00784632
0.0107
0.0142674
0.0186605
0.0239798
0.000754409
0.000892645
0.00141092
0.00193648
0.00261637
0.00385628
0.0055532
0.00776884
0.0105977
0.014136
0.0184998
0.0238343
0.000756209
0.000895369
0.00141413
0.00193591
0.00259897
0.00382067
0.00549984
0.00769427
0.0104993
0.0140098
0.0183426
0.0236094
0.000758034
0.000897977
0.00141714
0.00193565
0.0025852
0.00378681
0.0054487
0.00762263
0.0104047
0.0138886
0.0181904
0.0234286
0.000759866
0.000900476
0.00142012
0.00193621
0.00257611
0.00375483
0.00539975
0.007554
0.010314
0.0137721
0.0180427
0.0232356
0.000761753
0.000903017
0.00142333
0.00193808
0.002572
0.00372505
0.00535326
0.00748878
0.0102271
0.0136602
0.0179012
0.0230656
0.000763758
0.000905651
0.00142701
0.00194158
0.002572
0.0036973
0.00530896
0.0074266
0.0101441
0.0135531
0.0177661
0.0229011
0.000765891
0.000908447
0.00143134
0.00194658
0.0025748
0.0036715
0.00526684
0.00736729
0.0100646
0.0134506
0.0176376
0.0227478
0.000768181
0.000911552
0.00143634
0.00195276
0.00257939
0.0036478
0.00522709
0.00731101
0.00998873
0.0133527
0.017515
0.0225977
0.000770555
0.000914764
0.00144184
0.00195985
0.00258495
0.00362581
0.00518943
0.00725742
0.00991638
0.0132593
0.0173977
0.0224497
0.000773058
0.000918127
0.00144776
0.00196753
0.0025909
0.00360547
0.00515386
0.00720657
0.00984758
0.0131704
0.0172849
0.0223035
0.000775712
0.000921687
0.00145402
0.00197553
0.00259706
0.00358683
0.00512057
0.00715865
0.00978232
0.0130858
0.0171766
0.0221632
0.000778441
0.000925043
0.00146035
0.00198365
0.00260304
0.0035696
0.00508928
0.00711345
0.00972083
0.0130056
0.0170731
0.0220283
0.000781303
0.000928736
0.00146675
0.00199165
0.00260875
0.00355374
0.00506007
0.00707102
0.00966281
0.0129299
0.0169748
0.0219023
0.000784669
0.000932644
0.00147338
0.00199961
0.00261426
0.0035395
0.00503325
0.00703172
0.00960868
0.0128585
0.0168817
0.0217814
0.000788086
0.000936417
0.00147986
0.00200735
0.00261954
0.00352662
0.00500864
0.00699536
0.00955836
0.0127919
0.016795
0.021674
0.000791734
0.000940235
0.00148621
0.00201486
0.00262467
0.00351525
0.0049864
0.00696223
0.00951218
0.0127305
0.0167148
0.0215703
0.000795671
0.000944025
0.00149244
0.00202215
0.00262968
0.00350544
0.00496667
0.00693253
0.00947042
0.0126747
0.0166423
0.0214826
0.000799882
0.000947922
0.0014986
0.00202938
0.00263485
0.00349749
0.00494988
0.00690675
0.00943353
0.0126252
0.016577
0.0213927
0.000804349
0.000951513
0.00150455
0.00203637
0.00264
0.00349137
0.00493605
0.00688508
0.0094023
0.0125827
0.0165213
0.021334
0.00080926
0.000955569
0.00151059
0.00204338
0.00264534
0.00348741
0.00492568
0.00686815
0.00937723
0.0125484
0.0164768
0.0212793
0.000815142
0.000959929
0.00151679
0.00205044
0.00265117
0.00348624
0.00491964
0.00685708
0.00935971
0.0125234
0.0164429
0.0212271
0.000821574
0.000964374
0.00152313
0.00205776
0.00265775
0.00348824
0.00491863
0.00685279
0.00935095
0.0125093
0.0164211
0.0211928
0.000828928
0.000968938
0.00152951
0.00206534
0.00266523
0.00349401
0.00492362
0.00685672
0.00935278
0.0125077
0.0164121
0.0211622
0.000837726
0.000975003
0.0015376
0.00207456
0.00267513
0.0035067
0.00493839
0.00687285
0.00936892
0.0125224
0.0164231
0.0211842
0.000846636
0.000975471
0.00154117
0.0020811
0.00268378
0.00352066
0.00495801
0.00689782
0.00939829
0.0125542
0.0164527
0.0211817
0.000888269
0.00101576
0.00157141
0.00210947
0.00271627
0.00357817
0.00502785
0.00697474
0.00947771
0.0126302
0.0165191
0.0212596
0.000455261
0.000825555
0.00150348
0.00205274
0.00265275
0.00350526
0.00495748
0.00691413
0.00943434
0.0126123
0.0165362
0.0213034
0.137513
0.130814
0.112616
0.140076
0.133047
0.0381892
0.117663
0.138732
0.135042
0.0744164
0.0698742
0.0549375
0.12795
0.137268
0.128477
0.101508
0.131877
0.0391585
0.132179
0.17934
0.0765298
0.138025
0.121529
0.0826096
0.137744
0.120809
0.138941
0.102098
0.0811868
0.135066
0.137762
0.0611761
0.115539
0.103762
0.137731
0.0305133
0.110462
0.0928776
0.135412
0.120083
0.106209
0.135235
0.126933
0.0973014
0.132913
0.0779867
0.110264
0.138398
0.139062
0.127428
0.140026
0.117772
0.139535
0.0939625
0.081164
0.347162
0.126998
0.107863
0.0782805
0.124319
0.140073
0.101861
0.0892447
0.117744
0.134798
0.111308
0.123925
0.0980382
0.136295
0.106498
0.276883
0.104034
0.0743155
0.331601
0.0803202
0.0578208
0.100011
0.130754
0.055347
0.0873973
0.125624
0.125256
0.116753
0.139959
0.127988
0.100323
0.126821
0.120346
0.282427
0.0977208
0.137932
0.139802
0.13995
0.121006
0.139869
0.092004
0.138881
0.116172
0.136362
0.0698138
0.080482
0.055682
0.0735595
0.108927
0.109787
0.116827
0.135381
0.138934
0.0949398
0.128339
0.0475563
0.137764
0.138201
0.0175389
0.121134
0.141771
0.123356
0.0839414
0.0938404
0.248131
0.138924
0.097248
0.0702592
0.119377
0.071621
0.121332
0.105471
0.0278846
0.13869
0.10806
0.113304
0.0599653
0.140004
0.128754
0.0991103
0.13642
0.0961592
0.136009
0.122886
0.126126
0.138557
0.139365
0.138435
0.126154
0.107273
0.0869333
0.113008
0.131582
0.068565
0.103701
0.145589
0.135761
0.116269
0.138216
0.0331478
0.1353
0.118396
0.126859
0.105843
0.128922
0.0977128
0.0841798
0.104299
0.0590613
0.129131
0.309524
0.0968937
0.123549
0.108675
0.0672859
0.0493288
0.1347
0.135499
0.0704126
0.0486273
0.138426
0.11605
0.0887327
0.132977
0.137465
0.122324
0.0917059
0.137502
0.130102
0.139889
0.177655
0.136087
0.0861824
0.138345
0.293961
0.136443
0.113628
0.0847478
0.110022
0.114849
0.0795015
0.10343
0.0728105
0.121525
0.101794
0.137187
0.12037
0.138272
0.0825532
0.106512
0.117006
0.135729
0.0862971
0.1075
0.177155
0.112649
0.110518
0.118273
0.136973
0.091777
0.0158584
0.0707569
0.121523
0.0433881
0.0733733
0.117335
0.132535
0.129376
0.125918
0.11636
0.138633
0.0876219
0.124788
0.138188
0.0382623
0.109793
0.113921
0.128956
0.0497967
0.0897909
0.129869
0.095279
0.101318
0.137169
0.139595
0.131198
0.0749872
0.135759
0.140035
0.110483
0.0528431
0.139929
0.117106
0.107286
0.139106
0.124627
0.120218
0.0767644
0.126858
0.125748
0.0946021
0.0435105
0.130652
0.0915985
0.10126
0.108697
0.137195
0.125147
0.105006
0.0744792
0.127988
0.135839
0.137325
0.140081
0.0945186
0.126622
0.136812
0.121178
0.06695
0.066698
0.0975608
0.133382
0.104142
0.13688
0.0629871
0.0824856
0.0496323
0.139905
0.071288
0.0933089
0.136304
0.128535
0.138585
0.13676
0.0265257
0.0521964
0.122395
0.11975
0.111184
0.113045
0.131849
0.120943
0.140036
0.0893982
0.0584208
0.0686077
0.106391
0.0516145
0.115831
0.138007
0.138326
0.121267
0.136688
0.0727242
0.0496736
0.117808
0.0925666
0.136624
0.0426322
0.22878
0.136165
0.0339093
0.135695
0.139362
0.0778866
0.121305
0.120273
0.126054
0.138003
0.131705
0.077881
0.135813
0.139347
0.056409
0.134907
0.131266
0.0960366
0.0539547
0.125881
0.111355
0.0849494
0.084023
0.142371
0.140456
0.135406
0.175864
0.120571
0.118833
0.263805
0.111116
0.0939804
0.135955
0.119143
0.145405
0.12777
0.136606
0.140041
0.122049
0.0361603
0.126436
0.138982
0.136868
0.138001
0.219394
0.0883964
0.10262
0.13784
0.120238
0.134152
0.0567558
0.190478
0.129609
0.110361
0.137182
0.0856496
0.128509
0.0905079
0.137301
0.139521
0.0320074
0.0772376
0.0493252
0.0744219
0.156593
0.0559735
0.137259
0.114762
0.130802
0.13685
0.103102
0.136737
0.075113
0.042842
0.0929034
0.111403
0.0708797
0.0555556
0.140018
0.125438
0.132504
0.137176
0.0875218
0.067222
0.129867
0.0892625
0.131449
0.0625396
0.0570569
0.111758
0.136449
0.11259
0.0877082
0.0388993
0.11222
0.0298973
0.063102
0.107758
0.139927
0.136521
0.111954
0.0754754
0.0655246
0.13742
0.137928
0.139007
0.134801
0.120964
0.138387
0.111017
0.137212
0.138192
0.0931851
0.134168
0.121098
0.111675
0.135302
0.0508853
0.126797
0.091641
0.130951
0.086483
0.0491198
0.137297
0.0755843
0.108807
0.084049
0.0899024
0.138207
0.116226
0.132222
0.0946935
0.139489
0.129357
0.0986151
0.122009
0.123661
0.135018
0.0560875
0.15879
0.0920094
0.0760475
0.14004
0.133888
0.0859893
0.138605
0.13569
0.109
0.138494
0.0815097
0.0800857
0.140061
0.137192
0.0870166
0.0277726
0.105247
0.0835064
0.0799786
0.131643
0.0376495
0.0690309
0.0833308
0.0755723
0.0738104
0.140082
0.118578
0.108237
0.126627
0.107095
0.0862088
0.110084
0.132085
0.134164
0.106753
0.138484
0.139002
0.073571
0.137013
0.0534594
0.138637
0.134603
0.13611
0.120873
0.0978633
0.13349
0.117864
0.139115
0.087394
0.138721
0.126212
0.110119
0.1396
0.110324
0.133573
0.0602802
0.134617
0.114744
0.118181
0.0976059
0.113169
0.0404226
0.093559
0.0764712
0.138075
0.140073
0.0903866
0.262037
0.133375
0.0767554
0.128807
0.14003
0.113641
0.103878
0.0452498
0.0422878
0.0713475
0.0828113
0.118874
0.0821077
0.0628241
0.137981
0.0709118
0.13482
0.0678078
0.0869186
0.0896607
0.0302834
0.137994
0.10943
0.104474
0.0405333
0.14005
0.120577
0.0265865
0.0926215
0.122249
0.127666
0.102265
0.0339099
0.134831
0.0922504
0.139266
0.138687
0.0340085
0.0686942
0.0423212
0.133534
0.132456
0.125491
0.101215
0.124444
0.139867
0.0876398
0.13433
0.115032
0.0407813
0.137082
0.120228