/*--------------------------------*- C++ -*----------------------------------*\
| =========                 |                                                 |
| \\      /  F ield         | OpenFOAM: The Open Source CFD Toolbox           |
|  \\    /   O peration     | Version:  2.3.0                                 |
|   \\  /    A nd           | Web:      www.OpenFOAM.org                      |
|    \\/     M anipulation  |                                                 |
\*---------------------------------------------------------------------------*/
FoamFile
{
    version     2.0;
    format      ascii;
    class       volScalarField;
    location    "3000";
    object      p;
}
// * * * * * * * * * * * * * * * * * * * * * * * * * * * * * * * * * * * * * //

dimensions      [0 2 -2 0 0 0 0];

internalField   nonuniform List<scalar> 
6748
(
-0.0253846
-0.313398
0.243791
1.57163
3.80627
7.25704
12.4106
20.1701
31.1457
43.1753
53.3135
72.0238
19.2034
22.0924
26.231
31.9785
39.5734
49.1382
60.6851
74.1534
89.2962
105.651
122.921
140.644
34.355
39.4884
45.1959
51.7586
59.0748
67.0987
75.7431
84.8862
94.3491
103.93
113.466
122.778
45.5154
51.2622
57.2448
63.9248
71.1641
78.8796
86.9541
95.2554
103.623
111.891
119.892
127.471
53.9281
59.591
65.1752
71.1634
77.4406
83.959
90.6528
97.4497
104.258
110.986
117.534
123.815
60.5295
65.7367
70.8292
76.2387
81.8642
87.6679
93.5989
99.6001
105.606
111.545
117.343
122.931
65.5248
70.2183
74.7782
79.6078
84.625
89.7883
95.0679
100.419
105.797
111.145
116.398
121.497
69.2271
73.486
77.5967
81.9727
86.5181
91.1968
96.0046
100.877
105.803
110.732
115.593
120.331
72.2322
76.0851
79.8808
83.915
87.9822
92.2745
96.7936
101.329
105.899
110.466
115.014
119.494
74.784
78.634
82.2414
85.5309
89.5518
93.4881
97.72
101.93
106.236
110.516
114.878
119.265
123.973
151.461
170.144
185.384
197.923
207.458
213.839
217.097
217.458
215.364
211.68
207.381
156.581
169.486
180.074
188.539
194.95
199.389
202.032
203.123
202.907
201.6
199.639
197.501
131.867
140.901
149.706
158.007
165.574
172.218
177.773
182.122
185.18
186.931
187.689
187.865
134.634
141.511
148.093
154.253
159.871
164.861
169.156
172.716
175.505
177.491
178.919
180.437
129.86
135.756
141.476
146.92
151.996
156.629
160.756
164.33
167.301
169.631
171.498
173.069
128.305
133.514
138.532
143.294
147.736
151.812
155.485
158.73
161.525
163.839
165.785
167.789
126.425
131.194
135.775
140.114
144.164
147.889
151.263
154.274
156.908
159.146
161.106
162.862
124.922
129.367
133.63
137.662
141.416
144.864
147.983
150.786
153.27
155.395
157.305
159.003
123.864
128.067
132.077
135.86
139.366
142.58
145.488
148.133
150.475
152.35
154.038
155.737
123.566
127.561
131.319
134.828
138.029
141.01
143.735
146.217
148.42
149.87
151.324
152.835
7.56607
6.36124
5.08621
3.92314
3.01014
2.4862
2.43736
2.86598
3.77475
5.19923
7.56792
13.0298
10.9645
9.68042
8.52675
7.58272
6.96911
6.80806
7.25233
8.48518
10.689
14.0307
18.4978
23.7031
14.3108
13.2428
12.3154
11.658
11.4201
11.704
12.6004
14.21
16.6186
19.8405
23.7521
27.9788
17.6239
16.8095
16.1535
15.8012
15.8577
16.3844
17.44
19.0789
21.3216
24.1317
27.3845
30.841
20.8151
20.1809
19.7334
19.5901
19.815
20.4532
21.5476
23.1291
25.2053
27.7405
30.6376
33.7115
23.7106
23.2297
22.949
22.9499
23.2684
23.9444
25.0166
26.5125
28.438
30.7694
33.4303
36.2696
26.1954
25.9766
25.8571
25.9388
26.2973
26.9821
28.0271
29.4544
31.2665
33.4599
35.9698
38.6485
28.5329
28.493
28.4384
28.555
28.9128
29.5635
30.5444
31.8782
33.5383
35.5649
37.9318
40.4655
30.6933
30.739
30.7292
30.9117
31.3037
31.9877
33.0243
34.4586
36.1555
38.2176
40.6572
43.0569
32.7464
32.2698
31.6449
31.411
31.1187
31.149
31.6121
32.718
34.0439
35.3173
38.0945
41.3088
24.5869
30.0857
33.7417
37.3605
40.9878
44.5273
47.9918
51.4373
54.9189
58.4676
62.0659
65.6757
29.2742
32.8036
35.141
37.6796
40.5198
43.6171
46.8876
50.256
53.6765
57.1382
60.597
63.9141
32.1096
36.0283
38.7589
41.0932
43.4853
46.0054
48.6466
51.396
54.2407
57.1862
60.195
63.0791
34.307
37.8464
40.638
42.9261
45.2276
47.5732
49.9651
52.4076
54.9032
57.4675
60.1444
62.8237
36.794
39.8636
42.4692
44.5922
46.7279
48.8936
51.0925
53.3238
55.5864
57.8772
60.2488
62.7968
39.1274
41.9358
44.4162
46.4316
48.4174
50.4035
52.3994
54.4098
56.4392
58.4797
60.5608
62.8106
41.3349
43.9543
46.311
48.2257
50.0744
51.9007
53.7162
55.5281
57.3445
59.1608
60.9927
62.9427
43.0377
45.6079
47.9837
49.8514
51.5735
53.2543
54.9145
56.5594
58.1988
59.8321
61.4749
63.2028
45.4118
47.8125
50.0094
51.5519
52.9832
54.4722
55.9828
57.4805
58.9723
60.4512
61.9432
63.4946
44.1364
47.4786
51.26
52.902
54.117
55.5136
56.959
58.3219
59.6793
61.0235
62.4096
63.8579
-205.78
-188.582
-168.719
-152.437
-135.523
-117.013
-98.2323
-80.0441
-63.031
-48.0054
-35.6163
-25.9245
-115.863
-115.654
-114.231
-112.514
-110.958
-108.195
-103.241
-95.8125
-85.8314
-73.6646
-60.3592
-47.722
-121.595
-121.437
-121.351
-120.642
-118.743
-115.635
-111.319
-105.347
-97.3771
-87.4
-75.6033
-63.4331
-111.861
-111.799
-111.624
-111.308
-110.747
-109.73
-108.002
-105.311
-101.009
-94.4195
-85.1784
-74.85
-110.387
-110.358
-110.307
-110.164
-109.849
-109.216
-108.034
-106.084
-103.042
-98.3191
-91.1637
-82.6713
-107.298
-107.271
-107.21
-107.089
-106.874
-106.499
-105.844
-104.723
-102.825
-99.6616
-94.373
-87.039
-105.527
-105.504
-105.46
-105.37
-105.206
-104.924
-104.447
-103.641
-102.317
-100.149
-96.4898
-91.8031
-103.86
-103.838
-103.793
-103.711
-103.571
-103.346
-102.986
-102.401
-101.453
-99.9226
-97.2878
-93.5024
-102.615
-102.595
-102.555
-102.483
-102.363
-102.174
-101.881
-101.423
-100.695
-99.5421
-97.624
-96.2912
-101.573
-101.556
-101.52
-101.456
-101.354
-101.194
-100.952
-100.586
-100.017
-99.124
-97.6407
-96.4978
-100.702
-100.687
-100.656
-100.601
-100.514
-100.379
-100.175
-99.873
-99.4095
-98.6761
-97.458
-96.6835
-99.9153
-99.9042
-99.8789
-99.8347
-99.765
-99.6568
-99.4938
-99.2516
-98.8789
-98.282
-97.3242
-96.9038
-99.1198
-99.1125
-99.0943
-99.0624
-99.0124
-98.9339
-98.8145
-98.635
-98.3565
-97.906
-97.1472
-96.3859
-98.2399
-98.2347
-98.2205
-98.1952
-98.1552
-98.0914
-97.9917
-97.8368
-97.5899
-97.1863
-96.4569
-94.9559
-97.2735
-97.2697
-97.2591
-97.2402
-97.2097
-97.1602
-97.0811
-96.9559
-96.7527
-96.4101
-95.7968
-94.9533
-96.2066
-96.204
-96.196
-96.1815
-96.1575
-96.1171
-96.0499
-95.9387
-95.7538
-95.4531
-94.923
-93.52
-95.0451
-95.044
-95.0395
-95.0311
-95.0165
-94.9903
-94.944
-94.864
-94.7232
-94.4717
-94.0239
-93.484
-93.7745
-93.7745
-93.7723
-93.7678
-93.7589
-93.7412
-93.7064
-93.6401
-93.5153
-93.2926
-92.8857
-91.7055
-92.3983
-92.3994
-92.4003
-92.4009
-92.4
-92.3946
-92.379
-92.3436
-92.2645
-92.088
-91.7435
-91.5465
-90.9149
-90.9157
-90.9168
-90.9176
-90.9166
-90.9107
-90.8936
-90.8541
-90.766
-90.5814
-90.2179
-89.3394
-89.3681
-89.3684
-89.3704
-89.3725
-89.3734
-89.3703
-89.3578
-89.3268
-89.2557
-89.1029
-88.8109
-88.3444
-87.7703
-87.7703
-87.7721
-87.7742
-87.7748
-87.7712
-87.758
-87.7254
-87.6532
-87.5041
-87.2311
-86.6802
-86.147
-86.1473
-86.1497
-86.1527
-86.1547
-86.1531
-86.1429
-86.1156
-86.0533
-85.9203
-85.6576
-85.158
-84.5058
-84.5061
-84.5089
-84.5129
-84.5164
-84.5173
-84.5114
-84.4908
-84.4398
-84.3302
-84.1284
-83.6927
-82.8481
-82.8487
-82.8521
-82.8568
-82.8616
-82.8645
-82.8617
-82.8465
-82.8041
-82.7062
-82.515
-82.1525
-81.1826
-81.1831
-81.1865
-81.1914
-81.1965
-81.2002
-81.199
-81.1868
-81.1508
-81.0635
-80.8754
-80.4709
-79.514
-79.5149
-79.5185
-79.5236
-79.5289
-79.5328
-79.5322
-79.5215
-79.4893
-79.4091
-79.2312
-78.8696
-77.8528
-77.8535
-77.8571
-77.8623
-77.8678
-77.872
-77.8721
-77.8628
-77.8337
-77.7597
-77.594
-77.2763
-76.1957
-76.1966
-76.2005
-76.2062
-76.2126
-76.2181
-76.2203
-76.2148
-76.1938
-76.1389
-76.0116
-75.7569
-74.5475
-74.5484
-74.5523
-74.5579
-74.5638
-74.5686
-74.5691
-74.5602
-74.5326
-74.4689
-74.3251
-73.8687
-72.9156
-72.9166
-72.9209
-72.9276
-72.9354
-72.9432
-72.9485
-72.9471
-72.9304
-72.8792
-72.7699
-72.7164
-71.2855
-71.2869
-71.2921
-71.3003
-71.3105
-71.322
-71.3326
-71.3385
-71.3328
-71.3044
-71.2291
-70.9133
-69.6495
-69.6511
-69.6571
-69.6668
-69.6794
-69.6948
-69.7118
-69.7283
-69.7396
-69.7319
-69.6753
-69.6333
-68.0011
-68.0028
-68.009
-68.0187
-68.0312
-68.046
-68.062
-68.0762
-68.083
-68.0677
-67.985
-67.6861
-66.3539
-66.3557
-66.3621
-66.3724
-66.3857
-66.402
-66.4197
-66.4364
-66.4454
-66.4319
-66.3726
-66.2669
-64.7004
-64.7026
-64.7098
-64.7213
-64.7365
-64.7557
-64.778
-64.8016
-64.8222
-64.8302
-64.8186
-64.8598
-63.041
-63.0431
-63.0504
-63.0621
-63.0778
-63.0974
-63.1202
-63.1441
-63.1646
-63.1741
-63.144
-62.824
-61.3763
-61.3787
-61.3865
-61.3993
-61.4165
-61.4386
-61.4652
-61.4956
-61.5264
-61.5446
-61.5308
-61.6595
-59.705
-59.7075
-59.7156
-59.7287
-59.7461
-59.7683
-59.7949
-59.8245
-59.8536
-59.8745
-59.8629
-59.6488
-58.0322
-58.0349
-58.0433
-58.0571
-58.0757
-58.0997
-58.1293
-58.1639
-58.2011
-58.2333
-58.2542
-58.347
-56.3534
-56.3563
-56.3648
-56.3788
-56.3974
-56.4214
-56.4506
-56.4844
-56.5202
-56.5515
-56.5693
-56.5499
-54.6759
-54.6787
-54.6873
-54.7014
-54.7203
-54.7443
-54.7735
-54.8072
-54.8431
-54.8761
-54.8978
-54.8945
-53.0011
-53.0041
-53.0129
-53.0273
-53.0464
-53.0705
-53.0994
-53.132
-53.1657
-53.1955
-53.2101
-53.1656
-51.3338
-51.3369
-51.346
-51.3612
-51.3815
-51.4074
-51.4386
-51.4741
-51.5111
-51.5426
-51.5484
-51.5101
-49.6659
-49.6693
-49.6793
-49.696
-49.7187
-49.7482
-49.7848
-49.8282
-49.8772
-49.9253
-49.9494
-49.9594
-47.9894
-47.9931
-48.0039
-48.0219
-48.0465
-48.0787
-48.1192
-48.1677
-48.2224
-48.2794
-48.3359
-48.3452
-46.3027
-46.3065
-46.3177
-46.3367
-46.3629
-46.3975
-46.4417
-46.4958
-46.5591
-46.6272
-46.6979
-46.8463
-44.6032
-44.6072
-44.6188
-44.6382
-44.6648
-44.6998
-44.7441
-44.798
-44.8603
-44.9285
-44.9914
-44.9348
-42.9005
-42.9046
-42.9164
-42.9363
-42.9636
-42.9995
-43.0452
-43.1011
-43.1658
-43.233
-43.2973
-43.4306
-41.1925
-41.1969
-41.2092
-41.2297
-41.2577
-41.2945
-41.3415
-41.3994
-41.4679
-41.5438
-41.6161
-41.6772
-39.4862
-39.4907
-39.503
-39.5236
-39.5517
-39.5888
-39.6358
-39.6933
-39.7609
-39.8354
-39.8968
-39.8305
-37.7771
-37.7823
-37.7959
-37.8181
-37.8486
-37.8886
-37.9397
-38.003
-38.0788
-38.1635
-38.2575
-38.4185
-36.0622
-36.0676
-36.0818
-36.1052
-36.1371
-36.1792
-36.2329
-36.3
-36.3815
-36.4781
-36.6013
-36.8282
-34.3425
-34.348
-34.3624
-34.3864
-34.419
-34.4616
-34.515
-34.5795
-34.6543
-34.7398
-34.8228
-34.6729
-32.615
-32.6217
-32.6382
-32.6654
-32.7026
-32.7518
-32.8146
-32.8927
-32.9872
-33.0963
-33.2173
-33.4948
-30.8647
-30.8719
-30.8897
-30.9192
-30.96
-31.0139
-31.0833
-31.1699
-31.2756
-31.4033
-31.5467
-31.6075
-29.0861
-29.094
-29.1132
-29.145
-29.1888
-29.2469
-29.3215
-29.4149
-29.5291
-29.6649
-29.8102
-29.9269
-27.2789
-27.2876
-27.3084
-27.3425
-27.3895
-27.4516
-27.5311
-27.6301
-27.7501
-27.8904
-28.0329
-28.1281
-25.4438
-25.4532
-25.4754
-25.5126
-25.564
-25.6321
-25.7194
-25.8281
-25.9602
-26.1145
-26.2667
-26.3722
-23.5651
-23.5764
-23.6022
-23.6442
-23.7025
-23.7796
-23.8785
-24.0015
-24.1506
-24.324
-24.4956
-24.5917
-21.641
-21.654
-21.6831
-21.7307
-21.7968
-21.885
-21.9989
-22.1418
-22.3158
-22.5206
-22.7497
-23.0356
-19.6538
-19.6684
-19.701
-19.7543
-19.8286
-19.9279
-20.0565
-20.2178
-20.4139
-20.6438
-20.8937
-21.1243
-17.5981
-17.615
-17.6517
-17.7118
-17.7954
-17.9074
-18.0528
-18.2355
-18.4582
-18.7189
-18.9982
-19.2856
-15.4676
-15.4873
-15.5292
-15.5974
-15.6922
-15.8191
-15.9833
-16.1891
-16.4384
-16.729
-17.0461
-17.3162
-13.2569
-13.2801
-13.3287
-13.4072
-13.5166
-13.6631
-13.8531
-14.0917
-14.3816
-14.7193
-15.0863
-15.4894
-10.9511
-10.9787
-11.0352
-11.1262
-11.2532
-11.4232
-11.6427
-11.917
-12.2463
-12.6215
-13.0121
-13.3564
-8.53643
-8.57066
-8.63941
-8.74849
-8.90041
-9.10362
-9.36592
-9.6928
-10.0838
-10.5233
-10.9684
-11.4923
-6.00627
-6.04814
-6.13142
-6.26293
-6.44608
-6.69142
-7.00723
-7.39806
-7.85943
-8.3721
-8.89878
-9.36061
-3.34227
-3.39425
-3.49746
-3.65908
-3.88524
-4.18815
-4.5779
-5.05808
-5.62053
-6.23887
-6.8842
-7.61162
-0.502271
-0.568615
-0.701923
-0.907063
-1.19264
-1.57279
-2.05657
-2.6431
-3.31322
-4.02167
-4.70098
-5.25592
2.46662
2.38385
2.20766
1.9388
1.56661
1.07624
0.462069
-0.265541
-1.0713
-1.88639
-2.61663
-3.23894
5.32424
5.23116
5.01398
4.67141
4.19445
3.57176
2.80834
1.93328
1.0079
0.125943
-0.611068
-1.14139
8.2617
8.10373
7.78997
7.29778
6.63247
5.80232
4.83715
3.79668
2.77413
1.88715
1.24776
0.895087
11.9253
11.4496
10.8295
9.96966
8.882
7.62235
6.30198
5.05345
4.01223
3.29079
2.95893
3.02627
12.3305
9.6393
7.57631
6.19538
5.28603
4.63487
4.16572
3.85786
3.74532
3.88439
4.32806
5.09064
379.414
372.894
362.28
347.649
330.105
310.655
290.652
271.504
254.305
239.517
227.286
217.545
277.029
278.108
277.432
275.757
273.305
269.787
264.834
258.232
250.051
240.663
230.883
221.751
258.949
259.684
259.425
258.776
257.51
255.466
252.507
248.521
243.39
237.048
229.721
222.047
260.843
260.364
259.132
257.539
255.446
252.764
249.397
245.279
240.357
234.596
228.083
221.155
248.569
248.224
247.643
246.821
245.643
244.02
241.834
238.962
235.285
230.715
225.298
219.355
237.026
236.884
236.679
236.3
235.693
234.78
233.457
231.595
229.057
225.698
221.472
216.652
229.618
229.516
229.345
229.022
228.533
227.814
226.787
225.35
223.387
220.757
217.351
213.342
223.343
223.26
223.111
222.838
222.435
221.849
221.016
219.855
218.268
216.136
213.337
209.868
217.384
217.326
217.215
217.011
216.705
216.255
215.608
214.695
213.431
211.712
209.427
206.476
212.031
211.989
211.904
211.745
211.505
211.148
210.63
209.894
208.862
207.438
205.516
202.9
207.274
207.241
207.171
207.039
206.839
206.542
206.112
205.501
204.642
203.452
201.847
199.799
202.937
202.91
202.851
202.74
202.572
202.322
201.96
201.444
200.72
199.711
198.32
196.512
198.927
198.906
198.856
198.762
198.619
198.407
198.098
197.657
197.035
196.167
194.953
193.304
195.205
195.19
195.148
195.068
194.945
194.761
194.494
194.113
193.573
192.82
191.766
190.297
191.737
191.728
191.693
191.623
191.516
191.356
191.123
190.79
190.318
189.659
188.737
187.424
188.492
188.487
188.456
188.395
188.301
188.161
187.956
187.663
187.249
186.67
185.87
184.722
185.437
185.434
185.407
185.354
185.27
185.146
184.964
184.704
184.336
183.817
183.103
182.081
182.549
182.547
182.523
182.476
182.402
182.291
182.13
181.9
181.574
181.117
180.497
179.679
179.806
179.805
179.783
179.742
179.676
179.577
179.432
179.226
178.935
178.525
177.958
177.219
177.191
177.189
177.17
177.133
177.073
176.984
176.854
176.668
176.405
176.035
175.521
174.867
174.688
174.686
174.669
174.636
174.582
174.5
174.382
174.213
173.974
173.639
173.168
172.562
172.284
172.283
172.268
172.238
172.189
172.114
172.007
171.852
171.634
171.329
170.904
170.366
169.971
169.97
169.957
169.93
169.885
169.817
169.718
169.576
169.376
169.095
168.705
168.246
167.737
167.737
167.727
167.703
167.661
167.599
167.507
167.376
167.191
166.929
166.56
166.158
165.582
165.582
165.573
165.551
165.513
165.454
165.37
165.248
165.076
164.834
164.487
164.103
163.493
163.494
163.486
163.466
163.431
163.378
163.299
163.187
163.028
162.804
162.481
162.157
161.47
161.471
161.463
161.445
161.412
161.363
161.29
161.187
161.041
160.838
160.542
160.254
159.498
159.5
159.493
159.477
159.447
159.402
159.335
159.239
159.104
158.917
158.643
158.356
157.581
157.582
157.575
157.56
157.532
157.489
157.426
157.337
157.21
157.033
156.773
156.481
155.707
155.708
155.702
155.688
155.662
155.622
155.563
155.479
155.36
155.196
154.957
154.699
153.874
153.874
153.869
153.856
153.832
153.795
153.74
153.662
153.552
153.401
153.183
152.952
152.08
152.08
152.074
152.062
152.04
152.004
151.953
151.88
151.777
151.635
151.429
151.212
150.315
150.316
150.311
150.3
150.279
150.246
150.197
150.128
150.031
149.897
149.701
149.498
148.584
148.583
148.579
148.568
148.548
148.517
148.471
148.406
148.314
148.187
148.003
147.818
146.875
146.876
146.871
146.862
146.844
146.814
146.771
146.71
146.624
146.504
146.328
146.157
145.195
145.194
145.19
145.182
145.165
145.137
145.096
145.039
144.959
144.848
144.686
144.547
143.532
143.532
143.529
143.521
143.506
143.48
143.442
143.389
143.315
143.213
143.064
142.942
141.89
141.89
141.887
141.88
141.866
141.841
141.806
141.755
141.685
141.588
141.446
141.33
140.262
140.262
140.259
140.254
140.24
140.217
140.183
140.135
140.068
139.976
139.84
139.749
138.647
138.647
138.645
138.64
138.628
138.606
138.574
138.529
138.466
138.379
138.248
138.178
137.047
137.048
137.045
137.04
137.028
137.007
136.977
136.934
136.875
136.794
136.664
136.588
135.454
135.454
135.452
135.448
135.437
135.418
135.39
135.35
135.294
135.221
135.104
135.028
133.87
133.871
133.868
133.864
133.854
133.836
133.809
133.772
133.721
133.655
133.551
133.472
132.288
132.288
132.286
132.282
132.273
132.257
132.232
132.197
132.149
132.086
131.991
131.914
130.71
130.71
130.708
130.704
130.695
130.679
130.655
130.622
130.576
130.516
130.425
130.349
129.129
129.129
129.127
129.123
129.115
129.1
129.078
129.047
129.005
128.949
128.869
128.828
127.545
127.545
127.543
127.54
127.533
127.519
127.499
127.471
127.433
127.384
127.313
127.344
125.959
125.959
125.957
125.953
125.946
125.934
125.915
125.888
125.853
125.808
125.731
125.754
124.362
124.362
124.36
124.357
124.351
124.339
124.321
124.296
124.263
124.221
124.14
124.112
122.757
122.757
122.755
122.751
122.746
122.735
122.718
122.696
122.666
122.63
122.559
122.518
121.137
121.137
121.135
121.132
121.128
121.119
121.104
121.086
121.061
121.036
120.989
120.908
119.504
119.503
119.5
119.498
119.494
119.486
119.475
119.46
119.443
119.429
119.414
119.368
117.839
117.839
117.838
117.837
117.835
117.829
117.82
117.809
117.795
117.785
117.783
117.687
116.153
116.153
116.151
116.15
116.149
116.144
116.136
116.126
116.114
116.103
116.104
115.991
114.443
114.442
114.44
114.438
114.436
114.432
114.425
114.417
114.408
114.4
114.414
114.328
112.686
112.687
112.687
112.687
112.688
112.687
112.683
112.679
112.676
112.675
112.702
112.643
110.908
110.908
110.907
110.907
110.908
110.908
110.906
110.906
110.909
110.916
110.954
110.92
109.089
109.088
109.087
109.086
109.088
109.089
109.089
109.093
109.102
109.118
109.167
109.15
107.217
107.217
107.215
107.215
107.218
107.221
107.224
107.232
107.249
107.277
107.344
107.34
105.295
105.292
105.289
105.289
105.292
105.296
105.303
105.317
105.343
105.384
105.473
105.487
103.28
103.281
103.282
103.285
103.292
103.302
103.315
103.337
103.374
103.431
103.543
103.587
101.206
101.208
101.208
101.212
101.222
101.235
101.255
101.286
101.336
101.411
101.55
101.628
99.0573
99.0572
99.0564
99.06
99.0707
99.0876
99.1128
99.1529
99.2177
99.3149
99.4875
99.6082
96.7996
96.7998
96.7995
96.8044
96.8178
96.8394
96.8721
96.9239
97.0066
97.1301
97.3408
97.5021
94.4174
94.4177
94.4181
94.4248
94.442
94.4701
94.513
94.5801
94.6854
94.8416
95.1008
95.3153
91.8922
91.8923
91.8929
91.9013
91.9231
91.9592
92.0148
92.1014
92.2358
92.4334
92.7516
93.0263
89.1978
89.1953
89.1951
89.2053
89.2323
89.2788
89.3514
89.4639
89.6368
89.8894
90.2883
90.666
86.25
86.2538
86.2607
86.2803
86.3201
86.3852
86.484
86.6338
86.8596
87.1853
87.6844
88.1852
83.0665
83.0693
83.0773
83.1015
83.154
83.2407
83.3734
83.5729
83.8699
84.2933
84.9231
85.5796
79.5474
79.5501
79.5605
79.5936
79.6641
79.7812
79.9612
80.2309
80.6266
81.182
81.9803
82.8281
75.5678
75.5737
75.5915
75.6417
75.7432
75.9107
76.1661
76.5433
77.0851
77.8298
78.8665
79.9901
70.9585
70.9613
70.9941
71.0724
71.2285
71.4843
71.8682
72.4214
73.19
74.2096
75.5791
77.1406
65.417
65.4742
65.5208
65.6618
65.9272
66.3465
66.9565
67.7997
68.9167
70.3225
72.0818
74.1871
58.4723
58.2353
58.4077
58.7573
59.3132
60.1185
61.1962
62.567
64.248
66.2237
68.4981
71.1052
48.2116
48.7772
49.45
50.2598
51.452
53.0095
54.8942
57.079
59.5436
62.248
65.1569
68.3239
92.6876
27.7222
137.248
93.7295
21.168
161.187
93.9984
101.114
108.1
107.406
194.45
178.967
100.462
84.0141
76.6762
-48.814
89.5636
141.833
117.23
86.9585
-2.06704
80.8644
92.5519
138.932
93.457
-13.0938
83.3443
154.04
166.968
110.112
101.871
-34.8538
23.9822
69.3125
104.328
130.074
150.065
157.979
67.8613
21.2589
17.5961
100.491
108.475
129.164
61.5803
-57.2047
23.058
79.684
97.7835
53.4878
82.5928
-8.17766
97.9343
146.433
-72.6205
81.8517
32.9149
113.211
91.0806
23.7467
96.3926
-1.10213
31.726
-20.9389
112.145
-2.98714
99.5053
-52.6777
89.5634
143.483
67.6078
-5.22583
86.2517
98.5263
-48.0525
80.5222
-51.1998
114.946
-94.1505
87.8786
40.5445
81.8634
-20.1827
89.8405
33.4614
76.0175
53.6923
146.167
108.272
91.6643
93.3687
97.1167
96.8219
82.4308
93.4933
154.371
83.3507
117.394
85.3879
188.028
-74.9617
187.751
-17.156
-32.7539
133.58
91.7377
106.71
80.5192
110.576
92.7958
125.81
84.8261
99.148
62.2088
10.2622
79.4062
131.545
-25.2509
38.8912
86.0597
89.5045
117.791
-65.6362
141.918
93.3763
89.6303
-40.9121
109.497
101.729
36.4383
34.4092
-86.0306
97.3634
88.1005
14.308
71.8413
-51.8764
95.2725
47.1252
93.3892
102.116
86.3329
79.0287
98.8982
161.224
-14.7343
49.9249
122.707
104.888
137.783
86.4969
110.827
61.568
94.9959
68.653
85.7286
26.8787
124.639
-22.5414
47.1907
-38.2466
-29.3871
131.587
86.5996
95.5502
88.63
18.2082
45.1512
124.084
-64.634
-88.8077
103.934
77.9769
211.061
161.151
96.3556
60.429
188.603
104.719
85.2981
-14.158
-46.3513
93.4064
97.8262
97.6361
85.4419
65.3854
-4.06821
102.843
73.6534
78.1296
131.729
162.677
127.987
122.582
-36.0261
5.52794
-45.3795
40.3579
-20.6252
81.3837
-13.3033
79.8265
-20.5218
97.0505
79.6248
59.4648
159.404
95.4808
87.5932
12.1403
84.5252
148.841
81.5098
-10.5962
65.1833
113.238
94.7169
175.895
103.699
112.97
65.8563
107.273
97.1219
130.064
98.507
130.494
48.9219
78.4421
70.8105
-24.4796
91.4113
94.8986
-48.7757
15.3483
109.656
50.993
162.317
103.72
94.695
55.3045
-65.3158
102.815
91.4372
83.4156
104.694
92.2714
69.8521
134.143
87.9411
89.1148
92.6705
-38.6779
74.3186
48.8274
-4.32877
103.697
64.7193
184.017
22.3206
160.766
102.603
88.4154
167.166
200.773
66.2264
73.308
96.7476
95.9658
-46.9436
92.3385
107.039
91.1766
-69.6969
-74.4155
15.0939
94.7185
17.0635
87.8666
-51.5883
-59.2608
128.422
91.0205
-41.6411
90.0968
96.743
117.148
94.922
108.208
66.4848
-67.9381
89.9361
132.874
108.777
120.595
98.4718
26.4058
96.2403
88.928
144.059
-40.979
28.1176
143.963
39.4155
96.6604
94.732
135.416
76.2628
-30.5887
-66.2869
93.4742
2.49524
103.126
72.7867
88.8598
76.0626
82.4718
98.4919
97.2147
163.511
59.1064
26.0037
94.1613
104.133
119.651
3.62033
88.1428
97.0713
99.7531
68.1963
97.9119
-0.488234
152.078
104.074
149.426
-5.16938
-24.5437
89.7072
97.506
95.5054
89.1559
111.292
30.5256
76.2539
59.9827
184.113
94.0802
40.8851
83.529
64.0705
78.7825
94.615
90.2295
155.856
122.905
97.2563
105.804
94.0731
79.9353
-22.21
-52.0983
76.0636
123.938
71.5043
194.038
93.2374
126.304
29.4255
88.1136
145.738
105.544
21.3729
86.287
97.0036
67.6354
-43.602
98.0881
176.135
95.2005
-88.1935
77.4567
107.065
70.7003
77.1126
-17.6713
73.393
-40.9472
120.362
39.7148
-32.0454
-52.6147
172.204
96.7993
93.7436
97.624
84.7293
148.128
161.39
82.4556
-62.9701
63.6101
196.603
-68.6403
72.3048
72.9798
158.581
8.18723
77.8825
23.9446
66.6066
81.8524
28.8235
90.1303
91.2468
26.4674
-9.1582
-56.6401
37.0279
82.6716
97.0289
68.9484
28.7183
101.839
147.299
92.0598
81.3874
107.853
63.7604
100.072
36.0232
82.4878
80.5176
63.182
133.156
124.639
-60.362
149.96
91.5126
197.098
136.916
-31.3253
-15.8173
79.4116
30.4003
106.77
51.1984
87.6574
43.2914
134.712
143.067
36.5389
83.4855
87.7537
81.8985
-18.9459
193.661
93.4694
63.7405
192.736
88.5896
73.6758
58.5498
97.232
-58.9725
-75.3423
93.5748
105.146
-1.22822
107.76
157.618
180.347
110.137
92.7376
81.8461
-36.2761
24.4313
153.309
135.236
94.009
52.3527
1.61842
106.049
157.485
-27.934
116.317
66.982
106.671
109.731
98.5269
93.8958
-79.4951
85.428
-35.6127
99.4759
25.798
86.2418
96.7664
132.222
92.8639
148.706
91.2788
14.1104
97.6286
92.6219
153.554
90.3179
77.3334
25.274
153.371
95.1688
50.4544
86.1768
-7.29544
-13.361
125.593
-22.24
-0.887393
78.7489
96.0062
54.9136
86.4563
93.6551
170.156
64.7054
95.4335
-13.2151
163.836
77.3713
173.815
128.587
-70.8673
145.833
38.6261
83.605
87.5191
-58.3904
40.7339
97.7311
141.607
-49.7895
70.3082
96.9058
164.265
170.226
71.4923
96.4126
91.9933
81.8384
10.1714
143.068
46.162
95.8095
79.054
37.4309
32.2113
89.9786
82.2026
145.608
-26.3536
146.315
62.9624
103.38
91.038
-23.1882
121.901
95.6888
-48.2325
100.133
30.2518
82.9853
78.7099
104.258
67.589
22.7397
98.6074
95.9566
96.1136
-83.5662
166.833
85.5928
92.687
-1.7073
71.8702
79.9302
128.948
113.253
106.14
-79.6047
90.9871
76.4112
-62.4401
115.574
-74.4347
-81.2343
87.7046
88.6327
150.145
45.3866
26.6083
102.814
69.95
-16.9609
-10.0108
53.1928
79.4724
13.2603
39.666
94.3298
86.5522
6.68612
76.9507
195.981
105.084
89.8293
155.683
86.0419
78.6117
50.8648
100.741
148.968
32.3313
90.1632
163.818
81.8038
130.882
137.181
139.567
83.4215
101.585
108
0.34404
100.446
87.5704
96.8405
-48.836
88.1434
150.723
-47.1721
19.065
119.715
108.667
74.9124
25.0835
-13.1874
-34.0342
27.4469
-48.1421
-14.2311
75.3703
136.013
103.892
82.9077
142.934
-79.2449
100.949
164.514
94.394
-79.8695
75.6452
50.6686
96.5023
59.4643
90.8427
66.4794
53.844
133.674
136.685
-67.1678
135.028
83.4643
98.0405
95.9097
86.1115
143.056
100.405
92.6521
76.0495
126.228
-53.4546
57.1209
-48.442
108.11
136.836
81.2764
146.207
94.1326
-17.9192
79.2383
112.049
50.6386
-80.2076
109.485
107.759
91.2351
51.2801
-41.5672
130.828
83.5782
122.391
67.4548
48.4299
-25.2831
84.9673
85.6946
159.446
-36.6998
165.085
92.84
105.193
87.3847
-70.4281
95.86
89.6276
-11.132
120.964
141.129
95.1052
77.2569
57.4156
40.0425
92.6356
103.906
112.444
-26.3285
91.5662
159.48
74.5686
95.2925
95.9279
128.691
108.514
60.4123
84.8304
-21.4873
-64.7675
75.4724
50.3656
154.051
-30.6812
100.532
179.243
89.4845
1.44108
-49.2429
-26.5581
164.856
120.759
94.6806
142.266
93.0019
0.754671
56.1918
-17.2071
91.946
57.6315
117.491
92.2902
83.6852
82.1924
-55.9517
43.8945
79.2176
103.161
126.817
171.627
87.8563
91.1414
84.5099
-78.1703
85.5284
97.0745
71.7858
-6.73068
79.131
-14.3586
74.3768
-66.2806
91.3865
-16.3878
96.0634
93.9196
73.6146
27.2616
94.8117
75.9739
-36.1612
151.45
-93.7002
-46.6121
-33.7523
19.2015
32.6803
12.7415
90.2064
81.1568
92.3461
94.1036
84.5695
55.0335
82.1422
-61.2116
18.8527
94.4594
-11.1076
80.1355
81.6941
116.943
77.3582
-10.4997
91.837
-14.4878
57.946
-94.0794
-40.0844
46.2519
-64.0951
70.3893
82.1848
67.9841
-34.9993
95.688
81.9958
-67.2628
54.5789
100.811
5.93963
90.0498
66.9783
97.2415
93.4935
-37.7879
-8.0168
-59.0288
206.192
79.2539
135.867
78.948
120.051
-31.3657
89.136
44.8939
7.94393
133.35
91.4907
166.937
37.7705
96.1542
148.692
-49.8478
163.418
92.8528
140.591
-4.48386
-9.71323
53.1632
84.4142
25.6855
114.091
191.425
95.8301
137.76
86.8466
88.8912
20.5898
79.6857
81.722
105.464
-62.4791
60.6595
122.443
61.4177
136.054
97.5667
111.476
-16.6257
80.3606
-16.7646
30.367
-23.3375
126.914
90.853
115.06
80.1566
92.9469
64.6303
105.585
93.4721
17.4866
105.269
94.8409
173.038
143.315
47.2032
90.9211
55.8843
15.2923
35.7948
99.0256
81.5023
97.0162
76.8037
-23.08
100.927
89.4338
91.6747
64.9159
16.0779
124.064
126.302
137.11
92.6611
92.4018
183.429
83.761
-24.312
74.1448
-8.69605
122.543
94.2249
148.795
69.9693
94.7072
-7.25756
144.113
69.8075
160.86
84.7619
90.9075
87.8026
92.6506
34.0523
9.42343
111.803
189.611
87.8822
-2.6457
33.7696
116.545
108.794
144.714
10.078
-35.8672
167.634
46.3331
3.85631
79.4378
97.0213
81.8226
93.4458
75.6859
-61.0469
49.1788
95.6585
58.0754
9.51448
53.9277
-41.6572
96.6622
53.1279
141.309
94.905
78.7646
88.0161
98.0676
65.0008
142.824
96.8687
45.6831
112.719
24.8159
156.781
137.547
-49.2112
78.383
153.818
125.558
77.4539
102.87
90.6933
58.3404
81.8086
16.9063
-41.89
176.24
88.963
204.32
85.2188
142.708
-41.7969
72.0521
99.4838
96.5467
67.2255
121.187
97.4621
37.6808
-83.7699
137.849
127.164
67.5249
34.56
112.882
-19.797
78.0691
95.0758
131.966
95.7293
54.8779
141.329
94.5072
36.7294
95.612
-90.8574
69.7851
-55.9939
-67.9588
84.7134
-31.478
-11.8726
98.9522
19.6787
26.287
89.5093
49.1102
151.923
89.3556
-69.7667
-68.2714
113.696
3.3955
-13.9591
30.1982
-10.7808
86.1393
79.0795
49.9988
94.5394
13.5337
71.6291
96.9309
-64.9923
-83.6119
95.3477
72.0711
5.65216
4.06919
175.328
101.081
67.9669
95.633
-43.4757
135.38
58.0646
85.2445
100.953
31.5658
-41.1347
59.4666
58.634
75.2565
159.57
130.364
74.8123
164.286
65.5111
-70.5503
5.25297
27.2145
87.9427
12.606
9.01322
-70.5139
-1.0062
-6.03569
90.6357
91.9759
182.268
88.1949
94.6493
90.5971
-51.8442
-52.5743
101.507
87.596
135.971
87.5932
38.5042
33.2595
94.9137
72.9163
73.5317
87.0678
100.691
84.7804
34.0272
67.009
93.8549
63.4099
53.2004
152.931
20.9027
43.2605
105.499
139.719
-10.3125
89.2696
76.4715
138.309
-59.8208
104.715
-6.98874
140.872
146.395
126.404
75.827
35.9736
11.3227
-55.9194
31.6951
40.6487
83.6107
42.3215
83.3208
166.627
49.4022
183.047
130.889
-46.4952
186.117
37.9107
91.7452
96.7956
81.8622
-43.8212
117.678
27.2274
134.02
-25.82
127.756
142.765
76.9547
175.092
93.6175
109.064
110.557
103.112
71.2105
153.734
177.89
106.262
89.9043
84.9699
94.4792
159.333
-67.6602
-28.9469
88.5606
212.593
-79.0606
102.45
69.7192
-62.0834
-82.4346
93.8404
97.7528
64.562
144.467
93.3688
93.7719
91.7647
191.679
-23.268
131.727
151.396
-48.7717
-19.2443
82.4591
200.943
59.18
55.3804
132.842
114.565
92.8028
7.70507
-37.4176
204.97
74.1679
58.618
100.641
73.542
144.041
123.245
-60.0118
140.79
151.29
73.7337
103.328
67.837
-43.516
33.7198
87.5286
93.705
103.751
81.8827
-21.3676
26.2392
-10.7453
101.959
68.7797
82.4515
81.3798
25.627
1.93715
80.4151
178.046
19.3689
68.0246
81.7555
185.029
84.5908
59.9723
21.6637
87.4133
85.3584
39.2588
92.7708
88.1831
87.0885
158.988
42.3703
97.7707
72.3514
93.3678
-27.9177
-9.96486
92.5628
101.599
-12.5907
165.642
79.6147
106.825
94.8761
-8.53309
-45.5521
119.253
-17.9412
118.862
109.574
144.143
166.817
180.485
89.3156
81.6658
72.2644
147.128
115.376
83.5515
-38.4571
79.3904
92.5006
72.0824
105.346
-30.7166
110.836
91.3588
87.0271
50.9728
83.8427
111.845
93.3563
153.778
52.1968
62.6234
-27.5064
74.741
82.7613
154.648
13.5003
156.104
21.0598