/*--------------------------------*- C++ -*----------------------------------*\
| =========                 |                                                 |
| \\      /  F ield         | OpenFOAM: The Open Source CFD Toolbox           |
|  \\    /   O peration     | Version:  2.3.0                                 |
|   \\  /    A nd           | Web:      www.OpenFOAM.org                      |
|    \\/     M anipulation  |                                                 |
\*---------------------------------------------------------------------------*/
FoamFile
{
    version     2.0;
    format      ascii;
    class       surfaceScalarField;
    location    "3000";
    object      phi;
}
// * * * * * * * * * * * * * * * * * * * * * * * * * * * * * * * * * * * * * //

dimensions      [0 3 -1 0 0 0 0];

internalField   nonuniform List<scalar> 
13381
(
-0.0215973
-0.0237179
0.0270137
0.0183037
-0.0242331
-0.0195386
0.0221745
-0.0262535
-0.0160839
0.0181042
-0.0276533
-0.0132102
0.01461
-0.0284337
-0.0108108
0.0115912
-0.0286398
-0.00880309
0.00900925
-0.0283565
-0.00712529
0.00684197
-0.0276931
-0.00572832
0.00506495
-0.0267556
-0.00457313
0.00363559
-0.0256319
-0.00363007
0.00250646
-0.0244187
-0.00287067
0.00165746
-0.00225842
-0.0233661
0.00120575
-0.018545
-0.0211876
0.0160148
-0.0203819
-0.0177018
-0.0216586
-0.0148072
-0.0224602
-0.0124086
-0.0228462
-0.0104248
-0.0228625
-0.00878676
-0.0225486
-0.00743917
-0.0219432
-0.0063337
-0.0210872
-0.00542913
-0.0200204
-0.00469682
-0.018788
-0.00410309
-0.00362913
-0.0174173
-0.0161739
-0.0191197
0.014106
-0.0176042
-0.0162714
-0.0185102
-0.0139011
-0.0189774
-0.0119415
-0.0190862
-0.010316
-0.0189023
-0.00897056
-0.0184824
-0.00785907
-0.017877
-0.00693919
-0.0171243
-0.00618174
-0.0162623
-0.00555885
-0.0153163
-0.0050491
-0.00463334
-0.0143121
-0.0141467
-0.0173798
0.0124067
-0.0153386
-0.0150795
-0.0160709
-0.0131688
-0.0164319
-0.0115805
-0.0164872
-0.0102607
-0.0162936
-0.00916419
-0.0159011
-0.00825152
-0.0153491
-0.00749122
-0.0146709
-0.00685997
-0.0138953
-0.00633446
-0.013046
-0.00589841
-0.00553962
-0.0121397
-0.0124285
-0.0158813
0.01093
-0.0134424
-0.0140657
-0.0140588
-0.0125524
-0.0143478
-0.0112915
-0.0143739
-0.0102346
-0.0141874
-0.00935068
-0.0138291
-0.00860982
-0.013335
-0.00798539
-0.0127323
-0.00746265
-0.0120448
-0.00702195
-0.0112915
-0.0066517
-0.00634254
-0.0104886
-0.0109707
-0.0145638
0.00965313
-0.0118577
-0.0131787
-0.012395
-0.012015
-0.0126455
-0.011041
-0.0126639
-0.0102162
-0.0124943
-0.00952029
-0.0121731
-0.00893098
-0.0117283
-0.0084302
-0.0111881
-0.00800288
-0.0105702
-0.00763981
-0.00989089
-0.00733105
-0.00706845
-0.00916497
-0.00972277
-0.0133954
0.00855439
-0.0105103
-0.0123912
-0.0109866
-0.0115387
-0.0112107
-0.0108169
-0.0112262
-0.0102007
-0.0110735
-0.009673
-0.010785
-0.00921953
-0.0103876
-0.00882756
-0.00989988
-0.0084906
-0.00934266
-0.00819703
-0.00872967
-0.00794404
-0.00772626
-0.00807186
-0.00865054
-0.0123565
0.00761162
-0.00935661
-0.0116851
-0.00978236
-0.0111129
-0.00998356
-0.0106157
-0.00999836
-0.0101859
-0.00986464
-0.00980673
-0.0096059
-0.00947827
-0.00924623
-0.00918723
-0.00880764
-0.00892919
-0.00830326
-0.00870141
-0.00774724
-0.00850006
-0.00832331
-0.00715019
-0.00771873
-0.011424
0.0067863
-0.00835146
-0.0110524
-0.00873885
-0.0107255
-0.00892218
-0.0104323
-0.00893887
-0.0101692
-0.00881682
-0.00992878
-0.00858502
-0.00971006
-0.0082623
-0.00950996
-0.00786476
-0.00932673
-0.00740784
-0.00915833
-0.00690359
-0.00900432
-0.00886491
-0.00636198
-0.00690759
0.0060607
-0.0105771
-0.00747736
-0.0104826
-0.00782728
-0.0103756
-0.00799661
-0.010263
-0.00800964
-0.0101562
-0.00790221
-0.0100362
-0.00769456
-0.00991772
-0.00740421
-0.00980031
-0.00704428
-0.00968667
-0.00662897
-0.00957364
-0.00617197
-0.00946132
-0.00568032
-0.00935656
-0.0207829
-0.00206313
-0.000520076
-0.0185908
-0.00226241
7.03294e-05
-0.0165451
-0.00257478
0.000529101
-0.0145941
-0.00300626
0.0010553
-0.0127511
-0.00357335
0.00173027
-0.0110584
-0.00430315
0.00261051
-0.00958146
-0.00523103
0.00375406
-0.00839889
-0.00640036
0.00521779
-0.00759316
-0.00786524
0.00705951
-0.00724242
-0.00969303
0.00934229
-0.00741953
-0.0119694
0.0121466
-0.0148084
0.0155882
-0.00819934
-0.015975
-0.00350547
-0.0145366
-0.00370078
-0.0131404
-0.00397097
-0.0118188
-0.00432788
-0.0105972
-0.00479494
-0.00950613
-0.00539422
-0.0085791
-0.00615806
-0.00785371
-0.00712575
-0.00737723
-0.00834171
-0.00720918
-0.00986109
-0.00742674
-0.0117519
-0.0141059
-0.00812921
-0.0132882
-0.00452931
-0.0122735
-0.00471555
-0.0112833
-0.00496112
-0.0103307
-0.00528045
-0.00943423
-0.00569145
-0.00861858
-0.00620988
-0.00791348
-0.00686315
-0.00736126
-0.00767797
-0.00701154
-0.00869143
-0.00692579
-0.00994684
-0.00717732
-0.0115004
-0.0134317
-0.00785154
-0.0112274
-0.00544158
-0.0103501
-0.00559287
-0.00951668
-0.00579453
-0.00873867
-0.00605846
-0.00803069
-0.00639943
-0.0074109
-0.00682967
-0.00690331
-0.00737075
-0.00653733
-0.00804394
-0.00635053
-0.00887824
-0.00639058
-0.00990679
-0.00671967
-0.0111713
-0.0127283
-0.00742306
-0.00968235
-0.00624781
-0.00891734
-0.00635788
-0.00820039
-0.00651147
-0.00754165
-0.0067172
-0.00695461
-0.00698647
-0.00645436
-0.00732992
-0.00606214
-0.00776296
-0.00580295
-0.00830314
-0.00570941
-0.00897178
-0.00582298
-0.00979321
-0.00619417
-0.0108001
-0.0120403
-0.00688222
-0.0084379
-0.00697488
-0.00775462
-0.00704116
-0.00712033
-0.00714576
-0.00654611
-0.00729142
-0.00604386
-0.00748872
-0.00562747
-0.0077463
-0.00531568
-0.00807475
-0.00513252
-0.0084863
-0.00510584
-0.00899845
-0.00527104
-0.00962802
-0.00567114
-0.0104
-0.011341
-0.00637043
-0.00741556
-0.00763119
-0.00679936
-0.00765735
-0.00623415
-0.00771097
-0.00572663
-0.00779894
-0.00528833
-0.00792701
-0.00493356
-0.00810107
-0.00467933
-0.00832899
-0.00454563
-0.00862
-0.0045592
-0.00898488
-0.00475177
-0.00943545
-0.00516182
-0.00998992
-0.0106693
-0.00583345
-0.00655378
-0.0082276
-0.00599835
-0.00821279
-0.00548988
-0.00821944
-0.00503667
-0.00825215
-0.00465089
-0.00831279
-0.00434369
-0.00840827
-0.00413179
-0.0085409
-0.00403336
-0.00871842
-0.00407219
-0.00894605
-0.00427919
-0.00922845
-0.00468711
-0.009582
-0.0100173
-0.00533911
-0.00581992
-0.00876966
-0.00531588
-0.00871683
-0.00485718
-0.00867814
-0.00445133
-0.00865799
-0.00410813
-0.008656
-0.00384
-0.0086764
-0.00366073
-0.00872017
-0.00358702
-0.00879214
-0.00364107
-0.00889199
-0.00385124
-0.00901829
-0.00424849
-0.00918475
-0.00939522
-0.00487061
-0.00518756
-0.00926242
-0.00473106
-0.00917333
-0.0043164
-0.0090928
-0.00395128
-0.00902311
-0.00364481
-0.00896247
-0.00340865
-0.00891256
-0.00325466
-0.00887415
-0.00320139
-0.00884541
-0.00326419
-0.00882919
-0.00346968
-0.0088128
-0.00384704
-0.00880738
-0.00881028
-0.00443198
0.00366778
-0.00151175
0.00151673
-0.00367276
0.00359356
-0.00158615
0.00166036
0.00350957
-0.00139736
0.00148135
0.00342348
-0.00106963
0.00115572
0.00331531
-0.000683211
0.000791378
0.00315154
-0.000283271
0.000447044
0.00289167
0.000111906
0.000147958
0.00249031
0.000503716
-0.000102347
0.00189463
0.00090552
-0.000309835
0.00103724
0.0013444
-0.000487006
-0.000176109
0.00186209
-0.000648742
0.00252242
-0.00190355
-0.000794964
0.0032399
-0.00140094
-0.00335072
0.00306075
-0.00140699
0.00285262
-0.00118924
0.00262685
-0.000843852
0.00237492
-0.000431285
0.00207553
1.61152e-05
0.00170055
0.000486883
0.00121864
0.000985625
0.000598092
0.00152607
-0.000187482
0.00212997
-0.00113975
0.00281436
0.00357146
-0.00218879
0.00272624
-0.00121887
-0.00290831
0.00247902
-0.00115977
0.00220645
-0.000916674
0.00192248
-0.000559883
0.00162463
-0.000133437
0.00129864
0.0003421
0.000923289
0.000862235
0.000475759
0.00143315
-6.57658e-05
0.00206759
-0.000714879
0.00277909
-0.00147452
0.00357399
0.00443178
-0.00233483
0.0022324
-0.000995932
-0.00245535
0.00196327
-0.000890642
0.00168174
-0.000635142
0.00140083
-0.000278973
0.00111723
0.000150154
0.000818134
0.000641196
0.000485473
0.00119489
9.84082e-05
0.00182022
-0.000362087
0.00252808
-0.00091608
0.00333308
-0.00157703
0.00423494
0.00521769
-0.00236294
0.00180462
-0.000764343
-0.00203621
0.00154478
-0.000630805
0.00128416
-0.000374522
0.00103041
-2.52294e-05
0.000778785
0.000401777
0.000516948
0.000903032
0.000228165
0.00148368
-0.000106116
0.0021545
-0.000507597
0.00292956
-0.000995326
0.00382081
-0.0015931
0.00483271
0.0059427
-0.00231811
0.00144576
-0.000544413
-0.00166569
0.00121374
-0.000398786
0.000985851
-0.000146632
0.0007661
0.00019452
0.000548567
0.000619309
0.000322002
0.0011296
7.08577e-05
0.00173482
-0.00022285
0.0024482
-0.00057913
0.00328584
-0.00101819
0.00425986
-0.00156139
0.00537591
0.00660911
-0.0022278
0.00115978
-0.000348324
-0.00135587
0.000958448
-0.000197458
0.000763553
4.82604e-05
0.000575706
0.000382367
0.000388695
0.000806319
0.000191279
0.00132701
-2.96669e-05
0.00195576
-0.000290574
0.00270911
-0.000609725
0.00360499
-0.00100863
0.00465877
-0.00150528
0.00587256
0.00722272
-0.00211889
0.000930968
-0.000178163
-0.00110113
0.000759765
-2.62556e-05
0.000595347
0.000212677
0.0004367
0.000541013
0.000275998
0.000967021
0.000103436
0.00149957
-9.35603e-05
0.00215276
-0.000326974
0.00294252
-0.000616811
0.00389483
-0.000981058
0.00502301
-0.00143473
0.00632623
0.00778315
-0.00199516
0.000745952
-3.49716e-05
-0.000889143
0.000602444
0.000117252
0.000465213
0.000349907
0.000332958
0.000673267
0.000196772
0.00110321
4.45975e-05
0.00165175
-0.000133845
0.0023312
-0.000347454
0.00315613
-0.000611782
0.00415916
-0.00094203
0.00535326
-0.00135394
0.00673814
0.00829446
-0.00186525
0.000601915
8.09743e-05
-0.00071786
0.000478418
0.000240749
0.000360165
0.00046816
0.000250705
0.000782727
0.000134446
0.00121947
1.23899e-06
0.00178495
-0.000166841
0.00249928
-0.000366457
0.00335574
-0.000604817
0.00439752
-0.000916709
0.00566515
-0.00129308
0.00711451
-0.00176154
0.00876293
-0.0026298
0.00375566
-0.00302942
-0.00372147
0.00531281
-0.00422112
-0.00488859
0.0065546
-0.0053875
-0.00591291
0.00768214
-0.00665781
-0.00672498
0.00893114
-0.00811908
-0.00727401
0.0103574
-0.00980839
-0.00751763
0.0120124
-0.0117687
-0.00740403
0.0139576
-0.0140712
-0.00687635
0.0162517
-0.0167794
-0.00586277
0.0189687
-0.0199823
-0.00428629
0.0221962
-0.0237726
0.0260272
-0.0282634
-0.00205014
-0.00310848
0.00467534
-0.00408213
0.00628646
-0.00512357
0.00759604
-0.00602135
0.00857992
-0.00670477
0.00961456
-0.00714253
0.0107952
-0.00730356
0.0121734
-0.00714158
0.0137956
-0.00660886
0.015719
-0.00564279
0.0180027
-0.00416069
0.0207141
0.0239451
-0.00207856
-0.00326091
0.00560142
-0.00416568
0.00719123
-0.00507365
0.00850401
-0.00585658
0.00936284
-0.00644544
0.0102034
-0.0068188
0.0111685
-0.00693928
0.0122939
-0.00677057
0.0136269
-0.00626278
0.0152112
-0.00535896
0.0170988
-0.00399052
0.0193456
0.0220166
-0.00206208
-0.00324056
0.00647903
-0.00409631
0.00804699
-0.00489831
0.00930601
-0.00558355
0.0100481
-0.00609868
0.0107186
-0.00641835
0.0114882
-0.00651387
0.0123894
-0.00634742
0.0134605
-0.00587644
0.0147403
-0.0050432
0.0162656
-0.00378333
0.0180858
0.0202527
-0.00201939
-0.00313102
0.00729194
-0.00392703
0.008843
-0.00464731
0.0100263
-0.00525216
0.0106529
-0.00570804
0.0111744
-0.00598661
0.0117668
-0.0060638
0.0124666
-0.00590873
0.0133054
-0.00547435
0.0143059
-0.00471019
0.0155014
-0.00355821
0.0169338
0.0186443
-0.00194984
-0.00297842
0.00804255
-0.00370833
0.00957291
-0.00435736
0.0106753
-0.00489701
0.0111926
-0.005299
0.0115764
-0.00554586
0.0120136
-0.00561629
0.012537
-0.0054694
0.0131585
-0.00507073
0.0139072
-0.00437733
0.014808
-0.00332835
0.0158848
0.0171793
-0.00186329
-0.00280569
0.00872936
-0.00347151
0.0102387
-0.00405303
0.0112568
-0.00453129
0.0116708
-0.00489192
0.0119371
-0.0051161
0.0122378
-0.00517537
0.0125963
-0.005043
0.0130261
-0.00468403
0.0135482
-0.00405013
0.0141741
-0.00309867
0.0149333
0.0158425
-0.00176187
-0.00262493
0.00935913
-0.00323098
0.0108448
-0.00375215
0.011778
-0.0041812
0.0120999
-0.00450214
0.012258
-0.00470305
0.0124387
-0.00475407
0.0126473
-0.00463464
0.0129067
-0.00430678
0.0132204
-0.00373513
0.0136025
-0.0028701
0.0140683
0.014629
-0.00165659
-0.00243975
0.00993363
-0.00298465
0.0113897
-0.00345105
0.0122444
-0.00383496
0.0124838
-0.00413001
0.012553
-0.0043096
0.0126183
-0.00435967
0.0126974
-0.00425163
0.0127987
-0.00395498
0.0129237
-0.00343699
0.0130845
-0.00265132
0.0132826
0.0135285
-0.00155088
-0.00229418
0.0104663
-0.00278853
0.011884
-0.00317725
0.0126331
-0.00351343
0.01282
-0.0037798
0.0128194
-0.00394554
0.0127841
-0.00399015
0.012742
-0.00389236
0.0127009
-0.00362684
0.0126582
-0.00315777
0.0126154
-0.00244465
0.0125695
0.0125287
-0.00144484
0.00280068
-0.00159505
0.00542998
-0.000971834
0.00816858
-0.000232163
0.0109865
0.00081766
0.0137364
0.00231503
0.0161983
0.00438011
0.018164
0.00704357
0.0194607
0.0102945
0.0199956
0.0140751
0.019803
0.0182968
0.0190613
0.0229162
0.0280543
0.0180206
-0.000102019
-0.00149284
0.000565965
-0.00163986
0.00183852
-0.00150466
0.00367817
-0.00102199
0.00605806
-6.48517e-05
0.00889597
0.0015422
0.0119188
0.00402071
0.0147265
0.00748679
0.0169004
0.0119012
0.0181412
0.017056
0.0183958
0.0226615
0.0285683
0.0178818
-9.93551e-05
-0.00139356
-0.000136428
-0.00160276
2.45819e-05
-0.00166571
0.000562277
-0.0015597
0.00167572
-0.00117831
0.00354175
-0.000323838
0.00619283
0.00136961
0.00939272
0.00428689
0.0126352
0.00865867
0.015287
0.0144043
0.0168599
0.0210886
0.028173
0.0172552
-6.13311e-06
-0.0013874
4.69758e-05
-0.00165584
0.000176165
-0.0017949
0.000433428
-0.00181697
0.000911604
-0.00165649
0.00176662
-0.00117887
0.00325516
-0.000118925
0.00558517
0.00195688
0.00865548
0.00558835
0.011928
0.0111318
0.0146079
0.0184087
0.0266728
0.0161081
-5.03762e-06
-0.00138235
1.44435e-05
-0.00167533
7.83518e-05
-0.0018588
0.000215776
-0.00195441
0.000475801
-0.00191651
0.000949727
-0.0016528
0.00180598
-0.000975179
0.0033013
0.00046156
0.00565701
0.00323264
0.00876837
0.00802046
0.0119974
0.0151797
0.0242027
0.0144674
-4.47097e-06
-0.00137788
1.96811e-05
-0.00169949
7.71315e-05
-0.00191624
0.00018345
-0.00206074
0.000366564
-0.00209962
0.000677888
-0.00196413
0.00121707
-0.00151436
0.00215841
-0.000479778
0.0037754
0.00161565
0.00628007
0.0055158
0.0094489
0.0120108
0.0212364
0.0124152
1.77816e-06
-0.00137964
2.50675e-05
-0.00172279
7.23334e-05
-0.00196349
0.000154054
-0.00214246
0.000290304
-0.00223586
0.00051443
-0.00218826
0.000891223
-0.00189115
0.00154128
-0.00112984
0.00267073
0.000486197
0.00456304
0.0036235
0.00734914
0.00922474
0.0180039
0.0105816
4.90272e-06
-0.00138455
3.08349e-05
-0.00174873
7.61659e-05
-0.00200882
0.000148941
-0.00221525
0.000262908
-0.00234982
0.000441288
-0.00236665
0.000727366
-0.00217722
0.00120547
-0.00160794
0.00202504
-0.000333369
0.0034324
0.00221614
0.00569406
0.00696308
0.0150484
0.00864958
1.03004e-05
-0.00139483
3.78944e-05
-0.00177632
8.19002e-05
-0.00205282
0.000148388
-0.00228174
0.000248547
-0.00244997
0.000399273
-0.00251738
0.00063194
-0.00240989
0.00100691
-0.00198291
0.00163606
-0.000962512
0.00271102
0.00114117
0.00451074
0.00516338
0.0123131
0.00724604
1.43506e-05
-0.00140919
4.2927e-05
-0.0018049
8.5744e-05
-0.00209563
0.000148419
-0.00234442
0.000239395
-0.00254094
0.000372194
-0.00265018
0.000569813
-0.00260751
0.000876806
-0.0022899
0.00137707
-0.00146278
0.00221937
0.00029888
0.00364375
0.003739
0.0100499
0.00590699
1.7218e-05
-0.00142638
4.55319e-05
-0.00183321
8.6613e-05
-0.0021367
0.000144887
-0.00240269
0.000228244
-0.00262429
0.000347223
-0.00276916
0.000519456
-0.00277974
0.000778752
-0.0025492
0.0011882
-0.00187222
0.00186205
-0.000374975
0.00299346
0.0026076
0.00818877
0.00485455
1.88604e-05
-0.00144525
4.56231e-05
-0.00185998
8.38867e-05
-0.00217497
0.000137865
-0.00245667
0.000213775
-0.0027002
0.000320808
-0.0028762
0.000473507
-0.00293243
0.000698157
-0.00277385
0.00104507
-0.00221913
0.00160518
-0.000935087
0.00254092
0.00167187
0.00660547
0.00412423
1.84545e-05
-0.00146368
4.25471e-05
-0.00188406
7.69197e-05
-0.00220933
0.000124984
-0.00250473
0.000192447
-0.00276766
0.00028719
-0.00297094
0.000420982
-0.00306622
0.000615398
-0.00296826
0.00091114
-0.00251487
0.00138307
-0.00140701
0.00216379
0.000891148
0.0052953
0.00347397
1.63987e-05
-0.00148009
3.68699e-05
-0.00190453
6.62199e-05
-0.00223868
0.000107637
-0.00254615
0.000165633
-0.00282565
0.000246792
-0.0030521
0.000360723
-0.00318015
0.00052356
-0.0031311
0.000766117
-0.00275743
0.00114411
-0.001785
0.0017555
0.000279768
0.00433072
0.00272008
1.43079e-05
-0.00149438
3.14558e-05
-0.00192167
5.62985e-05
-0.00226351
9.17683e-05
-0.00258162
0.000141849
-0.00287573
0.000212504
-0.00312275
0.000311797
-0.00327944
0.000453807
-0.00327311
0.000664298
-0.00296792
0.000990296
-0.002111
0.00151688
-0.000246815
0.00340163
0.00244599
1.19068e-05
-0.00150629
2.56074e-05
-0.00193537
4.62169e-05
-0.00228412
7.58104e-05
-0.00261121
0.000118367
-0.00291828
0.000178819
-0.0031832
0.000264785
-0.0033654
0.000387766
-0.00339609
0.000569764
-0.00314991
0.000851562
-0.00239279
0.00130687
-0.000702116
0.00270454
0.00200396
9.62429e-06
-0.00151589
2.02309e-05
-0.00194597
3.66823e-05
-0.00230056
6.12121e-05
-0.00263573
9.68124e-05
-0.00295387
0.000148619
-0.00323501
0.000223308
-0.00344009
0.000332066
-0.00350485
0.000494698
-0.00331254
0.000747462
-0.00264555
0.00115579
-0.00111044
0.00195683
0.0019035
6.91319e-06
-0.00152281
1.42447e-05
-0.0019533
2.6701e-05
-0.00231302
4.56909e-05
-0.00265472
7.42751e-05
-0.00298246
0.000116461
-0.00327719
0.000178727
-0.00350235
0.000270236
-0.00359635
0.000408262
-0.00345057
0.000624623
-0.00286191
0.000974192
-0.00146
0.00145951
0.00147152
4.25659e-06
-0.00152705
8.84369e-06
-0.00195788
1.76686e-05
-0.00232183
3.19857e-05
-0.00266904
5.41557e-05
-0.00300462
8.82736e-05
-0.00331131
0.000139768
-0.00355384
0.000217815
-0.0036744
0.000338552
-0.0035713
0.000532614
-0.00305597
0.000857328
-0.00178471
0.000825877
0.00149096
1.33848e-06
-0.00152839
3.43829e-06
-0.00195998
8.80674e-06
-0.0023272
1.84735e-05
-0.0026787
3.45496e-05
-0.00302069
6.01589e-05
-0.00333691
0.000100074
-0.00359376
0.000160996
-0.00373532
0.000255659
-0.00366596
0.000408311
-0.00320862
0.000664092
-0.00204049
0.000423625
0.00106635
-6.02734e-07
-0.00152777
-1.8832e-08
-0.00196055
2.98309e-06
-0.00233019
9.5252e-06
-0.00268524
2.15011e-05
-0.00303266
4.17938e-05
-0.0033572
7.46834e-05
-0.00362664
0.000126595
-0.00378723
0.000209002
-0.00374836
0.000344167
-0.00334378
0.000574106
-0.00227043
-1.59974e-06
0.000999332
-1.94856e-06
-0.00152582
-2.9108e-06
-0.00195958
-1.98209e-06
-0.00233112
1.83873e-06
-0.00268905
1.0277e-05
-0.0030411
2.59443e-05
-0.00337287
5.25612e-05
-0.00365325
9.59322e-05
-0.00383059
0.000165755
-0.00381818
0.000281292
-0.00345932
0.000479278
-0.00246841
-0.000339083
0.000816765
-2.70724e-06
-0.00152309
-4.71173e-06
-0.00195757
-5.30339e-06
-0.00233052
-3.4858e-06
-0.00269087
2.34797e-06
-0.00304693
1.45635e-05
-0.00338508
3.67731e-05
-0.00367546
7.42666e-05
-0.00386808
0.000136353
-0.00388027
0.000240156
-0.00356312
0.000416889
-0.00264514
-0.000651782
0.000729593
-3.3432e-06
-0.00151975
-6.37262e-06
-0.00195453
-8.29663e-06
-0.00232859
-8.19164e-06
-0.00269097
-4.71853e-06
-0.0030504
4.35892e-06
-0.00339415
2.23885e-05
-0.00369349
5.45529e-05
-0.00390024
0.000109227
-0.00393494
0.000202776
-0.00365666
0.000365801
-0.00280817
-0.000931383
0.000645403
-3.91996e-06
-0.00151581
-7.78971e-06
-0.00195065
-1.07479e-05
-0.00232563
-1.22748e-05
-0.00268943
-1.09684e-05
-0.0030517
-4.89883e-06
-0.00340022
9.03947e-06
-0.00370742
3.54184e-05
-0.00392662
8.22195e-05
-0.00398174
0.000163839
-0.00373828
0.000307122
-0.00295145
-0.00118575
0.000561497
-4.3244e-06
-0.00151148
-8.82143e-06
-0.00194615
-1.28909e-05
-0.00232155
-1.56301e-05
-0.00268669
-1.61519e-05
-0.00305117
-1.25727e-05
-0.00340379
-2.25838e-06
-0.00371773
1.90262e-05
-0.0039479
5.83381e-05
-0.00402105
0.000129312
-0.00380925
0.000257634
-0.00307976
-0.00141623
0.000488113
-4.6008e-06
-0.00150687
-9.65054e-06
-0.00194109
-1.41905e-05
-0.00231701
-1.81674e-05
-0.00268271
-1.99342e-05
-0.0030494
-1.85538e-05
-0.00340517
-1.11392e-05
-0.00372514
5.93241e-06
-0.00396497
3.88561e-05
-0.00405397
0.000100059
-0.00387045
0.000213639
-0.00319334
-0.00162994
0.000427359
-4.78612e-06
-0.00150207
-1.01878e-05
-0.00193568
-1.54204e-05
-0.00231177
-1.98983e-05
-0.00267822
-2.30765e-05
-0.00304622
-2.28841e-05
-0.00340536
-1.76868e-05
-0.00373034
-4.0264e-06
-0.00397863
2.36421e-05
-0.00408163
7.59557e-05
-0.00392276
0.000174706
-0.00329209
-0.00181824
0.000363004
-4.91882e-06
-0.00149714
-1.04277e-05
-0.00193016
-1.62137e-05
-0.00230597
-2.14365e-05
-0.002673
-2.53033e-05
-0.00304234
-2.64325e-05
-0.00340423
-2.29658e-05
-0.0037338
-1.17965e-05
-0.00398979
1.2011e-05
-0.00410543
5.80064e-05
-0.00396875
0.000145604
-0.00337968
-0.00199254
0.000319914
-5.04272e-06
-0.00149209
-1.09047e-05
-0.00192429
-1.69498e-05
-0.00229992
-2.27992e-05
-0.00266714
-2.75322e-05
-0.00303761
-2.99798e-05
-0.00340177
-2.81452e-05
-0.00373563
-1.96018e-05
-0.00399833
-3.97883e-07
-0.00412463
3.67077e-05
-0.00400585
0.000105002
-0.00344797
-0.00209497
0.000207444
-5.02217e-06
-0.00148705
-1.10286e-05
-0.00191828
-1.75588e-05
-0.00229339
-2.38675e-05
-0.00266083
-2.92001e-05
-0.00303227
-3.21923e-05
-0.00339878
-3.11078e-05
-0.00373671
-2.28775e-05
-0.00400656
-3.28902e-06
-0.00414422
3.49164e-05
-0.00404405
0.000106212
-0.00351926
-0.00225576
0.000267012
-5.26452e-06
-0.00148178
-1.16894e-05
-0.00191184
-1.86628e-05
-0.00228641
-2.59019e-05
-0.00265358
-3.22849e-05
-0.00302588
-3.69166e-05
-0.00339414
-3.76192e-05
-0.003736
-3.18121e-05
-0.00401236
-1.49915e-05
-0.00416103
2.05459e-05
-0.00407958
8.8033e-05
-0.00358674
-0.00234695
0.000179227
-5.5875e-06
-0.00147618
-1.25333e-05
-0.00190489
-2.06073e-05
-0.00227833
-2.84973e-05
-0.00264569
-3.63824e-05
-0.00301799
-4.26671e-05
-0.00338785
-4.5936e-05
-0.00373273
-4.32192e-05
-0.00401507
-3.03624e-05
-0.00417389
4.55378e-07
-0.0041104
6.42834e-05
-0.00365057
-0.00249292
0.000210257
-6.06944e-06
-0.00147009
-1.36659e-05
-0.00189728
-2.22383e-05
-0.00226975
-3.16003e-05
-0.00263632
-4.09001e-05
-0.00300869
-4.93215e-05
-0.00337943
-5.5499e-05
-0.00372655
-5.73899e-05
-0.00401318
-5.18261e-05
-0.00417945
-3.31488e-05
-0.00412907
9.19497e-06
-0.0036929
-0.00256653
8.28031e-05
-6.29846e-06
-0.00146379
-1.43846e-05
-0.00188918
-2.36238e-05
-0.0022605
-3.35799e-05
-0.00262636
-4.38508e-05
-0.00299841
-5.35583e-05
-0.00336971
-6.11563e-05
-0.00371894
-6.49374e-05
-0.00400939
-6.17141e-05
-0.00418266
-4.65119e-05
-0.00414427
-8.8791e-06
-0.00373053
-0.0026506
7.51993e-05
-6.64938e-06
-0.00145712
-1.50781e-05
-0.00188075
-2.50908e-05
-0.00225048
-3.60058e-05
-0.00261543
-4.73692e-05
-0.00298704
-5.82701e-05
-0.00335881
-6.75924e-05
-0.00370962
-7.29722e-05
-0.00400401
-7.13769e-05
-0.00418426
-5.69279e-05
-0.00415871
-1.81626e-05
-0.00376929
-0.00274961
8.08509e-05
-7.0237e-06
-0.00145009
-1.61775e-05
-0.00187158
-2.67637e-05
-0.00223989
-3.86535e-05
-0.00260354
-5.12989e-05
-0.00297439
-6.40682e-05
-0.00334604
-7.5619e-05
-0.00369806
-8.44801e-05
-0.00399514
-8.76871e-05
-0.00418105
-8.05841e-05
-0.00416581
-5.52416e-05
-0.00379463
-0.00277486
-2.99842e-05
-7.3475e-06
-0.00144272
-1.68228e-05
-0.0018621
-2.8236e-05
-0.00222847
-4.09556e-05
-0.00259082
-5.46368e-05
-0.00296071
-6.85527e-05
-0.00333212
-8.18408e-05
-0.00368477
-9.24642e-05
-0.00398452
-9.78046e-05
-0.0041757
-9.28576e-05
-0.00417076
-6.6975e-05
-0.00382051
-0.0028781
3.62674e-05
-7.7463e-06
-0.00143497
-1.78625e-05
-0.00185198
-2.98289e-05
-0.0022165
-4.35495e-05
-0.00257709
-5.83334e-05
-0.00294592
-7.39597e-05
-0.00331649
-8.92647e-05
-0.00366946
-0.000103146
-0.00397063
-0.00011317
-0.00416567
-0.000115501
-0.00416842
-0.000103007
-0.003833
-0.0028929
-8.82018e-05
-8.00045e-06
-0.00142695
-1.85351e-05
-0.00184143
-3.1241e-05
-0.00220378
-4.55231e-05
-0.0025628
-6.13629e-05
-0.00293007
-7.79504e-05
-0.0032999
-9.47542e-05
-0.00365265
-0.000110146
-0.00395524
-0.00012212
-0.0041537
-0.000126595
-0.00416394
-0.000115266
-0.00384433
-0.00295156
-5.66026e-05
-8.38793e-06
-0.00141855
-1.94206e-05
-0.00183039
-3.26079e-05
-0.00219059
-4.7869e-05
-0.00254754
-6.45771e-05
-0.00291336
-8.26292e-05
-0.00328184
-0.000101077
-0.0036342
-0.00011915
-0.00393716
-0.000134907
-0.00413794
-0.000145424
-0.00415342
-0.000144398
-0.00384535
-0.00297042
-0.000125533
-8.73965e-06
-0.0014098
-2.00199e-05
-0.0018191
-3.37704e-05
-0.00217683
-4.94779e-05
-0.00253182
-6.70811e-05
-0.00289575
-8.59463e-05
-0.00326297
-0.000105545
-0.0036146
-0.000124962
-0.00391774
-0.000142764
-0.00412013
-0.00015643
-0.00413975
-0.000160776
-0.003841
-0.00298766
-0.000143532
-8.79043e-06
-0.001401
-2.04297e-05
-0.00180746
-3.47329e-05
-0.00216252
-5.10981e-05
-0.00251546
-6.92993e-05
-0.00287754
-8.88511e-05
-0.00324342
-0.000109343
-0.0035941
-0.000129609
-0.00389747
-0.000148583
-0.00410115
-0.000163869
-0.00412446
-0.000170958
-0.00383391
-0.00299534
-0.000163277
-8.94549e-06
-0.00139203
-2.10571e-05
-0.00179533
-3.56353e-05
-0.00214793
-5.25623e-05
-0.00249852
-7.14166e-05
-0.00285868
-9.18098e-05
-0.00322302
-0.00011281
-0.0035731
-0.00013374
-0.00387654
-0.000152491
-0.0040824
-0.000167114
-0.00410984
-0.000172468
-0.00382855
-0.00301118
-0.000156622
-9.27205e-06
-0.00138276
-2.17071e-05
-0.00178289
-3.71031e-05
-0.00213253
-5.48328e-05
-0.00248079
-7.46406e-05
-0.00283887
-9.59707e-05
-0.00320169
-0.000118236
-0.00355083
-0.000139921
-0.00385485
-0.000159433
-0.00406289
-0.00017328
-0.00409599
-0.000176563
-0.00382527
-0.00303373
-0.000154008
-9.73499e-06
-0.001373
-2.29295e-05
-0.00176969
-3.9037e-05
-0.00211641
-5.79399e-05
-0.00246188
-7.90284e-05
-0.00281778
-0.000102191
-0.00317852
-0.000126439
-0.00352658
-0.000150932
-0.00383035
-0.000173792
-0.00404003
-0.000192546
-0.00407724
-0.000201718
-0.00381609
-0.00303579
-0.000199656
-1.02198e-05
-0.00136278
-2.41181e-05
-0.00175579
-4.13051e-05
-0.00209922
-6.13463e-05
-0.00244184
-8.38295e-05
-0.00279529
-0.000108578
-0.00315377
-0.000135091
-0.00350006
-0.000162068
-0.00380338
-0.000188128
-0.00401397
-0.00021074
-0.00405462
-0.000225683
-0.00380115
-0.00304831
-0.000213168
-1.07343e-05
-0.00135202
-2.53829e-05
-0.00174113
-4.33642e-05
-0.00208123
-6.45794e-05
-0.00242062
-8.85211e-05
-0.00277134
-0.000115231
-0.00312706
-0.000143951
-0.00347134
-0.000174129
-0.0037732
-0.000204249
-0.00398385
-0.000232458
-0.00402641
-0.000256116
-0.00377749
-0.00301698
-0.000287445
-1.10792e-05
-0.00134094
-2.63036e-05
-0.00172591
-4.5218e-05
-0.00206232
-6.72217e-05
-0.00239862
-9.24485e-05
-0.00274611
-0.000120446
-0.00309906
-0.000150849
-0.00344094
-0.000182832
-0.00374122
-0.000214976
-0.0039517
-0.000245003
-0.00399639
-0.000268045
-0.00375445
-0.0030213
-0.000263723
-1.14444e-05
-0.00132948
-2.7278e-05
-0.00171006
-4.68249e-05
-0.00204276
-6.994e-05
-0.0023755
-9.62247e-05
-0.00271982
-0.000125507
-0.00306978
-0.00015762
-0.00340882
-0.000191566
-0.00370727
-0.000226135
-0.00391713
-0.00025835
-0.00396417
-0.000282387
-0.00373041
-0.00302014
-0.00028354
-1.17204e-05
-0.00131776
-2.83371e-05
-0.00169344
-4.85438e-05
-0.00202255
-7.24087e-05
-0.00235163
-9.9771e-05
-0.00269246
-0.000130484
-0.00303906
-0.000164097
-0.0033752
-0.000200339
-0.00367102
-0.000237945
-0.00387952
-0.000275088
-0.00392702
-0.000308061
-0.00369743
-0.00299011
-0.000338092
-1.19077e-05
-0.00130584
-2.87995e-05
-0.00167654
-5.00292e-05
-0.00200131
-7.48894e-05
-0.00232677
-0.000103275
-0.00266407
-0.000134966
-0.00300737
-0.000169898
-0.00334027
-0.000207294
-0.00363362
-0.000246307
-0.0038405
-0.000284569
-0.00388876
-0.000316354
-0.00366564
-0.00298462
-0.000321821
-1.25497e-05
-0.00129329
-3.02736e-05
-0.00165882
-5.23224e-05
-0.00197927
-7.83282e-05
-0.00230076
-0.000108035
-0.00263436
-0.000141373
-0.00297403
-0.000177965
-0.00330368
-0.000217721
-0.00359387
-0.00025977
-0.00379845
-0.000302939
-0.00384559
-0.000343389
-0.00362518
-0.00296573
-0.000362283
-1.30052e-05
-0.00128027
-3.15447e-05
-0.00164027
-5.47988e-05
-0.001956
-8.20544e-05
-0.0022735
-0.000113184
-0.00260323
-0.000148
-0.00293921
-0.000186576
-0.0032651
-0.000228584
-0.00355186
-0.000274283
-0.00375275
-0.000323659
-0.0037962
-0.000378406
-0.00357044
-0.00287524
-0.000468892
-1.34432e-05
-0.00126683
-3.29412e-05
-0.00162078
-5.72346e-05
-0.00193171
-8.59005e-05
-0.00224484
-0.000118374
-0.00257075
-0.000154667
-0.00290292
-0.000194124
-0.00322564
-0.000236322
-0.00350966
-0.000279935
-0.00370914
-0.000323441
-0.0037527
-0.000361947
-0.00353193
-0.00288026
-0.000356925
-1.46866e-05
-0.00125213
-3.54714e-05
-0.00159999
-6.16247e-05
-0.00190555
-9.21848e-05
-0.00221427
-0.000127174
-0.00253576
-0.000166118
-0.00286397
-0.000208977
-0.00318278
-0.000255028
-0.00346361
-0.000303689
-0.00366047
-0.000353353
-0.00370304
-0.000401465
-0.00348382
-0.00282498
-0.00045674
-1.56256e-05
-0.00123651
-3.80642e-05
-0.00157755
-6.61559e-05
-0.00187746
-9.91238e-05
-0.00218131
-0.000136657
-0.00249823
-0.000178677
-0.00282195
-0.000224998
-0.00313645
-0.000275334
-0.00341327
-0.000329255
-0.00360655
-0.000386266
-0.00364603
-0.000446292
-0.00342379
-0.00276437
-0.000506904
-1.68287e-05
-0.00121966
-4.09948e-05
-0.00155338
-7.10401e-05
-0.0018474
-0.000106511
-0.00214583
-0.000146791
-0.00245794
-0.00019193
-0.00277681
-0.000241571
-0.00308681
-0.000295702
-0.00335914
-0.000353766
-0.00354849
-0.000415368
-0.00358442
-0.000478879
-0.00336028
-0.0027025
-0.000540739
-1.81454e-05
-0.00120151
-4.4905e-05
-0.00152662
-7.66554e-05
-0.00181565
-0.000114678
-0.00210781
-0.000158107
-0.00241451
-0.000206394
-0.00272853
-0.000259569
-0.00303363
-0.000317008
-0.0033017
-0.000378335
-0.00348716
-0.000442471
-0.00352028
-0.000507182
-0.00329555
-0.00264725
-0.000562423
-2.00379e-05
-0.00118145
-4.78218e-05
-0.00149883
-8.38771e-05
-0.00177958
-0.000124576
-0.00206711
-0.000171556
-0.00236752
-0.000224189
-0.00267589
-0.000281649
-0.00297617
-0.000343533
-0.00323981
-0.000409032
-0.00342166
-0.000477044
-0.00345227
-0.000546654
-0.00322595
-0.00257453
-0.00061938
-2.17835e-05
-0.00115968