/*--------------------------------*- C++ -*----------------------------------*\
| =========                 |                                                 |
| \\      /  F ield         | OpenFOAM: The Open Source CFD Toolbox           |
|  \\    /   O peration     | Version:  2.3.0                                 |
|   \\  /    A nd           | Web:      www.OpenFOAM.org                      |
|    \\/     M anipulation  |                                                 |
\*---------------------------------------------------------------------------*/
FoamFile
{
    version     2.0;
    format      ascii;
    class       surfaceScalarField;
    location    "10000";
    object      phi;
}
// * * * * * * * * * * * * * * * * * * * * * * * * * * * * * * * * * * * * * //

dimensions      [0 3 -1 0 0 0 0];

internalField   nonuniform List<scalar> 
246388
(
-0.00250182
-0.00183417
0.00202217
0.00231382
-0.00266916
-0.00174909
0.00191643
-0.00282415
-0.00166228
0.00181727
-0.00296037
-0.00158455
0.00172077
-0.00308443
-0.00150498
0.00162904
-0.00319208
-0.00143155
0.00153919
-0.0032856
-0.00136043
0.00145396
-0.00336359
-0.00129236
0.00137035
-0.00342985
-0.00122497
0.00129123
-0.00348511
-0.0011591
0.00121435
-0.00352432
-0.00110048
0.00113968
-0.00355394
-0.00103887
0.0010685
-0.00357
-0.000982004
0.000998064
-0.00357421
-0.000926777
0.000930987
-0.00356668
-0.000872467
0.000864936
-0.00354963
-0.000821015
0.000803963
-0.00351976
-0.000772141
0.000742268
-0.00348215
-0.000722238
0.000684631
-0.00343084
-0.000675986
0.000624679
-0.0033726
-0.000631095
0.000572854
-0.00330596
-0.000585247
0.000518603
-0.00322892
-0.000545369
0.000468328
-0.00314499
-0.000501937
0.000418004
-0.0030544
-0.000462177
0.00037159
-0.00295809
-0.000423353
0.000327047
-0.00285485
-0.000387837
0.000284599
-0.00275012
-0.000348787
0.000244054
-0.00264148
-0.000312883
0.000204242
-0.00253133
-0.000279844
0.000169697
-0.00242183
-0.000245193
0.000135687
-0.00231547
-0.000208905
0.000102548
-0.00221052
-0.000179334
7.43807e-05
-0.00211428
-0.0001433
4.70641e-05
-0.002025
-0.000111334
2.20477e-05
-0.0019475
-7.67676e-05
-7.28508e-07
-0.00188581
-4.13275e-05
-2.03595e-05
-0.00184021
-6.78156e-06
-3.88212e-05
-0.00181631
3.12237e-05
-5.51247e-05
-0.0018163
6.88592e-05
-6.8869e-05
-0.00184797
0.000110049
-7.83765e-05
-0.00191368
0.00015088
-8.51697e-05
-0.00201406
0.000187239
-8.6867e-05
0.000223469
-0.00217889
-5.86301e-05
-0.00226072
-0.00166978
0.00209633
-0.00241387
-0.00159594
-0.00254952
-0.00152663
-0.00267589
-0.00145818
-0.00278726
-0.00139361
-0.00288539
-0.00133341
-0.00297267
-0.00127315
-0.0030501
-0.00121494
-0.00311554
-0.00115953
-0.00317074
-0.00110389
-0.00321966
-0.00105156
-0.00325561
-0.00100293
-0.00328336
-0.000954253
-0.00330548
-0.000904653
-0.00331522
-0.000862723
-0.00332097
-0.000815274
-0.00332033
-0.000772774
-0.00331125
-0.00073132
-0.0032966
-0.000690633
-0.0032767
-0.000651
-0.0032499
-0.000612043
-0.00322125
-0.000574019
-0.00318663
-0.000536562
-0.00314899
-0.000499812
-0.00310883
-0.00046352
-0.00306661
-0.000430058
-0.0030232
-0.000392192
-0.00297662
-0.000359462
-0.00292965
-0.000326812
-0.00288554
-0.000289307
-0.00283767
-0.000256778
-0.00279296
-0.00022404
-0.00275009
-0.000186169
-0.0027085
-0.000152923
-0.00266586
-0.000119406
-0.00262398
-8.32115e-05
-0.00258135
-4.94104e-05
-0.00253906
-1.10678e-05
-0.00248947
1.92736e-05
-0.00243203
5.25988e-05
-0.00236147
8.0321e-05
-0.00227971
0.000105486
0.000122364
-0.00217861
-0.00204377
-0.00152205
0.00189604
-0.00217848
-0.00146124
-0.00230011
-0.00140499
-0.002411
-0.0013473
-0.00250765
-0.00129695
-0.00259771
-0.00124335
-0.00267698
-0.00119389
-0.00274779
-0.00114413
-0.00280669
-0.00110063
-0.00285754
-0.00105304
-0.00290057
-0.00100853
-0.00293607
-0.000967436
-0.00296324
-0.000927081
-0.00298454
-0.000883348
-0.00300022
-0.000847042
-0.00300799
-0.000807506
-0.00300922
-0.000771551
-0.00300579
-0.000734751
-0.00299757
-0.000698852
-0.00298513
-0.000663441
-0.0029688
-0.000628367
-0.00294652
-0.000596297
-0.00292336
-0.000559728
-0.002895
-0.000528165
-0.0028616
-0.000496922
-0.00283079
-0.000460868
-0.00279074
-0.000432247
-0.00275391
-0.000396294
-0.00271563
-0.000365087
-0.00267359
-0.000331349
-0.00263047
-0.000299894
-0.00258873
-0.000265779
-0.00254096
-0.000233942
-0.00249438
-0.000199504
-0.00244632
-0.000167464
-0.00239399
-0.000135549
-0.00234167
-0.000101728
-0.00228387
-6.88632e-05
-0.00222468
-3.99175e-05
-0.00215878
-1.33014e-05
-0.00208864
1.01842e-05
-0.00201508
3.19227e-05
4.71745e-05
-0.00193989
-0.00184567
-0.00139009
0.00171372
-0.00196252
-0.00134439
-0.00207467
-0.00129285
-0.0021708
-0.00125117
-0.00226063
-0.00120712
-0.00234151
-0.00116247
-0.00240912
-0.00112629
-0.00247023
-0.00108301
-0.00252581
-0.00104505
-0.0025716
-0.00100725
-0.00260913
-0.000970996
-0.00264306
-0.000933505
-0.00266772
-0.000902418
-0.00268686
-0.00086421
-0.00269946
-0.000834436
-0.00270713
-0.000799841
-0.00271095
-0.000767727
-0.002709
-0.000736704
-0.00270231
-0.000705539
-0.00269197
-0.000673782
-0.00267555
-0.000644788
-0.00265827
-0.000613579
-0.00263547
-0.000582528
-0.00260987
-0.00055376
-0.00258403
-0.000522759
-0.00255102
-0.00049388
-0.0025207
-0.000462572
-0.0024835
-0.000433494
-0.00244684
-0.000401739
-0.00240609
-0.000372108
-0.00236372
-0.000342258
-0.0023197
-0.000309798
-0.00227413
-0.00027952
-0.00222692
-0.000246705
-0.00217803
-0.000216361
-0.00212961
-0.000183971
-0.00207461
-0.00015672
-0.00201764
-0.000125838
-0.00196105
-9.65076e-05
-0.00190287
-7.1476e-05
-0.00184162
-5.10729e-05
-0.00178225
-2.74477e-05
-1.34061e-05
-0.00172167
-0.00166427
-0.00127394
0.00154812
-0.00177389
-0.00123477
-0.00186776
-0.00119898
-0.00195708
-0.00116184
-0.00203561
-0.00112859
-0.00210529
-0.00109279
-0.00217022
-0.00106135
-0.00222393
-0.00102931
-0.00227167
-0.000997318
-0.00231354
-0.000965381
-0.00234747
-0.000937061
-0.00237444
-0.000906534
-0.00239955
-0.000877308
-0.00241354
-0.000850222
-0.00242721
-0.00082077
-0.00243464
-0.000792408
-0.00243744
-0.000764922
-0.00243443
-0.000739717
-0.002428
-0.000711969
-0.00241816
-0.000683629
-0.00240525
-0.00065769
-0.00238923
-0.000629597
-0.00236805
-0.00060371
-0.00234401
-0.000577806
-0.00231758
-0.000549182
-0.00228878
-0.000522687
-0.00225792
-0.000493429
-0.00222516
-0.000466251
-0.00218813
-0.000438775
-0.0021518
-0.000408434
-0.00211389
-0.000380168
-0.00207217
-0.000351519
-0.00203139
-0.000320301
-0.00198675
-0.000291339
-0.00194083
-0.00026228
-0.00189137
-0.000233438
-0.00184516
-0.000202924
-0.00179548
-0.000175521
-0.00174263
-0.000149362
-0.00168919
-0.000124915
-0.00163969
-0.000100564
-0.00158622
-8.0923e-05
-6.41387e-05
-0.00153549
-0.00150459
-0.00116877
0.00139942
-0.00159786
-0.0011415
-0.00168463
-0.00111221
-0.0017635
-0.00108298
-0.00183465
-0.00105744
-0.00189606
-0.00103138
-0.00195361
-0.0010038
-0.00200319
-0.000979725
-0.00204488
-0.00095563
-0.00208309
-0.000927175
-0.00211227
-0.000907882
-0.00213964
-0.000879163
-0.00215739
-0.000859559
-0.00217347
-0.000834136
-0.00218449
-0.000809752
-0.00218968
-0.000787222
-0.0021902
-0.000764403
-0.00218964
-0.000740273
-0.00218365
-0.000717956
-0.00217516
-0.000692126
-0.00216337
-0.000669476
-0.00214644
-0.000646531
-0.00212674
-0.000623401
-0.00210695
-0.000597606
-0.00208235
-0.000573776
-0.00205572
-0.000549318
-0.00202692
-0.00052223
-0.00199637
-0.000496798
-0.00196418
-0.000470968
-0.0019281
-0.000444513
-0.00189285
-0.00041542
-0.0018563
-0.000388067
-0.00181616
-0.000360443
-0.00177489
-0.000332608
-0.00173478
-0.000302393
-0.00169141
-0.0002768
-0.00164709
-0.000247244
-0.00160196
-0.000220651
-0.00155619
-0.000195139
-0.00151005
-0.000171053
-0.00146381
-0.000146807
-0.00141781
-0.000126921
-0.000111465
-0.00137048
-0.0013572
-0.00107766
0.00126609
-0.00144405
-0.00105464
-0.00152113
-0.00103514
-0.00159007
-0.00101404
-0.00165368
-0.000993826
-0.00171083
-0.000974234
-0.00176069
-0.000953933
-0.00180495
-0.000935466
-0.00184371
-0.000916863
-0.00187493
-0.000895956
-0.00190581
-0.00087701
-0.00192578
-0.000859189
-0.00194646
-0.000838877
-0.00195908
-0.000821524
-0.00196884
-0.000799987
-0.00197291
-0.000783152
-0.00197586
-0.000761457
-0.00197324
-0.000742892
-0.0019675
-0.000723692
-0.0019568
-0.000702829
-0.00194565
-0.000680627
-0.00193012
-0.000662063
-0.00191444
-0.000639075
-0.00189623
-0.000615815
-0.00187368
-0.000596324
-0.00184912
-0.000573881
-0.00182263
-0.000548722
-0.00179434
-0.000525081
-0.00176449
-0.000500823
-0.00173325
-0.000475751
-0.00170085
-0.000447821
-0.00166484
-0.000424078
-0.00163005
-0.000395233
-0.00159207
-0.000370585
-0.00155321
-0.000341256
-0.00151572
-0.000314287
-0.00147532
-0.000287649
-0.00143637
-0.000259604
-0.00139475
-0.000236754
-0.00135288
-0.000212928
-0.00131102
-0.00018866
-0.00126939
-0.000168557
-0.000152615
-0.00122824
-0.00122841
-0.000991265
0.00114201
-0.00130165
-0.000981404
-0.00137257
-0.000964217
-0.00143613
-0.000950482
-0.001492
-0.000937952
-0.00154225
-0.000923983
-0.00158834
-0.000907841
-0.00162688
-0.000896928
-0.00166219
-0.000881557
-0.00169155
-0.0008666
-0.00171576
-0.000852797
-0.00173627
-0.000838677
-0.00175337
-0.00082178
-0.00176572
-0.000809172
-0.00177352
-0.000792188
-0.00177868
-0.000777987
-0.00177977
-0.000760368
-0.00177752
-0.000745144
-0.00177207
-0.000729143
-0.00176376
-0.000711135
-0.00175142
-0.000692971
-0.00174117
-0.000672307
-0.00172478
-0.00065547
-0.00170633
-0.000634267
-0.00168777
-0.000614881
-0.00166744
-0.000594207
-0.00164323
-0.000572936
-0.00161726
-0.000551055
-0.0015897
-0.000528382
-0.00156091
-0.000504543
-0.00152869
-0.000480037
-0.00149771
-0.000455058
-0.00146379
-0.000429158
-0.00143308
-0.000401288
-0.00139737
-0.000376965
-0.00136327
-0.000348392
-0.00132644
-0.00032448
-0.001289
-0.000297036
-0.00125311
-0.000272648
-0.00121476
-0.000251279
-0.0011766
-0.000226825
-0.00113864
-0.000206517
-0.00018831
-0.00110294
-0.00110815
-0.000918308
0.00103519
-0.00117741
-0.000912137
-0.001239
-0.000902631
-0.00129494
-0.000894541
-0.00134698
-0.000885918
-0.00139415
-0.000876806
-0.001433
-0.000868992
-0.00147024
-0.000859688
-0.00150034
-0.000851457
-0.00152672
-0.000840216
-0.00154953
-0.000829993
-0.00156695
-0.000821251
-0.00158272
-0.000806011
-0.00159553
-0.000796361
-0.00160134
-0.000786378
-0.00160557
-0.000773761
-0.0016061
-0.000759841
-0.00160343
-0.000747811
-0.00159919
-0.000733379
-0.00159504
-0.000715294
-0.00158354
-0.000704465
-0.00157022
-0.000685623
-0.00155762
-0.00066808
-0.00154091
-0.000650969
-0.00152159
-0.000634208
-0.00150304
-0.00061275
-0.00148103
-0.000594952
-0.00145763
-0.000574452
-0.00143229
-0.000553723
-0.00140515
-0.000531679
-0.00137785
-0.000507338
-0.00134874
-0.000484167
-0.00132239
-0.000455512
-0.00128953
-0.000434141
-0.00125868
-0.000407822
-0.0012254
-0.000381673
-0.00119409
-0.000355789
-0.00116019
-0.000330935
-0.00112525
-0.00030759
-0.00109372
-0.00028281
-0.00105864
-0.000261905
-0.00102395
-0.000241205
-0.000989825
-0.000222433
-0.00203095
0.000245243
-0.000393182
-0.00193327
0.000241998
-0.000339681
-0.00185979
0.000234275
-0.000307752
-0.00179857
0.000222891
-0.000284112
-0.00174395
0.000210499
-0.000265119
-0.00169532
0.000198857
-0.000247494
-0.00164958
0.000185566
-0.000231306
-0.00160596
0.000173376
-0.000216987
-0.0015633
0.000159935
-0.000202603
-0.00152119
0.000146602
-0.000188713
-0.00148053
0.000134452
-0.000175109
-0.00143979
0.000121237
-0.000161972
-0.00139915
0.000108181
-0.000148823
-0.00135755
9.51081e-05
-0.000136707
-0.00131782
8.31047e-05
-0.000122838
-0.00127707
6.89821e-05
-0.000109727
-0.00123656
5.68366e-05
-9.73526e-05
-0.00119703
4.35166e-05
-8.30418e-05
-0.0011568
2.90363e-05
-6.92671e-05
-0.00111789
1.62622e-05
-5.5175e-05
-0.00108029
2.22322e-06
-3.98194e-05
-0.00104156
-1.30717e-05
-2.56635e-05
-0.00100535
-2.68969e-05
-9.31377e-06
-0.000969966
-4.29968e-05
7.61549e-06
-0.000935683
-5.86635e-05
2.43807e-05
-0.000902677
-7.48625e-05
4.18564e-05
-0.000871919
-9.16689e-05
6.09101e-05
-0.000842742
-0.000109963
8.07865e-05
-0.000814553
-0.000128929
0.00010074
-0.000790893
-0.000146918
0.000123257
-0.000767044
-0.000168242
0.000144393
-0.00074734
-0.000188699
0.000168995
-0.000730412
-0.000210861
0.000193933
-0.000717377
-0.000233153
0.000220117
-0.000707666
-0.000257253
0.000247542
-0.000702335
-0.000282419
0.000277089
-0.00070097
-0.000308673
0.000307308
-0.000703161
-0.000336875
0.000339067
-0.000710698
-0.000364828
0.000372364
-0.000724736
-0.000394858
0.000408896
-0.000743331
-0.000427064
0.000445659
-0.000768372
-0.000459982
0.000485023
-0.000495229
0.00052573
-0.000798873
-0.00206858
0.000135219
-0.00196784
0.000141257
-0.00187625
0.00014268
-0.00179568
0.000142321
-0.00172281
0.000137632
-0.00165642
0.000132465
-0.00159651
0.000125657
-0.00153953
0.000116398
-0.0014859
0.000106303
-0.00143626
9.69617e-05
-0.00138894
8.71279e-05
-0.00134217
7.44722e-05
-0.001298
6.40078e-05
-0.00125621
5.33241e-05
-0.00121326
4.01501e-05
-0.00117336
2.90837e-05
-0.00113429
1.77648e-05
-0.00109494
4.16689e-06
-0.00105838
-7.52208e-06
-0.00102164
-2.04834e-05
-0.000984749
-3.46636e-05
-0.000951687
-4.61334e-05
-0.000917709
-6.08746e-05
-0.000885739
-7.49666e-05
-0.000854984
-8.94189e-05
-0.000825555
-0.000104291
-0.000797629
-0.000119595
-0.000772183
-0.000135409
-0.000748505
-0.000152607
-0.000726843
-0.00016858
-0.00070815
-0.000186935
-0.000690985
-0.000205864
-0.00067806
-0.000223786
-0.000667109
-0.000244104
-0.000659179
-0.000265183
-0.000655347
-0.000286251
-0.00065508
-0.00030894
-0.000659323
-0.000332632
-0.000667741
-0.00035641
-0.000680454
-0.000382144
-0.000698635
-0.000408883
-0.000721796
-0.000436821
-0.000465921
-0.000751105
-0.00186595
6.1277e-05
-0.00179385
6.91549e-05
-0.00172482
7.36517e-05
-0.00165926
7.67624e-05
-0.00159878
7.71478e-05
-0.00154149
7.51776e-05
-0.0014857
6.98672e-05
-0.00143246
6.3162e-05
-0.00138295
5.67937e-05
-0.00133543
4.94358e-05
-0.00128831
4.00116e-05
-0.00124518
3.13448e-05
-0.00120215
2.0972e-05
-0.00116031
1.14866e-05
-0.00112067
5.05467e-07
-0.00108089
-1.06954e-05
-0.00104217
-2.09548e-05
-0.00100653
-3.14681e-05
-0.000969712
-4.43431e-05
-0.000934962
-5.52332e-05
-0.000902219
-6.74064e-05
-0.000869592
-7.87605e-05
-0.000839063
-9.14031e-05
-0.000809751
-0.000104279
-0.000781724
-0.000117447
-0.000755107
-0.000130907
-0.000729987
-0.000144715
-0.000707483
-0.000157913
-0.000686671
-0.000173419
-0.000667795
-0.000187456
-0.000651002
-0.000203728
-0.000637261
-0.000219605
-0.000625129
-0.000235917
-0.000616399
-0.000252835
-0.00061131
-0.000270272
-0.000609243
-0.000288318
-0.000610303
-0.00030788
-0.000615613
-0.000327322
-0.000623759
-0.000348265
-0.000636637
-0.000369265
-0.000653612
-0.000391908
-0.000675775
-0.000414658
-0.000439107
-0.000702589
-0.00166205
1.65881e-06
-0.00160317
1.02812e-05
-0.00154738
1.78542e-05
-0.00149322
2.26007e-05
-0.00143925
2.3185e-05
-0.0013873
2.32274e-05
-0.00133879
2.13505e-05
-0.00129203
1.64095e-05
-0.00124693
1.16915e-05
-0.00120338
5.88931e-06
-0.00116123
-2.14575e-06
-0.0011204
-9.47896e-06
-0.00108203
-1.74055e-05
-0.00104352
-2.70154e-05
-0.00100728
-3.57355e-05
-0.000972038
-4.594e-05
-0.000936654
-5.63389e-05
-0.000903441
-6.46805e-05
-0.000871197
-7.65877e-05
-0.000839993
-8.64367e-05
-0.000810921
-9.64788e-05
-0.000781871
-0.00010781
-0.000754
-0.000119273
-0.000728328
-0.000129951
-0.000703909
-0.000141866
-0.000681811
-0.000153005
-0.000661119
-0.000165407
-0.000641005
-0.000178028
-0.000623493
-0.000190931
-0.000606846
-0.000204103
-0.000593895
-0.000216679
-0.000582109
-0.000231391
-0.000573361
-0.000244665
-0.000567015
-0.000259181
-0.0005632
-0.000274086
-0.000562041
-0.000289477
-0.00056456
-0.000305362
-0.000570194
-0.000321687
-0.000578987
-0.000339472
-0.000592081
-0.000356171
-0.000608874
-0.000375115
-0.000629614
-0.000393918
-0.000413275
-0.000655446
-0.00148356
-5.02674e-05
-0.00143417
-3.91065e-05
-0.00138396
-3.23609e-05
-0.00133667
-2.46841e-05
-0.00129065
-2.28398e-05
-0.00124597
-2.14541e-05
-0.00120116
-2.34608e-05
-0.00116072
-2.40225e-05
-0.00112008
-2.8951e-05
-0.00108067
-3.35188e-05
-0.00104379
-3.90333e-05
-0.00100663
-4.66316e-05
-0.000970566
-5.34721e-05
-0.000935521
-6.20606e-05
-0.000902717
-6.85393e-05
-0.000870835
-7.78223e-05
-0.000839896
-8.72771e-05
-0.000809948
-9.46287e-05
-0.000780957
-0.000105579
-0.000754111
-0.000113283
-0.000727177
-0.000123413
-0.00070134
-0.000133647
-0.000678666
-0.000141948
-0.00065508
-0.000153537
-0.000633727
-0.000163219
-0.000613657
-0.000173075
-0.000594986
-0.000184077
-0.000577713
-0.000195301
-0.000562998
-0.000205646
-0.000550851
-0.00021625
-0.000538587
-0.000228943
-0.000530065
-0.000239913
-0.00052356
-0.000251171
-0.000518303
-0.000264438
-0.000516186
-0.000276203
-0.000516505
-0.000289158
-0.000520337
-0.00030153
-0.000525937
-0.000316087
-0.000536159
-0.00032925
-0.000548635
-0.000343695
-0.000564317
-0.000359433
-0.000584309
-0.000373926
-0.000389747
-0.000607837
-0.00132574
-9.50097e-05
-0.00128167
-8.31764e-05
-0.00123847
-7.55643e-05
-0.00119455
-6.86046e-05
-0.00115502
-6.2367e-05
-0.00111492
-6.15501e-05
-0.00107597
-6.24111e-05
-0.00103815
-6.1841e-05
-0.00100143
-6.56731e-05
-0.000967165
-6.77845e-05
-0.000932493
-7.37054e-05
-0.000900114
-7.9011e-05
-0.000867366
-8.62203e-05
-0.000838085
-9.13413e-05
-0.00080719
-9.9434e-05
-0.000778449
-0.000106564
-0.000750625
-0.000115101
-0.000723746
-0.000121508
-0.000698969
-0.000130356
-0.000672944
-0.000139308
-0.000650146
-0.000146211
-0.000628311
-0.000155482
-0.000606469
-0.00016379
-0.000586743
-0.000173264
-0.000568207
-0.000181754
-0.000550839
-0.000190443
-0.000535732
-0.000199185
-0.000521985
-0.000209048
-0.00050869
-0.000218941
-0.000496959
-0.000227981
-0.000488749
-0.000237152
-0.000481333
-0.000247329
-0.000475779
-0.000256724
-0.000473097
-0.000267121
-0.000472476
-0.000276824
-0.000474102
-0.000287532
-0.000477053
-0.000298578
-0.000484278
-0.000308862
-0.000494111
-0.000319417
-0.000506578
-0.000331227
-0.000522797
-0.000343215
-0.000541229
-0.000355494
-0.000367417
-0.00056356
-0.00118765
-0.000135596
-0.00114772
-0.000123102
-0.0011087
-0.00011459
-0.00107224
-0.000105064
-0.00103337
-0.000101236
-0.000997112
-9.78081e-05
-0.000963441
-9.60824e-05
-0.000929188
-9.60944e-05
-0.000897326
-9.75351e-05
-0.000864933
-0.000100177
-0.000833432
-0.000105207
-0.000804126
-0.000108316
-0.000775652
-0.000114695
-0.000746782
-0.000120211
-0.000720047
-0.000126169
-0.000694162
-0.000132449
-0.000670351
-0.000138912
-0.000646234
-0.000145625
-0.000623085
-0.000153506
-0.000602024
-0.000160368
-0.000580774
-0.000167461
-0.000561513
-0.000174743
-0.000543233
-0.00018207
-0.000525956
-0.00019054
-0.000509786
-0.000197925
-0.000494694
-0.000205534
-0.000480806
-0.000213073
-0.000468255
-0.000221599
-0.000457999
-0.000229197
-0.000449132
-0.000236848
-0.000441846
-0.000244438
-0.000436086
-0.000253089
-0.000432056
-0.000260754
-0.00042988
-0.000269297
-0.000430477
-0.000276227
-0.000433017
-0.000284992
-0.000437666
-0.00029393
-0.000445426
-0.000301102
-0.000453663
-0.00031118
-0.000466197
-0.000318693
-0.000481309
-0.000328103
-0.000499968
-0.000336834
-0.000346437
-0.000520947
-0.00106585
-0.000172686
-0.00102762
-0.000161333
-0.000993874
-0.000148335
-0.000959208
-0.00013973
-0.000925389
-0.000135055
-0.000893984
-0.000129213
-0.000863589
-0.000126478
-0.000832415
-0.000127268
-0.000803587
-0.000126364
-0.000774115
-0.000129648
-0.000746744
-0.000132578
-0.000720078
-0.000134982
-0.000694264
-0.000140509
-0.000669283
-0.000145192
-0.000645066
-0.000150385
-0.000621707
-0.000155808
-0.000599142
-0.000161477
-0.000577492
-0.000167275
-0.000556828
-0.00017417
-0.000538192
-0.000179004
-0.000520325
-0.000185328
-0.000502151
-0.000192917
-0.000484931
-0.00019929
-0.000470928
-0.000204543
-0.000456795
-0.000212058
-0.000443643
-0.000218686
-0.000431624
-0.000225093
-0.000420898
-0.000232325
-0.000412324
-0.000237771
-0.000405136
-0.000244036
-0.00039838
-0.000251194
-0.000394028
-0.00025744
-0.000391263
-0.00026352
-0.000391105
-0.000269454
-0.00039171
-0.000275622
-0.000394977
-0.000281725
-0.000400177
-0.00028873
-0.00040733
-0.000293948
-0.000417508
-0.000301003
-0.000428916
-0.000307285
-0.000442755
-0.000314264
-0.000459831
-0.000319759
-0.000326824
-0.000479444
-0.000955848
-0.000206663
-0.00092394
-0.000193241
-0.000891394
-0.000180881
-0.000861366
-0.000169759
-0.000831935
-0.000164486
-0.000801784
-0.000159364
-0.000773202
-0.00015506
-0.000746123
-0.000154346
-0.000718599
-0.000153888
-0.000694508
-0.000153739
-0.000669425
-0.000157661
-0.000643781
-0.000160626
-0.000620429
-0.000163862
-0.00059775
-0.000167871
-0.000575809
-0.000172326
-0.000554759
-0.000176858
-0.000535761
-0.000180475
-0.000516252
-0.000186784
-0.000498912
-0.000191509
-0.000481131
-0.000196786
-0.00046405
-0.000202408
-0.000448809
-0.000208159
-0.000434746
-0.000213352
-0.000421516
-0.000217774
-0.00040903
-0.000224544
-0.000397275
-0.000230441
-0.000387129
-0.000235239
-0.000378937
-0.000240517
-0.000370799
-0.000245908
-0.000364034
-0.000250802
-0.000360497
-0.000254731
-0.000357104
-0.000260834
-0.000355413
-0.000265211
-0.000355406
-0.000269461
-0.000356559
-0.000274469
-0.000359654
-0.000278631
-0.000365038
-0.000283346
-0.000372528
-0.000286458
-0.000381777
-0.000291754
-0.000392868
-0.000296193
-0.000407078
-0.000300055
-0.000422587
-0.00030425
-0.000308604
-0.000440807
0.000456766
-0.00015038
0.000170335
-0.00047672
0.000441258
-0.00012576
0.000141268
0.000429607
-0.000103183
0.000114834
0.000421294
-8.15656e-05
8.98788e-05
0.000416199
-6.15246e-05
6.66199e-05
0.000413612
-4.26755e-05
4.52621e-05
0.000413084
-2.52578e-05
2.57859e-05
0.000414912
-9.23937e-06
7.4117e-06
0.000418031
6.11129e-06
-9.23106e-06
0.000422458
1.98743e-05
-2.43005e-05
0.000427485
3.30898e-05
-3.81169e-05
0.000433794
4.45212e-05
-5.08304e-05
0.000440103
5.58451e-05
-6.21539e-05
0.000446459
6.58232e-05
-7.21793e-05
0.000452611
7.48227e-05
-8.09747e-05
0.000458781
8.32412e-05
-8.94116e-05
0.000464086
9.11311e-05
-9.64356e-05
0.000468887
9.78737e-05
-0.000102675
0.000472765
0.000104184
-0.000108062
0.000475395
0.000110109
-0.00011274
0.000477001
0.000115036
-0.000116642
0.00047731
0.000119654
-0.000119963
0.000476215
0.000123728
-0.000122633
0.000473672
0.000127332
-0.000124788
0.000469558
0.00013053
-0.000126417
0.000463794
0.000133314
-0.00012755
0.000456345
0.000135722
-0.000128272
0.000447263
0.000137769
-0.000128687
0.000436338
0.000139579
-0.000128654
0.000423654
0.000141028
-0.000128344
0.000409179
0.00014225
-0.000127775
0.000392855
0.000143246
-0.000126921
0.000374593
0.000144085
-0.000125823
0.000354559
0.000144663
-0.000124628
0.000332447
0.000145233
-0.000123122
0.000308105
0.000145824
-0.000121481
0.000281283
0.000146586
-0.000119764
0.000251077
0.000148093
-0.000117886
0.000215703
0.000151334
-0.000115961
0.000171121
0.00015891
-0.000114328
0.000108012
0.000177346
-0.000114237
1.92213e-06
0.000225934
-0.000119843
0.000364589
-0.000225292
-0.000137377
0.000413391
-0.000133204
-0.000430567
0.000400092
-0.000112462
0.000389935
-9.30255e-05
0.000382569
-7.41996e-05
0.000377941
-5.68968e-05
0.000375679
-4.04134e-05
0.000375466
-2.5045e-05
0.000376677
-1.045e-05
0.000379617
3.17079e-06
0.000383364
1.61281e-05
0.000388603
2.78505e-05
0.000393774
3.93503e-05
0.000399597
5.00219e-05
0.000405857
5.9563e-05
0.000411983
6.86975e-05
0.000417772
7.74513e-05
0.000423361
8.55424e-05
0.00042823
9.30047e-05
0.000432546
9.98678e-05
0.00043613
0.000106526
0.000438515
0.000112651
0.000440229
0.00011794
0.000440489
0.000123469
0.000439255
0.000128565
0.000436877
0.000132908
0.000432972
0.00013722
0.000427161
0.000141533
0.000419964
0.000144966
0.000410905
0.000148638
0.000399929
0.000152004
0.000386994
0.000155185
0.000371888
0.000158352
0.000354456
0.000161516
0.000334441
0.000164679
0.000311434
0.00016824
0.000284751
0.000172507
0.000253336
0.000178001
0.000215242
0.000186187
0.000167154
0.000199422
0.000102887
0.000223177
1.1371e-05
0.000268862
-0.000125359
0.000362665
0.000552401
-0.000313171
0.000373651
-0.000118441
-0.000388415
0.000362181
-0.000100991
0.000353006
-8.38509e-05
0.000347067
-6.82609e-05
0.000343141
-5.29708e-05
0.000340941
-3.82129e-05
0.000340796
-2.49004e-05
0.000342098
-1.17518e-05
0.000344627
6.41546e-07
0.000348108
1.26475e-05
0.000352302
2.36563e-05
0.000357299
3.43529e-05
0.000362899
4.44225e-05
0.000368551
5.39109e-05
0.000374068
6.31801e-05
0.00037926
7.22596e-05
0.000384621
8.01816e-05
0.00038966
8.79658e-05
0.00039387
9.56578e-05
0.000397456
0.00010294
0.000400252
0.000109855
0.000401768
0.000116425
0.000402235
0.000123001
0.000401853
0.000128947
0.000399805
0.000134956
0.000396644
0.000140381
0.000391897
0.000146279
0.000385212
0.000151651
0.000376979
0.00015687
0.000366571
0.000162412
0.000354178
0.000167579
0.000339312
0.000173218
0.00032164
0.000179188
0.000300729
0.000185589
0.000275913
0.000193057
0.000246242
0.000202177
0.000210037
0.000214205
0.000165111
0.000231113
0.00010766
0.000256873
3.20322e-05
0.000298805
-7.00121e-05
0.000370906
-0.000206261
0.000498914
0.000710713
-0.000364574
0.000337074
-0.000105612
-0.000349903
0.000326665
-9.05813e-05
0.000319292
-7.64782e-05
0.000313523
-6.24919e-05
0.000309706
-4.91538e-05
0.000308199
-3.67063e-05
0.000307544
-2.42454e-05
0.000308417
-1.26239e-05
0.000310622
-1.56402e-06
0.000313936
9.33415e-06
0.000317524
2.00675e-05
0.000321832
3.00451e-05
0.000326672
3.95829e-05
0.000331192
4.93907e-05
0.000336221
5.81515e-05
0.00034126
6.72204e-05
0.000346164
7.52777e-05
0.000350108
8.40216e-05
0.000353961
9.18047e-05
0.000357242
9.96587e-05
0.00035982
0.000107277
0.000361564
0.00011468
0.000362645
0.000121921
0.000362262
0.00012933
0.000360596
0.000136623
0.000357518
0.000143459
0.000352899
0.000150898
0.000346892
0.000157659
0.000338954
0.000164807
0.000328956
0.00017241
0.000316535
0.00018
0.000301727
0.000188027
0.000283798
0.000197118
0.000262381
0.000207006
0.000236416
0.000219022
0.000204885
0.000233709
0.000166228
0.000252862
0.000118114
0.000279227
5.73613e-05
0.000317626
-2.06706e-05
0.000376837
-0.000120799
0.000471034
-0.000245245
0.000623361
0.000846396
-0.000380928
0.000303265
-9.43545e-05
-0.000314523
0.000294501
-8.18174e-05
0.000287464
-6.94412e-05
0.000282579
-5.76069e-05
0.000279331
-4.59059e-05
0.000277527
-3.49017e-05
0.000277228
-2.39463e-05
0.000277976
-1.33718e-05
0.000279507
-3.09529e-06
0.00028171
7.13104e-06
0.000285029
1.67483e-05
0.000288652
2.64221e-05
0.000292714
3.5521e-05
0.000297097
4.50079e-05
0.000301287
5.39614e-05
0.00030581
6.26974e-05
0.000309526
7.15614e-05
0.000313633
7.99148e-05
0.000317005
8.84326e-05
0.000319859
9.68054e-05
0.000322071
0.000105065
0.000323498
0.000113253
0.000324015
0.000121403
0.000323792
0.000129552
0.000322355
0.00013806
0.000319177
0.000146637
0.000315142
0.000154933
0.000309057
0.000163744
0.000301447
0.000172418
0.000291673
0.000182184
0.000279888
0.000191785
0.000265011
0.000202903
0.000247512
0.000214617
0.000225825
0.000228693
0.000199799
0.000245048
0.00016793
0.000265578
0.000128961
0.000291831
8.08409e-05
0.000327347
2.05898e-05
0.000377877
-5.46017e-05
0.000452029
-0.000148057
0.000564489
-0.000258733
0.000734038
0.000964881
-0.000377219
0.000272883
-8.45018e-05
-0.000282736
0.000264919
-7.38535e-05
0.000258939
-6.34608e-05
0.000254182
-5.28504e-05
0.000251432
-4.31558e-05
0.000249564
-3.3033e-05
0.000248971
-2.33541e-05
0.000249522
-1.39222e-05
0.000250745
-4.31908e-06
0.000252795
5.08166e-06
0.000255552
1.39913e-05
0.000258834
2.31399e-05
0.000261884
3.24713e-05
0.000265805
4.10869e-05
0.000269534
5.02316e-05
0.00027324
5.89913e-05
0.000276803
6.79992e-05
0.000280088
7.66295e-05
0.000282985
8.55357e-05
0.000285381
9.44096e-05
0.000287172
0.000103273
0.00028859
0.000111835
0.000288845
0.000121149
0.000288089
0.000130308
0.000286846
0.000139303
0.000284256
0.000149227
0.000279799
0.00015939
0.000274345
0.000169198
0.00026636
0.000180403
0.000257338
0.000191206
0.000245633
0.00020349
0.000231591
0.000216945
0.000214094
0.000232114
0.000193485
0.000249301
0.00016828
0.000270253
0.000137823
0.000296035
9.99977e-05
0.000329656
5.33783e-05
0.000373966
-4.35792e-06
0.000435614
-7.48547e-05
0.000522525
-0.000160544
0.000650177
-0.000259152
0.000832646
0.00106974
-0.000364012
0.000245374
-7.58959e-05
-0.00025398
0.000238599
-6.70788e-05
0.00023262
-5.74819e-05
0.000228811
-4.90414e-05
0.000225862
-4.02063e-05
0.000224475
-3.16459e-05
0.000223885
-2.27644e-05
0.000223994
-1.40314e-05
0.000224871
-5.19552e-06
0.000226503
3.44903e-06
0.00022873
1.17652e-05
0.000231121
2.07483e-05
0.00023445
2.91423e-05
0.000237367
3.81697e-05
0.000240364
4.72352e-05
0.000243639
5.57162e-05
0.000246759
6.48787e-05
0.00024961
7.37786e-05
0.000252073
8.30735e-05
0.00025404
9.24422e-05
0.000255745
0.000101568
0.000256472
0.000111108
0.00025676
0.00012086
0.000256482
0.000130585
0.000254793
0.000140992
0.000252158
0.000151862
0.000248383
0.000163166
0.00024262
0.00017496
0.000235693
0.00018733
0.000226453
0.000200446
0.000215263
0.00021468
0.000201696
0.000230512
0.000185646
0.000248164
0.000166174
0.000268773
0.00014233
0.000294097
0.000113031
0.000325334
7.7313e-05
0.000365374
3.33655e-05
0.000417914
-2.07677e-05
0.000489747
-8.6165e-05
0.000587923
-0.000164054
0.000728066
-0.000252245
0.000920837
0.00116201
-0.000344512
0.00022071
-6.82819e-05
-0.000228324
0.000214101
-6.04701e-05
0.000209502
-5.28821e-05
0.000205637
-4.5177e-05
0.000203017
-3.75863e-05
0.000201542
-3.01702e-05
0.00020059
-2.18128e-05
0.000200921
-1.43628e-05
0.000201863
-6.13713e-06
0.000203064
2.24822e-06
0.00020486
9.96865e-06
0.000207061
1.85476e-05
0.000209529
2.66743e-05
0.000212127
3.55724e-05
0.000215119
4.42431e-05
0.000217748
5.30868e-05
0.000220524
6.21026e-05
0.000222725
7.15773e-05
0.000224863
8.09358e-05
0.000226826
9.04791e-05
0.000227875
0.00010052
0.000228579
0.000110404
0.000228916
0.000120523
0.000228113
0.000131388
0.000226682
0.000142424
0.000224088
0.000154455
0.000220351
0.000166903
0.000215082
0.00018023
0.000208239
0.000194173
0.000199904
0.000208782
0.000188827
0.000225757
0.000176488