/*--------------------------------*- C++ -*----------------------------------*\
| =========                 |                                                 |
| \\      /  F ield         | OpenFOAM: The Open Source CFD Toolbox           |
|  \\    /   O peration     | Version:  2.3.0                                 |
|   \\  /    A nd           | Web:      www.OpenFOAM.org                      |
|    \\/     M anipulation  |                                                 |
\*---------------------------------------------------------------------------*/
FoamFile
{
    version     2.0;
    format      ascii;
    class       volScalarField;
    location    "2000";
    object      p;
}
// * * * * * * * * * * * * * * * * * * * * * * * * * * * * * * * * * * * * * //

dimensions      [0 2 -2 0 0 0 0];

internalField   nonuniform List<scalar> 
37616
(
-0.000204175
0.643344
1.26531
1.89706
2.54072
3.19599
3.86278
4.54187
5.23352
5.93781
6.65528
7.38659
8.13176
8.89192
9.66691
10.4573
11.2637
12.0862
12.9245
13.7788
14.6483
15.532
16.4294
17.3391
18.2597
19.1899
20.1252
21.0662
22.0058
22.9446
23.8742
24.7875
25.6806
26.5402
27.349
28.096
28.7438
29.2594
29.568
29.6606
29.6078
28.9662
24.0152
0.593275
1.17982
1.76327
2.36186
2.97336
3.59755
4.2338
4.88264
5.54401
6.21914
6.90654
7.60844
8.32411
9.05507
9.80174
10.5644
11.3451
12.1447
12.9638
13.8044
14.6681
15.5556
16.4684
17.4074
18.3728
19.3641
20.3804
21.4185
22.474
23.5391
24.6038
25.6536
26.6684
27.6211
28.4763
29.1878
29.6951
29.9202
29.764
29.113
27.7799
25.3722
21.3519
1.06067
1.60848
2.12853
2.66632
3.21507
3.77271
4.33934
4.91436
5.49767
6.09015
6.69032
7.29922
7.91682
8.54245
9.17672
9.81951
10.4699
11.129
11.7946
12.468
13.1476
13.8326
14.5222
15.2159
15.9104
16.6047
17.2954
17.9794
18.6512
19.3047
19.9318
20.523
21.0639
21.5384
21.9262
22.2028
22.3394
22.3044
22.063
21.5801
20.823
19.7765
18.4828
1.35259
1.95935
2.43791
2.93029
3.43395
3.94481
4.46417
4.99158
5.52687
6.0709
6.62287
7.18373
7.7529
8.3306
8.9174
9.51349
10.1172
10.7312
11.3529
11.9838
12.6219
13.2672
13.9186
14.5744
15.2326
15.8909
16.5452
17.1916
17.8246
18.437
19.0201
19.5643
20.0566
20.4823
20.8242
21.0629
21.1773
21.1463
20.9494
20.5719
20.008
19.2691
18.391
1.73905
2.26681
2.70202
3.15021
3.60933
4.0751
4.54919
5.03016
5.51827
6.01468
6.51728
7.02871
7.54549
8.07015
8.60254
9.14124
9.68641
10.2393
10.7976
11.3624
11.9317
12.5056
13.0827
13.6618
14.2409
14.8176
15.3891
15.9519
16.501
17.0312
17.5357
18.0069
18.4349
18.8088
19.1159
19.3435
19.4783
19.5083
19.4237
19.2195
18.8994
18.4788
17.9869
1.93983
2.49619
2.91195
3.32924
3.75436
4.18268
4.61957
5.0634
5.51265
5.97207
6.43516
6.90987
7.38762
7.87384
8.3695
8.87097
9.37759
9.89307
10.4131
10.9399
11.4709
12.0066
12.5447
13.0854
13.6259
14.1647
14.6984
15.2236
15.7359
16.2308
16.7016
17.1428
17.5471
17.9054
18.2066
18.4409
18.5999
18.6753
18.6619
18.5588
18.3709
18.1125
17.8054
2.30454
2.74396
3.11384
3.4906
3.87878
4.26935
4.67322
5.08646
5.50087
5.93216
6.36222
6.80989
7.25089
7.69973
8.16514
8.63709
9.1079
9.59578
10.0863
10.5825
11.0814
11.5843
12.0892
12.596
13.1001
13.6054
14.1088
14.606
15.0895
15.5582
16.005
16.4252
16.8123
17.1631
17.4664
17.7163
17.9055
18.0255
18.0742
18.0534
17.9665
17.8263
17.6493
2.4809
2.92223
3.26862
3.62016
3.98332
4.33796
4.71337
5.09691
5.47652
5.88325
6.27743
6.71796
7.13348
7.53757
7.98419
8.44017
8.86624
9.3275
9.79535
10.2739
10.7563
11.2347
11.7159
12.2106
12.6934
13.1669
13.6404
14.1241
14.5953
15.045
15.4759
15.8949
16.2867
16.6499
16.945
17.1997
17.4088
17.5626
17.6589
17.6962
17.6791
17.623
17.5365
2.83083
3.09146
3.36318
3.69375
4.1265
4.44792
4.7423
5.15153
5.41558
5.84981
6.07722
6.52486
7.0155
7.34291
7.71079
8.25482
8.58626
8.97002
9.37386
9.80825
10.2737
10.7221
11.1631
11.6644
12.1805
12.6588
13.0972
13.5627
14.0508
14.5104
14.9296
15.3685
15.8184
16.2681
16.5962
16.8127
17.0331
17.2157
17.3589
17.4401
17.4682
17.472
17.4527
9.00103
4.9547
5.35178
5.92321
6.34156
6.88687
7.55839
8.30487
9.07707
9.87357
10.6795
11.4957
12.3181
13.1379
13.9566
14.7741
15.5847
16.3895
17.1839
17.9687
18.7414
19.5015
20.2472
20.9779
21.6926
22.3913
23.0733
23.7391
24.3888
25.0222
25.6398
26.242
26.8301
27.4037
27.9637
28.5107
29.0451
29.5667
30.0769
30.5751
31.0621
31.5415
31.9592
16.3281
11.9743
9.30321
7.79066
6.99596
6.72335
6.84504
7.25627
7.87569
8.63877
9.49735
10.4155
11.3646
12.3251
13.2821
14.2252
15.1469
16.0438
16.9125
17.753
18.5642
19.3475
20.1032
20.8341
21.5407
22.2255
22.8896
23.5343
24.1614
24.772
25.3673
25.9475
26.5142
27.0677
27.6079
28.1355
28.6513
29.1548
29.6467
30.1271
30.5962
31.0558
31.4497
17.1195
15.8724
14.8866
14.1897
13.7469
13.5275
13.4953
13.6181
13.8647
14.2078
14.6252
15.0973
15.6102
16.1523
16.7134
17.2879
17.8698
18.4551
19.0411
19.6252
20.2062
20.7825
21.3529
21.9173
22.4746
23.0242
23.5656
24.0995
24.6242
25.1407
25.6485
26.1474
26.6378
27.1193
27.5924
28.0571
28.5135
28.9616
29.4011
29.8327
30.2557
30.672
31.032
17.4499
16.5573
15.7941
15.2016
14.7903
14.5547
14.4787
14.5425
14.7244
15.0032
15.3604
15.779
16.2451
16.7459
17.272
17.815
18.3688
18.9282
19.4888
20.048
20.6031
21.1523
21.6945
22.2281
22.7532
23.2696
23.776
24.2741
24.7618
25.2409
25.7112
26.1722
26.6248
27.0692
27.5051
27.9331
28.3529
28.7652
29.1693
29.5653
29.9538
30.3349
30.6663
17.4675
16.9722
16.5439
16.2116
15.9901
15.8813
15.8801
15.9766
16.1589
16.4136
16.7283
17.0914
17.492
17.9216
18.3732
18.8402
19.3174
19.801
20.2876
20.775
21.2604
21.7426
22.2213
22.6947
23.1619
23.6229
24.0769
24.5245
24.9652
25.3986
25.825
26.2438
26.6559
27.0601
27.4578
27.8486
28.2325
28.6103
28.9809
29.3444
29.7027
30.0559
30.3687
17.4788
17.166
16.8961
16.6914
16.5655
16.5246
16.565
16.6827
16.8705
17.118
17.4168
17.7568
18.13
18.53
18.9503
19.3848
19.8296
20.2802
20.7336
21.1892
21.6423
22.0938
22.541
22.9828
23.4194
23.8492
24.2727
24.6905
25.1009
25.504
25.8996
26.2871
26.6688
27.0429
27.4113
27.7725
28.1277
28.4765
28.8185
29.1526
29.4821
29.8072
30.0821
17.4572
17.2741
17.1202
17.0154
16.97
16.9948
17.0813
17.2295
17.4352
17.6859
17.9792
18.308
18.6659
19.0481
19.4466
19.8548
20.2722
20.6953
21.1229
21.5549
21.9767
22.3999
22.8176
23.2308
23.6393
24.0435
24.4398
24.8337
25.2161
25.5879
25.9538
26.316
26.6745
27.0248
27.3708
27.7063
28.0387
28.3623
28.6797
28.9883
29.2949
29.5995
29.8498
17.4358
17.3419
17.2681
17.2375
17.2575
17.3355
17.4515
17.6187
17.8365
18.0847
18.3786
18.7118
19.0563
19.4171
19.8052
20.2
20.5997
21.015
21.4305
21.8434
22.2244
22.6358
23.0407
23.4311
23.8231
24.2082
24.5749
24.947
25.3066
25.6553
26.0092
26.3585
26.6995
27.0203
27.3386
27.6461
27.9586
28.2614
28.5604
28.8404
29.1183
29.3877
29.6002
17.421
17.3992
17.3912
17.4253
17.5075
17.6441
17.7402
17.9136
18.1427
18.3979
18.7799
19.1179
19.4291
19.7794
20.1964
20.5969
21.0008
21.4254
21.8021
22.1647
22.4856
23.0079
23.3534
23.773
24.1488
24.4839
24.8067
25.1803
25.4865
25.8902
26.251
26.5588
26.8382
27.0832
27.3544
27.6201
27.9127
28.1958
28.4721
28.7095
28.9411
29.1527
29.3192
-9.8665
-9.44604
-9.10994
-8.75138
-8.38593
-8.0118
-7.62779
-7.23232
-6.82358
-6.39974
-5.95942
-5.50134
-5.02445
-4.5286
-4.01443
-3.48377
-2.93878
-2.38241
-1.81845
-1.25148
-0.686362
-0.128071
0.41803
0.946372
1.45255
1.93211
2.38157
2.79688
3.17626
3.51718
3.82005
4.08424
4.31052
4.50195
4.66182
4.79474
4.90676
5.00499
5.09868
5.19516
5.29131
5.39246
5.79745
-9.07957
-8.68313
-8.37047
-8.04143
-7.7118
-7.38107
-7.04907
-6.71646
-6.3836
-6.05113
-5.71896
-5.38795
-5.05777
-4.72859
-4.40023
-4.07223
-3.74428
-3.41532
-3.08428
-2.75017
-2.41201
-2.06859
-1.7186
-1.3614
-0.996363
-0.622697
-0.240084
0.151762
0.552645
0.962767
1.38231
1.81077
2.24769
2.69316
3.14624
3.60618
4.07059
4.53564
4.99366
5.43731
5.87002
6.28358
6.55124
-8.35728
-8.00749
-7.71381
-7.4064
-7.09926
-6.7917
-6.48348
-6.17486
-5.86617
-5.55777
-5.24925
-4.94097
-4.63241
-4.32307
-4.01297
-3.70164
-3.38829
-3.07253
-2.75328
-2.43005
-2.10158
-1.76701
-1.42583
-1.07709
-0.719823
-0.353736
0.0217541
0.407202
0.803044
1.20901
1.62486
2.05052
2.48566
2.92903
3.37901
3.83336
4.28833
4.73858
5.17507
5.58836
5.99496
6.46503
6.84283
-7.71422
-7.38733
-7.1026
-6.80618
-6.50739
-6.20552
-5.90046
-5.59206
-5.28028
-4.96511
-4.6461
-4.32307
-3.99564
-3.66347
-3.32682
-2.9857
-2.63987
-2.2901
-1.93579
-1.57734
-1.21456
-0.847755
-0.476732
-0.101509
0.277772
0.661248
1.0491
1.44113
1.83743
2.2386
2.64428
3.05391
3.46689
3.88222
4.29851
4.71324
5.12348
5.52444
5.90938
6.27216
6.62497
7.04698
7.39265
-7.15261
-6.83847
-6.56508
-6.28254
-5.9964
-5.70652
-5.41254
-5.1148
-4.81354
-4.50896
-4.2003
-3.88754
-3.56973
-3.2469
-2.91853
-2.58455
-2.24537
-1.90095
-1.55064
-1.19451
-0.832211
-0.464194
-0.0906032
0.288784
0.673739
1.06394
1.45874
1.85802
2.26167
2.66954
3.08105
3.49593
3.91315
4.33064
4.74649
5.15829
5.56339
5.9579
6.33678
6.69732
7.04949
7.46045
7.80663
-6.64642
-6.35194
-6.09634
-5.83099
-5.56023
-5.28588
-5.00596
-4.72208
-4.43429
-4.14396
-3.84977
-3.55152
-3.24818
-2.93958
-2.62432
-2.3018
-1.97351
-1.63919
-1.29857
-0.951336
-0.596252
-0.233479
0.136271
0.512433
0.896083
1.28661
1.68252
2.082
2.48476
2.8908
3.30134
3.71611
4.13508
4.55353
4.96665
5.37037
5.76379
6.14524
6.51086
6.86198
7.21374
7.62161
7.99111
-6.20351
-5.92355
-5.68342
-5.43423
-5.17694
-4.91751
-4.6486
-4.37606
-4.09631
-3.81606
-3.532
-3.24382
-2.9496
-2.6505
-2.34439
-2.02741
-1.70425
-1.37505
-1.03919
-0.696149
-0.343964
0.0176608
0.386832
0.762022
1.14683
1.5414
1.94093
2.34606
2.74805
3.15379
3.55893
3.95745
4.36216
4.76879
5.1675
5.55134
5.90763
6.24462
6.58097
6.91958
7.2796
7.72552
8.20126
-5.80184
-5.53979
-5.31393
-5.08442
-4.83516
-4.59549
-4.33405
-4.07583
-3.80044
-3.53038
-3.25704
-2.97924
-2.6951
-2.40563
-2.11693
-1.80204
-1.48096
-1.15688
-0.830334
-0.500045
-0.158652
0.202431
0.570709
0.933177
1.30838
1.70314
2.10874
2.51425
2.92095
3.29979
3.72377
4.11801
4.55868
4.99165
5.40534
5.7837
6.13156
6.43981
6.71697
6.97889
7.25113
7.5991
8.09806
-5.47024
-5.21149
-4.99004
-4.78899
-4.53465
-4.32152
-4.05394
-3.81637
-3.52315
-3.25713
-2.98671
-2.72279
-2.43588
-2.14346
-1.90058
-1.58844
-1.26496
-0.924657
-0.580335
-0.243963
0.0772829
0.431443
0.847359
1.22177
1.58756
1.9973
2.39649
2.89539
3.29838
3.7101
4.11435
4.29975
4.63612
5.06622
5.49071
5.91702
6.10275
6.21418
6.50616
6.83218
7.11055
7.63089
9.05712
7.36782
8.73961
10.2903
11.6063
12.8046
13.8914
14.8845
15.7965
16.6424
17.4312
18.1729
18.8757
19.5443
20.1844
20.801
21.3956
21.9725
22.5317
23.0772
23.6091
24.1297
24.6395
25.1408
25.634
26.1207
26.6018
27.0783
27.5505
28.0188
28.4834
28.9443
29.4021
29.856
30.3058
30.7511
31.192
31.6277
32.0581
32.4832
32.902
33.3097
33.7179
34.197
7.35772
8.07413
9.05539
10.0062
11.0035
11.9881
12.9496
13.8782
14.7716
15.6287
16.4505
17.2404
17.9999
18.7312
19.4378
20.1203
20.7822
21.4238
22.048
22.6551
23.2471
23.8241
24.3882
24.9386
25.477
26.0032
26.5176
27.0208
27.5129
27.9943
28.465
28.9259
29.3769
29.8183
30.2507
30.6746
31.0897
31.4971
31.8969
32.2887
32.6667
33.0426
33.4805
7.76087
8.58881
9.51105
10.3825
11.283
12.1737
13.0554
13.9201
14.7638
15.5839
16.3789
17.149
17.8935
18.614
19.3116
19.9869
20.6408
21.275
21.8906
22.4884
23.0694
23.6344
24.1844
24.72
25.2419
25.7508
26.2472
26.7309
27.2035
27.6648
28.1152
28.5553
28.9854
29.4059
29.8171
30.2194
30.6131
30.9983
31.3759
31.7449
32.1012
32.4573
32.8508
8.20209
9.00131
9.88021
10.7369
11.6134
12.4768
13.329
14.1635
14.9776
15.7689
16.5372
17.281
18.0012
18.698
19.3721
20.0245
20.6558
21.2668
21.8591
22.433
22.9898
23.5305
24.0554
24.5662
25.0632
25.547
26.0189
26.4783
26.9271
27.3651
27.7926
28.2105
28.619
29.0185
29.4098
29.793
30.1683
30.5357
30.8963
31.2494
31.591
31.9315
32.3191
8.54918
9.29884
10.1181
10.9372
11.7784
12.6138
13.4426
14.256
15.051
15.8248
16.5768
17.3053
18.0112
18.694
19.3546
19.9935
20.6113
21.209
21.7875
22.3475
22.8898
23.4163
23.9269
24.4227
24.9043
25.3726
25.8283
26.2716
26.7033
27.1239
27.5336
27.933
28.3226
28.7036
29.0765
29.4411
29.7979
30.147
30.4894
30.8256
31.152
31.4777
31.8481
8.74262
9.49345
10.2983
11.106
11.9303
12.7496
13.5618
14.3588
15.1379
15.8978
16.6366
17.3536
18.0481
18.7203
19.3705
19.999
20.6061
21.1928
21.7596
22.3071
22.8365
23.3504
23.8481
24.3306
24.7977
25.2517
25.692
26.1199
26.5356
26.9396
27.3317
27.7131
28.0844
28.4476
28.8032
29.15
29.4881
29.8186
30.1428
30.4608
30.7693
31.073
31.4099
9.00477
9.77128
10.5697
11.3576
12.1581
12.9563
13.7472
14.525
15.2872
16.0303
16.7539
17.4563
18.1376
18.7968
19.4338
20.0491
20.6425
21.2147
21.7669
22.2997
22.8148
23.3164
23.8013
24.2692
24.7213
25.161
25.5866
25.999
26.3991
26.7868
27.1624
27.5253
27.8797
28.2274
28.5688
28.8993
29.2191
29.5329
29.8407
30.1422
30.4343
30.7183
31.0335
8.984
9.72537
10.5718
11.4017
12.2356
13.0453
13.8451
14.6168
15.3607
16.0959
16.813
17.5109
18.1848
18.838
19.4696
20.0784
20.6665
21.2315
21.7771
22.2993
22.8031
23.3001
23.7763
24.231
24.6703
25.1
25.5125
25.9118
26.3003
26.6738
27.0329
27.3753
27.7147
28.0504
28.3807
28.6931
28.9923
29.2891
29.579
29.8636
30.1386
30.4014
30.6996
9.97525
10.5774
11.3827
12.0085
12.7118
13.4516
14.1781
14.8789
15.6252
16.3404
17.0464
17.7086
18.3712
19.008
19.6191
20.2127
20.7772
21.3117
21.8314
22.3164
22.8001
23.307
23.759
24.1869
24.6082
25.0337
25.4258
25.8141
26.1921
26.5401
26.8753
27.191
27.5292
27.8572
28.1857
28.4716
28.7455
29.0406
29.3273
29.6141
29.8942
30.1486
30.4587
123.32
107.673
94.7361
84.7165
76.2719
68.7975
62.1965
56.4095
51.3276
46.8634
42.9271
39.4458
36.3583
33.6047
31.1334
28.9077
26.8838
25.0368
23.3336
21.7568
20.2838
18.9015
17.5956
16.3557
15.1731
14.0404
12.952
11.9037
10.8915
9.91187
8.96311
8.04197
7.1478
6.2786
5.43347
4.61063
3.80941
3.02938
2.26919
1.52793
0.805748
0.105506
-0.564013
53.7514
50.1427
49.7127
48.5987
46.8404
44.7671
42.5943
40.3932
38.2002
36.0465
33.9568
31.9428
30.0166
28.1808
26.4354
24.7825
23.2148
21.7301
20.3221
18.9861
17.7144
16.504
15.3471
14.2397
13.1775
12.155
11.1701
10.218
9.29729
8.40383
7.53732
6.69428
5.87439
5.07533
4.29645
3.53704
2.79547
2.07199
1.36559
0.67518
0.00176893
-0.651181
-1.24389
30.076
30.3499
31.6863
32.1132
32.1785
32.0041
31.6159
31.0247
30.2602
29.355
28.3389
27.2369
26.074
24.8691
23.6401
22.4021
21.1665
19.9416
18.7368
17.5562
16.403
15.2814
14.1913
13.1331
12.1079
11.1138
10.1508
9.21687
8.31163
7.43276
6.57955
5.75048
4.94485
4.16071
3.39753
2.6546
1.93047
1.22496
0.537452
-0.132938
-0.786584
-1.42093
-1.966
28.9739
29.588
29.5768
29.1676
28.7447
28.2648
27.7018
27.0545
26.3319
25.5425
24.6941
23.7952
22.8545
21.8799
20.8809
19.8646
18.8378
17.8062
16.7768
15.753
14.7392
13.7385
12.7541
11.7868
10.8388
9.91125
9.00437
8.11823
7.25378
6.41006
5.58685
4.78409
4.00133
3.23787
2.49313
1.76711
1.05874
0.367948
-0.305864
-0.963073
-1.60559
-2.23473
-2.79414
24.0698
24.5205
24.2165
23.8838
23.5416
23.1438
22.6896
22.1862
21.6385
21.0476
20.4158
19.7456
19.0396
18.3014
17.5352
16.7448
15.9342
15.107
14.2684
13.421
12.5695
11.7165
10.8656
10.0193
9.17948
8.3488
7.52873
6.71967
5.92427
5.14197
4.37416
3.621
2.88257
2.15955
1.45145
0.758844
0.0812141
-0.58156
-1.22932
-1.86252
-2.48292
-3.09257
-3.64675
17.4851
17.8265
17.7388
17.7235
17.6578
17.5304
17.346
17.1091
16.8213
16.484
16.0988
15.668
15.1943
14.6802
14.1293
13.545
12.9306
12.2897
11.626
10.9428
10.2441
9.53317
8.81291
8.08713
7.35777
6.62815
5.89999
5.17501
4.4557
3.7427
3.03822
2.34265
1.65698
0.982111
0.318311
-0.333492
-0.973397
-1.60112
-2.21599
-2.81829
-3.40904
-3.99126
-4.52614
12.7024
12.9386
12.9588
13.0262
13.0402
13.01
12.9369
12.8211
12.6627
12.4614
12.2183
11.9349
11.6117
11.2505
10.8529
10.4217
9.95876
9.46674
8.94751
8.40442
7.84003
7.25755
6.65892
6.04756
5.42611
4.79676
4.16186
3.52367
2.88457
2.24567
1.6094
0.976733
0.349154
-0.272237
-0.886369
-1.49245
-2.08983
-2.67778
-3.25548
-3.82308
-4.38044
-4.9322
-5.44426
8.90217
9.05957
9.10657
9.16837
9.18917
9.18107
9.1432
9.07534
8.97658
8.84601
8.68435
8.49121
8.26606
8.00932
7.7215
7.40356
7.05661
6.68165
6.28019
5.85386
5.40427
4.93397
4.44455
3.93816
3.41732
2.88375
2.33978
1.78741
1.22899
0.665993
0.100463
-0.466067
-1.03205
-1.59587
-2.1564
-2.71246
-3.26318
-3.80753
-4.34439
-4.87315
-5.39357
-5.90957
-6.39148
5.24509
5.38272
5.45993
5.53584
5.58218
5.60686
5.60793
5.58613
5.5402
5.46937
5.37351
5.25179
5.10351
4.92889
4.72777
4.5001
4.24596
3.96615
3.66158
3.33286
2.98098
2.60739
2.21339
1.8006
1.37086
0.925704
0.466808
-0.00371027
-0.484365
-0.973247
-1.46821
-1.9682
-2.47152
-2.97604
-3.48093
-3.98465
-4.48603
-4.98416
-5.47772
-5.96562
-6.44784
-6.92903
-7.39088
1.7815
1.92904
2.03382
2.13216
2.20836
2.26644
2.30547
2.32537
2.32548
2.30436
2.26233
2.19842
2.11217
2.0033
1.8715
1.71647
1.5378
1.33593
1.11129
0.86401
0.594668
0.304068
-0.00697622
-0.337393
-0.685869
-1.05102
-1.4318
-1.82634
-2.23345
-2.65151
-3.07837
-3.51328
-3.95441
-4.39988
-4.84848
-5.29907
-5.75004
-6.20013
-6.64838
-7.09344
-7.53478
-7.97642
-8.40975
-1.35778
-1.20692
-1.09258
-0.983102
-0.890054
-0.811213
-0.74744
-0.699094
-0.667083
-0.651829
-0.654147
-0.674221
-0.712697
-0.77059
-0.847801
-0.945228
-1.06322
-1.20158
-1.36033
-1.53979
-1.73978
-1.95976
-2.19925
-2.45765
-2.73409
-3.02781
-3.33784
-3.66275
-4.0016
-4.35302
-4.71538
-5.08781
-5.46868
-5.85634
-6.24945
-6.64687
-7.04708
-7.44863
-7.85055
-8.25126
-8.64985
-9.04901
-9.44053
-4.28716
-4.12449
-4.00128
-3.88195
-3.77595
-3.68167
-3.59963
-3.53012
-3.47337
-3.43055
-3.4019
-3.38789
-3.38935
-3.40669
-3.44048
-3.49148
-3.5599
-3.64615
-3.75047
-3.87325
-4.01445
-4.17419
-4.35204
-4.54773
-4.76092
-4.99104
-5.23736
-5.49913
-5.7755
-6.06514
-6.36705
-6.68037
-7.00368
-7.33558
-7.67472
-8.02002
-8.37
-8.7233
-9.07864
-9.43411
-9.78796
-10.1415
-10.4781
-7.02932
-6.85679
-6.72958
-6.60467
-6.49002
-6.38378
-6.28712
-6.2005
-6.12447
-6.05921
-6.00561
-5.96387
-5.93498
-5.91933
-5.91771
-5.93035
-5.95798
-6.00085
-6.05962
-6.13455
-6.22599
-6.33412
-6.45876
-6.59992
-6.75753
-6.93128
-7.12064
-7.32543
-7.54482
-7.77775
-8.02355
-8.2815
-8.55039
-8.82906
-9.11652
-9.41156
-9.71271
-10.019
-10.3292
-10.6416
-10.955
-11.2737
-11.5911
-9.6247
-9.44339
-9.31272
-9.18153
-9.05814
-8.94142
-8.83277
-8.73185
-8.63938
-8.55599
-8.48164
-8.4172
-8.36333
-8.32057
-8.28909
-8.26986
-8.26352
-8.27002
-8.29022
-8.32454
-8.37335
-8.43705
-8.51578
-8.60947
-8.71818
-8.84198
-8.98079
-9.13424
-9.3018
-9.48295
-9.67705
-9.88352
-10.1014
-10.3298
-10.5681
-10.815
-11.0691
-11.33
-11.5964
-11.8669
-12.1412
-12.4243
-12.7144
-12.1036
-11.911
-11.7759
-11.6371
-11.5044
-11.3778
-11.2576
-11.144
-11.0371
-10.9375
-10.846
-10.7621
-10.687
-10.6211
-10.5647
-10.5184
-10.483
-10.4586
-10.446
-10.4457
-10.4579
-10.4831
-10.5217
-10.5739
-10.6396
-10.7192
-10.8128
-10.92
-11.0409
-11.1747
-11.3213
-11.4803
-11.6505
-11.8319
-12.0236
-12.2244
-12.4336
-12.6504
-12.874
-13.1031
-13.3376
-13.5817
-13.8364
-14.42
-14.2341
-14.1034
-13.9619
-13.8253
-13.6928
-13.5648
-13.4421
-13.3243
-13.2122
-13.1063
-13.0067
-12.914
-12.8287
-12.7514
-12.6824
-12.6222
-12.5717
-12.531
-12.5005
-12.4812
-12.473
-12.4766
-12.4923
-12.5201
-12.5605
-12.6136
-12.6793
-12.7578
-12.8486
-12.9517
-13.0668
-13.193
-13.3302
-13.4779
-13.6352
-13.8014
-13.9757
-14.1576
-14.3461
-14.5408
-14.7455
-14.9642
-16.6682
-16.4812
-16.3451
-16.1972
-16.0537
-15.9137
-15.7778
-15.6459
-15.518
-15.3947
-15.2763
-15.163
-15.0552
-14.9531
-14.8576
-14.769
-14.6876
-14.6143
-14.5493
-14.4928
-14.4456
-14.4084
-14.3814
-14.3647
-14.359
-14.3646
-14.3814
-14.4099
-14.45
-14.5015
-14.5648
-14.6394
-14.7247
-14.8208
-14.9273
-15.0434
-15.1686
-15.3023
-15.4437
-15.5922
-15.7474
-15.9116
-16.0926
-18.7898
-18.6103
-18.478
-18.3299
-18.1843
-18.0405
-17.8991
-17.7603
-17.6245
-17.4922
-17.3632
-17.2381
-17.1172
-17.0009
-16.8899
-16.7843
-16.6845
-16.5913
-16.5049
-16.4257
-16.3544
-16.2915
-16.2372
-16.192
-16.1565
-16.1309
-16.1154
-16.1101
-16.1154
-16.1313
-16.1581
-16.1954
-16.2429
-16.3008
-16.3685
-16.4457
-16.5321
-16.6269
-16.7295
-16.8391
-16.9553
-17.0803
-17.228
-20.8478
-20.6716
-20.5371
-20.3863
-20.2371
-20.0886
-19.9419
-19.7968
-19.6539
-19.5135
-19.3752
-19.2398
-19.1076
-18.9789
-18.8544
-18.7339
-18.618
-18.5073
-18.402
-18.3028
-18.2102
-18.1244
-18.0459
-17.9753
-17.9131
-17.8595
-17.8147
-17.779
-17.7529
-17.7363
-17.7295
-17.7326
-17.7453
-17.7676
-17.7991
-17.8398
-17.8894
-17.9472
-18.0125
-18.0842
-18.1615
-18.246
-18.3557
-22.8596
-22.6797
-22.5397
-22.3831
-22.2281
-22.0737
-21.9201
-21.7678
-21.6174
-21.4685
-21.3215
-21.1764
-21.0336
-20.8936
-20.7567
-20.6228
-20.4925
-20.3662
-20.2443
-20.1274
-20.0156
-19.9095
-19.8096
-19.7163
-19.6299
-19.5509
-19.4798
-19.4166
-19.3619
-19.3156
-19.2781
-19.2496
-19.23
-19.2193
-19.2173
-19.2239
-19.2389
-19.2618
-19.292
-19.3282
-19.3697
-19.42
-19.5082
-24.764
-24.5895
-24.4519
-24.2959
-24.1402
-23.9832
-23.8263
-23.6695
-23.5135
-23.358
-23.2038
-23.0505
-22.8988
-22.7488
-22.6007
-22.455
-22.312
-22.1718
-22.035
-21.9021
-21.7733
-21.6491
-21.5298
-21.416
-21.308
-21.2061
-21.111
-21.0229
-20.942
-20.8686
-20.803
-20.7454
-20.696
-20.6546
-20.6213
-20.5962
-20.5789
-20.5692
-20.5665
-20.5701
-20.5795
-20.5997
-20.6657
-26.6233
-26.4499
-26.3092
-26.1501
-25.9918
-25.8318
-25.6712
-25.5102
-25.3492
-25.188
-25.0273
-24.8668
-24.7071
-24.5482
-24.3904
-24.2344
-24.08
-23.9275
-23.7772
-23.6299
-23.4858
-23.3452
-23.2084
-23.0762
-22.9486
-22.8261
-22.7092
-22.5982
-22.4935
-22.3952
-22.3038
-22.2194
-22.1423
-22.0724
-22.0099
-21.9551
-21.9076
-21.8672
-21.8337
-21.8063
-21.785
-21.7743
-21.8099
-28.4505
-28.271
-28.1239
-27.9601
-27.7974
-27.6324
-27.4668
-27.3004
-27.1336
-26.9666
-26.7992
-26.6319
-26.4645
-26.2975
-26.1307
-25.9649
-25.8001
-25.6362
-25.4739
-25.3135
-25.1555
-25.0001
-24.8476
-24.6986
-24.5531
-24.4119
-24.2751
-24.1431
-24.0165
-23.8953
-23.7802
-23.6711
-23.5684
-23.4721
-23.3825
-23.2997
-23.2238
-23.1545
-23.0917
-23.0348
-22.9838
-22.9429
-22.9474
-30.1818
-30.0058
-29.8627
-29.7008
-29.5382
-29.3722
-29.2043
-29.0349
-28.8643
-28.6925
-28.5199
-28.3467
-28.1727
-27.9983
-27.8237
-27.649
-27.4746
-27.3007
-27.1276
-26.9555
-26.7848
-26.6159
-26.4489
-26.2846
-26.1228
-25.9643
-25.8092
-25.6582
-25.5114
-25.3693
-25.2322
-25.1001
-24.9737
-24.8529
-24.7379
-24.6291
-24.5264
-24.4298
-24.3394
-24.2546
-24.1751
-24.1056
-24.083
-31.8772
-31.7038
-31.5608
-31.3973
-31.233
-31.0647
-30.8939
-30.7216
-30.5472
-30.3711
-30.1938
-30.0149
-29.8351
-29.6543
-29.4723
-29.2897
-29.1067
-28.9236
-28.7406
-28.5577
-28.3754
-28.1941
-28.0141
-27.8356
-27.6589
-27.4846
-27.3129
-27.1443
-26.979
-26.8175
-26.6599
-26.5066
-26.358
-26.2143
-26.0756
-25.9424
-25.8146
-25.6923
-25.5757
-25.4642
-25.3578
-25.2607
-25.22
-33.5429
-33.3676
-33.2223
-33.0566
-32.8893
-32.7176
-32.5434
-32.367
-32.1883
-32.0078
-31.8255
-31.6413
-31.4555
-31.2684
-31.0798
-30.8898
-30.6989
-30.5073
-30.315
-30.1223
-29.9294
-29.7368
-29.5447
-29.3532
-29.1629
-28.9741
-28.787
-28.602
-28.4195
-28.24
-28.0636
-27.8907
-27.7215
-27.5564
-27.3956
-27.2394
-27.0879
-26.9413
-26.7995
-26.6621
-26.5287
-26.4031
-26.3448
-35.1679
-34.9889
-34.8426
-34.6749
-34.5045
-34.3296
-34.1518
-33.9714
-33.7887
-33.6039
-33.417
-33.2277
-33.0364
-32.8433
-32.6483
-32.4517
-32.2534
-32.0538
-31.8529
-31.6509
-31.4484
-31.2455
-31.0422
-30.8388
-30.6359
-30.4336
-30.2324
-30.0324
-29.834
-29.6377
-29.4437
-29.2524
-29.0641
-28.879
-28.6974
-28.5196
-28.3459
-28.1763
-28.0108
-27.8486
-27.6892
-27.5398
-27.4771
-36.7154
-36.5455
-36.4037
-36.2378
-36.0682
-35.8929
-35.7137
-35.5315
-35.3462
-35.158
-34.9674
-34.7741
-34.5782
-34.3799
-34.1794
-33.9767
-33.7717
-33.5648
-33.3562
-33.1459
-32.9342
-32.7217
-32.5079
-32.2936
-32.079
-31.8641
-31.6498
-31.4359
-31.2227
-31.0109
-30.8005
-30.5922
-30.3858
-30.182
-29.9809
-29.783
-29.5884
-29.3975
-29.2104
-29.027
-28.8462
-28.6755
-28.6494
-38.2344
-38.0681
-37.9274
-37.7627
-37.5932
-37.4172
-37.237
-37.0531
-36.8657
-36.6748
-36.4808
-36.2837
-36.0837
-35.8808
-35.6749
-35.4665
-35.2554
-35.0418
-34.826
-34.6082
-34.3882
-34.1666
-33.9434
-33.7189
-33.4933
-33.2669
-33.0403
-32.8133
-32.5865
-32.3601
-32.1345
-31.9101
-31.6871
-31.4656
-31.2463
-31.0294
-30.815
-30.6032
-30.3942
-30.1876
-29.9817
-29.7758
-29.6361
-39.7479
-39.5784
-39.4351
-39.2674
-39.0948
-38.9156
-38.7324
-38.5451
-38.3542
-38.1599
-37.962
-37.761
-37.5566
-37.3489
-37.138
-36.9241
-36.7071
-36.4873
-36.2647
-36.0395
-35.8117
-35.5818
-35.3496
-35.1156
-34.8798
-34.6428
-34.4047
-34.1655
-33.9258
-33.6861
-33.4463
-33.2069
-32.9679
-32.7301
-32.4936
-32.2587
-32.0257
-31.7945
-31.5656
-31.3386
-31.1126
-30.8883
-30.7246
-41.2316
-41.0591
-40.9129
-40.7425
-40.5662
-40.3838
-40.1971
-40.0062
-39.8116
-39.6136
-39.4118
-39.2067
-38.998
-38.7858
-38.5698
-38.3507
-38.1282
-37.9024
-37.6734
-37.4413
-37.2063
-36.9686
-36.728
-36.485
-36.2399
-35.9927
-35.7438
-35.4934
-35.2417
-34.9891
-34.736
-34.4825
-34.2288
-33.9756
-33.7229
-33.4712
-33.2206
-32.9715
-32.7244
-32.4788
-32.2351
-31.9957
-31.8206
-42.6413
-42.4747
-42.3333
-42.1646
-41.9892
-41.8074
-41.6204
-41.4284
-41.2323
-41.0319
-40.8276
-40.6192
-40.4069
-40.1907
-39.9708
-39.747
-39.5193
-39.2879
-39.0529
-38.8145
-38.5728
-38.3277
-38.0794
-37.8281
-37.5741
-37.3174
-37.0584
-36.7974
-36.5346
-36.27
-36.0043
-35.7374
-35.47
-35.2021
-34.934
-34.6665
-34.3994
-34.1334
-33.8687
-33.6054
-33.3443
-33.0901
-32.9017
-44.038
-43.8717
-43.7296
-43.5599
-43.3839
-43.2014
-43.0132
-42.8199
-42.6219
-42.4195
-42.2125
-42.0014
-41.7858
-41.5662
-41.3422
-41.114
-40.8816
-40.6452
-40.4048
-40.1605
-39.9122
-39.6603
-39.4046
-39.1457
-38.8833
-38.6178
-38.3494
-38.0784
-37.805
-37.5292
-37.2516
-36.9723
-36.6918
-36.41
-36.1276
-35.8448
-35.562
-35.2796
-34.998
-34.7178
-34.4397
-34.167
-33.973
-45.4119
-45.247
-45.1044
-44.9335
-44.7558
-44.5715
-44.3814
-44.1857
-43.9853
-43.7802
-43.5706
-43.3563
-43.1376
-42.9142
-42.6863
-42.454
-42.2171
-41.9759
-41.7303
-41.4803
-41.226
-40.9676
-40.7051
-40.4387
-40.1685
-39.8947
-39.6176
-39.3371
-39.0537
-38.7674
-38.4786
-38.1875
-37.8943
-37.5994
-37.3034
-37.006
-36.708
-36.4094
-36.1107
-35.8118
-35.5124
-35.2152
-34.9867
-46.7731
-46.6051
-46.4593
-46.2857
-46.1053
-45.9183
-45.7254
-45.5269
-45.3236
-45.1155
-44.9028
-44.6854
-44.4632
-44.2362
-44.0044
-43.768
-43.5268
-43.2808
-43.0302
-42.7748
-42.5149
-42.2503
-41.9815
-41.7082
-41.4306
-41.149
-40.8633
-40.5739
-40.2811
-39.9848
-39.6855
-39.3832
-39.0783
-38.7709
-38.4616
-38.1506
-37.838
-37.5242
-37.2095
-36.8932
-36.5746
-36.2584
-36.059
-48.0683
-47.9041
-47.7629
-47.5926
-47.4141
-47.2278
-47.0348
-46.8358
-46.6311
-46.4214
-46.2066
-45.9868
-45.7618
-45.5316
-45.2966
-45.0565
-44.8113
-44.5609
-44.3055
-44.0451
-43.7799
-43.5096
-43.2346
-42.9547
-42.6702
-42.3811
-42.0876
-41.7897
-41.4879
-41.1822
-40.8728
-40.56
-40.2439
-39.9248
-39.603
-39.279
-38.9526
-38.6242
-38.2942
-37.9615
-37.6251
-37.2888
-37.0624
-49.3752
-49.2052
-49.0606
-48.8875
-48.7067
-48.5181
-48.3229
-48.1216
-47.915
-47.703
-47.4857
-47.2633
-47.0355
-46.8024
-46.5641
-46.3205
-46.0714
-45.8171
-45.5572
-45.2921
-45.0218
-44.746
-44.4651
-44.179
-43.8879
-43.5916
-43.2907
-42.9849
-42.6746
-42.3601
-42.0411
-41.7184
-41.3916
-41.0613
-40.7279
-40.3914
-40.0522
-39.71
-39.3655
-39.0173
-38.6648
-38.3074
-38.0318
-50.6275
-50.4646
-50.3229
-50.1511
-49.9707
-49.7816
-49.5853
-49.3828
-49.1745
-48.9605
-48.741
-48.5161
-48.2855
-48.0496
-47.8081
-47.561
-47.3084
-47.0501
-46.7861
-46.5164
-46.2412
-45.9603
-45.6739
-45.3819
-45.0845
-44.7816
-44.4735
-44.1602
-43.8418
-43.5189
-43.1909
-42.8586
-42.5218
-42.181
-41.8365
-41.4884
-41.1369
-40.7822
-40.4246
-40.0634
-39.6984
-39.334
-39.0788
-51.8598
-51.6991
-51.5585
-51.3883
-51.2085
-51.0194
-50.8227
-50.6191
-50.4094
-50.1938
-49.9723
-49.7452
-49.5122
-49.2735
-49.0291
-48.779
-48.5228
-48.2609
-47.9928
-47.7189
-47.4391
-47.1533
-46.8615
-46.5639
-46.2605
-45.9515
-45.6365
-45.3161
-44.9902
-44.6591
-44.3226
-43.9812
-43.6349
-43.2842
-42.9291
-42.57
-42.2071
-41.8408
-41.4717
-41.1001
-40.7256
-40.3544
-40.1514
-53.0955
-52.9289
-52.7855
-52.6131
-52.4311
-52.2398
-52.041
-51.8354
-51.6237
-51.4059
-51.1823
-50.9526
-50.7172
-50.4759
-50.2285
-49.9752
-49.7157
-49.4502
-49.1783
-48.9002
-48.6161
-48.3256
-48.0289
-47.7258
-47.4167
-47.1015
-46.7802
-46.453
-46.1199
-45.781
-45.4363
-45.0864
-44.7311
-44.371
-44.0058
-43.6359
-43.2619
-42.8837
-42.5018
-42.1155
-41.7243
-41.3252
-41.0076
-54.2967
-54.1307
-53.9875
-53.8147
-53.6315
-53.4386
-53.238
-53.0306
-52.8167
-52.5969
-52.371
-52.139
-51.9011
-51.6571
-51.4067
-51.1504
-50.8876
-50.6186
-50.3431
-50.0612
-49.7728
-49.4778
-49.1764
-48.8683
-48.5538
-48.2327
-47.9053
-47.5716
-47.2316
-46.8853
-46.5328
-46.1747
-45.8108
-45.4413
-45.0665
-44.6866
-44.3018
-43.9124
-43.5185
-43.1197
-42.7162
-42.3065
-41.9764
-55.4518
-55.2923
-55.1526
-54.9821
-54.7998
-54.6074
-54.407
-54.1994
-53.9848
-53.7639
-53.5366
-53.303
-53.063
-52.8166
-52.5638
-52.3048
-52.039
-51.7667
-51.4877
-51.2022
-50.9097
-50.6105
-50.3045
-49.9915
-49.672
-49.3454
-49.0119
-48.6722
-48.3254
-47.9722
-47.6124
-47.2463
-46.8741
-46.4959
-46.1121
-45.7224
-45.3274
-44.9274
-44.5227
-44.1129
-43.6988
-43.2818
-42.944
-56.6042
-56.4441
-56.3038
-56.1332
-55.9508
-55.758
-55.5571
-55.3486
-55.133
-54.9107
-54.6818
-54.4465
-54.2046
-53.9561
-53.701
-53.4392
-53.1707
-52.8952
-52.613
-52.3239
-52.0275
-51.7243
-51.4139
-51.0962
-50.7718
-50.44
-50.101
-49.7552
-49.402
-49.0421
-48.6753
-48.3017
-47.9217
-47.5351
-47.1424
-46.7434
-46.3386
-45.9284
-45.513
-45.0921
-44.6662
-44.2366
-43.8782
-57.7436
-57.5827
-57.4421
-57.2709
-57.0871
-56.8929
-56.6909
-56.4809
-56.2637
-56.0396
-55.8089
-55.5716
-55.3274
-55.0766
-54.8191
-54.5546
-54.2833
-54.005
-53.7195
-53.4268
-53.1269
-52.8197
-52.5051
-52.183
-51.8537
-51.5169
-51.1725
-50.821
-50.4618
-50.0956
-49.722
-49.3411
-48.9535
-48.559
-48.1577
-47.7498
-47.3355
-46.9153
-46.4894
-46.0576
-45.6197
-45.1767
-44.7956
-58.8769
-58.713
-58.5695
-58.3959
-58.2098
-58.0132
-57.8088
-57.5966
-57.3774
-57.1511
-56.9181
-56.6786
-56.4321
-56.1788