/*--------------------------------*- C++ -*----------------------------------*\
| =========                 |                                                 |
| \\      /  F ield         | OpenFOAM: The Open Source CFD Toolbox           |
|  \\    /   O peration     | Version:  2.3.0                                 |
|   \\  /    A nd           | Web:      www.OpenFOAM.org                      |
|    \\/     M anipulation  |                                                 |
\*---------------------------------------------------------------------------*/
FoamFile
{
    version     2.0;
    format      ascii;
    class       volScalarField;
    location    "4000";
    object      p;
}
// * * * * * * * * * * * * * * * * * * * * * * * * * * * * * * * * * * * * * //

dimensions      [0 2 -2 0 0 0 0];

internalField   nonuniform List<scalar> 
6710
(
-0.066762
0.190928
1.20728
2.95314
5.66885
9.6442
15.2288
23.2872
34.4673
46.3596
55.2574
72.3593
19.0486
22.479
27.1683
33.4508
41.5123
51.4684
63.3246
77.0132
92.2594
108.574
125.615
142.98
33.9537
39.5028
45.5353
52.3762
59.9306
68.1507
76.9455
86.1964
95.7214
105.334
114.881
124.206
45.0769
51.0954
57.4069
64.3547
71.8311
79.7485
87.989
96.4191
104.882
113.215
121.259
128.869
53.4272
59.1148
65.0403
71.2509
77.7281
84.419
91.2624
98.1858
105.103
111.921
118.546
124.896
60.3414
65.1497
70.5405
76.1367
81.9445
87.9128
93.9911
100.124
106.248
112.293
118.181
123.849
65.2135
69.4363
74.3053
79.3151
84.4999
89.8215
95.2455
100.735
106.239
111.699
117.053
122.241
68.6036
72.5313
76.9755
81.5147
86.2304
91.0798
96.0294
101.05
106.093
111.125
116.098
120.943
71.7865
75.2249
79.1508
83.2512
87.5684
92.0038
96.5768
101.263
105.976
110.719
115.398
119.98
75.1557
77.6299
81.3559
84.9932
88.916
92.8821
97.084
101.559
106.145
110.82
115.243
119.561
124.379
152.762
171.683
186.766
199.193
208.705
215.143
218.523
219.022
217.037
213.534
209.686
158.594
171.198
181.567
189.931
196.32
200.797
203.515
204.697
204.565
203.33
201.518
199.564
133.313
142.369
151.194
159.514
167.106
173.779
179.372
183.761
186.86
188.667
189.512
189.678
136.054
142.952
149.551
155.728
161.365
166.375
170.69
174.268
177.067
179.076
180.493
181.421
131.002
136.956
142.728
148.221
153.342
158.016
162.18
165.786
168.791
171.172
173.05
174.475
129.296
134.57
139.648
144.463
148.955
153.07
156.776
160.041
162.845
165.172
167.129
168.768
127.249
132.089
136.734
141.13
145.233
148.997
152.409
155.441
158.095
160.344
162.282
163.946
125.635
130.156
134.472
138.545
142.352
145.839
149.029
151.852
154.371
156.507
158.388
160.059
124.456
128.769
132.867
136.747
140.382
143.604
146.61
149.17
151.548
153.463
155.24
156.775
123.808
127.88
131.747
135.484
138.997
141.895
144.565
146.735
148.951
150.637
152.342
153.718
-24.6103
-26.0775
-27.3507
-28.3164
-28.8575
-28.8881
-28.4019
-27.4282
-25.9712
-24.0149
-21.0991
-14.7629
-22.3735
-23.7905
-24.9464
-25.7064
-25.9693
-25.6394
-24.5743
-22.6083
-19.5701
-15.2745
-9.70894
-3.26417
-19.5859
-20.7558
-21.6488
-22.0763
-21.9266
-21.129
-19.5869
-17.1999
-13.888
-9.64656
-4.62086
0.747293
-16.4463
-17.2658
-17.8268
-17.9388
-17.5063
-16.4797
-14.8003
-12.4205
-9.33144
-5.58532
-1.344
3.10308
-13.217
-13.7741
-14.0913
-13.9887
-13.3981
-12.2816
-10.5983
-8.32539
-5.46789
-2.08085
1.71199
5.68803
-9.91959
-10.4507
-10.6092
-10.365
-9.69161
-8.5638
-6.93972
-4.79768
-2.13544
0.997549
4.503
8.19922
-6.74732
-7.35821
-7.43985
-7.12305
-6.40786
-5.31493
-3.76918
-1.75591
0.742055
3.66225
6.9348
10.4102
-3.85661
-4.54299
-4.60151
-4.26306
-3.49611
-2.44354
-0.958311
0.960627
3.40762
6.20208
9.35473
12.7325
-1.01226
-1.91239
-2.12524
-1.87394
-0.987432
-0.054641
1.28352
2.98861
5.39152
7.96678
10.8658
14.0027
2.93681
1.37882
0.600474
1.11923
2.84777
3.8449
5.16882
6.90315
9.39279
11.7716
14.9538
18.6948
-1.55363
4.88096
9.20924
13.482
17.7703
21.9658
26.0889
30.1987
34.3555
38.5913
42.8529
47.2915
3.59508
7.9431
10.717
13.677
16.9961
20.6196
24.4605
28.438
32.508
36.6536
40.7959
44.9358
5.96631
10.8378
14.1685
16.9516
19.8123
22.8233
25.9877
29.2947
32.7398
36.3308
40.0084
43.6203
7.52482
11.9665
15.4625
18.2703
21.1012
23.9863
26.9358
29.9561
33.0534
36.2438
39.5858
42.9878
9.64903
13.5568
16.8914
19.5748
22.2696
24.9999
27.7737
30.5926
33.4558
36.3544
39.3575
42.6199
11.8924
15.4869
18.6696
21.2536
23.7992
26.354
28.9258
31.5208
34.1435
36.7796
39.4732
42.4122
13.9051
17.3092
20.3819
22.8992
25.326
27.7401
30.144
32.5451
34.9511
37.3523
39.7772
42.3731
16.1216
19.3702
22.2174
24.5077
26.7488
29.0183
31.2807
33.5223
35.7487
37.9539
40.1696
42.508
17.2736
20.63
23.5641
25.797
27.945
30.1405
32.3091
34.4213
36.4989
38.5344
40.5835
42.7364
22.1556
25.265
26.8032
27.3931
29.065
31.1886
33.3265
35.2993
37.2308
39.1182
41.0768
43.146
-183.592
-168.971
-152.248
-138.335
-123.609
-107.241
-90.6288
-74.5717
-59.4774
-45.9866
-34.7443
-25.9697
-104.248
-104.201
-103.11
-101.652
-100.386
-98.4467
-94.7025
-88.724
-80.4642
-70.1744
-58.6102
-47.4377
-110.472
-110.326
-110.293
-109.861
-108.461
-105.964
-102.499
-97.7777
-91.3201
-83.0419
-73.0406
-62.6995
-102.495
-102.457
-102.332
-102.108
-101.722
-101.011
-99.6842
-97.5661
-94.2982
-89.21
-81.7831
-73.6122
-101.62
-101.599
-101.566
-101.468
-101.245
-100.797
-99.9468
-98.4851
-96.1819
-92.6418
-87.0935
-80.7435
-99.4167
-99.3971
-99.3517
-99.2628
-99.1036
-98.8328
-98.3668
-97.5492
-96.1637
-93.8613
-89.888
-84.3611
-98.3462
-98.3285
-98.2933
-98.223
-98.0986
-97.8886
-97.5394
-96.958
-95.9957
-94.4407
-91.8276
-88.6814
-97.4007
-97.3831
-97.3475
-97.2817
-97.1733
-96.9993
-96.7262
-96.2968
-95.6085
-94.5288
-92.7337
-90.246
-96.8237
-96.8075
-96.7758
-96.7183
-96.6258
-96.4799
-96.2574
-95.9221
-95.4013
-94.5889
-93.3185
-92.9068
-96.4123
-96.3987
-96.3707
-96.3209
-96.2428
-96.1219
-95.9403
-95.6723
-95.2653
-94.6472
-93.6997
-93.2183
-96.1354
-96.1244
-96.1008
-96.0593
-95.995
-95.8966
-95.7492
-95.5331
-95.2089
-94.7154
-93.9609
-93.661
-95.9068
-95.8988
-95.8803
-95.8481
-95.799
-95.724
-95.6113
-95.4455
-95.1966
-94.8102
-94.2221
-94.0953
-95.6608
-95.6552
-95.6411
-95.6169
-95.5805
-95.5253
-95.4418
-95.3183
-95.1341
-94.8512
-94.393
-93.9106
-95.3528
-95.3486
-95.3373
-95.3178
-95.2884
-95.2433
-95.1734
-95.067
-94.9044
-94.6492
-94.2071
-93.2846
-94.9806
-94.9774
-94.9687
-94.9536
-94.9312
-94.8967
-94.8427
-94.7594
-94.6305
-94.4235
-94.0702
-93.58
-94.5272
-94.5249
-94.5181
-94.5064
-94.4888
-94.4613
-94.417
-94.3458
-94.2327
-94.057
-93.7562
-92.7977
-93.9977
-93.9961
-93.9911
-93.9827
-93.9701
-93.9505
-93.9183
-93.8654
-93.7782
-93.6287
-93.3617
-93.0245
-93.3859
-93.3849
-93.3813
-93.3752
-93.366
-93.3512
-93.3256
-93.2808
-93.2035
-93.072
-92.8287
-92.0753
-92.6993
-92.6987
-92.6965
-92.6927
-92.687
-92.6778
-92.6616
-92.6326
-92.5802
-92.4781
-92.2904
-92.2512
-91.9415
-91.9408
-91.9386
-91.9347
-91.9285
-91.918
-91.8994
-91.8652
-91.8026
-91.6854
-91.4616
-90.9453
-91.1375
-91.1369
-91.1352
-91.132
-91.127
-91.1184
-91.1032
-91.0756
-91.026
-90.9366
-90.7874
-90.6049
-90.292
-90.2912
-90.2894
-90.2858
-90.2798
-90.2695
-90.2515
-90.2197
-90.1637
-90.0653
-89.8981
-89.5665
-89.4287
-89.4278
-89.4258
-89.4219
-89.4154
-89.4044
-89.3857
-89.3533
-89.2983
-89.2023
-89.0295
-88.7109
-88.5529
-88.5518
-88.5498
-88.5458
-88.5392
-88.528
-88.5092
-88.4769
-88.4226
-88.3318
-88.1841
-87.891
-87.6717
-87.6709
-87.6691
-87.6653
-87.659
-87.6482
-87.63
-87.5991
-87.5475
-87.4615
-87.3213
-87.0767
-86.7896
-86.7888
-86.7872
-86.7838
-86.7779
-86.7677
-86.7504
-86.7211
-86.6722
-86.5906
-86.4504
-86.1808
-85.9088
-85.9078
-85.9063
-85.9033
-85.8983
-85.8895
-85.8744
-85.8485
-85.805
-85.7315
-85.6013
-85.3611
-85.0222
-85.0216
-85.0207
-85.0189
-85.0155
-85.0094
-84.9981
-84.9779
-84.9426
-84.8816
-84.772
-84.5749
-84.1249
-84.1248
-84.1246
-84.1239
-84.1224
-84.1189
-84.1116
-84.0971
-84.071
-84.0257
-83.9459
-83.8101
-83.2172
-83.217
-83.2172
-83.2171
-83.2165
-83.2142
-83.2084
-83.1953
-83.1694
-83.1224
-83.032
-82.7499
-82.2993
-82.2989
-82.2994
-82.3002
-82.3011
-82.3014
-82.2998
-82.2935
-82.2775
-82.2427
-82.1822
-82.1996
-81.3626
-81.3625
-81.3635
-81.365
-81.3671
-81.3693
-81.3704
-81.368
-81.3576
-81.335
-81.2892
-81.079
-80.4066
-80.4067
-80.4082
-80.4105
-80.4138
-80.4177
-80.4216
-80.4239
-80.4222
-80.411
-80.3772
-80.3811
-79.4362
-79.4363
-79.4378
-79.44
-79.4428
-79.4456
-79.4475
-79.4465
-79.4389
-79.4169
-79.3486
-79.1156
-78.4588
-78.4588
-78.4601
-78.4624
-78.4655
-78.4689
-78.472
-78.473
-78.4686
-78.4514
-78.4109
-78.3836
-77.4707
-77.4707
-77.472
-77.4742
-77.4771
-77.4803
-77.4832
-77.4842
-77.4804
-77.4679
-77.4462
-77.4567
-76.4778
-76.4781
-76.4796
-76.4817
-76.4842
-76.4864
-76.4873
-76.4848
-76.4754
-76.4551
-76.4054
-76.157
-75.4903
-75.4903
-75.4913
-75.4932
-75.4954
-75.4974
-75.4983
-75.4967
-75.4898
-75.4707
-75.4317
-75.5021
-74.5038
-74.5039
-74.505
-74.5066
-74.5084
-74.5095
-74.5088
-74.5041
-74.4915
-74.4654
-74.4094
-74.2108
-73.5247
-73.5249
-73.5261
-73.528
-73.5303
-73.5324
-73.5334
-73.5319
-73.525
-73.5078
-73.4799
-73.5286
-72.546
-72.5466
-72.5481
-72.5504
-72.5531
-72.5552
-72.556
-72.5536
-72.5454
-72.527
-72.4941
-72.4408
-71.5765
-71.5767
-71.5779
-71.58
-71.5825
-71.5846
-71.5855
-71.5833
-71.5756
-71.559
-71.5297
-71.4878
-70.6053
-70.6059
-70.6075
-70.6101
-70.6132
-70.6161
-70.6177
-70.616
-70.6083
-70.5914
-70.5604
-70.5001
-69.6381
-69.6387
-69.6405
-69.6435
-69.6473
-69.6511
-69.6538
-69.6535
-69.6476
-69.6329
-69.605
-69.5707
-68.6698
-68.6705
-68.6727
-68.6766
-68.6816
-68.6872
-68.6921
-68.6942
-68.6906
-68.6763
-68.6366
-68.5001
-67.6952
-67.6963
-67.6993
-67.7046
-67.7121
-67.7215
-67.7323
-67.7434
-67.7528
-67.7565
-67.7541
-67.8142
-66.6999
-66.7014
-66.7053
-66.7121
-66.7217
-66.7342
-66.7493
-66.7665
-66.7848
-66.8031
-66.8284
-66.9173
-65.684
-65.6859
-65.6903
-65.698
-65.7089
-65.7228
-65.7396
-65.7583
-65.7777
-65.7969
-65.8115
-65.7292
-64.6445
-64.6465
-64.6516
-64.6606
-64.6734
-64.69
-64.7104
-64.7339
-64.7593
-64.7837
-64.8085
-64.8907
-63.5758
-63.5787
-63.5851
-63.596
-63.6111
-63.6306
-63.6546
-63.6824
-63.7134
-63.7465
-63.7806
-63.8177
-62.483
-62.4854
-62.492
-62.5039
-62.521
-62.5435
-62.5715
-62.6044
-62.6411
-62.6799
-62.7126
-62.672
-61.3467
-61.35
-61.3581
-61.3727
-61.3938
-61.4219
-61.4577
-61.501
-61.551
-61.6059
-61.6688
-61.7736
-60.1601
-60.1649
-60.1758
-60.1941
-60.22
-60.2546
-60.2987
-60.3529
-60.417
-60.4895
-60.5756
-60.7423
-58.9308
-58.9353
-58.9466
-58.9669
-58.9965
-59.037
-59.0897
-59.1555
-59.2344
-59.3257
-59.4208
-59.4039
-57.6218
-57.628
-57.6424
-57.6676
-57.7041
-57.7541
-57.8201
-57.9048
-58.0109
-58.1387
-58.2938
-58.6032
-56.2374
-56.2447
-56.2615
-56.2904
-56.3316
-56.3879
-56.462
-56.5565
-56.6738
-56.816
-56.9919
-57.195
-54.7771
-54.7849
-54.8032
-54.8354
-54.8817
-54.9451
-55.0284
-55.1339
-55.2632
-55.4171
-55.597
-55.7431
-53.2264
-53.2364
-53.2586
-53.2966
-53.351
-53.4251
-53.5225
-53.6465
-53.7997
-53.9831
-54.1931
-54.4067
-51.5886
-51.5995
-51.6248
-51.6685
-51.7315
-51.8178
-51.9321
-52.0786
-52.26
-52.4769
-52.7238
-52.9346
-49.8386
-49.8518
-49.8816
-49.9329
-50.007
-50.1093
-50.2458
-50.4225
-50.6443
-50.915
-51.2466
-51.6551
-47.9617
-47.9781
-48.0141
-48.0748
-48.1618
-48.2816
-48.4414
-48.6485
-48.9092
-49.2293
-49.6185
-50.0056
-45.9626
-45.9811
-46.022
-46.0914
-46.1912
-46.3292
-46.514
-46.7544
-47.0584
-47.4336
-47.8824
-48.3532
-43.8165
-43.8388
-43.8869
-43.9677
-44.0836
-44.2433
-44.4562
-44.7317
-45.0779
-45.4996
-45.9869
-46.3538
-41.5282
-41.5553
-41.6127
-41.7079
-41.844
-42.0315
-42.2817
-42.6062
-43.0143
-43.5102
-44.091
-44.778
-39.0892
-39.1211
-39.1882
-39.2996
-39.4591
-39.679
-39.9724
-40.352
-40.8278
-41.4052
-42.0699
-42.6217
-36.487
-36.526
-36.607
-36.7395
-36.9293
-37.1904
-37.5386
-37.9892
-38.5537
-39.233
-40.0106
-40.9091
-33.7264
-33.7731
-33.8699
-34.0276
-34.2527
-34.5626
-34.9753
-35.5078
-36.1716
-36.969
-37.8712
-38.6681
-30.8108
-30.8685
-30.9863
-31.1756
-31.4456
-31.8166
-32.3094
-32.9427
-33.7274
-34.6605
-35.703
-36.7179
-27.7744
-27.8458
-27.9902
-28.2187
-28.5441
-28.9896
-29.5787
-30.3298
-31.25
-32.327
-33.4907
-34.468
-24.6464
-24.7382
-24.9192
-25.201
-25.6004
-26.1448
-26.8592
-27.7608
-28.8494
-30.0978
-31.3996
-32.465
-21.4816
-21.6025
-21.8392
-22.1984
-22.7036
-23.3849
-24.2665
-25.3568
-26.6386
-28.0591
-29.4827
-30.5594
-18.6668
-18.8111
-19.1084
-19.5589
-20.1911
-21.0359
-22.1089
-23.3998
-24.8636
-26.4118
-27.8696
-28.9271
-16.3875
-16.5613
-16.9524
-17.5485
-18.3623
-19.4134
-20.7
-22.1835
-23.7775
-25.3474
-26.6891
-27.5078
-13.8147
-14.151
-14.7882
-15.7425
-16.9966
-18.5316
-20.2654
-22.0529
-23.7259
-25.1241
-26.088
-26.439
-14.4662
-17.4015
-19.6755
-21.2625
-22.4318
-23.4072
-24.2628
-25.0236
-25.6485
-26.0418
-26.0774
-25.6195
369.228
364.142
355.344
342.755
326.967
309.014
290.228
272.019
255.483
241.115
229.121
219.766
278.181
278.966
277.927
276.096
273.62
270.228
265.526
259.259
251.428
242.338
232.766
223.645
263.795
264.281
263.755
262.794
261.176
258.776
255.489
251.229
245.898
239.431
232.078
224.495
263.814
263.279
262.062
260.47
258.37
255.665
252.255
248.07
243.058
237.186
230.563
223.606
251.047
250.702
250.152
249.35
248.195
246.591
244.419
241.549
237.855
233.24
227.723
221.63
239.81
239.666
239.456
239.061
238.435
237.494
236.133
234.224
231.63
228.205
223.871
218.815
232.38
232.275
232.097
231.762
231.256
230.511
229.447
227.962
225.937
223.236
219.739
215.51
225.913
225.83
225.678
225.4
224.989
224.388
223.532
222.338
220.702
218.502
215.611
212.03
219.802
219.743
219.63
219.421
219.107
218.643
217.974
217.03
215.72
213.931
211.536
208.517
214.319
214.276
214.188
214.024
213.774
213.403
212.866
212.104
211.039
209.574
207.59
205.066
209.411
209.377
209.303
209.165
208.956
208.646
208.198
207.561
206.668
205.432
203.735
201.493
204.903
204.876
204.814
204.697
204.52
204.258
203.878
203.337
202.577
201.52
200.06
198.099
200.722
200.7
200.647
200.548
200.398
200.174
199.85
199.388
198.738
197.834
196.582
194.896
196.828
196.811
196.766
196.681
196.551
196.358
196.078
195.679
195.116
194.33
193.234
191.723
193.181
193.169
193.131
193.057
192.944
192.775
192.531
192.182
191.689
191.001
190.045
188.716
189.748
189.742
189.709
189.644
189.544
189.395
189.18
188.872
188.438
187.833
187.003
185.846
186.502
186.499
186.47
186.412
186.323
186.191
185.998
185.723
185.333
184.785
184.029
182.971
183.421
183.419
183.392
183.341
183.262
183.143
182.97
182.724
182.375
181.885
181.212
180.311
180.484
180.483
180.459
180.414
180.342
180.235
180.08
179.858
179.544
179.103
178.491
177.688
177.676
177.675
177.654
177.613
177.548
177.451
177.311
177.11
176.827
176.429
175.879
175.184
174.981
174.98
174.961
174.924
174.865
174.777
174.649
174.466
174.208
173.846
173.342
172.711
172.386
172.385
172.368
172.335
172.281
172.2
172.082
171.915
171.679
171.347
170.882
170.309
169.88
169.88
169.865
169.834
169.785
169.711
169.603
169.449
169.231
168.926
168.496
167.968
167.458
167.457
167.444
167.417
167.371
167.302
167.202
167.06
166.859
166.577
166.18
165.701
165.109
165.109
165.098
165.073
165.031
164.967
164.875
164.743
164.557
164.295
163.926
163.496
162.825
162.826
162.817
162.795
162.756
162.697
162.612
162.49
162.318
162.075
161.73
161.34
160.606
160.607
160.599
160.579
160.543
160.489
160.41
160.297
160.139
159.918
159.606
159.28
158.445
158.446
158.438
158.419
158.385
158.334
158.261
158.156
158.011
157.808
157.519
157.216
156.327
156.328
156.32
156.303
156.272
156.224
156.156
156.058
155.921
155.73
155.456
155.159
154.249
154.25
154.244
154.228
154.199
154.155
154.09
153.998
153.868
153.687
153.425
153.141
152.214
152.215
152.209
152.194
152.167
152.125
152.065
151.978
151.856
151.687
151.446
151.212
150.221
150.221
150.214
150.199
150.173
150.134
150.076
149.994
149.879
149.721
149.491
149.27
148.254
148.254
148.248
148.234
148.21
148.172
148.117
148.04
147.931
147.782
147.565
147.365
146.313
146.313
146.307
146.295
146.273
146.237
146.186
146.112
146.009
145.866
145.657
145.47
144.4
144.401
144.396
144.384
144.363
144.33
144.281
144.212
144.114
143.979
143.782
143.639
142.518
142.517
142.511
142.5
142.48
142.448
142.402
142.336
142.245
142.119
141.928
141.814
140.649
140.649
140.644
140.634
140.616
140.586
140.543
140.483
140.399
140.287
140.113
140.018
138.792
138.793
138.789
138.781
138.765
138.738
138.698
138.642
138.564
138.46
138.29
138.139
136.958
136.958
136.954
136.946
136.93
136.903
136.866
136.813
136.74
136.644
136.493
136.303
135.126
135.127
135.123
135.116
135.102
135.077
135.042
134.992
134.924
134.837
134.709
134.499
133.301
133.301
133.298
133.292
133.279
133.256
133.223
133.177
133.113
133.03
132.926
132.732
131.477
131.478
131.476
131.471
131.459
131.437
131.405
131.36
131.298
131.213
131.109
130.948
129.665
129.665
129.661
129.655
129.643
129.621
129.59
129.546
129.485
129.4
129.29
129.178
127.848
127.848
127.845
127.84
127.828
127.808
127.778
127.736
127.68
127.601
127.495
127.424
126.029
126.03
126.027
126.022
126.012
125.993
125.966
125.927
125.875
125.803
125.701
125.645
124.213
124.213
124.21
124.205
124.194
124.176
124.15
124.114
124.065
124
123.903
123.866
122.385
122.385
122.382
122.378
122.369
122.352
122.328
122.295
122.251
122.194
122.107
122.107
120.548
120.548
120.545
120.541
120.532
120.517
120.495
120.465
120.426
120.376
120.295
120.295
118.693
118.693
118.691
118.688
118.681
118.668
118.648
118.622
118.586
118.544
118.473
118.478
116.831
116.831
116.827
116.823
116.816
116.804
116.785
116.761
116.73
116.693
116.63
116.637
114.934
114.935
114.934
114.932
114.927
114.916
114.901
114.88
114.853
114.824
114.775
114.802
113.036
113.034
113.029
113.024
113.018
113.008
112.993
112.974
112.952
112.931
112.893
112.926
111.086
111.086
111.083
111.08
111.075
111.066
111.054
111.038
111.02
111.004
110.976
111.018
109.092
109.094
109.094
109.093
109.092
109.086
109.077
109.066
109.053
109.044
109.025
109.086
107.097
107.094
107.089
107.085
107.081
107.075
107.067
107.059
107.051
107.05
107.045
107.146
105.024
105.024
105.023
105.022
105.021
105.018
105.013
105.009
105.008
105.015
105.021
105.157
102.902
102.903
102.903
102.904
102.907
102.907
102.906
102.908
102.915
102.933
102.952
103.128
100.757
100.755
100.75
100.748
100.748
100.748
100.748
100.753
100.766
100.796
100.825
101.011
98.507
98.5085
98.5086
98.5104
98.5148
98.5185
98.5236
98.5345
98.5559
98.598
98.6432
98.8418
96.216
96.2141
96.21
96.2093
96.2133
96.2188
96.2277
96.2452
96.2768
96.3354
96.4084
96.6478
93.8191
93.8185
93.817
93.8188
93.8252
93.8346
93.849
93.875
93.9194
93.9969
94.1027
94.4099
91.3145
91.3167
91.3179
91.3229
91.3342
91.3494
91.3717
91.4082
91.4671
91.5627
91.6884
92.0738
88.7349
88.7331
88.7297
88.7318
88.7427
88.7606
88.7889
88.8362
88.9133
89.0373
89.2017
89.7088
85.9979
85.9976
85.997
86.0023
86.017
86.0411
86.0785
86.1395
86.2373
86.3919
86.5789
87.131
83.0919
83.0945
83.0974
83.1077
83.13
83.1642
83.2151
83.2947
83.4189
83.6142
83.8498
84.3918
80.0485
80.0467
80.0457
80.0542
80.078
80.119
80.1833
80.2849
80.4417
80.6876
81.0082
81.5929
76.7442
76.7477
76.7532
76.7692
76.8039
76.8597
76.9453
77.0778
77.2792
77.5863
78.0104
78.7893
73.2188
73.2172
73.2183
73.235
73.2771
73.3487
73.4607
73.6344
73.8973
74.2875
74.8237
75.8568
69.3223
69.3246
69.3333
69.3611
69.4201
69.5183
69.6697
69.9013
70.2479
70.752
71.4188
72.6406
64.9973
65.0039
65.0205
65.0625
65.1474
65.2854
65.4964
65.8131
66.2783
66.9426
67.8055
69.246
60.1729
60.1771
60.1941
60.2498
60.3662
60.5599
60.8574
61.2996
61.9371
62.8266
63.9698
65.7272
54.5271
54.5304
54.5708
54.664
54.8476
55.1468
55.5969
56.2476
57.1537
58.3696
59.8906
62.0879
47.7315
47.8063
47.8657
48.0388
48.3582
48.8562
49.5775
50.5747
51.8983
53.5869
55.6101
58.3083
39.2628
38.9696
39.182
39.6045
40.2703
41.2275
42.505
44.132
46.1303
48.5094
51.2108
54.5364
26.7136
27.3833
28.2346
29.2465
30.6892
32.5382
34.7618
37.3419
40.258
43.4831
46.9261
50.816
89.9002
-1.82816
74.7943
90.0409
-67.4547
95.0053
144.046
51.6258
193.099
80.8139
76.5499
58.3768
84.126
167.913
-3.70802
80.0763
-43.6058
60.0878
142.039
59.9408
-4.30726
92.3352
85.177
17.1547
79.8696
84.9762
54.9962
87.6017
-8.92849
141.202
122.727
130.56
84.4009
60.0937
-10.4765
73.0941
139.383
-37.4125
75.5394
30.4589
90.6039
150.566
44.2752
142.293
-70.806
92.7679
95.5291
-38.2201
91.7949
90.4115
89.7589
184.343
45.5748
58.6245
104.939
-42.2802
77.0296
-6.15925
-81.6751
95.1687
-49.5517
-35.4867
134.913
87.8818
64.8024
67.3696
55.5817
76.9005
91.6408
105.425
-33.2593
-70.0873
-65.0341
85.2581
4.03688
-68.8801
-38.8788
-49.3507
89.325
89.2761
121.332
167.547
87.0037
75.8978
-93.0851
106.543
103.464
88.8011
88.6805
100.533
73.7733
-49.4586
87.9774
-59.0788
101.932
-19.715
215.421
-57.858
89.4451
215.405
39.4782
108.611
17.8084
161.571
89.3782
-52.7929
94.565
91.0328
74.0894
88.6739
86.5685
160.963
112.274
160.415
-62.6796
85.4384
198.817
108.921
159.159
147.897
97.1767
54.4157
58.2921
64.5205
152.965
81.0882
91.0232
-69.6659
-78.263
87.4359
74.68
119.582
141.645
4.84258
-90.1586
122.655
-42.9804
70.5253
-49.8248
97.9203
157.402
9.89462
-32.1362
44.9489
74.456
-57.1676
100.341
69.2293
-43.9767
-74.061
-12.2445
96.3468
-13.9978
56.8785
144.757
93.8324
72.7182
49.3957
84.4904
88.7658
80.6196
-47.1654
80.2483
-66.7912
137.605
86.4471
74.24
-87.4868
-60.3374
7.7345
-42.5416
75.2956
118.911
99.3518
80.5489
-53.6593
127.147
66.9344
84.1818
65.6322
77.3868
-42.9213
-33.0281
68.594
92.2638
92.3478
-18.3464
38.2497
-11.0255
124.351
109.103
128.765
-52.0117
82.8587
64.084
8.84436
109.93
131.676
159.15
83.1709
61.1605
91.2589
88.2391
87.213
92.2178
52.2043
94.2116
-26.1212
89.2963
95.1643
142.815
27.7054
159.961
85.6706
19.6744
97.4827
84.1815
111.669
-59.0882
-10.8608
-74.2257
130.978
75.8157
91.4249
103.225
48.5774
99.0229
-49.1355
76.317
80.6601
76.5712
181.392
58.2315
157.335
123.119
58.5264
1.95388
81.7739
41.4908
107.237
85.0098
-66.9752
82.6365
90.0481
-80.7677
-16.861
-57.0654
116.427
93.1393
80.9195
71.1516
72.5819
179.97
91.9092
91.8282
-74.4006
-80.1097
124.631
79.5864
104.506
77.3244
-63.7917
-71.781
86.8551
51.8323
86.1299
-21.7888
94.9616
-46.186
193.458
-31.5111
103.835
87.8231
134.829
90.4908
-43.7194
94.8053
47.9988
119.111
-33.9973
49.0982
-66.9828
81.4735
87.0038
85.8827
75.0352
85.1993
83.2485
-3.96491
-2.02998
78.929
86.1479
18.8959
136.694
78.2892
102.848
84.3076
89.5133
61.9009
85.0752
19.5196
188.825
94.743
-69.5622
91.9253
94.5063
-30.0714
53.2404
14.2861
147.542
95.1527
-60.2053
76.4384
77.6913
133.822
-17.3733
132.826
17.6061
67.1812
33.3339
30.3607
4.44349
-53.3849
92.2029
-22.395
81.7353
-59.4271
-47.9874
94.3472
145.448
96.4775
-89.8001
92.4203
190.878
60.5135
12.6027
102.386
85.3475
48.7501
-6.16345
46.9339
-76.5896
-37.8418
-4.56271
14.1714
97.8843
76.283
9.44153
15.3256
163.597
75.8584
88.0126
-66.4344
-74.2238
55.4929
-70.1411
154.34
111.29
80.5257
-41.6874
68.3045
90.5404
88.0991
101.677
-54.8621
17.9028
70.8018
119.552
94.2286
48.0058
77.6956
32.7592
93.0487
86.4938
-54.6975
89.3346
89.8109
55.998
37.4793
-74.4596
-33.2037
-26.8934
77.6098
78.3276
149.552
-22.4869
5.25816
202.319
81.874
170.295
120.399
171.239
-2.51988
85.9213
96.3039
-9.44462
80.4114
4.76517
62.6728
17.2398
89.5225
98.8781
75.2424
-74.1184
102.044
85.1409
76.7514
54.9541
35.1509
82.5881
77.9383
-38.7727
128.105
-3.17722
42.4797
158.765
16.2121
153.167
117.506
-19.6027
27.9857
50.5457
100.302
-40.483
99.2533
101.685
57.9378
-49.6602
73.7772
127.791
23.4779
-42.9522
42.9025
95.0739
146.61
61.1133
187.688
73.1547
64.6136
168.277
139.79
-84.8737
72.8076
66.1204
115.304
79.0733
90.9362
144.209
-18.6643
-36.1422
55.8168
-5.72755
-17.9635
42.2067
-42.5147
81.1748
72.5809
147.428
30.6598
88.4651
75.2781
93.0808
87.2578
77.6711
76.6168
12.218
109.332
-80.218
90.5801
73.2347
86.2429
10.1355
158.66
86.6012
65.6436
131.098
77.4302
75.0583
82.3891
78.5705
87.7457
-68.745
-50.4012
15.2087
67.3651
23.1096
53.3299
-73.6562
127.89
89.743
90.1184
91.0141
122.447
-31.9278
51.9206
82.6246
104.619
66.7834
61.6384
140.115
100.083
102.062
128.812
-2.05092
83.7315
122.554
125.335
130.35
53.0668
-34.3844
0.249046
92.2465
19.1254
80.0409
5.80441
142.749
-67.3414
-29.3951
86.28
110.83
-17.0747
-88.5882
80.8769
87.6489
87.0254
98.3076
78.4805
74.2274
127.02
112.745
75.4372
123.588
89.587
93.5899
108.647
86.2061
125.844
62.7644
-83.2269
91.743
160.967
41.0912
-87.1016
93.6719
91.2736
91.1016
72.79
104.874
69.1453
-76.0976
73.4499
44.4872
-73.1858
80.6498
72.2685
39.1977
-68.1805
68.5992
37.7501
-29.3589
88.7007
155.207
-60.7767
85.8025
87.5575
12.7529
-5.81537
26.4309
82.1298
75.2672
68.7287
90.2292
91.0063
42.7676
83.4558
101.145
98.7343
-67.0296
212.931
102.686
88.5819
75.9305
166.767
116.382
-43.7448
71.7457
-6.18025
85.3626
163.192
87.7438
88.6666
87.6108
140.81
132.202
-59.2034
87.5638
87.7614
37.8421
79.6289
-43.2058
91.4952
87.7353
87.839
89.9747
185.986
80.2906
83.5882
45.5457
96.7465
79.9635
-47.3089
-83.13
93.6555
72.878
83.0655
86.9012
91.3682
99.7343
156.695
-78.2874
44.1471
91.943
-46.2482
55.6251
110.882
-77.9412
-68.3473
109.494
-36.9653
-70.9233
76.6165
160.97
116.285
78.0875
69.8252
-56.1102
-50.9529
25.4983
102.288
90.3237
53.0417
86.4839
177.534
88.3958
-40.6192
56.2432
85.9095
-83.4219
167.489
77.4783
102.918
74.5942
88.2443
-79.5204
85.2912
120.007
74.2862
78.3979
-50.3775
89.0698
71.0429
86.1514
183.182
70.7569
76.7757
88.117
36.7787
74.1351
53.7829
-53.6544
95.7431
87.0691
-44.8109
-41.678
1.71342
87.4135
47.014
176.99
62.8203
134.312
77.8207
143.476
-29.5179
75.7828
173.63
79.2399
-67.5671
94.9217
171.621
-83.0018
20.0602
73.2997
185.345
99.0225
109.87
81.1039
87.6287
97.0595
90.7098
-28.2575
97.1464
83.0195
125.824
-26.0167
85.6257
162.046
92.1157
-2.4268
-40.0181
164.125
90.6721
-20.2967
53.1094
-41.1643
58.8372
97.1131
-57.8871
46.9624
-46.4189
187.131
-60.1365
-65.7877
-11.7763
52.7632
-71.7467
201.181
84.3912
-73.296
82.5019
58.9329
32.9166
-31.9177
92.7095
75.8262
-79.8551
141.062
152.759
107.478
183.279
143.801
121.268
89.3821
82.6028
82.9254
81.2711
92.927
79.7328
-36.1042
-52.4131
55.1128
92.728
-75.1068
120.766
84.5875
112.597
-19.0481
-93.2339
97.1009
-14.5769
145.952
173.961
-39.9005
119.04
-0.247185
22.3697
-76.0112
-25.4828
21.7137
124.802
-92.852
-73.7507
89.2095
87.3769
90.4139
-25.2468
77.0161
-60.1144
86.276
86.8626
-69.8855
-36.8704
-36.1472
-26.5349
128.336
-2.92093
64.613
93.7865
122.977
93.3539
97.9771
77.2365
82.7354
-11.1201
87.1178
101.262
94.9801
-7.29027
68.2629
-45.8733
-12.0373
75.7978
-35.9366
86.0399
-75.8899
77.7098
57.9907
93.0955
82.6716
98.9514
87.8593
44.8419
80.5595
-29.3492
139.653
109.732
110.24
124.781
-51.4943
97.3421
85.4048
30.8825
82.1158
54.1421
-62.998
50.4223
100.301
100.736
18.7489
168.719
-52.7179
28.8562
100.187
70.976
122.838
80.5461
23.7485
-17.6659
30.7304
47.8274
162.861
105.325
79.3278
44.5643
94.4499
81.5768
6.66061
79.1031
81.3074
95.2189
76.2028
154.722
22.8514
87.0584
83.9612
-12.3907
-67.0355
13.4352
-21.0963
70.3686
82.311
5.85815
-60.6184
170.592
92.7162
-31.6711
83.6832
113.394
90.6747
96.6395
93.1254
126.043
88.1441
87.3316
76.3475
-75.1897
88.0374
74.9001
107.095
163.507
61.9452
125.065
33.8386
69.9589
-61.3132
-27.2632
78.9825
75.0523
80.3144
7.59238
93.9259
-62.9936
46.3993
86.3579
191.258
157.447
89.0091
96.5006
90.0977
87.3233
93.4688
91.6367
85.5307
99.4319
68.9625
83.255
79.5714
84.0284
74.2216
82.0954
72.6311
-9.26111
68.6439
138.261
121.197
146.581
80.3927
118.96
-34.8445
133.105
150.028
73.5105
58.1935
40.5407
72.2007
79.9035
89.7419
107.582
-63.9601
104.424
-41.4962
115.793
-50.2443
76.6152
48.8222
-28.2833
97.5955
-85.3921
92.2645
85.1062
85.4719
-47.5004
110.944
-5.07566
76.5871
3.22484
-80.2287
196.387
91.7114
23.4983
120.333
127.535
84.2529
92.1377
91.3197
113.328
88.6946
91.6943
-77.9495
49.1136
83.8506
-20.4346
20.964
74.6559
82.5164
118.23
108.167
-92.015
90.8974
32.4577
-72.0683
30.589
87.9541
114.492
105.357
87.1521
-62.3279
-4.7119
88.3781
127.961
90.8809
46.651
87.9773
121.697
140.556
98.1294
-69.8402
112.363
154.629
-69.2961
98.4583
-24.0041
124.508
-85.5626
-9.7671
-14.9609
30.4029
78.517
88.0641
105.059
-18.2807
97.8904
-1.47855
-64.9533
-81.2365
38.8895
69.5156
106.709
111.817
82.6627
-59.6695
88.9838
87.0069
163.895
102.13
5.89471
66.6306
96.2234
42.4593
142.3
81.506
115.642
-80.6348
-70.1388
-30.6504
3.82097
82.4363
72.3227
74.2195
90.6217
19.2202
139.286
-51.7637
52.4499
121.229
-66.0426
93.3542
59.2275
-69.6066
185.959
77.4107
92.9355
59.7257
25.7114
-65.5402
109.824
-49.865
57.5202
181.812
-72.0938
-55.1071
64.2759
35.5649
98.541
131.807
98.2134
77.9275
-22.3935
90.1522
82.2728
-14.2367
154.208
5.94741
60.8782
103.429
54.1805
94.3832
89.0904
-74.6663
81.4742
96.5771
170.568
19.2164
-10.4899
79.9198
60.9456
163.181
78.4256
108.77
87.8673
-78.2389
156.541
-69.6518
82.015
-51.8249
24.0035
60.6294
-27.8532
85.9065
195.881
67.1216
-62.6099
101.457
79.1207
91.2692
52.1846
83.834
137.377
92.3723
96.6877
89.751
114.637
42.7575
92.1242
86.1552
49.712
-2.86294
85.5321
40.3701
-86.6297
-85.0363
155.095
153.102
24.023
-49.7705
60.8032
103.948
10.6432
86.002
-76.6002
-40.6142
57.8483
-64.9474
92.3831
-6.84109
138.165
73.0023
67.0185
66.7701
20.2805
5.95485
164.702
81.849
90.9861
63.9502
142.605
103.809
15.2298
76.7357
-4.77046
89.4198
128.479
7.0337
80.0909
20.7632
92.827
-74.4656
136.152
36.2699
83.6319
79.9382
152.426
57.859
-16.0829
84.19
88.9827
83.7805
90.0549
90.8959
70.2879
69.4894
50.8389
205.866
126.813
-15.4351
186.213
-56.6459
-40.3928
96.3118
18.1848
37.415
-55.6941
-11.9882
92.7321
77.0913
62.3294
96.7874
-65.6695
83.2735
128.322
77.0448
109.96
80.6038
19.9206
46.4944
92.0809
144.445
23.0281
48.0377
117.199
165.515
64.8301
101.978
85.4412
37.1985
52.8186
94.3787
141.113
88.7984
-20.2959
153.297
-77.896
-45.8089
-61.7915
83.1074
-25.3243
7.7705
38.6039
27.4114
89.404
74.7939
79.0678
134.598
-60.734
-77.0832
-30.0154
136.228
80.1642
-52.0523
106.619
175.591
-29.4807
-28.5783
87.8836
-83.5516
91.9389
67.4881
107.935
54.762
98.4563
44.2957
14.1181
101.06
73.3895
45.7033
50.9253
100.723
85.9629
70.8784
82.307
-87.3076
59.8236
9.21002
121.308
95.2112
-79.6824
118.825
50.6408
63.2438
48.7048
179.532