/*--------------------------------*- C++ -*----------------------------------*\
| =========                 |                                                 |
| \\      /  F ield         | OpenFOAM: The Open Source CFD Toolbox           |
|  \\    /   O peration     | Version:  2.3.0                                 |
|   \\  /    A nd           | Web:      www.OpenFOAM.org                      |
|    \\/     M anipulation  |                                                 |
\*---------------------------------------------------------------------------*/
FoamFile
{
    version     2.0;
    format      ascii;
    class       surfaceScalarField;
    location    "4000";
    object      phi;
}
// * * * * * * * * * * * * * * * * * * * * * * * * * * * * * * * * * * * * * //

dimensions      [0 3 -1 0 0 0 0];

internalField   nonuniform List<scalar> 
13305
(
-0.0229148
-0.0225207
0.0256561
0.0197861
-0.0253684
-0.0184761
0.0209297
-0.0271793
-0.0151327
0.0169437
-0.0283491
-0.0123584
0.0135282
-0.0289024
-0.0100491
0.0106025
-0.0289089
-0.00812458
0.00813108
-0.0284718
-0.00652416
0.00608709
-0.0277087
-0.0052009
0.00443787
-0.026724
-0.00411514
0.00313041
-0.0255998
-0.00323734
0.00211321
-0.0244464
-0.00253326
0.0013798
-0.00197541
-0.0235033
0.00103242
-0.019666
-0.0201329
0.0172782
-0.0213835
-0.0167586
-0.0225474
-0.0139689
-0.0232488
-0.0116569
-0.0235422
-0.00975573
-0.0234778
-0.00818901
-0.0230954
-0.00690657
-0.0224399
-0.00585637
-0.02155
-0.00500503
-0.0204701
-0.00431728
-0.0192404
-0.00376291
-0.00332021
-0.0178956
-0.0171496
-0.0181987
0.0152155
-0.0184698
-0.0154384
-0.0192819
-0.0131567
-0.0196716
-0.0112673
-0.0197208
-0.00970655
-0.0194912
-0.00841856
-0.0190419
-0.00735596
-0.018417
-0.00648125
-0.0176604
-0.00576166
-0.0168058
-0.00517182
-0.0158779
-0.00469084
-0.00430096
-0.0148971
-0.0150195
-0.0165659
0.0133867
-0.0161202
-0.0143378
-0.0167806
-0.0124963
-0.0170819
-0.010966
-0.017093
-0.00969541
-0.0168679
-0.00864366
-0.0164548
-0.00776912
-0.0158939
-0.0070421
-0.0152161
-0.00643946
-0.0144479
-0.0059401
-0.0136126
-0.00552609
-0.00518597
-0.0127276
-0.0132178
-0.0151619
0.0118138
-0.0141529
-0.0134027
-0.0147073
-0.0119419
-0.0149518
-0.0107215
-0.0149416
-0.00970557
-0.0147334
-0.00885192
-0.0143622
-0.00814028
-0.0138619
-0.00754244
-0.0132616
-0.00703973
-0.0125836
-0.0066181
-0.011844
-0.00626576
-0.00597094
-0.011059
-0.011678
-0.0139243
0.0104405
-0.0125018
-0.0125789
-0.0129905
-0.0114532
-0.0132046
-0.0105074
-0.013196
-0.00971422
-0.0130079
-0.00903998
-0.0126771
-0.00847114
-0.0122305
-0.00798897
-0.011693
-0.00757725
-0.0110829
-0.00722825
-0.0104165
-0.00693209
-0.00668031
-0.00970717
-0.0103681
-0.0128242
0.00926799
-0.0110992
-0.0118478
-0.0115348
-0.0110177
-0.0117255
-0.0103167
-0.0117204
-0.00971938
-0.0115558
-0.00920456
-0.0112587
-0.0087682
-0.0108595
-0.00838815
-0.0103758
-0.00806101
-0.00982575
-0.00777827
-0.00922422
-0.00753362
-0.00732348
-0.00858105
-0.00923387
-0.0118458
0.00825548
-0.00989342
-0.0111883
-0.0102848
-0.0106263
-0.0104605
-0.010141
-0.0104588
-0.00972106
-0.0103107
-0.00935263
-0.0100483
-0.00903059
-0.00968899
-0.00874751
-0.00925232
-0.00849768
-0.00875429
-0.0082763
-0.00820784
-0.00808007
-0.00790741
-0.00762391
-0.00824993
-0.0109603
0.00736445
-0.00884551
-0.0105927
-0.00920045
-0.0102714
-0.0093605
-0.00998092
-0.00936085
-0.00972071
-0.00923138
-0.00948211
-0.00899555
-0.00926642
-0.00867277
-0.00907029
-0.00827904
-0.00889141
-0.00782721
-0.00872813
-0.00733058
-0.00857671
-0.00843864
-0.00679935
-0.00738426
-0.010161
0.00658488
-0.00792741
-0.0100495
-0.00825146
-0.00994732
-0.0083999
-0.00983248
-0.00840257
-0.00971805
-0.00828524
-0.00959944
-0.00807419
-0.00947747
-0.00778414
-0.00936034
-0.00742907
-0.00924649
-0.00701922
-0.00913798
-0.0065668
-0.00902913
-0.00608331
-0.00892212
-0.0209921
-0.00179303
-0.000718292
-0.0188669
-0.00197392
-0.000151185
-0.0168819
-0.0022663
0.000281228
-0.014993
-0.00266655
0.000777663
-0.013208
-0.00319695
0.00141194
-0.0115648
-0.00388396
0.00224078
-0.0101231
-0.004762
0.00332028
-0.0089595
-0.00587269
0.00470909
-0.00815282
-0.00726976
0.00646308
-0.00778042
-0.00901852
0.00864612
-0.00791553
-0.0112021
0.0113372
-0.0139296
0.0146472
-0.00863314
-0.016485
-0.00320362
-0.0150781
-0.00338083
-0.0137163
-0.00362815
-0.0124213
-0.00396146
-0.0112197
-0.00439862
-0.0101403
-0.00496334
-0.00921437
-0.00568794
-0.00847971
-0.00660735
-0.0079814
-0.00776807
-0.00777685
-0.00922308
-0.00794256
-0.0110364
-0.0133004
-0.00857177
-0.0138991
-0.00420171
-0.0129058
-0.00437405
-0.0119315
-0.00460244
-0.010991
-0.004902
-0.0101003
-0.00528928
-0.00928324
-0.00578043
-0.00857058
-0.0064006
-0.0080014
-0.00717653
-0.00762451
-0.00814497
-0.00750019
-0.0093474
-0.00769737
-0.0108392
-0.0126941
-0.00830366
-0.0118366
-0.00509269
-0.0109787
-0.005232
-0.0101592
-0.0054219
-0.0093902
-0.00567102
-0.00868634
-0.00599314
-0.00806488
-0.00640188
-0.00754761
-0.00691787
-0.00716354
-0.0075606
-0.00694967
-0.00835884
-0.00695139
-0.00934568
-0.00722733
-0.0105632
-0.012068
-0.00785347
-0.0102727
-0.00587901
-0.00952276
-0.00598193
-0.00881868
-0.00612598
-0.00816816
-0.00632154
-0.00758358
-0.00657772
-0.00708084
-0.00690462
-0.0066798
-0.00731891
-0.00640475
-0.00783564
-0.00628727
-0.00847632
-0.00636768
-0.00926527
-0.00669625
-0.0102347
-0.0114293
-0.00733497
-0.00899714
-0.00658905
-0.00832748
-0.00665158
-0.00770427
-0.00674919
-0.00713644
-0.00688937
-0.00663699
-0.00707718
-0.00621752
-0.00732409
-0.00589773
-0.00763869
-0.00569937
-0.008034
-0.00564981
-0.00852588
-0.00578326
-0.00913182
-0.00614287
-0.00987508
-0.0107882
-0.00678396
-0.0079386
-0.00723151
-0.00733605
-0.00725413
-0.00677964
-0.0073056
-0.0062783
-0.00739072
-0.0058424
-0.00751307
-0.00548561
-0.00768088
-0.00522348
-0.00790083
-0.00507725
-0.00818023
-0.00507053
-0.0085326
-0.00523519
-0.00896716
-0.00560852
-0.00950175
-0.0101571
-0.00623958
-0.00704045
-0.00781497
-0.00649595
-0.00779864
-0.00599685
-0.0078047
-0.0055498
-0.00783777
-0.00516481
-0.00789806
-0.00485635
-0.00798934
-0.00463839
-0.00811879
-0.00452845
-0.00829016
-0.00454965
-0.0085114
-0.00473146
-0.00878535
-0.0051064
-0.00912681
-0.00954494
-0.0057186
-0.0062699
-0.00834442
-0.00577725
-0.00829129
-0.00532684
-0.0082551
-0.00492672
-0.00823789
-0.00458428
-0.00824051
-0.00431422
-0.0082594
-0.00412843
-0.00830458
-0.00404654
-0.00837206
-0.00408517
-0.00847276
-0.00427272
-0.0085978
-0.00463959
-0.00875994
-0.00896092
-0.00522361
-0.00560209
-0.00882564
-0.00515522
-0.00873816
-0.00474989
-0.00866044
-0.00439176
-0.00859601
-0.0040841
-0.00854817
-0.00384722
-0.00849627
-0.00368786
-0.00846394
-0.00362538
-0.00843454
-0.00367389
-0.00842425
-0.00386142
-0.00841028
-0.00421432
-0.00840703
-0.00476616
-0.00840908
0.00430173
-0.00363311
0.0039601
-0.00462874
0.00404116
-0.00282887
0.00308944
0.00385069
-0.00202078
0.00221124
0.00370176
-0.00128311
0.00143205
0.00354935
-0.000644076
0.000796469
0.00334472
-0.000101831
0.00030649
0.00303831
0.000363378
-5.69863e-05
0.00258227
0.000778414
-0.00032233
0.00192327
0.00117523
-0.000516245
0.000996815
0.00159381
-0.000667314
-0.000293146
0.00208704
-0.000797102
0.00272582
-0.00211513
-0.000903797
0.00366269
-0.00323172
-0.00406408
0.00331232
-0.0024785
0.0030148
-0.00172327
0.00274788
-0.00101618
0.00247509
-0.000371303
0.00215591
0.000217364
0.00175104
0.000768228
0.00122452
0.00130494
0.000543469
0.00185627
-0.000315832
0.00245312
-0.00134758
0.00311877
0.00385105
-0.0024728
0.00298
-0.0027799
-0.00343184
0.00258153
-0.00208003
0.00223465
-0.0013764
0.00192004
-0.000701563
0.00160865
-5.99279e-05
0.00126919
0.000556831
0.000871448
0.00116596
0.000388055
0.00178834
-0.000202553
0.00244687
-0.000910799
0.00316137
-0.00173606
0.00394402
0.0047744
-0.00265939
0.00236158
-0.00232216
-0.00281933
0.00196358
-0.00168204
0.00162125
-0.00103408
0.00131555
-0.000395861
0.00102162
0.000233996
0.000712575
0.000865875
0.000362454
0.00151608
-5.28781e-05
0.00220367
-0.000553366
0.00294735
-0.00115731
0.00376532
-0.00187171
0.00465841
0.00561552
-0.00271284
0.00184486
-0.00189358
-0.00227345
0.00147807
-0.00131525
0.00116678
-0.000722788
0.000892303
-0.000121389
0.000632376
0.000493916
0.000362945
0.0011353
6.02526e-05
0.00181876
-0.000297586
0.0025615
-0.000732559
0.00338231
-0.00126157
0.00429432
-0.00190629
0.00530312
0.00638669
-0.00267746
0.00142998
-0.0015066
-0.00181696
0.00110661
-0.000991879
0.000834703
-0.000450886
0.00059674
0.000116572
0.000372301
0.000718351
0.000139265
0.00136834
-0.000123238
0.00208126
-0.000436775
0.00287503
-0.000821781
0.00376731
-0.00129747
0.00477001
-0.00188259
0.00588823
0.00709435
-0.00259025
0.00110268
-0.00116938
-0.0014399
0.000825547
-0.000714747
0.000593296
-0.000218635
0.00038963
0.000320239
0.000197232
0.000910746
-4.95947e-06
0.00157053
-0.000236386
0.00231268
-0.000515059
0.0031537
-0.000859205
0.00411145
-0.00129057
0.00520136
-0.00182334
0.006421
0.0077445
-0.00247349
0.000844653
-0.000886282
-0.00112775
0.000612784
-0.000482876
0.000416941
-2.27915e-05
0.000243392
0.000493788
7.86674e-05
0.00107547
-9.76069e-05
0.0017468
-0.000302664
0.00251774
-0.000554627
0.00340566
-0.000867008
0.00442383
-0.00125975
0.0055941
-0.00174975
0.00691099
0.00833842
-0.00234366
0.000644661
-0.000651392
-0.000879553
0.00045212
-0.000290333
0.000287526
0.000141803
0.000139094
0.00064222
1.62579e-07
0.0012144
-0.000154668
0.00190163
-0.000337926
0.00270099
-0.000568604
0.00363634
-0.000850434
0.00470566
-0.00120722
0.00595089
-0.00165424
0.007358
0.00888465
-0.00220049
0.000490862
-0.000455315
-0.00068694
0.000330775
-0.000130246
0.000190364
0.000282214
6.60151e-05
0.000766568
-4.6966e-05
0.00132738
-0.000181804
0.00203647
-0.00034567
0.00286485
-0.000555331
0.003846
-0.000811391
0.00496172
-0.00113982
0.00627931
-0.00155225
0.00777044
-0.00204781
0.00938021
-0.00289711
0.00397445
-0.0031925
-0.0040396
0.0055684
-0.00442589
-0.00525816
0.00684638
-0.00562785
-0.00632265
0.00799792
-0.00693341
-0.00716662
0.00927497
-0.00843102
-0.0077377
0.0107318
-0.0101607
-0.00799863
0.0124322
-0.0121713
-0.00789197
0.0144235
-0.0145301
-0.00736047
0.0167778
-0.0173093
-0.0063369
0.0195659
-0.0205895
-0.00473555
0.0228701
-0.0244714
0.0267895
-0.0290682
-0.00245686
-0.00344779
0.00494942
-0.00446103
0.00658166
-0.00554365
0.00792898
-0.00647643
0.00893071
-0.00718435
0.00998288
-0.00764186
0.0111893
-0.0078135
0.0126039
-0.00765501
0.014265
-0.00711571
0.0162385
-0.00612856
0.0185788
-0.00461737
0.0213589
0.0246633
-0.00249119
-0.00363655
0.00592657
-0.00457488
0.00752001
-0.00551292
0.00886702
-0.00632597
0.00974377
-0.00694046
0.0105974
-0.00732927
0.0115781
-0.00745818
0.0127328
-0.00729187
0.0140987
-0.00677586
0.0157225
-0.00585429
0.0176572
-0.00445023
0.0199548
0.0226913
-0.00247821
-0.00363703
0.00685075
-0.00452269
0.00840567
-0.00534856
0.00969288
-0.00605918
0.0104544
-0.00659507
0.0111332
-0.00692989
0.011913
-0.00703349
0.0128363
-0.00686507
0.0139302
-0.00638273
0.0152402
-0.00552978
0.0168042
-0.00423956
0.0186646
0.0208826
-0.00243093
-0.00353049
0.00770377
-0.00435575
0.00923093
-0.00509737
0.0104345
-0.00572795
0.011085
-0.00619863
0.0116039
-0.00649234
0.0122067
-0.00657365
0.0129177
-0.00641765
0.0137742
-0.00597122
0.0147937
-0.00518643
0.0160194
-0.00400416
0.0174823
0.0192279
-0.00234938
-0.00337597
0.00848949
-0.0041314
0.00998636
-0.00480223
0.0111053
-0.00535985
0.0116426
-0.00577941
0.0120235
-0.00603682
0.0124641
-0.00611019
0.012991
-0.00595933
0.0136234
-0.00555305
0.0143875
-0.00483569
0.0153021
-0.00375558
0.0164022
0.0177201
-0.00224786
-0.00319094
0.00920693
-0.00388389
0.0106793
-0.0044829
0.0117043
-0.00498279
0.0121425
-0.00535641
0.0123971
-0.00558931
0.012697
-0.00565024
0.013052
-0.00551532
0.0134885
-0.00514218
0.0140143
-0.00448969
0.0146496
-0.00350821
0.0154208
0.0163437
-0.00213174
-0.00299642
0.00985968
-0.0036179
0.0113008
-0.00416086
0.0122473
-0.00460675
0.0125884
-0.00494579
0.0127361
-0.00515277
0.012904
-0.0052088
0.013108
-0.00508441
0.0133641
-0.00474451
0.0136744
-0.00415401
0.0140591
-0.00325825
0.014525
0.0150956
-0.00201021
-0.0028021
0.0104613
-0.00336475
0.0118634
-0.00384803
0.0127306
-0.0042482
0.0129885
-0.00455199
0.0130399
-0.00473901
0.013091
-0.00478821
0.0131572
-0.00467438
0.0132502
-0.00436899
0.013369
-0.00383057
0.0135207
-0.00302137
0.0137158
0.0139575
-0.00188325
-0.00258493
0.0109984
-0.00307646
0.012355
-0.00351126
0.0131654
-0.00389428
0.0133716
-0.00418022
0.0133259
-0.00435155
0.0132623
-0.00439598
0.0132016
-0.00429232
0.0131466
-0.00401416
0.0130909
-0.00352943
0.013036
-0.00279293
0.0129793
0.0129255
-0.00176089
0.00259824
-0.00156587
0.00504629
-0.00106827
0.0076408
-0.000481322
0.0104051
0.000366172
0.0132075
0.00163536
0.0158464
0.00344826
0.0181004
0.00587708
0.0197672
0.00893568
0.0207014
0.012594
0.0208713
0.0167738
0.0203947
0.0214063
0.0265511
0.0194996
-0.00018769
-0.00137808
0.000330453
-0.00158637
0.00141469
-0.00156552
0.00305532
-0.00127443
0.00526276
-0.000572074
0.0080088
0.000702254
0.0111075
0.00277837
0.0141995
0.0058437
0.0168445
0.00994904
0.0186509
0.0149673
0.0194292
0.020628
0.0266977
0.0192825
-0.000108014
-0.00127013
-0.000173605
-0.0015208
-7.85977e-05
-0.00166056
0.000317622
-0.00167064
0.00121205
-0.0014665
0.00280602
-0.000891697
0.00522499
0.000359417
0.00837611
0.00269259
0.0118632
0.00646194
0.0150574
0.0117731
0.0173347
0.0183508
0.0256598
0.0183726
-1.73479e-05
-0.00125268
1.25495e-05
-0.00155065
0.000101366
-0.00174934
0.000292937
-0.00186219
0.000664569
-0.00183812
0.00134987
-0.00157698
0.00258378
-0.000874481
0.00463883
0.000637565
0.00759951
0.00350127
0.0111192
0.00825343
0.0144342
0.0150358
0.0233318
0.0167622
-1.46285e-05
-0.00123815
-1.06005e-05
-0.00155471
2.89545e-05
-0.00178893
0.0001274
-0.00196065
0.000326822
-0.00203755
0.000699424
-0.00194959
0.00138354
-0.00155859
0.002615
-0.000593889
0.00468734
0.00142892
0.00771384
0.00522694
0.0112952
0.0114545
0.02007
0.014557
-9.707e-06
-0.00122835
3.16249e-06
-0.00156752
4.32543e-05
-0.001829
0.000122305
-0.00203969
0.000263812
-0.00217905
0.000508313
-0.0021941
0.000935107
-0.00198539
0.00169178
-0.00135057
0.00303155
8.91473e-05
0.00526843
0.00299004
0.00845683
0.00826612
0.0165666
0.0119601
-2.3701e-06
-0.00122603
1.31791e-05
-0.00158307
4.89272e-05
-0.00186476
0.000112786
-0.00210355
0.000220588
-0.00228686
0.000399854
-0.00237337
0.000700379
-0.00228592
0.0012198
-0.00186999
0.00213366
-0.00082473
0.00373074
0.00139297
0.00631256
0.00568427
0.0131012
0.00977803
2.42828e-06
-0.00122835
2.32547e-05
-0.00160383
6.07515e-05
-0.00190222
0.000120342
-0.00216312
0.000214039
-0.00238054
0.000360726
-0.00252007
0.000593226
-0.00251842
0.000977285
-0.00225406
0.001637
-0.00148445
0.00279035
0.000239599
0.0047594
0.00371523
0.0101994
0.00766117
8.44727e-06
-0.00123684
3.29021e-05
-0.00162829
7.08514e-05
-0.00194018
0.000127965
-0.00222023
0.000213324
-0.0024659
0.000341129
-0.00264787
0.000535666
-0.00271295
0.000842578
-0.00256098
0.00135151
-0.00199338
0.00222442
-0.00063331
0.00373503
0.00220462
0.00766947
0.00626493
1.31635e-05
-0.00124991
3.90279e-05
-0.0016541
7.72826e-05
-0.0019784
0.000132488
-0.00227541
0.0002119
-0.00254529
0.000326685
-0.00276265
0.000495235
-0.0028815
0.000750849
-0.00281659
0.00115923
-0.00240176
0.00184298
-0.00131703
0.00301889
0.00102869
0.00568043
0.00500793
1.6163e-05
-0.0012661
4.23809e-05
-0.0016803
7.97902e-05
-0.00201581
0.000132194
-0.00232781
0.000205602
-0.0026187
0.00030993
-0.00286698
0.000459092
-0.00303066
0.000678716
-0.00303621
0.00101787
-0.0027409
0.00156945
-0.00186861
0.00250011
9.80608e-05
0.00409228
0.00408823
1.76649e-05
-0.00128367
4.28772e-05
-0.00170545
7.81034e-05
-0.00205101
0.000126754
-0.00237643
0.000194192
-0.00268612
0.000288435
-0.00296121
0.000421422
-0.00316364
0.000613256
-0.00322803
0.000902559
-0.00303019
0.00136262
-0.00232866
0.00213087
-0.000670164
0.00275582
0.00346733
1.73292e-05
-0.00130102
4.02671e-05
-0.00172838
7.22775e-05
-0.00208302
0.000116169
-0.0024203
0.000176665
-0.00274661
0.000260399
-0.00304493
0.000377342
-0.00328057
0.000543807
-0.00339448
0.000790172
-0.00327655
0.00117506
-0.00271351
0.00180894
-0.00130405
0.00167593
0.00288885
1.59316e-05
-0.00131688
3.62359e-05
-0.00174861
6.44393e-05
-0.0021112
0.000103286
-0.00245912
0.000156364
-0.00279968
0.000229662
-0.00311821
0.000331446
-0.00338235
0.000474165
-0.00353719
0.000680839
-0.0034832
0.000995176
-0.00302785
0.00149717
-0.00180601
0.00087347
0.00229961
1.42568e-05
-0.00133114
3.18103e-05
-0.00176614
5.67448e-05
-0.00213614
9.094e-05
-0.00249329
0.000137879
-0.00284661
0.000202751
-0.00318307
0.000292917
-0.0034725
0.000419527
-0.00366378
0.000602204
-0.00366587
0.000878165
-0.00330378
0.00131792
-0.00224579
9.28256e-05
0.00209859
1.23598e-05
-0.00134344
2.72913e-05
-0.001781
4.86402e-05
-0.00215747
7.81353e-05
-0.00252275
0.000118977
-0.00288744
0.000175524
-0.00323959
0.000254432
-0.00355139
0.000365239
-0.00377457
0.000524632
-0.00382525
0.000764239
-0.00354339
0.00114344
-0.00262498
-0.000475145
0.0017114
1.03796e-05
-0.00135383
2.27992e-05
-0.00179339
4.08682e-05
-0.00217554
6.63335e-05
-0.00254819
0.000101498
-0.0029226
0.000150706
-0.00328879
0.000219962
-0.00362064
0.000318116
-0.00387272
0.000459916
-0.00396704
0.000672787
-0.00375624
0.00100779
-0.00296
-0.00108434
0.00161701
8.38349e-06
-0.00136215
1.83663e-05
-0.0018033
3.34477e-05
-0.00219061
5.47502e-05
-0.00256946
8.46121e-05
-0.00295245
0.000126643
-0.0033308
0.000186132
-0.00368012
0.00027087
-0.00395745
0.0003936
-0.00408976
0.000578564
-0.0039412
0.000868918
-0.00325034
-0.00149888
0.00128347
6.44402e-06
-0.0013686
1.43037e-05
-0.00181113
2.66213e-05
-0.00220294
4.44245e-05
-0.00258723
6.96716e-05
-0.0029777
0.000105565
-0.00336668
0.000156921
-0.00373147
0.000230999
-0.00403151
0.000339777
-0.00419852
0.000505784
-0.00410719
0.000773822
-0.00351837
-0.00200668
0.00128165
4.61758e-06
-0.00137317
1.06496e-05
-0.00181709
2.05026e-05
-0.00221279
3.5056e-05
-0.00260175
5.59762e-05
-0.00299861
8.5982e-05
-0.00339666
0.000129069
-0.00377454
0.000191106
-0.00409354
0.000281466
-0.00428886
0.000417539
-0.00424324
0.000632117
-0.00373293
-0.0023353
0.000960749
3.34694e-06
-0.00137652
8.09728e-06
-0.00182179
1.62155e-05
-0.00222092
2.8529e-05
-0.00261402
4.64665e-05
-0.00301655
7.25657e-05
-0.00342274
0.00011049
-0.00381245
0.00016595
-0.00414897
0.000247846
-0.00437074
0.000372695
-0.00436807
0.000573516
-0.00393375
-0.00268831
0.00092654
2.31729e-06
-0.00137879
6.02822e-06
-0.00182543
1.26389e-05
-0.00222752
2.2892e-05
-0.00262423
3.81311e-05
-0.00303179
6.05745e-05
-0.00344515
9.34846e-05
-0.00384535
0.000141613
-0.00419708
0.00021244
-0.00444154
0.000319909
-0.00447552
0.000490663
-0.0041045
-0.00296469
0.000767061
1.59241e-06
-0.00138039
4.74974e-06
-0.00182854
1.0416e-05
-0.0022332
1.93915e-05
-0.00263317
3.28545e-05
-0.00304525
5.28938e-05
-0.00346516
8.24869e-05
-0.00387492
0.000126104
-0.00424068
0.000190691
-0.0045061
0.00028853
-0.00457335
0.000442925
-0.00425887
-0.00322429
0.000702519
1.32414e-06
-0.00138166
3.9973e-06
-0.00183115
8.97315e-06
-0.00223817
1.68659e-05
-0.00264102
2.89084e-05
-0.00305729
4.70089e-05
-0.00348323
7.39193e-05
-0.00390182
0.000113815
-0.00428055
0.000173258
-0.00456553
0.000263508
-0.00466358
0.000407068
-0.00440244
-0.00345919
0.000641952
1.19101e-06
-0.00138285
3.52244e-06
-0.00183343
7.81902e-06
-0.00224248
1.49906e-05
-0.00264816
2.59132e-05
-0.00306821
4.24302e-05
-0.00349973
6.70803e-05
-0.00392646
0.000103881
-0.00431734
0.000158704
-0.00462033
0.000242092
-0.00474696
0.000374114
-0.00453447
-0.00367875
0.000593646
9.08167e-07
-0.00138372
3.11869e-06
-0.00183558
7.06242e-06
-0.00224641
1.35029e-05
-0.00265455
2.34088e-05
-0.00307811
3.85456e-05
-0.00351484
6.12645e-05
-0.00394917
9.51301e-05
-0.00435119
0.000145785
-0.00467097
0.000222857
-0.00482404
0.00034471
-0.00465633
-0.00388033
0.000546268
7.56209e-07
-0.00138446
2.70283e-06
-0.00183747
6.28232e-06
-0.00224999
1.20293e-05
-0.00266027
2.10318e-05
-0.00308711
3.49677e-05
-0.00352875
5.60588e-05
-0.00397025
8.76142e-05
-0.00438273
0.00013458
-0.00471793
0.00020611
-0.00489556
0.000319242
-0.00476949
-0.00407034
0.000509248
1.01994e-06
-0.00138544
2.30636e-06
-0.0018387
5.29154e-06
-0.00225298
1.028e-05
-0.00266521
1.86083e-05
-0.00309543
3.09752e-05
-0.00354109
5.01375e-05
-0.0039894
7.91666e-05
-0.00441174
0.000122864
-0.00476161
0.000188619
-0.00496131
0.000292517
-0.00487339
-0.00424333
0.000465497
5.53232e-07
-0.00138598
1.58101e-06
-0.00183967
3.84507e-06
-0.00225524
8.34672e-06
-0.00266967
1.49385e-05
-0.00310203
2.61559e-05
-0.00355228
4.31864e-05
-0.00400642
6.94991e-05
-0.00443803
0.000109176
-0.00480126
0.000169286
-0.00502142
0.000263047
-0.00496716
-0.00440438
0.000424099
-7.60047e-08
-0.00138588
7.54454e-07
-0.00184044
2.50752e-06
-0.002257
5.57074e-06
-0.00267269
1.12089e-05
-0.00310767
2.059e-05
-0.00356163
3.55638e-05
-0.00402138
5.88206e-05
-0.00446127
9.40473e-05
-0.00483647
0.000146586
-0.00507394
0.000224992
-0.00504558
-0.00450832
0.000328951
-4.78609e-07
-0.00138537
-2.84777e-07
-0.00184056
7.13018e-07
-0.002258
3.09031e-06
-0.00267503
7.77092e-06
-0.00311235
1.54806e-05
-0.00356931
2.88568e-05
-0.00403475
5.01695e-05
-0.00448257
8.338e-05
-0.00486965
0.000134528
-0.00512509
0.000213375
-0.00512441
-0.00465319
0.000358236
-5.42786e-07
-0.00138482
-1.18764e-06
-0.00183986
-1.02759e-06
-0.00225817
4.02699e-07
-0.00267641
3.34716e-06
-0.0031153
9.32542e-06
-0.00357526
2.00533e-05
-0.00404547
3.80906e-05
-0.00450058
6.7485e-05
-0.00489903
0.000113691
-0.00517127
0.000186267
-0.005197
-0.00474291
0.000276029
-1.10402e-06
-0.00138367
-2.11933e-06
-0.00183877
-2.61592e-06
-0.00225768
-2.46622e-06
-0.00267652
-8.07527e-07
-0.00311696
3.7764e-06
-0.00357982
1.19812e-05
-0.00405367
2.69266e-05
-0.00451551
5.21848e-05
-0.00492426
9.40826e-05
-0.00521317
0.000164045
-0.00526694
-0.00488016
0.00030132
-1.63224e-06
-0.00138204
-2.96729e-06
-0.00183738
-4.43205e-06
-0.00225623
-5.07071e-06
-0.00267583
-4.55028e-06
-0.00311749
-1.8981e-06
-0.00358244
4.31653e-06
-0.00405988
1.57181e-05
-0.00452689
3.52408e-05
-0.00494376
6.78111e-05
-0.00524572
0.000121058
-0.00532017
-0.00495876
0.000199709
-1.66436e-06
-0.00138032
-3.71278e-06
-0.00183525
-5.50565e-06
-0.00225443
-6.77666e-06
-0.00267452
-6.86162e-06
-0.00311741
-5.43644e-06
-0.00358383
-6.89031e-07
-0.00406462
9.066e-06
-0.00453663
2.70627e-05
-0.00496174
5.71502e-05
-0.00527579
0.00010854
-0.00537153
-0.00505412
0.000203923
-1.91851e-06
-0.0013784
-4.1116e-06
-0.00183301
-6.4135e-06
-0.00225215
-8.22299e-06
-0.00267267
-9.49065e-06
-0.00311615
-8.87349e-06
-0.00358442
-5.80547e-06
-0.00406768
2.05638e-06
-0.00454447
1.70498e-05
-0.00497671
4.34956e-05
-0.00530221
8.99351e-05
-0.00541795
-0.00514348
0.000179304
-1.99251e-06
-0.00137635
-4.09785e-06
-0.00183083
-6.81651e-06
-0.00224941
-9.36665e-06
-0.00267007
-1.12274e-05
-0.00311428
-1.15155e-05
-0.00358411
-9.49062e-06
-0.00406969
-3.5611e-06
-0.00455038
8.39723e-06
-0.00498865
3.01506e-05
-0.00532395
6.59513e-05
-0.00545376
-0.00518125
0.000103746
-2.03468e-06
-0.00137429
-4.54452e-06
-0.00182827
-7.2323e-06
-0.00224671
-9.90656e-06
-0.00266736
-1.2016e-05
-0.00311216
-1.2802e-05
-0.00358329
-1.10697e-05
-0.00407141
-5.62625e-06
-0.0045558
5.94067e-06
-0.0050002
2.76428e-05
-0.00534566
6.72811e-05
-0.00549338
-0.00527925
0.000165288
-1.5841e-06
-0.00137264
-4.26354e-06
-0.00182552
-7.22805e-06
-0.00224373
-1.00749e-05
-0.00266448
-1.25115e-05
-0.00310971
-1.40372e-05
-0.00358174
-1.32611e-05
-0.00407217
-9.10331e-06
-0.00455995
6.97088e-07
-0.00500999
1.84308e-05
-0.00536338
4.93189e-05
-0.00552426
-0.0053134
8.34705e-05
-1.63071e-06
-0.001371
-4.04597e-06
-0.00182307
-6.95548e-06
-0.00224082
-1.02068e-05
-0.00266119
-1.30049e-05
-0.0031069
-1.43597e-05
-0.00358037
-1.3958e-05
-0.00407256
-9.70995e-06
-0.00456418
2.22774e-07
-0.00501991
1.94421e-05
-0.00538259
5.43349e-05
-0.00555915
-0.00538944
0.000130369
-1.51524e-06
-0.00136941
-3.68097e-06
-0.00182084
-7.11527e-06
-0.00223736
-1.05477e-05
-0.00265772
-1.36737e-05
-0.00310377
-1.57532e-05
-0.00357826
-1.5722e-05
-0.00407259
-1.26874e-05
-0.0045672
-4.90962e-06
-0.00502768
1.09334e-05
-0.00539843
3.95407e-05
-0.00558775
-0.00543624
8.63583e-05
-1.31844e-06
-0.00136808
-3.99858e-06
-0.00181813
-7.22104e-06
-0.00223414
-1.08322e-05
-0.00265408
-1.40104e-05
-0.00310059
-1.66034e-05
-0.00357565
-1.71283e-05
-0.00407205
-1.45886e-05
-0.00456973
-7.22875e-06
-0.00503503
6.90996e-06
-0.00541256
3.25608e-05
-0.00561341
-0.00548316
7.94867e-05
-1.18316e-06
-0.00136681
-3.60925e-06
-0.00181562
-7.12225e-06
-0.00223059
-1.09322e-05
-0.00265023
-1.48186e-05
-0.00309669
-1.74315e-05
-0.00357302
-1.85638e-05
-0.00407091
-1.65471e-05
-0.00457174
-9.89471e-06
-0.00504167
3.1969e-06
-0.00542566
2.68601e-05
-0.00563706
-0.00552348
6.71766e-05
-1.12885e-06
-0.00136568
-3.42309e-06
-0.0018133
-7.26977e-06
-0.00222675
-1.16666e-05
-0.00264581
-1.59143e-05
-0.00309244
-1.91387e-05
-0.00356977
-2.04696e-05
-0.00406957
-1.86045e-05
-0.00457359
-1.22198e-05
-0.00504805
8.20622e-07
-0.00543869
2.36447e-05
-0.00565991
-0.00556972
6.98738e-05
-1.13895e-06
-0.00136445
-3.69177e-06
-0.00181066
-7.80464e-06
-0.0022226
-1.25859e-05
-0.00264098
-1.73522e-05
-0.00308766
-2.12205e-05
-0.00356588
-2.29937e-05
-0.00406779
-2.17498e-05
-0.00457482
-1.59995e-05
-0.00505378
-3.55692e-06
-0.00545114
1.67959e-05
-0.00568026
-0.0055929
3.99644e-05
-8.74271e-07
-0.00136358
-4.13934e-06
-0.00180736
-8.74525e-06
-0.00221801
-1.4036e-05
-0.00263566
-1.96433e-05
-0.00308205
-2.4608e-05
-0.00356089
-2.74335e-05
-0.00406496
-2.68054e-05
-0.00457543
-2.06018e-05
-0.00505997
-6.69738e-06
-0.00546503
1.9593e-05
-0.00570654
-0.00564463
7.133e-05
-1.28697e-06
-0.00136218
-4.81333e-06
-0.00180373
-1.03633e-05
-0.00221242
-1.70624e-05
-0.00262891
-2.39341e-05
-0.00307517
-3.01145e-05
-0.00355469
-3.51165e-05
-0.00405995
-3.68281e-05
-0.00457371
-3.3671e-05
-0.00506312
-2.33244e-05
-0.00547535
-2.02689e-06
-0.00572783
-0.00568801
4.13744e-05
-1.63946e-06
-0.00136055
-5.66658e-06
-0.00179967
-1.2292e-05
-0.0022058
-2.02447e-05
-0.00262092
-2.87362e-05
-0.00306667
-3.68399e-05
-0.00354656
-4.36143e-05
-0.00405316
-4.78458e-05
-0.00456946
-4.85786e-05
-0.00506236
-4.3798e-05
-0.00548013
-3.28795e-05
-0.00573872
-0.00569292
-2.79707e-05
-2.00148e-06
-0.00135844
-7.00476e-06
-0.00179456
-1.45283e-05
-0.00219825
-2.36095e-05
-0.00261179
-3.32912e-05
-0.00305698
-4.32422e-05
-0.00353658
-5.16995e-05
-0.00404469
-5.81252e-05
-0.00456302
-6.05205e-05
-0.00505995
-5.69765e-05
-0.00548365
-4.45795e-05
-0.00575111
-0.00572804
-9.45665e-06
-2.47474e-06
-0.00135599
-8.40109e-06
-0.00178861
-1.70958e-05
-0.00218957
-2.74538e-05
-0.0026014
-3.92386e-05
-0.00304519
-5.09126e-05
-0.00352488
-6.16866e-05
-0.0040339
-7.0316e-05
-0.00455437
-7.5171e-05
-0.00505507
-7.47165e-05
-0.00548409
-6.47507e-05
-0.00576107
-0.00575644
-3.63248e-05
-3.1253e-06
-0.00135277
-9.7882e-06
-0.00178186
-1.9983e-05
-0.00217935
-3.24037e-05
-0.00258893
-4.57561e-05
-0.00303183
-5.93432e-05
-0.00351127
-7.26913e-05
-0.00402054
-8.38584e-05
-0.00454318
-9.17152e-05
-0.0050472
-9.49493e-05
-0.00548084
-9.24915e-05
-0.00576351
-0.00576336
-8.55537e-05
-4.01355e-06
-0.0013488
-1.20372e-05
-0.00177382
-2.36713e-05
-0.00216774
-3.75471e-05
-0.00257504
-5.33207e-05
-0.00301607
-6.95858e-05
-0.00349499
-8.50591e-05
-0.00400506
-9.88126e-05
-0.00452942
-0.000109147
-0.00503685
-0.000114102
-0.00547588
-0.000111556
-0.00576604
-0.00578068
-9.41914e-05
-4.64963e-06
-0.00134406
-1.36554e-05
-0.00176474
-2.73794e-05
-0.00215399
-4.43004e-05
-0.00255808
-6.26413e-05
-0.00299772
-8.22368e-05
-0.00347538
-0.000101446
-0.00398585
-0.000118948
-0.00451191
-0.000132895
-0.00502289
-0.000141831
-0.00546693
-0.000144059
-0.00576377
-0.00579396
-0.000130767
-5.92536e-06
-0.00133818
-1.80031e-05
-0.00175265
-3.38934e-05
-0.00213813
-5.28295e-05
-0.00253913
-7.39477e-05
-0.00297661
-9.70927e-05
-0.00345222
-0.000120629
-0.00396232
-0.000142784
-0.00448974
-0.000161835
-0.00500384
-0.000175517
-0.00545323
-0.000183772
-0.00575554
-0.005771
-0.000206742
-7.5227e-06
-0.00133058
-2.08808e-05
-0.00173923
-3.95794e-05
-0.00211941
-6.14185e-05
-0.00251726
-8.75611e-05
-0.00295047
-0.000114683
-0.00342509
-0.000142905
-0.00393409
-0.000170362
-0.00446229
-0.000194585
-0.00497961
-0.000212335
-0.00543548
-0.000217944
-0.00574994
-0.00580165
-0.000187283
-9.57784e-06
-0.00132106
-2.49215e-05
-0.0017239
-4.67383e-05
-0.00209762
-7.36489e-05
-0.00249035
-0.000103122
-0.002921
-0.000135666
-0.00339254
-0.000169604
-0.00390015
-0.000204598
-0.00442728
-0.000238863
-0.00494533
-0.000269777
-0.00540455
-0.000294532
-0.00572515
-0.00578392
-0.000312241
-1.08986e-05
-0.00131009
-3.05744e-05
-0.00170416
-5.55902e-05
-0.00207258
-8.53296e-05
-0.00246058
-0.000118852
-0.00288747
-0.000156389
-0.00335498
-0.000196709
-0.00385982
-0.000238439
-0.00438553
-0.000279923
-0.00490382
-0.000320316
-0.00536412
-0.000358317
-0.00568714
-0.00574525
-0.000396945
-1.35884e-05
-0.00129655
-3.54919e-05
-0.00168227
-6.41148e-05
-0.00204398
-9.78115e-05
-0.00242687
-0.000137618
-0.00284766
-0.000180496
-0.00331208
-0.000226756
-0.00381354
-0.000274309
-0.00433795
-0.000321761
-0.00485634
-0.000366414
-0.00531946
-0.000404827
-0.00564868
-0.00572435
-0.000425696
-1.59233e-05
-0.00128053
-4.10227e-05
-0.0016571
-7.41727e-05
-0.00201079
-0.000114128
-0.00238688
-0.000158849
-0.00280292
-0.000208404
-0.0032625
-0.000261647
-0.00376027
-0.000317256
-0.00428231
-0.000373214
-0.00480036
-0.000426645
-0.00526599
-0.000474369
-0.00560097
-0.00568311
-0.000515561
-1.92e-05
-0.00126137
-4.89225e-05
-0.00162738
-8.69186e-05
-0.0019728
-0.000131773
-0.00234201
-0.000182521
-0.00275216
-0.000239813
-0.00320519
-0.000302073
-0.00369799
-0.000367334
-0.00421704
-0.000433456
-0.00473422
-0.000496239
-0.00520322
-0.000550425
-0.00554673
-0.00564842
-0.000585161
-2.29389e-05
-0.00123832
-5.66783e-05
-0.00159358
-0.000100504
-0.00192894
-0.000152345
-0.00229014
-0.000212442
-0.00269205