/*--------------------------------*- C++ -*----------------------------------*\
| =========                 |                                                 |
| \\      /  F ield         | OpenFOAM: The Open Source CFD Toolbox           |
|  \\    /   O peration     | Version:  2.3.0                                 |
|   \\  /    A nd           | Web:      www.OpenFOAM.org                      |
|    \\/     M anipulation  |                                                 |
\*---------------------------------------------------------------------------*/
FoamFile
{
    version     2.0;
    format      ascii;
    class       volScalarField;
    location    "5000";
    object      p;
}
// * * * * * * * * * * * * * * * * * * * * * * * * * * * * * * * * * * * * * //

dimensions      [0 2 -2 0 0 0 0];

internalField   nonuniform List<scalar> 
38144
(
1.46213e-05
-1.26913
-2.84136
-4.47133
-6.14827
-7.87399
-9.6528
-11.4898
-13.3861
-15.3458
-17.3713
-19.465
-21.6348
-23.8776
-26.1969
-28.5925
-31.0639
-33.6154
-36.2369
-38.927
-41.6765
-44.4851
-47.3423
-50.2435
-53.1667
-56.122
-59.1077
-62.1065
-65.1337
-68.1865
-71.2793
-74.4162
-77.6152
-80.8092
-84.0112
-87.1015
-89.9461
-92.1731
-92.5603
-90.1956
-87.4162
-84.7927
-52.9614
3.37328
2.34545
1.07436
-0.234438
-1.57295
-2.9414
-4.34062
-5.77236
-7.23658
-8.73541
-10.2717
-11.8404
-13.4528
-15.1038
-16.8
-18.5406
-20.33
-22.1743
-24.0692
-26.0181
-28.0262
-30.0865
-32.1911
-34.3407
-36.4982
-38.6554
-40.776
-42.7949
-44.6557
-46.2703
-47.5339
-48.2779
-48.3397
-47.4547
-45.3691
-41.6986
-36.007
-27.7829
-16.3241
-1.02614
18.9618
45.6679
80.4608
6.56882
5.77075
4.78782
3.7833
2.76958
1.74688
0.714447
-0.326097
-1.37451
-2.42967
-3.49073
-4.55252
-5.61711
-6.67654
-7.73174
-8.77401
-9.79787
-10.7986
-11.7658
-12.6924
-13.5627
-14.3683
-15.0967
-15.7272
-16.2404
-16.6207
-16.8298
-16.8351
-16.6028
-16.0748
-15.1871
-13.8668
-12.0045
-9.4888
-6.19175
-1.92836
3.47235
10.2084
18.4725
28.4174
40.1825
53.9347
69.4335
9.41391
8.82053
8.06167
7.2894
6.51475
5.73982
4.96251
4.18615
3.41254
2.64272
1.88009
1.12482
0.377343
-0.354373
-1.07188
-1.77311
-2.44583
-3.09004
-3.69679
-4.25865
-4.7527
-5.18015
-5.50979
-5.72458
-5.80512
-5.71121
-5.40986
-4.85777
-4.01266
-2.80169
-1.15701
0.98712
3.74026
7.19119
11.4572
16.6485
22.8862
30.2573
38.8233
48.5894
59.4798
71.2931
83.5799
12.0035
11.5746
10.9966
10.4078
9.82178
9.24657
8.67031
8.10406
7.54954
7.00756
6.48308
5.9801
5.49751
5.04395
4.61921
4.22666
3.87789
3.57649
3.32824
3.14832
3.04535
3.03139
3.12789
3.35565
3.72554
4.27972
5.03491
6.02496
7.29644
8.89912
10.8819
13.2995
16.2281
19.7389
23.9075
28.8001
34.4963
41.0345
48.4186
56.6303
65.5746
75.0871
84.8701
14.336
14.0343
13.6055
13.1665
12.7238
12.3064
11.8781
11.4642
11.0688
10.6891
10.3287
9.99765
9.69852
9.42956
9.19507
8.99043
8.84131
8.73833
8.69492
8.72014
8.82519
9.02608
9.33791
9.79093
10.3909
11.1781
12.1746
13.4052
14.9106
16.7283
18.9121
21.506
24.5611
28.143
32.2951
37.0799
42.5385
48.6972
55.5026
62.9376
70.8898
79.2329
87.7502
16.419
16.2431
15.927
15.6016
15.2604
14.9895
14.6765
14.3768
14.1068
13.8535
13.6116
13.408
13.2439
13.1277
13.0481
12.9903
13.0036
13.0615
13.1884
13.3686
13.6358
13.9865
14.459
15.0667
15.8305
16.7807
17.9273
19.3103
20.9279
22.851
25.1143
27.7603
30.7933
34.31
38.2945
42.8316
47.9344
53.6923
59.9465
66.7604
73.9507
81.4357
89.0601
18.3553
18.2817
17.9946
17.718
17.4128
17.3132
17.1022
16.8865
16.7141
16.5677
16.3959
16.2706
16.1692
16.1503
16.185
16.2461
16.3943
16.5546
16.8252
17.147
17.5568
17.9623
18.5138
19.1924
20.035
21.1086
22.3774
23.8843
25.545
27.522
29.8253
32.5251
35.575
39.0826
42.9012
47.3157
52.3121
57.7645
63.5434
69.8872
76.5286
83.4457
90.4401
20.2458
20.216
19.9607
19.8518
19.4138
19.4782
19.275
19.0098
18.8599
18.8082
18.6866
18.5855
18.4894
18.5979
18.806
18.7841
19.0021
19.1339
19.4255
19.8411
20.4765
20.9003
21.4292
22.0484
22.8127
23.8266
25.1927
26.9115
28.5688
30.5651
32.8461
35.4944
38.5741
42.201
45.9691
50.4873
55.9522
62.3443
67.4996
73.2834
79.5392
86.2624
92.9887
55.333
99.0235
124.163
142.228
156.175
166.715
174.655
180.53
184.855
187.989
190.181
191.676
192.597
193.072
193.212
193.096
192.78
192.304
191.7
191
190.232
189.409
188.546
187.657
186.753
185.844
184.934
184.033
183.137
182.256
181.39
180.54
179.706
178.887
178.087
177.303
176.535
175.783
175.045
174.319
173.605
172.912
172.329
114.07
137.943
154.74
167.06
176.202
182.843
187.531
190.694
192.692
193.811
194.271
194.259
193.908
193.317
192.548
191.661
190.705
189.711
188.705
187.701
186.713
185.749
184.811
183.899
183.017
182.163
181.335
180.532
179.75
178.99
178.25
177.528
176.822
176.133
175.459
174.8
174.155
173.522
172.903
172.296
171.699
171.121
170.666
85.388
100.536
114.141
125.919
135.938
144.328
151.264
156.939
161.544
165.251
168.201
170.528
172.351
173.758
174.833
175.638
176.218
176.614
176.861
176.983
176.998
176.93
176.787
176.585
176.334
176.04
175.714
175.358
174.98
174.584
174.174
173.754
173.324
172.89
172.45
172.007
171.563
171.117
170.671
170.224
169.776
169.333
168.977
95.8049
107.374
117.963
127.383
135.607
142.645
148.606
153.581
157.7
161.077
163.83
166.053
167.834
169.236
170.334
171.173
171.806
172.262
172.576
172.774
172.875
172.897
172.857
172.762
172.626
172.451
172.25
172.021
171.774
171.51
171.233
170.945
170.647
170.342
170.029
169.71
169.387
169.06
168.73
168.396
168.06
167.729
167.471
94.6464
104.115
113.023
121.189
128.535
135.015
140.668
145.537
149.695
153.219
156.184
158.67
160.74
162.457
163.878
165.04
165.991
166.758
167.375
167.858
168.233
168.515
168.72
168.852
168.932
168.958
168.944
168.888
168.807
168.696
168.563
168.412
168.243
168.06
167.863
167.655
167.437
167.211
166.978
166.739
166.495
166.252
166.071
96.2199
104.454
112.278
119.519
126.123
132.039
137.276
141.855
145.823
149.249
152.185
154.681
156.796
158.58
160.081
161.342
162.393
163.262
163.988
164.575
165.06
165.445
165.754
165.991
166.17
166.293
166.37
166.406
166.414
166.398
166.353
166.292
166.209
166.112
165.995
165.867
165.726
165.577
165.42
165.254
165.082
164.913
164.814
96.6482
104.063
111.166
117.767
123.834
129.322
134.261
138.635
142.466
145.809
148.734
151.238
153.385
155.22
156.786
158.134
159.275
160.243
161.064
161.742
162.324
162.797
163.202
163.53
163.798
163.998
164.149
164.261
164.351
164.425
164.449
164.473
164.452
164.426
164.366
164.305
164.224
164.136
164.034
163.92
163.804
163.698
163.701
97.4663
104.345
110.884
117.009
122.716
127.823
132.544
136.741
140.444
143.631
146.508
148.902
150.98
152.809
154.396
155.769
156.937
157.938
158.787
159.5
160.134
160.663
161.144
161.537
161.854
162.098
162.298
162.483
162.67
162.817
162.865
162.971
162.968
163.006
162.969
162.967
162.918
162.868
162.793
162.708
162.627
162.555
162.697
99.719
106.15
112.02
117.566
122.977
128.284
132.861
136.514
139.979
143.245
146.12
148.061
149.936
151.724
153.225
154.47
155.515
156.402
157.175
157.851
158.51
159.049
159.579
159.999
160.314
160.537
160.719
160.936
161.22
161.351
161.274
161.525
161.461
161.634
161.568
161.642
161.586
161.622
161.637
161.609
161.548
161.459
161.718
72.2863
72.6508
72.9965
73.3578
73.7221
74.0879
74.4535
74.8175
75.1781
75.5339
75.8835
76.2253
76.558
76.8798
77.1894
77.4854
77.766
78.0298
78.2759
78.5029
78.7098
78.8953
79.0583
79.1982
79.3149
79.4075
79.4753
79.5191
79.5384
79.5342
79.5073
79.4586
79.3895
79.302
79.1987
79.0826
78.9575
78.8282
78.7011
78.586
78.4997
78.5146
78.8592
72.9868
73.2956
73.5375
73.7771
74.0077
74.2302
74.4436
74.6485
74.8448
75.0326
75.2128
75.386
75.5529
75.7141
75.8707
76.0235
76.1735
76.3215
76.4682
76.6146
76.7615
76.9094
77.0589
77.2107
77.3651
77.5225
77.6831
77.8472
78.0149
78.1863
78.3619
78.5415
78.7253
78.9135
79.1062
79.303
79.5033
79.7054
79.9082
80.1251
80.4124
80.8812
81.3648
73.7058
73.9339
74.1371
74.3402
74.5382
74.7331
74.9255
75.1157
75.304
75.491
75.6764
75.8609
76.0446
76.2271
76.4086
76.5889
76.7681
76.9459
77.1227
77.2981
77.4724
77.6461
77.8192
77.992
78.165
78.3382
78.5119
78.6868
78.8633
79.042
79.2235
79.4083
79.5967
79.7887
79.9839
80.1818
80.3814
80.5812
80.7824
81.0035
81.3121
81.8601
82.6357
74.3014
74.587
74.8022
75.0199
75.2356
75.4502
75.664
75.8766
76.088
76.298
76.5066
76.7139
76.9197
77.1235
77.3252
77.5249
77.7225
77.9175
78.11
78.2997
78.4864
78.6708
78.853
79.0333
79.2123
79.3901
79.5664
79.7418
79.9166
80.0914
80.2668
80.4432
80.6205
80.7988
80.9778
81.1567
81.3346
81.5119
81.6943
81.9085
82.2198
82.7288
83.5084
74.9364
75.1565
75.3694
75.5851
75.797
76.0069
76.2155
76.4222
76.6275
76.8311
77.0333
77.2344
77.4353
77.636
77.835
78.0325
78.2294
78.4259
78.6215
78.8155
79.0071
79.1969
79.3851
79.5726
79.7603
79.9486
80.1359
80.3211
80.5046
80.6875
80.8703
81.0531
81.2361
81.4191
81.6018
81.7843
81.9662
82.1495
82.345
82.5854
82.9394
83.4555
84.2388
75.3783
75.6455
75.8498
76.0559
76.2573
76.457
76.6565
76.855
77.0537
77.251
77.4477
77.6435
77.8411
78.0409
78.2404
78.4386
78.6376
78.8377
79.0388
79.2401
79.4381
79.6342
79.8274
80.0177
80.2073
80.4015
80.5981
80.7904
80.9784
81.1628
81.3448
81.5262
81.7062
81.8834
82.0592
82.2344
82.4095
82.5868
82.7814
83.0317
83.4116
83.9348
84.7533
75.8807
76.083
76.2757
76.4776
76.6711
76.8625
77.0569
77.251
77.4486
77.6446
77.8413
78.0341
78.2309
78.4345
78.6392
78.8366
79.0357
79.2391
79.4471
79.6595
79.8629
80.0662
80.2648
80.4604
80.6485
80.848
81.0583
81.256
81.4454
81.6284
81.8061
81.9821
82.1561
82.3206
82.4767
82.6277
82.7799
82.9329
83.1102
83.3672
83.8002
84.4211
85.3565
76.2479
76.4964
76.6745
76.8725
77.0519
77.2296
77.4166
77.5978
77.7872
77.9718
78.1638
78.3356
78.5111
78.7132
78.9324
79.1269
79.3166
79.5137
79.7095
79.947
80.1648
80.3773
80.5834
80.7666
80.9118
81.0926
81.3588
81.5941
81.7955
81.9761
82.1411
82.315
82.4963
82.6545
82.8054
82.9539
83.108
83.2327
83.3401
83.4928
83.822
84.3562
85.3951
76.4424
76.7246
76.9137
77.1771
77.374
77.5343
77.7542
77.9593
78.1941
78.3949
78.6453
78.8512
78.9921
79.1638
79.4341
79.6362
79.8489
80.0367
80.1529
80.4177
80.6426
80.9035
81.1597
81.546
81.6245
81.5646
81.8145
82.0963
82.3569
82.5622
82.6991
82.8281
83.0338
83.1782
83.2217
83.2336
83.352
83.4463
83.4912
83.6418
84.2416
85.7077
87.511
81.469
83.7274
86.0439
88.0327
89.8432
91.4838
92.9797
94.3527
95.6216
96.8036
97.9128
98.9595
99.9524
100.901
101.811
102.69
103.542
104.374
105.188
105.988
106.776
107.555
108.325
109.088
109.843
110.592
111.335
112.071
112.8
113.522
114.236
114.944
115.643
116.334
117.017
117.692
118.357
119.013
119.659
120.294
120.918
121.529
122.13
82.8259
83.9229
85.3574
86.7992
88.308
89.7997
91.2563
92.6633
94.0163
95.3132
96.5557
97.7462
98.8893
99.9875
101.046
102.066
103.051
104.004
104.926
105.819
106.686
107.526
108.343
109.137
109.909
110.662
111.395
112.111
112.809
113.492
114.161
114.815
115.458
116.088
116.707
117.316
117.915
118.505
119.086
119.659
120.224
120.78
121.337
84.1362
85.3292
86.6739
87.9668
89.3031
90.6303
91.9481
93.2416
94.5044
95.7311
96.9188
98.066
99.1734
100.241
101.271
102.263
103.221
104.145
105.038
105.9
106.735
107.543
108.327
109.088
109.827
110.546
111.246
111.928
112.594
113.244
113.88
114.501
115.11
115.706
116.291
116.865
117.427
117.981
118.524
119.059
119.586
120.102
120.596
84.8391
86.0478
87.3723
88.6593
89.9727
91.267
92.5438
93.7913
95.0056
96.1825
97.3197
98.417
99.4741
100.492
101.473
102.418
103.329
104.207
105.056
105.877
106.671
107.442
108.189
108.916
109.622
110.31
110.979
111.633
112.271
112.894
113.505
114.102
114.687
115.26
115.821
116.373
116.914
117.445
117.966
118.478
118.982
119.473
119.933
85.4678
86.6372
87.8905
89.138
90.4154
91.6798
92.9282
94.1473
95.3328
96.4805
97.5884
98.6563
99.6848
100.675
101.629
102.547
103.432
104.286
105.11
105.908
106.68
107.428
108.153
108.856
109.538
110.201
110.846
111.473
112.086
112.683
113.267
113.837
114.394
114.939
115.473
115.996
116.51
117.013
117.506
117.991
118.467
118.933
119.386
85.9935
87.1843
88.4204
89.6526
90.9017
92.1363
93.3538
94.5432
95.6996
96.8179
97.8976
98.938
99.9405
100.906
101.834
102.729
103.59
104.421
105.223
105.999
106.75
107.477
108.18
108.859
109.518
110.155
110.775
111.378
111.967
112.54
113.1
113.644
114.174
114.692
115.198
115.695
116.183
116.658
117.123
117.58
118.026
118.468
118.931
86.6142
87.7996
89.0063
90.2088
91.4247
92.6275
93.8116
94.9668
96.0877
97.1712
98.2156
99.2237
100.197
101.134
102.035
102.903
103.739
104.547
105.327
106.082
106.814
107.524
108.207
108.865
109.502
110.119
110.717
111.299
111.867
112.42
112.958
113.48
113.985
114.478
114.962
115.437
115.902
116.351
116.791
117.223
117.643
118.059
118.523
86.788
88.1017
89.3926
90.6366
91.843
93.028
94.1939
95.3245
96.4305
97.4893
98.5063
99.496
100.45
101.371
102.251
103.098
103.913
104.703
105.468
106.211
106.933
107.631
108.289
108.922
109.531
110.118
110.688
111.248
111.802
112.34
112.86
113.358
113.835
114.301
114.762
115.22
115.67
116.088
116.501
116.909
117.302
117.695
118.144
88.2268
89.2191
90.2603
91.2697
92.38
93.5336
94.6497
95.7438
96.7919
97.7938
98.7474
99.7098
100.621
101.516
102.35
103.162
103.953
104.725
105.471
106.199
106.912
107.591
108.207
108.818
109.411
110.002
110.585
111.164
111.737
112.243
112.744
113.211
113.648
114.103
114.574
115.037
115.484
115.831
116.219
116.633
117.031
117.436
117.874
-600.444
-547.205
-486.508
-440.205
-397.631
-355.93
-317.389
-282.98
-252.521
-225.673
-202.124
-181.508
-163.498
-147.743
-133.953
-121.828
-111.133
-101.642
-93.1689
-85.5644
-78.6984
-72.4495
-66.7249
-61.4579
-56.5792
-52.0413
-47.7951
-43.8112
-40.0606
-36.5209
-33.1711
-29.9924
-26.9725
-24.0998
-21.3612
-18.7492
-16.2516
-13.863
-11.5764
-9.38387
-7.28197
-5.26764
-3.65814
-363.954
-360.378
-349.903
-336.401
-320.423
-302.561
-283.859
-264.922
-246.127
-227.795
-210.198
-193.535
-177.961
-163.504
-150.182
-137.961
-126.777
-116.567
-107.242
-98.7161
-90.9238
-83.775
-77.2035
-71.1475
-65.5446
-60.3534
-55.5175
-51.0054
-46.782
-42.817
-39.0854
-35.565
-32.2368
-29.0833
-26.0892
-23.2449
-20.5339
-17.9497
-15.4804
-13.1176
-10.8537
-8.67791
-6.87629
-288.385
-288.204
-285.989
-280.129
-272.108
-262.735
-252.321
-241.094
-229.286
-217.133
-204.847
-192.59
-180.524
-168.784
-157.483
-146.7
-136.471
-126.824
-117.757
-109.255
-101.307
-93.8733
-86.9372
-80.4563
-74.3995
-68.7394
-63.4394
-58.4713
-53.8113
-49.4299
-45.3036
-41.4157
-37.7427
-34.2694
-30.9786
-27.8578
-24.891
-22.0706
-19.3819
-16.815
-14.3631
-12.0134
-10.0571
-239.063
-239.61
-239.924
-238.747
-235.845
-231.512
-225.989
-219.458
-212.067
-203.995
-195.406
-186.465
-177.304
-168.038
-158.791
-149.661
-140.747
-132.109
-123.789
-115.821
-108.217
-100.98
-94.1156
-87.6099
-81.4553
-75.6362
-70.1398
-64.9428
-60.0343
-55.3939
-51.0038
-46.8503
-42.9142
-39.1846
-35.6458
-32.2845
-29.089
-26.0476
-23.1513
-20.3859
-17.7461
-15.2185
-13.1147
-208.557
-208.981
-209.423
-209.148
-207.817
-205.438
-202.141
-198.035
-193.208
-187.75
-181.759
-175.328
-168.552
-161.512
-154.287
-146.949
-139.582
-132.26
-125.048
-117.992
-111.121
-104.467
-98.0488
-91.8696
-85.9454
-80.2705
-74.8505
-69.6738
-64.7385
-60.0352
-55.5571
-51.2912
-47.229
-43.3612
-39.6766
-36.1657
-32.8185
-29.6247
-26.5771
-23.6632
-20.8752
-18.2008
-15.9834
-184.648
-185.009
-185.44
-185.498
-184.96
-183.726
-181.795
-179.215
-176.034
-172.306
-168.094
-163.447
-158.432
-153.104
-147.522
-141.73
-135.776
-129.727
-123.637
-117.564
-111.543
-105.611
-99.7947
-94.1147
-88.5906
-83.2302
-78.0481
-73.0476
-68.2309
-63.5979
-59.1517
-54.8848
-50.7959
-46.8793
-43.1297
-39.5396
-36.1039
-32.8149
-29.6655
-26.6472
-23.7527
-20.9764
-18.7119
-166
-166.327
-166.733
-166.914
-166.739
-166.112
-164.984
-163.354
-161.236
-158.66
-155.659
-152.265
-148.517
-144.456
-140.122
-135.547
-130.762
-125.81
-120.727
-115.57
-110.374
-105.178
-100.004
-94.8859
-89.8397
-84.8861
-80.038
-75.3088
-70.7098
-66.2427
-61.9186
-57.7359
-53.6984
-49.8053
-46.0561
-42.4463
-38.976
-35.6392
-32.433
-29.3506
-26.388
-23.5372
-21.1995
-151.126
-151.421
-151.789
-152.012
-152.002
-151.688
-151.015
-149.96
-148.52
-146.706
-144.533
-142.019
-139.189
-136.065
-132.677
-129.046
-125.198
-121.155
-116.94
-112.595
-108.152
-103.646
-99.1026
-94.5495
-90.0068
-85.495
-81.0335
-76.6324
-72.3109
-68.0763
-63.9381
-59.9057
-55.9818
-52.1718
-48.4773
-44.902
-41.4432
-38.1024
-34.8785
-31.7669
-28.7664
-25.8603
-23.3848
-138.973
-139.236
-139.562
-139.791
-139.863
-139.725
-139.326
-138.633
-137.638
-136.339
-134.74
-132.852
-130.686
-128.258
-125.584
-122.68
-119.565
-116.254
-112.759
-109.107
-105.322
-101.435
-97.4706
-93.451
-89.3983
-85.3286
-81.263
-77.2164
-73.2018
-69.235
-65.3241
-61.4823
-57.7156
-54.0325
-50.4373
-46.9357
-43.5293
-40.2218
-37.0141
-33.9051
-30.8964
-27.9743
-25.4103
-128.914
-129.144
-129.432
-129.654
-129.767
-129.728
-129.495
-129.036
-128.337
-127.392
-126.197
-124.756
-123.076
-121.164
-119.031
-116.686
-114.143
-111.412
-108.501
-105.426
-102.201
-98.8514
-95.3985
-91.8632
-88.262
-84.6132
-80.9323
-77.2365
-73.5379
-69.8513
-66.1894
-62.5625
-58.9808
-55.4531
-51.9886
-48.5905
-45.2676
-42.0217
-38.858
-35.7759
-32.7777
-29.8513
-27.2317
-120.505
-120.698
-120.949
-121.155
-121.282
-121.299
-121.17
-120.863
-120.363
-119.66
-118.751
-117.636
-116.314
-114.79
-113.067
-111.154
-109.058
-106.786
-104.345
-101.743
-98.9871
-96.0966
-93.0881
-89.9804
-86.7858
-83.522
-80.2021
-76.8404
-73.4506
-70.0445
-66.636
-63.2347
-59.8532
-56.4988
-53.1833
-49.912
-46.6938
-43.5321
-40.4343
-37.3988
-34.4296
-31.5188
-28.9211
-113.387
-113.544
-113.763
-113.951
-114.08
-114.127
-114.061
-113.855
-113.494
-112.964
-112.262
-111.384
-110.328
-109.095
-107.687
-106.108
-104.363
-102.456
-100.392
-98.1752
-95.8093
-93.3062
-90.6784
-87.9422
-85.1075
-82.1895
-79.1982
-76.1483
-73.049
-69.9137
-66.7535
-63.5787
-60.401
-57.2301
-54.0747
-50.9439
-47.8459
-44.7864
-41.7751
-38.8112
-35.9019
-33.0534
-30.7435
-107.303
-107.432
-107.624
-107.794
-107.919
-107.98
-107.953
-107.814
-107.548
-107.142
-106.589
-105.887
-105.032
-104.022
-102.858
-101.54
-100.072
-98.4556
-96.695
-94.792
-92.7484
-90.5698
-88.2658
-85.849
-83.3288
-80.7158
-78.0203
-75.2531
-72.4232
-69.5412
-66.619
-63.6636
-60.6883
-57.7008
-54.7106
-51.7276
-48.7593
-45.8124
-42.898
-40.0159
-37.175
-34.3669
-32.0484
-102.067
-102.176
-102.342
-102.495
-102.613
-102.681
-102.677
-102.583
-102.382
-102.065
-101.625
-101.055
-100.35
-99.5109
-98.5358
-97.4232
-96.1743
-94.7903
-93.2744
-91.6264
-89.8481
-87.9411
-85.9113
-83.7682
-81.5197
-79.175
-76.741
-74.2281
-71.6438
-68.9958
-66.2959
-63.5497
-60.7686
-57.9613
-55.1359
-52.3015
-49.4664
-46.6387
-43.826
-41.0318
-38.2641
-35.5045
-33.0702
-97.5327
-97.6255
-97.7704
-97.9055
-98.014
-98.0813
-98.0903
-98.0257
-97.8724
-97.6201
-97.2609
-96.7893
-96.2022
-95.4959
-94.6683
-93.7181
-92.6448
-91.4489
-90.1315
-88.693
-87.1332
-85.4526
-83.6546
-81.7445
-79.7307
-77.6188
-75.4161
-73.1296
-70.7654
-68.3314
-65.836
-63.285
-60.6884
-58.0536
-55.3887
-52.7019
-50.0009
-47.2952
-44.5908
-41.8951
-39.2181
-36.5506
-34.1914
-93.5877
-93.667
-93.7925
-93.9119
-94.0089
-94.0717
-94.0869
-94.0403
-93.9196
-93.7149
-93.4178
-93.0226
-92.5253
-91.9221
-91.2108
-90.3896
-89.4573
-88.4139
-87.258
-85.9911
-84.6115
-83.1201
-81.5173
-79.8067
-77.9941
-76.0849
-74.0839
-71.9979
-69.831
-67.5896
-65.2813
-62.9104
-60.4864
-58.0146
-55.5027
-52.9593
-50.3904
-47.8051
-45.2099
-42.6118
-40.0196
-37.4198
-35.0099
-90.1367
-90.2041
-90.3119
-90.4163
-90.5027
-90.5604
-90.5781
-90.5433
-90.445
-90.2738
-90.0216
-89.6835
-89.2559
-88.7345
-88.1158
-87.3982
-86.5797
-85.6598
-84.637
-83.5118
-82.2827
-80.9495
-79.512
-77.9709
-76.3314
-74.5975
-72.7734
-70.8631
-68.8723
-66.8039
-64.6646
-62.4594
-60.1936
-57.8746
-55.5081
-53.1006
-50.6589
-48.1907
-45.7016
-43.1961
-40.6814
-38.144
-35.6781
-87.1047
-87.1608
-87.2531
-87.3437
-87.4186
-87.4692
-87.4857
-87.4572
-87.3741
-87.2281
-87.0117
-86.7188
-86.3455
-85.8884
-85.3438
-84.7096
-83.9841
-83.1657
-82.2526
-81.2447
-80.1411
-78.9403
-77.6422
-76.2459
-74.7554
-73.173
-71.5028
-69.7479
-67.9122
-65.9985
-64.012
-61.9571
-59.8373
-57.6597
-55.4286
-53.1505
-50.8313
-48.4776
-46.0959
-43.6922
-41.2734
-38.8463
-36.6468
-84.426
-84.4731
-84.5524
-84.6308
-84.6959
-84.7399
-84.7542
-84.7292
-84.6566
-84.5281
-84.3374
-84.0796
-83.7495
-83.3433
-82.8581
-82.2917
-81.6417
-80.9064
-80.0843
-79.1745
-78.1758
-77.0867
-75.9067
-74.6345
-73.272
-71.8214
-70.2855
-68.6669
-66.9682
-65.1927
-63.3431
-61.4238
-59.4377
-57.3901
-55.285
-53.1284
-50.9244
-48.6798
-46.3992
-44.0882
-41.7503
-39.3785
-37.1635
-82.0554
-82.0938
-82.161
-82.2282
-82.2834
-82.3199
-82.3303
-82.3067
-82.2405
-82.1248
-81.9538
-81.7224
-81.4266
-81.0621
-80.6252
-80.1145
-79.5272
-78.8611
-78.1149
-77.287
-76.3766
-75.3821
-74.3026
-73.1363
-71.8842
-70.5476
-69.129
-67.6301
-66.0528
-64.4002
-62.6731
-60.8763
-59.0116
-57.0832
-55.0946
-53.0508
-50.9561
-48.8153
-46.6348
-44.4197
-42.1772
-39.9099
-37.9715
-79.96
-79.9885
-80.0436
-80.0992
-80.1447
-80.1733
-80.1785
-80.1532
-80.0907
-79.9844
-79.8284
-79.6175
-79.3479
-79.016
-78.6188
-78.1535
-77.6174
-77.0087
-76.326
-75.5678
-74.732
-73.8176
-72.8231
-71.7482
-70.5915
-69.3542
-68.0376
-66.6438
-65.1738
-63.6299
-62.0132
-60.3264
-58.5717
-56.7523
-54.8709
-52.9313
-50.9382
-48.8946
-46.806
-44.6754
-42.5079
-40.2884
-38.283
-78.0832
-78.1049
-78.1513
-78.1981
-78.2349
-78.2563
-78.2565
-78.2299
-78.1698
-78.0698
-77.9247
-77.7303
-77.4827
-77.1779
-76.8125
-76.3841
-75.8909
-75.3305
-74.7008
-74.0007
-73.2286
-72.3833
-71.4626
-70.4658
-69.3913
-68.2404
-67.0135
-65.7121
-64.337
-62.8897
-61.3715
-59.7838
-58.1286
-56.4081
-54.6255
-52.7823
-50.8833
-48.931
-46.9299
-44.8817
-42.7915
-40.6457
-38.7654
-76.4087
-76.424
-76.4615
-76.4994
-76.5283
-76.5431
-76.5384
-76.509
-76.4491
-76.3534
-76.2171
-76.0354
-75.8046
-75.5214
-75.1829
-74.7863
-74.3292
-73.8095
-73.2252
-72.5747
-71.8566
-71.0695
-70.2121
-69.2829
-68.2805
-67.2047
-66.0566
-64.8364
-63.5453
-62.184
-60.7536
-59.2551
-57.6902
-56.0597
-54.3668
-52.6134
-50.802
-48.9354
-47.0178
-45.0485
-43.0331
-40.9569
-39.2105
-74.9157
-74.9242
-74.9534
-74.9832
-75.004
-75.0116
-75.0018
-74.9693
-74.9089
-74.8156
-74.6854
-74.5137
-74.2965
-74.0308
-73.7137
-73.3428
-72.9157
-72.4302
-71.8842
-71.2762
-70.605
-69.8684
-69.0652
-68.1943
-67.2542
-66.2444
-65.1654
-64.0167
-62.8003
-61.5157
-60.1639
-58.7452
-57.2617
-55.7136
-54.1026
-52.4316
-50.7018
-48.916
-47.0774
-45.1851
-43.2463
-41.2477
-39.6622
-73.5718
-73.5756
-73.5981
-73.6203
-73.6345
-73.6364
-73.6217
-73.5858
-73.5245
-73.4332
-73.3072
-73.1428
-72.9364
-72.6855
-72.387
-72.0377
-71.6357
-71.1792
-70.666
-70.0941
-69.4626
-68.7697
-68.0141
-67.1943
-66.3086
-65.3564
-64.3381
-63.2528
-62.1024
-60.8858
-59.6044
-58.258
-56.8475
-55.3742
-53.8387
-52.2428
-50.5891
-48.8792
-47.1175
-45.3058
-43.4527
-41.549
-40.1475
-72.3715
-72.3694
-72.3853
-72.4008
-72.4081
-72.4035
-72.3834
-72.3439
-72.2807
-72.1893
-72.0664
-71.908
-71.7107
-71.4715
-71.1875
-70.8565
-70.4763
-70.0442
-69.559
-69.0186
-68.4215
-67.7665
-67.0515
-66.2759
-65.4379
-64.5365
-63.5717
-62.5428
-61.451
-60.2953
-59.0766
-57.7952
-56.4508
-55.045
-53.5779
-52.0512
-50.4663
-48.8249
-47.1307
-45.3836
-43.5891
-41.7146
-40.1358
-71.2899
-71.2834
-71.2937
-71.3029
-71.3041
-71.294
-71.2692
-71.2264
-71.1613
-71.0701
-70.9491
-70.7949
-70.6043
-70.3746
-70.1029
-69.787
-69.4247
-69.0138
-68.5525
-68.0392
-67.472
-66.8497
-66.1705
-65.4339
-64.6379
-63.7812
-62.8636
-61.8848
-60.8449
-59.7435
-58.5812
-57.3581
-56.0734
-54.7288
-53.3239
-51.8598
-50.3382
-48.7595
-47.1265
-45.4386
-43.7003
-41.8835
-40.2635
-70.3214
-70.3098
-70.3143
-70.3172
-70.3122
-70.2966
-70.267
-70.2199
-70.1519
-70.0598
-69.9401
-69.7893
-69.6044
-69.3826
-69.1215
-68.8187
-68.4721
-68.0792
-67.6385
-67.1482
-66.6069
-66.0136
-65.366
-64.6632
-63.9037
-63.0863
-62.2106
-61.2761
-60.2827
-59.2301
-58.1183
-56.9475
-55.7168
-54.4275
-53.0793
-51.6725
-50.209
-48.6891
-47.115
-45.4868
-43.8098
-42.0678
-40.4963
-69.4449
-69.4302
-69.4304
-69.4285
-69.4185
-69.3979
-69.3639
-69.3138
-69.2438
-69.1506
-69.031
-68.8822
-68.7016
-68.4862
-68.2335
-67.9413
-67.6076
-67.2303
-66.8077
-66.3379
-65.8191
-65.2503
-64.6299
-63.9572
-63.2304
-62.4481
-61.6097
-60.7146
-59.7626
-58.7536
-57.6871
-56.5634
-55.3817
-54.1425
-52.8458
-51.4916
-50.0816
-48.6159
-47.0964
-45.5247
-43.906
-42.2282
-40.7057
-68.6654
-68.6452
-68.6395
-68.6314
-68.6155
-68.5896
-68.5511
-68.4969
-68.4238
-68.329
-68.2097
-68.0627
-67.8851
-67.6748
-67.4294
-67.1462
-66.8235
-66.4595
-66.0521
-65.5999
-65.1014
-64.555
-63.9591
-63.3127
-62.6143
-61.8628
-61.0574
-60.1976
-59.2826
-58.3126
-57.2871
-56.2057
-55.0682
-53.8745
-52.6245
-51.3182
-49.9565
-48.5397
-47.069
-45.5448
-43.9703
-42.3329
-40.8128
-67.95
-67.9283
-67.9203
-67.9087
-67.8892
-67.8595
-67.817
-67.7592
-67.6835
-67.5873
-67.4676
-67.3218
-67.1473
-66.9412
-66.7016
-66.4266
-66.1137
-65.761
-65.3671
-64.9302
-64.4484
-63.921
-63.3466
-62.7235
-62.0507
-61.3269
-60.551
-59.7227
-58.841
-57.9061
-56.9173
-55.8741
-54.7766
-53.624
-52.4164
-51.1537
-49.8363
-48.4643
-47.0387
-45.5598
-44.0303
-42.4405
-40.9783
-67.3184
-67.2921
-67.2793
-67.2626
-67.2378
-67.2034
-67.157
-67.096
-67.0176
-66.9195
-66.799
-66.6534
-66.4805
-66.2777
-66.0429
-65.7738
-65.4689
-65.1265
-64.7444
-64.321
-63.8549
-63.3446
-62.7888
-62.1863
-61.5361
-60.8367
-60.0872
-59.287
-58.4353
-57.5318
-56.5762
-55.5678
-54.5062
-53.3913
-52.2223
-50.9995
-49.7225
-48.3915
-47.007
-45.5691
-44.0788
-42.524
-41.0668
-66.7479
-66.7184
-66.7016
-66.6806
-66.6515
-66.6126
-66.562
-66.4974
-66.4161
-66.3158
-66.194
-66.0486
-65.877
-65.6769
-65.4464
-65.1833
-64.8856
-64.5514
-64.1792
-63.7675
-63.3147
-62.8195
-62.2807
-61.6969
-61.0668
-60.3893
-59.6635
-58.8885
-58.0638
-57.1887
-56.2629
-55.2861
-54.2572
-53.1764
-52.0427
-50.8562
-49.6163
-48.323
-46.9767
-45.5763
-44.1229
-42.6032
-41.1582
-66.234
-66.2015
-66.1815
-66.1567
-66.1236
-66.0808
-66.0264
-65.9584
-65.8744
-65.7723
-65.6495
-65.5038
-65.333
-65.1348
-64.9075
-64.6488
-64.357
-64.0305
-63.6674
-63.2661
-62.8251
-62.3433
-61.8192
-61.2517
-60.6394
-59.9815
-59.2771
-58.5246
-57.7242
-56.8747
-55.9762
-55.0278
-54.0288
-52.979
-51.8777
-50.7246
-49.5189
-48.261
-46.9503
-45.5863
-44.1699
-42.6901
-41.2762
-65.7659
-65.7316
-65.7094
-65.6815
-65.6453
-65.5995
-65.5421
-65.4712
-65.3847
-65.2807
-65.1567
-65.0109
-64.8409
-64.6445
-64.4197
-64.1651
-63.8785
-63.5581
-63.2027
-62.8106
-62.3803
-61.9103
-61.3996
-60.8469
-60.2509
-59.6106
-58.9251
-58.1932
-57.4147
-56.5885
-55.7146
-54.792
-53.8204
-52.799
-51.7273
-50.605
-49.431
-48.2058
-46.929
-45.599
-44.2181
-42.7757
-41.3955
-65.3563
-65.3183
-65.292
-65.26
-65.2195
-65.1695
-65.1085
-65.0347
-64.9456
-64.8393
-64.7138
-64.5672
-64.3972
-64.2021
-63.9801
-63.7289
-63.4469
-63.1324
-62.7838
-62.3996
-61.9784
-61.5188
-61.0197
-60.48
-59.8983
-59.2738
-58.6055
-57.8922
-57.1335
-56.3285
-55.4769
-54.5778
-53.6311
-52.6357
-51.5911
-50.4972
-49.3528
-48.1578
-46.9124
-45.6148
-44.267
-42.8589
-41.5174
-64.9802
-64.9408
-64.9127
-64.8782
-64.8351
-64.7825
-64.7187
-64.6417
-64.5501
-64.4421
-64.3153
-64.168
-63.998
-63.8036
-63.5828
-63.334
-63.0556
-62.7459
-62.4035
-62.0264
-61.6136
-61.1636
-60.6753
-60.1474
-59.5789
-58.9687
-58.3159
-57.6194
-56.8784
-56.0927
-55.2615
-54.3839
-53.46
-52.4883
-51.4689
-50.4007
-49.2837
-48.1169
-46.9004
-45.6331
-44.3154
-42.939
-41.6503
-64.6457
-64.6047
-64.5746
-64.5373
-64.4912
-64.4353
-64.3684
-64.2889
-64.1948
-64.0846
-63.9564
-63.8082
-63.6382
-63.4447
-63.2257
-62.9796
-62.7046
-62.3991
-62.0617
-61.6908
-61.2852
-60.8435
-60.3646
-59.8473
-59.2903
-58.6929
-58.0541
-57.3728
-56.6482
-55.8801
-55.0672
-54.2094
-53.306
-52.3563
-51.3598
-50.3157
-49.2237
-48.0833
-46.8945
-45.6565
-44.3707
-43.0288
-41.8123
-64.3559
-64.3111
-64.2771
-64.236
-64.1863
-64.1271
-64.0571
-63.9747
-63.8782
-63.7659
-63.6358
-63.4865
-63.316
-63.1224
-62.9042
-62.6599
-62.3876
-62.0858
-61.753
-61.3878
-60.9888
-60.5547
-60.0843
-59.5764
-59.0301
-58.4444
-57.8181
-57.1505
-56.4408
-55.6885
-54.8925
-54.0527
-53.1683
-52.2386
-51.2631
-50.2411
-49.1721
-48.0556
-46.8916
-45.6788
-44.4176
-43.0966
-41.9022
-64.092
-64.0458
-64.0103
-63.967
-63.9146
-63.8526
-63.7797
-63.6944
-63.5952
-63.4806
-63.349
-63.1986
-63.0275
-62.8343
-62.617
-62.374
-62.1039
-61.8052
-61.4763
-61.1158
-60.7225
-60.295
-59.8324
-59.3331
-58.7963
-58.2209
-57.6063
-56.9512
-56.255
-55.5169
-54.7365
-53.913
-53.0459
-52.1345
-51.1782
-50.1765
-49.1286
-48.0343
-46.8933
-45.7051
-44.471
-43.1797
-42.0262
-63.8564
-63.8085
-63.7709
-63.7251
-63.6703
-63.6056
-63.5302
-63.4426
-63.3416
-63.2253
-63.0921
-62.9406
-62.7688
-62.5755
-62.3587
-62.1172
-61.8491
-61.5532
-61.2279
-60.8719
-60.4836
-60.0621
-59.606
-59.1144
-58.5864
-58.0207
-57.4165
-56.7726
-56.0888
-55.3639
-54.5976
-53.789
-52.9379
-52.0433
-51.1047
-50.1213
-49.0928
-48.0184
-46.898
-45.7308
-44.5178
-43.2444
-42.0716
-63.6514
-63.6015
-63.5619
-63.5136
-63.456
-63.3889
-63.311
-63.2209
-63.1173
-62.9988
-62.8639
-62.711
-62.5385
-62.3449
-62.1286
-61.888
-61.6215
-61.3279
-61.0056
-60.6535
-60.27
-59.854
-59.4042
-58.9196
-58.3991
-57.842
-57.2472
-56.6138
-55.9411
-55.2283
-54.4748
-53.68
-52.8434
-51.9641
-51.0417
-50.0753
-49.0644
-48.0081
-46.9063
-45.7575
-44.5617
-43.305
-42.1213
-63.4702
-63.4188
-63.3772
-63.3265
-63.2666
-63.1968
-63.1163
-63.0239
-62.9184
-62.7982
-62.6616
-62.5075
-62.3342
-62.1403
-61.9241
-61.6844
-61.4193
-61.1277
-60.808
-60.459
-60.0795
-59.6682
-59.224
-58.7459
-58.2325
-57.6833
-57.0971
-56.4731
-55.8106
-55.1088
-54.3672
-53.5849
-52.7616
-51.8964
-50.9888
-50.0381
-49.0434
-48.0043
-46.9198
-45.7894
-44.6121
-43.3772
-42.1985
-63.3135
-63.2599
-63.2163
-63.1634
-63.101
-63.0287
-62.9458
-62.8511
-62.7431
-62.6207
-62.4825
-62.3271
-62.1528
-61.9584
-61.7423
-61.5029
-61.2391
-60.9493
-60.6321
-60.2861
-59.9103
-59.5033
-59.0641
-58.5916
-58.0847
-57.5426
-56.9642
-56.349
-55.6959
-55.0042
-54.2734
-53.5027
-52.6918
-51.8396
-50.9458
-50.0094
-49.0301
-48.0067
-46.9389