/*--------------------------------*- C++ -*----------------------------------*\
| =========                 |                                                 |
| \\      /  F ield         | OpenFOAM: The Open Source CFD Toolbox           |
|  \\    /   O peration     | Version:  2.3.0                                 |
|   \\  /    A nd           | Web:      www.OpenFOAM.org                      |
|    \\/     M anipulation  |                                                 |
\*---------------------------------------------------------------------------*/
FoamFile
{
    version     2.0;
    format      ascii;
    class       volVectorField;
    location    "5000";
    object      U;
}
// * * * * * * * * * * * * * * * * * * * * * * * * * * * * * * * * * * * * * //

dimensions      [0 1 -1 0 0 0 0];

internalField   nonuniform List<vector> 
38144
(
(23.3584 6.36942 -3.49149e-21)
(23.3786 6.51272 1.01263e-21)
(23.4 6.65134 -2.62596e-22)
(23.4212 6.79382 -2.15247e-21)
(23.4425 6.93965 -6.72989e-21)
(23.4637 7.08908 -9.97938e-21)
(23.4849 7.24237 2.21664e-20)
(23.5059 7.39977 -1.39992e-20)
(23.5267 7.56162 -1.59131e-20)
(23.5471 7.72821 5.37392e-21)
(23.5671 7.89996 -6.12062e-21)
(23.5866 8.07725 8.43756e-20)
(23.6054 8.26058 -7.29072e-20)
(23.6234 8.45056 0)
(23.6404 8.64782 -9.66291e-20)
(23.6564 8.85309 -8.58248e-21)
(23.6712 9.0672 9.42975e-20)
(23.6845 9.29117 1.05125e-19)
(23.6962 9.52616 -1.13078e-20)
(23.7058 9.77351 -1.36025e-19)
(23.7129 10.0348 0)
(23.7174 10.3118 1.70838e-19)
(23.7187 10.6066 -1.73898e-19)
(23.7162 10.9216 1.01308e-20)
(23.7093 11.2594 0)
(23.6972 11.6229 2.21759e-19)
(23.6788 12.0151 -4.92993e-19)
(23.6525 12.4396 2.35634e-19)
(23.616 12.8994 -2.8202e-19)
(23.5659 13.3983 3.06336e-19)
(23.4975 13.9391 -1.91239e-19)
(23.4036 14.5241 1.71007e-19)
(23.2735 15.1548 -2.27806e-20)
(23.0921 15.8309 -2.60585e-20)
(22.8373 16.5478 1.50085e-19)
(22.4783 17.2987 -3.01848e-19)
(21.9711 18.07 6.61161e-20)
(21.2555 18.8391 7.77237e-20)
(20.2501 19.5647 8.19343e-21)
(18.8534 20.1823 -9.9291e-21)
(16.9417 20.6648 -3.45203e-20)
(14.356 20.9994 -4.68624e-21)
(10.9988 20.6661 5.2325e-21)
(23.2129 6.39715 4.23814e-21)
(23.2219 6.52679 0)
(23.2322 6.65441 -7.57259e-22)
(23.242 6.78533 3.26608e-22)
(23.2512 6.91913 0)
(23.2596 7.05602 3.50361e-21)
(23.2672 7.19619 -6.58111e-21)
(23.2738 7.33991 9.48634e-21)
(23.2793 7.48738 -1.91502e-21)
(23.2836 7.63886 -2.28275e-20)
(23.2864 7.79464 -1.66892e-20)
(23.2876 7.95496 4.33689e-20)
(23.2869 8.1202 0)
(23.284 8.29071 -6.14759e-20)
(23.2787 8.46689 5.65936e-20)
(23.2706 8.64917 6.89262e-20)
(23.2594 8.83796 1.11718e-20)
(23.2446 9.0338 -7.58578e-20)
(23.2256 9.23717 -9.79137e-20)
(23.2017 9.44866 -2.85929e-21)
(23.172 9.66897 9.91622e-20)
(23.1356 9.89886 0)
(23.0911 10.1392 0)
(23.0372 10.3911 -4.17282e-21)
(22.9721 10.6556 1.48037e-19)
(22.8937 10.9341 -1.39724e-19)
(22.7999 11.2283 -7.32455e-21)
(22.6877 11.5395 0)
(22.5538 11.8695 8.2469e-21)
(22.3943 12.2199 0)
(22.2046 12.5924 -9.00172e-21)
(21.979 12.9877 -1.07812e-19)
(21.7108 13.4062 1.21283e-19)
(21.3927 13.8464 -4.5313e-21)
(21.0158 14.305 -4.24633e-21)
(20.5709 14.7752 1.11657e-20)
(20.0482 15.2445 2.84353e-21)
(19.4378 15.694 0)
(18.7321 16.0939 1.03792e-20)
(17.9297 16.4028 1.33426e-20)
(17.0405 16.567 -6.05301e-20)
(16.0819 16.5008 1.63923e-19)
(15.0779 16.083 -2.74594e-19)
(23.0804 6.41087 0)
(23.0828 6.53117 0)
(23.0856 6.649 5.96025e-21)
(23.0875 6.76945 7.95948e-21)
(23.0886 6.89232 0)
(23.0885 7.01784 1.17951e-21)
(23.0871 7.14622 -8.0926e-22)
(23.0844 7.27767 -3.51273e-22)
(23.0801 7.41241 2.46047e-21)
(23.0742 7.55064 -5.34517e-21)
(23.0664 7.69261 5.7064e-21)
(23.0566 7.83851 4.88113e-21)
(23.0442 7.98867 -1.02517e-20)
(23.0292 8.14337 4.77141e-21)
(23.0111 8.30299 -1.88847e-21)
(22.9897 8.4679 -3.08961e-20)
(22.9645 8.63848 7.67351e-20)
(22.9353 8.81515 -3.70364e-20)
(22.9015 8.99831 4.56306e-21)
(22.8625 9.18837 4.3635e-20)
(22.8177 9.38573 -4.85528e-20)
(22.766 9.59075 2.24127e-21)
(22.7066 9.80387 -2.93716e-20)
(22.6379 10.0255 -7.08575e-21)
(22.5585 10.2559 6.69263e-20)
(22.4665 10.4954 -3.3324e-20)
(22.3598 10.7444 -2.76354e-20)
(22.236 11.0028 3.59479e-20)
(22.0921 11.2706 -8.26727e-21)
(21.9249 11.5472 -3.53976e-20)
(21.7305 11.8317 4.55216e-20)
(21.5042 12.1225 -1.86131e-21)
(21.2409 12.4169 1.20169e-21)
(20.9349 12.7111 4.4986e-21)
(20.5803 13 4.20539e-21)
(20.1707 13.2762 0)
(19.7006 13.5297 -1.00852e-20)
(19.1658 13.748 5.18709e-21)
(18.5649 13.9154 -2.73147e-21)
(17.9016 14.0135 2.74822e-21)
(17.1865 14.022 4.76566e-20)
(16.441 13.9187 -3.83618e-20)
(15.7057 13.6856 0)
(22.9609 6.419 0)
(22.9574 6.52847 -2.12522e-21)
(22.9543 6.63644 -3.93802e-21)
(22.9503 6.74678 -2.64883e-21)
(22.9452 6.85925 -6.38699e-21)
(22.9386 6.97402 -7.13304e-22)
(22.9305 7.09126 -1.06183e-21)
(22.9208 7.21123 4.32403e-21)
(22.9093 7.33407 -5.38871e-22)
(22.8959 7.45994 2.17528e-21)
(22.8804 7.58903 -2.27851e-21)
(22.8625 7.72152 7.11883e-22)
(22.8419 7.85761 1.11555e-21)
(22.8183 7.99751 -1.12084e-21)
(22.7911 8.14146 1.90781e-21)
(22.7602 8.28981 -2.92043e-21)
(22.725 8.44282 -3.94204e-22)
(22.685 8.60077 6.17951e-21)
(22.6399 8.764 -2.77862e-21)
(22.5891 8.93287 0)
(22.5319 9.10755 0)
(22.4675 9.28834 -1.26488e-20)
(22.395 9.47547 1.03339e-20)
(22.3131 9.66901 2.4233e-22)
(22.2205 9.86912 8.86288e-21)
(22.1156 10.0759 -1.18436e-20)
(21.9964 10.2892 -1.08187e-20)
(21.861 10.5087 1.08892e-20)
(21.7073 10.7344 0)
(21.533 10.9651 0)
(21.3351 11.1996 0)
(21.111 11.4361 1.87969e-21)
(20.8574 11.6719 -1.21166e-21)
(20.5713 11.9032 -4.45625e-21)
(20.2495 12.1251 0)
(19.8894 12.3312 0)
(19.4894 12.5136 4.83376e-21)
(19.0493 12.6625 1.32234e-20)
(18.5716 12.7672 -2.49162e-20)
(18.0623 12.8157 8.51514e-21)
(17.5316 12.7961 -9.97971e-21)
(16.9948 12.6982 -1.55487e-19)
(16.4731 12.518 1.27801e-19)
(22.852 6.42014 0)
(22.8453 6.52017 6.5232e-21)
(22.8382 6.61919 0)
(22.8299 6.72022 -2.52032e-21)
(22.8204 6.82327 2.49337e-21)
(22.8095 6.92831 -1.59372e-21)
(22.7968 7.03551 -3.33406e-21)
(22.7823 7.14523 0)
(22.766 7.25751 0)
(22.7477 7.3725 -6.48029e-21)
(22.7272 7.49039 -9.53775e-21)
(22.7044 7.61133 4.62705e-21)
(22.6788 7.7355 1.66127e-20)
(22.6503 7.86299 -8.48257e-21)
(22.6182 7.99402 0)
(22.5821 8.12886 3.70114e-21)
(22.5419 8.26773 -6.43373e-21)
(22.4968 8.4108 9.77358e-21)
(22.4466 8.55838 7.5753e-24)
(22.3905 8.71064 -5.82147e-21)
(22.3281 8.86776 7.33953e-21)
(22.2588 9.02998 2.1452e-22)
(22.1819 9.19733 -4.80676e-21)
(22.0961 9.36972 6.24791e-21)
(22.0005 9.54709 0)
(21.8933 9.72918 0)
(21.7728 9.91562 0)
(21.6372 10.1061 2.22268e-22)
(21.4848 10.3001 0)
(21.3134 10.4963 1.15136e-20)
(21.1209 10.6935 -1.18611e-20)
(20.9051 10.8898 5.42742e-21)
(20.6639 11.0827 -2.94987e-20)
(20.3952 11.2687 2.02537e-20)
(20.0972 11.4433 -2.74952e-20)
(19.7686 11.6015 1.84642e-20)
(19.4088 11.7366 0)
(19.0188 11.8416 -3.00297e-20)
(18.6018 11.909 1.67128e-20)
(18.1638 11.9313 -4.79168e-22)
(17.7136 11.9014 -3.18293e-20)
(17.2632 11.8143 8.72006e-20)
(16.8268 11.6692 0)
(22.7546 6.41738 0)
(22.7453 6.50838 -6.55294e-21)
(22.7353 6.599 7.49668e-21)
(22.7239 6.6915 0)
(22.7112 6.78609 -6.19956e-21)
(22.6975 6.88247 1.73744e-20)
(22.6816 6.98061 -1.23232e-20)
(22.6638 7.0812 0)
(22.6443 7.1842 -6.00874e-21)
(22.6227 7.28961 4.20547e-21)
(22.5989 7.39762 0)
(22.5726 7.50847 -9.22648e-21)
(22.5437 7.62227 1.58996e-20)
(22.5119 7.7391 -1.76472e-20)
(22.4766 7.85904 0)
(22.4374 7.98238 1.3384e-20)
(22.3938 8.10927 -2.34024e-22)
(22.3455 8.23983 -1.42357e-20)
(22.292 8.37435 5.21433e-21)
(22.2327 8.51288 5.32291e-21)
(22.1671 8.65555 -1.46736e-21)
(22.0945 8.80253 0)
(22.0145 8.95394 -1.59066e-21)
(21.9264 9.10961 0)
(21.8293 9.26932 3.43652e-21)
(21.7217 9.43271 1.24098e-20)
(21.602 9.59918 -1.27136e-20)
(21.4684 9.76825 0)
(21.3192 9.93932 2.33207e-20)
(21.1529 10.1113 -1.27905e-20)
(20.9678 10.2828 -6.72103e-21)
(20.762 10.4519 -5.49127e-21)
(20.5341 10.6165 4.95413e-20)
(20.2827 10.7736 -3.74192e-20)
(20.0071 10.9195 9.67282e-21)
(19.707 11.0494 0)
(19.3822 11.158 0)
(19.0335 11.2392 2.16562e-20)
(18.6635 11.2876 -4.98956e-21)
(18.2783 11.2983 -2.34937e-20)
(17.885 11.2664 -2.9037e-20)
(17.493 11.1889 0)
(17.1124 11.0654 3.95921e-20)
(22.6674 6.41032 8.70518e-21)
(22.6565 6.49399 -2.05421e-21)
(22.6444 6.57706 -1.41199e-20)
(22.6308 6.66188 -3.87736e-21)
(22.6156 6.74892 1.95163e-20)
(22.6002 6.83797 -1.47362e-20)
(22.5823 6.92798 2.07863e-20)
(22.5622 7.02048 -1.45584e-20)
(22.5406 7.11548 2.67745e-20)
(22.517 7.21266 -1.32312e-20)
(22.4911 7.31211 0)
(22.4627 7.41417 5.51629e-21)
(22.4316 7.51903 -6.9079e-21)
(22.398 7.62688 1.22857e-20)
(22.3609 7.73753 -5.29011e-21)
(22.3198 7.85131 1.21796e-20)
(22.2748 7.96831 -1.22582e-20)
(22.2247 8.08852 7.13455e-21)
(22.1697 8.21239 7.41423e-21)
(22.1091 8.33997 -1.82348e-20)
(22.0425 8.47111 -7.68722e-21)
(21.9686 8.60573 0)
(21.8874 8.74433 1.49414e-20)
(21.7983 8.88664 -1.52255e-20)
(21.7011 9.0325 -8.22459e-21)
(21.5945 9.18136 -1.86725e-20)
(21.4771 9.33258 3.96262e-20)
(21.3469 9.48526 -4.98708e-20)
(21.2016 9.63896 3.66958e-20)
(21.041 9.7931 4.08899e-21)
(20.8631 9.94567 -1.41444e-20)
(20.6664 10.0948 0)
(20.4495 10.2388 -1.97892e-20)
(20.2118 10.3754 1.04547e-20)
(19.9528 10.5011 1.39643e-20)
(19.6739 10.6124 0)
(19.3755 10.7039 9.21592e-21)
(19.0572 10.7699 -3.02413e-20)
(18.7187 10.8063 1.75474e-20)
(18.3682 10.811 5.41283e-21)
(18.0118 10.7794 8.78672e-20)
(17.6574 10.7096 -6.71869e-20)
(17.313 10.6011 1.82935e-19)
(22.5886 6.39948 -4.79181e-21)
(22.5769 6.47791 1.45874e-20)
(22.564 6.55441 8.09228e-21)
(22.5494 6.63252 -8.93794e-21)
(22.5316 6.7122 -1.25135e-20)
(22.5157 6.79569 1.27788e-20)
(22.4968 6.8784 -1.04208e-22)
(22.4748 6.96355 -9.33283e-21)
(22.4514 7.05161 -1.48214e-20)
(22.4269 7.14204 1.58363e-20)
(22.3999 7.23427 8.32433e-21)
(22.3703 7.32872 0)
(22.3377 7.42559 8.16952e-21)
(22.3031 7.52568 -8.18803e-21)
(22.2654 7.62865 -6.91193e-21)
(22.2229 7.73419 0)
(22.1772 7.84321 7.20748e-21)
(22.1263 7.95457 -1.57539e-20)
(22.0704 8.06959 8.77919e-21)
(22.0087 8.18807 9.0611e-21)
(21.9422 8.31043 2.53333e-20)
(21.8684 8.43504 -2.76323e-20)
(21.7871 8.56328 -1.92583e-20)
(21.6978 8.69468 1.96123e-20)
(21.6007 8.82942 4.78071e-21)
(21.4952 8.96663 0)
(21.3801 9.10601 -2.56348e-20)
(21.2542 9.24637 3.24106e-20)
(21.113 9.38631 1.46772e-20)
(20.9576 9.52711 -1.62321e-20)
(20.7867 9.66588 -8.44635e-21)
(20.5986 9.80026 1.07237e-20)
(20.3906 9.92896 1.07611e-20)
(20.1645 10.0506 0)
(19.9178 10.1618 -1.36844e-20)
(19.6546 10.2608 -1.58146e-20)
(19.3758 10.3407 -2.93844e-20)
(19.0851 10.3967 3.07062e-20)
(18.7691 10.4235 1.42759e-21)
(18.4434 10.4252 -1.28406e-20)
(18.1128 10.3953 4.50263e-20)
(17.7853 10.3321 -1.01472e-19)
(17.4671 10.2341 -1.94855e-21)
(22.5144 6.38316 -5.64886e-21)
(22.5042 6.46138 -1.51367e-20)
(22.4915 6.53244 9.82872e-21)
(22.478 6.60506 1.00694e-20)
(22.4567 6.67497 4.82105e-21)
(22.4412 6.75529 -4.67493e-21)
(22.4231 6.83187 0)
(22.3998 6.91064 8.81738e-21)
(22.3749 6.99244 4.79108e-22)
(22.3499 7.07825 -1.81904e-20)
(22.3226 7.16506 1.02799e-20)
(22.2934 7.25414 1.81822e-20)
(22.26 7.34418 -2.64465e-20)
(22.2241 7.43679 -9.49154e-21)
(22.1875 7.53325 1.79946e-20)
(22.1434 7.63047 -1.8616e-20)
(22.0982 7.73484 8.5592e-21)
(22.0477 7.83809 3.7467e-20)
(21.9931 7.94605 -1.90585e-20)
(21.9291 8.05496 -2.85295e-20)
(21.8629 8.17211 2.07777e-20)
(21.7902 8.28912 -1.11727e-20)
(21.7107 8.40962 0)
(21.6226 8.53234 2.37177e-20)
(21.5266 8.65823 -2.41773e-20)
(21.4236 8.78537 1.27291e-20)
(21.3088 8.9138 -2.75866e-20)
(21.1883 9.0465 -1.59298e-20)
(21.051 9.17423 -9.64e-21)
(20.8999 9.30474 2.78552e-20)
(20.7348 9.43321 -1.95513e-20)
(20.5569 9.5566 -1.08396e-20)
(20.3547 9.67183 0)
(20.1381 9.78316 0)
(19.899 9.88165 1.5361e-20)
(19.6457 9.97191 0)
(19.3697 10.0416 -1.89929e-20)
(19.1005 10.0931 0)
(18.7993 10.1079 -2.42148e-20)
(18.4929 10.1082 -8.24917e-20)
(18.18 10.081 -3.02352e-20)
(17.8692 10.0244 -1.8446e-21)
(17.5697 9.93248 -4.52085e-21)
(7.52309 18.4542 3.52298e-19)
(7.167 16.1313 -8.20203e-19)
(7.38967 14.5314 5.68284e-19)
(7.79837 13.2726 -1.30003e-18)
(8.26689 12.2537 1.31836e-18)
(8.74822 11.405 -4.55149e-20)
(9.21761 10.689 0)
(9.66482 10.0815 5.92132e-20)
(10.0839 9.56221 -5.59408e-20)
(10.4733 9.11469 -1.469e-18)
(10.833 8.72655 2.66096e-18)
(11.1637 8.38634 8.19745e-21)
(11.4672 8.08603 -1.24301e-18)
(11.7456 7.8191 4.15903e-20)
(12.0008 7.57988 7.03484e-20)
(12.235 7.36349 -1.4039e-19)
(12.4505 7.16634 -1.93033e-18)
(12.6493 6.98528 1.98218e-18)
(12.8334 6.8179 1.26424e-19)
(13.0043 6.66221 -1.90152e-18)
(13.1634 6.51629 1.84808e-18)
(13.3123 6.37881 -1.79056e-18)
(13.4521 6.24863 1.81016e-18)
(13.5838 6.1248 -1.71243e-18)
(13.7083 6.00641 1.63229e-18)
(13.8264 5.89275 1.60361e-18)
(13.9387 5.78328 -7.7709e-21)
(14.0459 5.67741 -1.57543e-18)
(14.1484 5.57483 -9.65454e-20)
(14.2466 5.47514 0)
(14.3409 5.378 -1.54471e-18)
(14.4317 5.28316 3.09478e-18)
(14.5192 5.19042 -1.55252e-18)
(14.6037 5.09958 0)
(14.6854 5.01039 -7.77703e-19)
(14.7644 4.92272 1.37153e-18)
(14.8408 4.83644 -9.86704e-19)
(14.9149 4.7514 0)
(14.9866 4.66753 -5.93749e-19)
(15.0562 4.58479 9.94506e-19)
(15.1237 4.50305 7.90476e-19)
(15.1893 4.42254 -7.8811e-19)
(15.2543 4.33974 -3.82709e-19)
(14.1028 15.3115 -2.49139e-19)
(13.4017 14.3848 9.51066e-19)
(12.9277 13.4762 2.13917e-20)
(12.6289 12.6418 -5.92794e-19)
(12.456 11.8913 -3.82939e-20)
(12.3744 11.2219 3.99084e-20)
(12.3587 10.628 -3.79385e-20)
(12.3898 10.102 0)
(12.4535 9.6365 -3.7996e-20)
(12.5394 9.22375 -1.26164e-18)
(12.6397 8.85664 1.26642e-18)
(12.749 8.52883 0)
(12.8632 8.23442 6.87045e-20)
(12.9795 7.96861 1.11011e-18)
(13.0961 7.72722 -1.19472e-18)
(13.2116 7.5067 1.24706e-19)
(13.3249 7.30414 -1.22836e-19)
(13.4355 7.11696 -9.39031e-19)
(13.5431 6.94304 9.11849e-19)
(13.6475 6.78055 -8.78784e-19)
(13.7486 6.62796 8.56618e-19)
(13.8465 6.48398 5.26543e-20)
(13.9412 6.34758 -9.15326e-19)
(14.0329 6.2178 8.02273e-19)
(14.1216 6.09388 6.8603e-19)
(14.2074 5.97514 -3.58691e-21)
(14.2904 5.86107 -8.64404e-19)
(14.3709 5.75121 -7.60269e-19)
(14.4488 5.64514 7.61568e-19)
(14.5244 5.54252 7.53871e-19)
(14.5978 5.44302 -1.6029e-18)
(14.6692 5.34639 7.57285e-19)
(14.7386 5.25235 6.62892e-19)
(14.8061 5.16065 -7.63237e-19)
(14.8719 5.07108 8.59697e-19)
(14.9359 4.98343 -1.3486e-18)
(14.9982 4.89758 1.55358e-18)
(15.0589 4.81334 -7.8351e-19)
(15.118 4.73062 -2.48975e-21)
(15.1756 4.64935 -3.94274e-19)
(15.2318 4.56942 5.9464e-19)
(15.2865 4.49108 -5.92303e-19)
(15.3402 4.41172 5.73454e-19)
(15.0423 13.3281 -1.77346e-19)
(14.5024 12.8796 1.58914e-19)
(14.0848 12.3802 0)
(13.7758 11.8642 0)
(13.5578 11.3543 -2.94945e-20)
(13.4143 10.8644 5.10051e-19)
(13.3303 10.4024 -5.31885e-19)
(13.2929 9.9721 1.06891e-18)
(13.2909 9.57458 -1.01228e-18)
(13.3158 9.20913 -6.56877e-20)
(13.3604 8.87393 0)
(13.4191 8.56678 -1.10156e-18)
(13.4873 8.28506 8.67982e-19)
(13.562 8.02634 -9.7363e-19)
(13.6406 7.78814 -9.44636e-19)
(13.7214 7.56811 2.6769e-18)
(13.8031 7.36416 -8.85409e-19)
(13.8846 7.17448 8.63296e-19)
(13.9654 6.99744 -8.39959e-19)
(14.0449 6.83156 -5.06514e-20)
(14.1228 6.67558 -1.92691e-21)
(14.1989 6.52842 0)
(14.2732 6.38915 4.93836e-20)
(14.3455 6.25689 0)
(14.4159 6.13094 0)
(14.4844 6.01067 7.43651e-19)
(14.5509 5.89552 -6.45344e-19)
(14.6157 5.78503 0)
(14.6788 5.67878 9.26409e-20)
(14.7403 5.5764 7.29967e-19)
(14.8003 5.47751 -6.39919e-19)
(14.859 5.3818 0)
(14.9163 5.28892 7.37746e-19)
(14.9723 5.19864 -1.48301e-18)
(15.027 5.11071 1.39971e-18)
(15.0805 5.02493 -6.60506e-19)
(15.1327 4.94111 0)
(15.1836 4.85912 0)
(15.2335 4.77882 -1.94019e-19)
(15.2822 4.70009 -3.87419e-19)
(15.3298 4.62281 3.9187e-19)
(15.3765 4.54697 1.92827e-19)
(15.4225 4.47018 -1.88925e-19)
(15.9885 12.2613 0)
(15.558 11.9421 2.35639e-19)
(15.1903 11.5801 -1.92498e-19)
(14.8873 11.195 -4.5076e-19)
(14.6458 10.8022 4.78705e-19)
(14.4601 10.4134 5.88713e-20)
(14.3225 10.0364 2.26356e-21)
(14.2259 9.6764 0)
(14.1629 9.33623 5.79966e-19)
(14.1273 9.01713 -3.79526e-19)
(14.1135 8.71919 0)
(14.1169 8.44174 -9.88398e-19)
(14.1336 8.1837 1.97839e-18)
(14.1606 7.94375 -9.29419e-19)
(14.1952 7.7205 -9.0805e-19)
(14.2356 7.5125 8.2664e-19)
(14.2802 7.31834 0)
(14.3279 7.13666 8.90091e-19)
(14.3777 6.96626 -8.67271e-19)
(14.4289 6.80601 8.50163e-19)
(14.4808 6.65487 -8.80408e-19)
(14.5331 6.51199 4.73828e-20)
(14.5854 6.37651 -7.55372e-19)
(14.6375 6.24776 1.4892e-18)
(14.6892 6.12507 -6.44883e-19)
(14.7404 6.00789 9.00549e-20)
(14.7908 5.89573 -7.22132e-19)
(14.8405 5.78819 7.19235e-19)
(14.8896 5.68488 7.15913e-19)
(14.938 5.58543 -8.05026e-19)
(14.9858 5.48946 -7.16017e-19)
(15.033 5.39664 1.43763e-18)
(15.0794 5.30669 -6.32019e-19)
(15.125 5.21933 0)
(15.1699 5.13435 0)
(15.2139 5.05157 -4.62028e-19)
(15.257 4.97083 3.73139e-19)
(15.2993 4.89199 0)
(15.3408 4.81493 2.8461e-19)
(15.3816 4.73952 -7.6382e-19)
(15.4217 4.66567 1.9353e-19)
(15.4611 4.59339 3.83752e-19)
(15.5002 4.52088 0)
(16.4175 11.4702 -1.66698e-19)
(16.0452 11.2246 3.07501e-19)
(15.7168 10.9431 -1.85051e-19)
(15.4356 10.6382 0)
(15.2018 10.321 0)
(15.0126 10.0006 -5.2363e-19)
(14.8638 9.68421 5.20016e-19)
(14.7505 9.37655 4.26116e-19)
(14.6676 9.0811 -5.38754e-19)
(14.6101 8.79977 -6.18268e-20)
(14.5736 8.53357 0)
(14.554 8.2827 2.06713e-21)
(14.5481 8.04693 0)
(14.5531 7.82571 4.48143e-19)
(14.5667 7.61828 -3.78377e-19)
(14.5873 7.42365 -3.20036e-19)
(14.6134 7.2409 7.79718e-19)
(14.6435 7.069 -4.57037e-19)
(14.6768 6.90701 1.26376e-21)
(14.7125 6.75408 -4.82094e-20)
(14.7498 6.60942 4.8432e-20)
(14.7882 6.4723 -7.99838e-19)
(14.8275 6.34206 1.4804e-18)
(14.8672 6.21809 -7.30132e-19)
(14.9071 6.09985 -9.12138e-20)
(14.947 5.98684 -9.03219e-20)
(14.9867 5.87871 0)
(15.0261 5.77508 7.067e-19)
(15.0655 5.67564 -7.04883e-19)
(15.1048 5.57994 1.76098e-19)
(15.1438 5.48763 0)
(15.1824 5.39841 0)
(15.2207 5.31198 -3.55184e-19)
(15.2584 5.22812 8.04146e-19)
(15.2956 5.14663 -3.60653e-19)
(15.3321 5.06736 0)
(15.368 4.99019 3.66686e-19)
(15.4034 4.91496 -4.62784e-19)
(15.4381 4.8415 9.22505e-22)
(15.4723 4.76975 -3.76266e-19)
(15.506 4.69963 2.8467e-19)
(15.5393 4.63113 1.89284e-19)
(15.5725 4.56267 -2.80608e-19)
(16.7523 10.8989 -7.71473e-20)
(16.4197 10.6944 0)
(16.1201 10.4591 -4.74238e-20)
(15.857 10.2021 0)
(15.6316 9.93224 -2.18276e-19)
(15.4434 9.6567 1.61722e-19)
(15.29 9.38132 5.62561e-20)
(15.1676 9.11049 5.86831e-20)
(15.0723 8.8476 5.77736e-20)
(15.0004 8.59478 9.40761e-19)
(14.9484 8.35317 -4.46876e-19)
(14.9126 8.12349 -3.91115e-19)
(14.89 7.90605 -3.9126e-19)
(14.8785 7.70076 3.78443e-19)
(14.8763 7.50721 -5.26219e-20)
(14.8818 7.32466 -1.04154e-19)
(14.8933 7.1524 1.01949e-19)
(14.9097 6.98972 4.49553e-19)
(14.9299 6.83586 -3.40997e-19)
(14.9531 6.69016 4.84446e-20)
(14.9785 6.552 -3.77565e-19)
(15.0057 6.42084 -4.67667e-20)
(15.0343 6.2961 3.65245e-19)
(15.0639 6.17719 8.9527e-20)
(15.0941 6.06369 0)
(15.1246 5.95523 3.53737e-19)
(15.1554 5.85152 8.72913e-20)
(15.1865 5.75224 -7.85406e-19)
(15.2181 5.65704 3.48247e-19)
(15.25 5.56535 3.46742e-19)
(15.2819 5.47692 -6.96437e-19)
(15.3137 5.39153 3.4929e-19)
(15.3452 5.30885 8.72179e-20)
(15.3765 5.22869 -4.41624e-19)
(15.4073 5.15088 3.55768e-19)
(15.4376 5.07533 0)
(15.4675 5.00189 -4.51938e-19)
(15.4971 4.9304 1.83087e-19)
(15.5262 4.86067 4.61587e-19)
(15.5549 4.79267 0)
(15.5832 4.72636 9.39134e-20)
(15.6114 4.66177 -9.39666e-20)
(15.6395 4.59741 1.86193e-19)
(16.9854 10.4562 -3.68677e-20)
(16.6803 10.2784 0)
(16.402 10.0729 2.85931e-19)
(16.1531 9.84766 -2.41498e-19)
(15.9363 9.61035 -5.1509e-20)
(15.7523 9.36636 8.64656e-22)
(15.5991 9.12078 -2.79401e-19)
(15.4735 8.87716 2.2066e-19)
(15.3725 8.63885 3.99579e-19)
(15.293 8.40785 -4.43855e-19)
(15.2323 8.18566 -5.50991e-20)
(15.1861 7.97296 5.4336e-20)
(15.1527 7.77076 -5.44784e-20)
(15.1308 7.57907 4.7928e-19)
(15.1184 7.39748 -7.78798e-19)
(15.1139 7.22546 5.08186e-19)
(15.1158 7.06255 3.50788e-19)
(15.1228 6.90817 -4.40811e-19)
(15.134 6.76166 4.78042e-20)
(15.1484 6.6226 4.69782e-20)
(15.1654 6.49058 0)
(15.1846 6.36511 1.37224e-19)
(15.2055 6.24562 -8.97967e-20)
(15.2276 6.13157 -1.78621e-19)
(15.2505 6.0227 0)
(15.2739 5.91874 0)
(15.298 5.81947 -8.74902e-20)
(15.323 5.72457 8.70096e-20)
(15.349 5.63347 -8.57353e-20)
(15.3754 5.54554 -1.72244e-19)
(15.4015 5.46096 -8.57192e-20)
(15.428 5.37933 3.45507e-19)
(15.4542 5.30031 -7.81104e-19)
(15.4803 5.22379 3.49016e-19)
(15.5058 5.14963 -8.74812e-20)
(15.5312 5.07775 3.54375e-19)
(15.5562 5.00802 8.96202e-20)
(15.5811 4.94024 -4.51787e-19)
(15.6056 4.87414 9.07433e-20)
(15.6297 4.80981 0)
(15.6536 4.74719 -1.8491e-19)
(15.6773 4.68645 2.77831e-19)
(15.7019 4.62567 -4.67178e-19)
(17.1627 10.1047 -1.22082e-19)
(16.8783 9.94542 8.29444e-20)
(16.6166 9.75944 -4.57478e-20)
(16.3775 9.55645 4.83123e-20)
(16.1672 9.3434 5.05064e-20)
(15.9892 9.12179 1.04339e-19)
(15.8377 8.89852 2.70079e-19)
(15.7108 8.67524 -2.13727e-19)
(15.6069 8.45613 -2.20671e-19)
(15.524 8.24145 2.14699e-19)
(15.458 8.03516 2.71371e-19)
(15.4044 7.83608 -4.26019e-19)
(15.3638 7.64672 2.60698e-19)
(15.335 7.46663 -5.14714e-20)
(15.3159 7.2948 0)
(15.3043 7.13168 -1.00056e-19)
(15.2991 6.97686 0)
(15.2994 6.82964 0)
(15.3041 6.68943 -4.77514e-20)
(15.3118 6.5562 3.26984e-19)
(15.3224 6.42972 -3.66734e-19)
(15.3353 6.3095 -9.11405e-20)
(15.3505 6.19456 -2.68057e-19)
(15.3665 6.08494 7.07651e-19)
(15.3834 5.98047 -3.49477e-19)
(15.4011 5.88085 0)
(15.4199 5.78575 0)
(15.4403 5.69493 8.52351e-20)
(15.4623 5.6073 8.18781e-22)
(15.4841 5.52256 8.57116e-20)
(15.5048 5.4421 8.57335e-20)
(15.5278 5.36375 -3.42172e-19)
(15.5492 5.28848 3.43483e-19)
(15.5716 5.21521 3.45403e-19)
(15.5925 5.14477 -8.66345e-20)
(15.614 5.07614 -8.80273e-20)
(15.6348 5.01033 8.87841e-20)
(15.6563 4.94596 -1.78546e-19)
(15.6772 4.8834 -3.60252e-19)
(15.6976 4.82257 1.81748e-19)
(15.7178 4.76329 0)
(15.7379 4.70607 9.1819e-20)
(15.76 4.64787 -9.306e-20)
(17.2793 9.81472 1.58012e-19)
(17.0116 9.6716 0)
(16.7682 9.49803 0)
(16.5342 9.31099 -9.51288e-20)
(16.3266 9.1205 0)
(16.154 8.91353 -5.13236e-20)
(16.0039 8.70773 1.65874e-19)
(15.8797 8.5002 -2.16051e-19)
(15.7747 8.29908 3.28133e-19)
(15.6906 8.09551 -1.01524e-19)
(15.622 7.90452 -2.14711e-19)
(15.5662 7.71575 5.64613e-20)
(15.5229 7.53727 -2.60294e-19)
(15.4909 7.36707 -5.3098e-20)
(15.469 7.20276 1.00569e-19)
(15.4536 7.04763 1.48037e-19)
(15.4451 6.89994 1.97094e-19)
(15.4424 6.75839 -4.84147e-19)
(15.4433 6.62298 1.91064e-19)
(15.4463 6.4944 1.89014e-19)
(15.4526 6.37259 -1.84942e-19)
(15.461 6.2571 0)
(15.4722 6.14548 1.80888e-19)
(15.4827 6.04046 9.12502e-20)
(15.4953 5.93993 -3.57783e-19)
(15.5089 5.8441 1.76522e-19)
(15.5245 5.75221 0)
(15.5418 5.66523 -8.2567e-20)
(15.561 5.58051 8.24694e-20)
(15.5782 5.49849 -1.71782e-19)
(15.5946 5.42334 8.57271e-20)
(15.6169 5.34625 1.70961e-19)
(15.6325 5.27602 -1.71102e-19)
(15.6532 5.20431 0)
(15.669 5.13852 1.72071e-19)
(15.6885 5.07177 -8.68283e-20)
(15.7051 5.01119 8.74411e-20)
(15.7246 4.94936 -1.72482e-19)
(15.7418 4.89054 9.06966e-20)
(15.7591 4.83259 -1.85786e-19)
(15.7765 4.776 2.83312e-19)
(15.794 4.72155 -1.90391e-19)
(15.8167 4.66302 1.93009e-19)
(18.3474 -3.75615 -7.50572e-19)
(18.1656 -3.75919 3.99832e-19)
(17.977 -3.76435 -2.04889e-19)
(17.7827 -3.767 1.04719e-19)
(17.5826 -3.76777 5.12534e-20)
(17.377 -3.76655 -5.70948e-21)
(17.1659 -3.76334 4.60216e-19)
(16.9496 -3.7582 2.07411e-19)
(16.7283 -3.75114 -3.87814e-21)
(16.502 -3.7422 4.18365e-19)
(16.2711 -3.73141 2.16417e-19)
(16.0355 -3.7188 -4.26071e-19)
(15.7955 -3.7044 0)
(15.5512 -3.68822 4.3918e-19)
(15.3026 -3.67029 -4.4474e-19)
(15.05 -3.65062 0)
(14.7932 -3.62919 -2.25676e-19)
(14.5325 -3.60606 1.15445e-19)
(14.2678 -3.58118 1.0989e-18)
(13.9991 -3.55458 -1.12902e-18)
(13.7264 -3.5262 0)
(13.4496 -3.49606 0)
(13.1686 -3.46411 5.60521e-19)
(12.8832 -3.43033 -5.83614e-19)
(12.5933 -3.39467 3.41524e-21)
(12.2986 -3.35702 -5.6156e-19)
(11.9986 -3.31738 6.77359e-19)
(11.6929 -3.27559 0)
(11.3809 -3.23154 7.63975e-19)
(11.0617 -3.18507 -4.08744e-19)
(10.7345 -3.13598 -5.48872e-19)
(10.3978 -3.08391 0)
(10.0502 -3.02854 -1.29239e-19)
(9.68935 -2.96934 -7.59465e-20)
(9.31253 -2.90556 2.78783e-21)
(8.91578 -2.83596 1.7841e-19)
(8.49373 -2.75903 8.1118e-19)
(8.03851 -2.67204 -1.99565e-18)
(7.53858 -2.57057 1.25056e-18)
(6.97892 -2.44632 -2.72055e-18)
(6.36096 -2.28289 3.67947e-18)
(5.88192 -2.08066 -2.83144e-19)
(7.27667 -2.05656 5.29454e-18)
(18.2934 -3.72712 -2.62218e-21)
(18.1254 -3.72948 1.2695e-18)
(17.9517 -3.73434 2.17047e-19)
(17.7734 -3.73706 -3.2112e-19)
(17.5902 -3.73829 -1.0876e-19)
(17.4021 -3.7379 6.45487e-19)
(17.2093 -3.73587 0)
(17.0118 -3.7322 -2.14861e-19)
(16.8097 -3.72689 0)
(16.6029 -3.71993 -4.31437e-19)
(16.3916 -3.71132 2.15269e-19)
(16.1758 -3.70106 4.36405e-19)
(15.9555 -3.68913 9.55167e-22)
(15.7307 -3.67555 -6.67856e-19)
(15.5013 -3.66027 0)
(15.2675 -3.64329 -2.30353e-19)
(15.029 -3.62455 0)
(14.7858 -3.60405 -1.20149e-19)
(14.5379 -3.58173 -4.92211e-19)
(14.285 -3.55756 5.05436e-19)
(14.0271 -3.53147 1.30954e-19)
(13.7638 -3.50341 -5.40422e-19)
(13.4951 -3.4733 5.60479e-19)
(13.2205 -3.44106 0)
(12.9397 -3.40659 -1.02533e-21)
(12.6523 -3.36976 -1.62842e-19)
(12.3577 -3.33047 -6.80378e-19)
(12.0554 -3.2885 1.26028e-18)
(11.7444 -3.24369 -9.60145e-19)
(11.424 -3.19575 -1.03392e-19)
(11.0929 -3.14437 1.1151e-19)
(10.7496 -3.08912 0)
(10.3923 -3.02945 1.31525e-19)
(10.0186 -2.96466 2.89364e-19)
(9.62546 -2.89377 0)
(9.20876 -2.81542 1.26703e-21)
(8.76302 -2.72765 0)
(8.2812 -2.62741 2.3612e-19)
(7.75704 -2.50951 1.10521e-18)
(7.19877 -2.36657 -1.33086e-18)
(6.70064 -2.19795 2.92814e-18)
(6.78221 -2.1046 -4.74791e-18)
(9.55804 -2.4484 -3.47881e-18)
(18.2435 -3.70328 1.12395e-21)
(18.088 -3.70362 1.12092e-21)
(17.927 -3.70733 0)
(17.762 -3.70945 3.7773e-21)
(17.5926 -3.71033 2.5114e-19)
(17.4186 -3.70978 -4.74512e-19)
(17.2401 -3.70777 0)
(17.0571 -3.70427 -2.2352e-19)
(16.8695 -3.69926 2.23644e-19)
(16.6774 -3.69273 -2.22295e-19)
(16.4807 -3.68467 2.23316e-19)
(16.2793 -3.67505 6.7832e-19)
(16.0732 -3.66387 -4.54504e-19)
(15.8624 -3.65112 4.58802e-19)
(15.6468 -3.63676 1.10547e-21)
(15.4262 -3.62075 -2.37801e-19)
(15.2006 -3.60307 -1.21925e-19)
(14.9699 -3.58365 1.23432e-19)
(14.7338 -3.56246 3.82551e-19)
(14.4922 -3.53941 -3.92505e-19)
(14.2449 -3.51443 -1.34494e-19)
(13.9915 -3.48742 0)
(13.7318 -3.45827 0)
(13.4654 -3.42688 6.07465e-19)
(13.1918 -3.39311 -7.92653e-19)
(12.9106 -3.35678 0)
(12.6211 -3.31773 -5.29884e-19)
(12.3226 -3.27572 5.58466e-19)
(12.0142 -3.23044 1.97586e-19)
(11.6949 -3.1816 1.05696e-19)
(11.3634 -3.12875 1.29238e-21)
(11.0182 -3.07143 -1.95543e-21)
(10.6572 -3.00896 -1.34774e-19)
(10.278 -2.94056 6.07287e-22)
(9.87733 -2.86516 -8.17485e-20)
(9.4511 -2.78127 -9.03142e-20)
(8.99421 -2.68679 0)
(8.50198 -2.57853 7.09834e-19)
(7.97698 -2.4516 -1.09886e-18)
(7.45837 -2.30145 0)
(7.13543 -2.1418 4.02353e-19)
(7.72439 -2.117 -5.27071e-21)
(10.9931 -2.63751 -4.02138e-19)
(18.1984 -3.67684 -4.31905e-19)
(18.0533 -3.67788 -2.29717e-19)
(17.9032 -3.68082 0)
(17.7493 -3.68211 -9.34006e-19)
(17.5914 -3.68229 -2.33451e-19)
(17.4292 -3.68122 2.30642e-19)
(17.2628 -3.67887 2.31955e-19)
(17.0919 -3.6752 2.29709e-19)
(16.9166 -3.67019 1.44623e-21)
(16.7368 -3.66381 1.16759e-21)
(16.5523 -3.65603 5.24806e-22)
(16.3632 -3.64683 2.35957e-19)
(16.1692 -3.63618 0)
(15.9703 -3.62408 7.16914e-19)
(15.7663 -3.61046 1.23028e-19)
(15.557 -3.5953 1.25157e-19)
(15.3424 -3.57854 1.26525e-19)
(15.1222 -3.56013 -5.14998e-19)
(14.8962 -3.53999 0)
(14.6641 -3.51804 1.36639e-19)
(14.4257 -3.49417 0)
(14.1806 -3.46825 -4.3707e-19)
(13.9284 -3.44016 7.56544e-19)
(13.6688 -3.40972 0)
(13.4011 -3.37681 -3.30656e-19)
(13.1248 -3.34121 1.72417e-19)
(12.8392 -3.30273 1.81679e-19)
(12.5437 -3.26109 0)
(12.2372 -3.21592 0)
(11.9186 -3.16686 4.40211e-19)
(11.5866 -3.11342 -7.06747e-19)
(11.2395 -3.05504 2.54503e-19)
(10.8751 -2.99103 0)
(10.4909 -2.92049 0)
(10.0836 -2.84229 2.51331e-19)
(9.6491 -2.75484 9.2597e-20)
(9.183 -2.65592 0)
(8.68369 -2.54222 -4.75357e-19)
(8.16406 -2.4095 5.4976e-19)
(7.69386 -2.25732 0)
(7.53905 -2.11552 -3.94598e-19)
(8.51411 -2.14804 -4.0931e-21)
(11.9764 -2.75527 0)
(18.1578 -3.65491 -1.09807e-21)
(18.0226 -3.65476 -2.3922e-19)
(17.8828 -3.65652 6.0826e-19)
(17.7393 -3.65716 1.18588e-19)
(17.5921 -3.65693 2.54862e-19)
(17.4409 -3.65561 1.50397e-20)
(17.2855 -3.65316 -5.07582e-19)
(17.1258 -3.64956 2.39259e-19)
(16.9617 -3.64476 0)
(16.7931 -3.63872 1.10235e-21)
(16.6199 -3.63138 -2.38457e-19)
(16.4418 -3.62271 -2.41086e-19)
(16.2587 -3.61267 0)
(16.0705 -3.60124 0)
(15.8769 -3.58842 -1.24962e-19)
(15.6777 -3.5741 -1.27128e-19)
(15.4729 -3.55821 0)
(15.2619 -3.54069 0)
(15.0447 -3.52151 0)
(14.8209 -3.50057 -1.40192e-19)
(14.5902 -3.47776 -1.45096e-19)
(14.3522 -3.45291 3.01202e-19)
(14.1066 -3.42582 9.54777e-22)
(13.8528 -3.39631 1.63233e-19)
(13.5902 -3.36419 1.7073e-19)
(13.3181 -3.3293 5.35897e-19)
(13.0358 -3.29148 -5.6482e-19)
(12.7426 -3.25042 -1.99661e-19)
(12.4375 -3.20568 0)
(12.1194 -3.15679 4.51885e-19)
(11.7867 -3.10322 -2.42476e-19)
(11.4377 -3.04438 6.49803e-22)
(11.0702 -2.97949 0)
(10.6814 -2.90762 3.84822e-20)
(10.268 -2.82747 -3.99546e-20)
(9.82595 -2.73733 -1.87317e-19)
(9.35183 -2.63484 -2.10171e-19)
(8.84738 -2.51659 4.75383e-19)
(8.33589 -2.37911 5.47201e-19)
(7.91438 -2.22604 0)
(7.90606 -2.10289 1.14101e-18)
(9.16673 -2.18647 3.91458e-19)
(12.7112 -2.84201 -6.52129e-19)
(18.1225 -3.63185 -1.25749e-21)
(17.9958 -3.63265 0)
(17.8653 -3.63426 -6.27485e-19)
(17.7314 -3.6346 6.23632e-19)
(17.5938 -3.63414 -2.48888e-19)
(17.4524 -3.63269 2.16802e-19)
(17.3069 -3.6302 3.37886e-19)
(17.1571 -3.62666 -3.06452e-19)
(17.0028 -3.62203 0)
(16.844 -3.61629 -1.23283e-19)
(16.6805 -3.60936 -1.23198e-19)
(16.512 -3.60113 0)
(16.3384 -3.59153 -2.51674e-19)
(16.1593 -3.58061 2.54052e-19)
(15.9745 -3.5684 1.29396e-19)
(15.7841 -3.55478 0)
(15.5875 -3.53958 0)
(15.3845 -3.52276 0)
(15.1747 -3.50428 0)
(14.9578 -3.48415 0)
(14.7336 -3.46227 -4.48083e-19)
(14.5017 -3.43841 1.54663e-19)
(14.2616 -3.41237 -1.6014e-19)
(14.0128 -3.38384 -1.66781e-19)
(13.7546 -3.35248 -1.7426e-19)