/*--------------------------------*- C++ -*----------------------------------*\
| =========                 |                                                 |
| \\      /  F ield         | OpenFOAM: The Open Source CFD Toolbox           |
|  \\    /   O peration     | Version:  2.3.0                                 |
|   \\  /    A nd           | Web:      www.OpenFOAM.org                      |
|    \\/     M anipulation  |                                                 |
\*---------------------------------------------------------------------------*/
FoamFile
{
    version     2.0;
    format      ascii;
    class       volScalarField;
    location    "2000";
    object      nuTilda;
}
// * * * * * * * * * * * * * * * * * * * * * * * * * * * * * * * * * * * * * //

dimensions      [0 2 -1 0 0 0 0];

internalField   nonuniform List<scalar> 
38388
(
0.0406339
0.0391077
0.0376085
0.0361393
0.0347051
0.0333109
0.0319578
0.0306431
0.0293637
0.0281183
0.0269081
0.0257334
0.0245948
0.0234916
0.022422
0.0213844
0.0203783
0.0194029
0.0184568
0.0175394
0.0166501
0.0157878
0.014952
0.0141399
0.0133519
0.0125854
0.0118385
0.0111097
0.0103963
0.00969727
0.00900956
0.00833278
0.00766661
0.00701501
0.00638376
0.00578227
0.00522592
0.00472311
0.00428719
0.00391872
0.00362765
0.00343406
0.00342665
0.042702
0.0413036
0.039931
0.0385858
0.0372719
0.0359941
0.0347557
0.033556
0.0323855
0.0312403
0.0301198
0.0290259
0.02796
0.0269237
0.0259163
0.024936
0.0239809
0.0230498
0.0221415
0.0212565
0.0203945
0.0195555
0.0187401
0.0179484
0.0171817
0.0164399
0.0157265
0.0150405
0.0143867
0.0137673
0.0131839
0.0126404
0.0121368
0.0116725
0.0112457
0.0108562
0.0105039
0.0101931
0.00993014
0.00973617
0.00963245
0.00966997
0.00997063
0.044662
0.0434075
0.0421737
0.0409616
0.0397719
0.0386056
0.037463
0.0363442
0.0352482
0.0341745
0.0331224
0.0320933
0.0310891
0.0301109
0.0291598
0.0282355
0.0273358
0.0264574
0.025598
0.0247577
0.0239358
0.0231332
0.0223504
0.0215878
0.0208452
0.0201242
0.0194248
0.0187487
0.0180967
0.0174714
0.0168789
0.0163262
0.0158278
0.0154001
0.0150478
0.0147658
0.0145577
0.0144267
0.0143836
0.0144369
0.0145938
0.0148612
0.0152418
0.0464723
0.045351
0.0442469
0.0431596
0.042089
0.041035
0.039998
0.0389781
0.0379752
0.0369893
0.0360209
0.0350695
0.0341356
0.0332202
0.0323235
0.031445
0.0305848
0.0297419
0.0289173
0.02811
0.0273224
0.0265534
0.0258051
0.0250786
0.0243755
0.0236966
0.0230456
0.0224229
0.021832
0.021277
0.0207617
0.0202911
0.019871
0.019508
0.0192074
0.0189742
0.0188137
0.0187324
0.0187345
0.0188277
0.0190145
0.0192985
0.0196776
0.0481241
0.0471215
0.0461324
0.0451561
0.044192
0.0432401
0.0423003
0.0413726
0.0404575
0.0395553
0.0386658
0.0377893
0.0369264
0.0360778
0.035243
0.0344227
0.0336167
0.0328252
0.0320485
0.0312877
0.0305434
0.0298172
0.0291097
0.0284235
0.0277591
0.0271197
0.0265057
0.0259211
0.0253673
0.0248482
0.0243686
0.023933
0.0235451
0.0232107
0.022936
0.0227257
0.022585
0.0225208
0.0225375
0.0226393
0.0228311
0.0231132
0.0234853
0.0496211
0.0487241
0.0478358
0.0469564
0.0460853
0.0452223
0.044368
0.0435219
0.0426842
0.0418559
0.0410361
0.0402255
0.0394254
0.038636
0.0378576
0.0370907
0.0363354
0.035592
0.0348606
0.0341425
0.033438
0.0327492
0.0320771
0.0314245
0.0307927
0.0301833
0.0295992
0.0290425
0.0285154
0.0280207
0.0275639
0.0271482
0.0267788
0.0264611
0.0262011
0.0260027
0.0258721
0.0258149
0.0258361
0.0259404
0.0261309
0.0264091
0.0267747
0.0509765
0.0501713
0.0493702
0.0485742
0.0477839
0.0469986
0.0462179
0.0454421
0.0446715
0.0439075
0.0431488
0.0423956
0.0416489
0.0409095
0.0401795
0.0394583
0.0387469
0.0380456
0.0373546
0.036673
0.036003
0.0353461
0.034704
0.0340786
0.0334729
0.032888
0.0323269
0.0317927
0.0312873
0.0308122
0.0303716
0.0299707
0.0296139
0.0293074
0.0290561
0.0288656
0.0287406
0.0286867
0.0287092
0.0288118
0.0289996
0.0292732
0.0296329
0.0522025
0.0514782
0.0507512
0.0500265
0.0493059
0.0485887
0.0478709
0.0471566
0.0464422
0.0457338
0.0450285
0.0443254
0.0436247
0.0429287
0.042238
0.0415553
0.0408803
0.0402142
0.0395575
0.0389093
0.0382696
0.0376398
0.0370226
0.0364206
0.0358351
0.0352688
0.0347257
0.0342094
0.0337234
0.033266
0.0328391
0.0324495
0.0321029
0.0318034
0.0315585
0.0313734
0.0312526
0.0312021
0.0312237
0.031323
0.0315059
0.0317751
0.0321299
0.0533208
0.0526646
0.051996
0.0513298
0.0506647
0.0500109
0.0493454
0.0486933
0.0480194
0.0473554
0.046696
0.0460362
0.0453755
0.0447184
0.0440589
0.0434061
0.0427597
0.0421196
0.0414896
0.0408704
0.0402586
0.0396529
0.0390563
0.0384746
0.0379088
0.0373585
0.0368277
0.0363237
0.0358516
0.0354172
0.035003
0.0346238
0.0342875
0.0339953
0.0337534
0.0335768
0.033456
0.0334137
0.0334373
0.0335305
0.0337072
0.0339713
0.0343234
0.00410507
0.00540937
0.00640153
0.0074415
0.00854964
0.0097177
0.0109328
0.0121841
0.0134645
0.0147693
0.0160953
0.0174389
0.0187992
0.0201748
0.0215644
0.0229702
0.0243885
0.0258207
0.027265
0.0287224
0.0301923
0.0316748
0.0331691
0.0346758
0.0361942
0.0377238
0.0392649
0.0408171
0.0423804
0.0439542
0.0455379
0.0471313
0.0487339
0.0503454
0.0519651
0.0535921
0.0552261
0.0568662
0.058512
0.0601626
0.0618174
0.0634753
0.0651314
0.010493
0.0111695
0.0119491
0.012826
0.0137928
0.0148344
0.0159408
0.0170998
0.0183027
0.0195392
0.0208044
0.0220938
0.0234019
0.0247246
0.0260614
0.0274085
0.0287655
0.0301307
0.031505
0.0328862
0.0342746
0.0356699
0.0370715
0.0384797
0.0398936
0.0413135
0.0427391
0.0441703
0.045607
0.0470489
0.0484957
0.0499478
0.0514045
0.0528659
0.0543315
0.055801
0.0572743
0.058751
0.0602305
0.0617128
0.0631977
0.0646854
0.0661731
0.0157294
0.0163211
0.0170177
0.0178111
0.018691
0.0196466
0.0206687
0.0217461
0.02287
0.0240322
0.025225
0.0264429
0.0276808
0.0289351
0.030202
0.0314798
0.0327651
0.0340573
0.0353555
0.0366581
0.0379647
0.039274
0.0405866
0.0419008
0.0432172
0.0445358
0.0458559
0.0471775
0.0485005
0.0498248
0.0511504
0.0524775
0.0538059
0.0551354
0.056466
0.0577976
0.0591304
0.0604639
0.0617979
0.0631324
0.0644674
0.0658022
0.067132
0.0201491
0.0207147
0.0213756
0.0221232
0.0229527
0.0238548
0.02482
0.0258399
0.0269048
0.028008
0.0291423
0.0303015
0.0314809
0.0326752
0.033882
0.0350978
0.03632
0.037547
0.0387772
0.0400101
0.0412431
0.0424765
0.0437096
0.0449419
0.0461729
0.0474025
0.0486302
0.049856
0.0510801
0.0523023
0.0535227
0.0547413
0.0559582
0.0571733
0.0583869
0.0595988
0.0608094
0.0620183
0.0632255
0.064431
0.0656347
0.0668357
0.0680305
0.0239454
0.0244944
0.0251315
0.0258518
0.0266485
0.0275137
0.0284392
0.0294167
0.0304384
0.0314962
0.0325842
0.0336965
0.0348271
0.0359721
0.0371274
0.0382907
0.039458
0.0406285
0.0418004
0.0429718
0.0441419
0.0453097
0.0464743
0.047635
0.048792
0.0499445
0.0510925
0.0522359
0.0533746
0.0545088
0.0556383
0.0567633
0.0578839
0.0590004
0.0601129
0.0612212
0.0623257
0.0634265
0.0645236
0.0656169
0.0667065
0.0677924
0.068874
0.027226
0.0277632
0.0283845
0.029085
0.0298578
0.0306967
0.0315921
0.0325378
0.0335259
0.0345487
0.0355998
0.0366729
0.0377638
0.0388677
0.0399803
0.0410985
0.0422201
0.0433422
0.0444638
0.045583
0.0466993
0.0478109
0.0489166
0.050016
0.0511091
0.0521956
0.0532755
0.0543482
0.0554135
0.0564718
0.0575231
0.0585675
0.0596053
0.0606368
0.0616621
0.062681
0.0636938
0.0647007
0.0657018
0.0666973
0.0676876
0.0686728
0.0696532
0.0300773
0.0306053
0.0312149
0.0319003
0.0326553
0.0334729
0.0343458
0.0352661
0.0362279
0.0372226
0.0382438
0.0392853
0.0403423
0.0414114
0.0424885
0.0435692
0.044651
0.045732
0.0468105
0.0478859
0.0489561
0.0500196
0.0510746
0.0521211
0.0531596
0.0541894
0.055211
0.056223
0.0572252
0.0582179
0.0592018
0.0601771
0.0611435
0.0621016
0.0630518
0.0639935
0.0649266
0.065852
0.0667699
0.0676799
0.0685833
0.0694802
0.0703689
0.0325681
0.0330879
0.0336883
0.0343632
0.035104
0.0359037
0.0367564
0.0376583
0.0385987
0.0395703
0.0405664
0.0415813
0.04261
0.0436497
0.044697
0.0457457
0.0467933
0.0478384
0.0488805
0.0499185
0.0509514
0.0519731
0.0529827
0.053983
0.0549761
0.0559566
0.0569296
0.0578878
0.058836
0.059771
0.0606972
0.0616131
0.0625178
0.063413
0.064299
0.0651733
0.0660368
0.0668914
0.0677371
0.0685718
0.0693987
0.0702186
0.0710267
0.0347562
0.035266
0.0358598
0.0365284
0.0372599
0.0380431
0.0388725
0.039761
0.040682
0.0416356
0.0426101
0.0436001
0.0446045
0.0456217
0.0466464
0.0476641
0.0486825
0.0496946
0.0507055
0.0517131
0.0527173
0.0536976
0.0546654
0.0556272
0.0565879
0.0575195
0.0584598
0.0593613
0.0602687
0.0611478
0.0620292
0.0628931
0.0637439
0.0645865
0.065418
0.0662314
0.0670342
0.0678296
0.0686144
0.0693803
0.0701402
0.0708941
0.0716408
0.0866179
0.0822427
0.0780183
0.0739392
0.0700047
0.0662138
0.0625635
0.0590508
0.0556743
0.0524307
0.0493168
0.0463288
0.043464
0.0407187
0.0380892
0.0355718
0.0331645
0.0308633
0.0286636
0.0265637
0.0245606
0.0226518
0.0208328
0.0191016
0.017456
0.0158924
0.0144101
0.0130059
0.0116784
0.0104254
0.00924573
0.00813647
0.00709821
0.0061298
0.00523039
0.00439955
0.00363779
0.00294685
0.00232707
0.00178521
0.00136731
0.000978684
0.0005752
0.0881925
0.0841405
0.0802113
0.0764011
0.0727097
0.0691355
0.0656774
0.0623331
0.0591012
0.0559792
0.0529646
0.0500552
0.0472488
0.0445423
0.0419335
0.0394197
0.0369992
0.0346683
0.0324259
0.0302687
0.0281962
0.026205
0.0242934
0.0224601
0.0207023
0.0190211
0.0174126
0.0158768
0.0144129
0.0130206
0.0116977
0.0104455
0.00926403
0.00815311
0.00711374
0.00614826
0.00525958
0.00445623
0.00377077
0.0031218
0.00248037
0.00180253
0.00103015
0.0897547
0.0859995
0.0823441
0.0787864
0.0753247
0.0719587
0.0686872
0.0655083
0.0624206
0.0594226
0.0565129
0.0536901
0.0509519
0.0482962
0.0457208
0.0432258
0.0408079
0.0384662
0.0361978
0.0340031
0.0318798
0.0298266
0.0278423
0.0259262
0.0240776
0.0222959
0.0205804
0.0189314
0.0173491
0.0158327
0.0143838
0.0130031
0.011692
0.0104533
0.00929039
0.00820989
0.00722761
0.00633262
0.00545376
0.00456229
0.0036229
0.00256899
0.00140263
0.091289
0.0878038
0.0844012
0.0810767
0.0778292
0.0746573
0.0715608
0.0685382
0.0655884
0.0627104
0.0599032
0.0571664
0.054498
0.0518965
0.0493619
0.0468918
0.0444854
0.0421417
0.0398604
0.0376398
0.0354789
0.0333779
0.0313365
0.0293535
0.02743
0.0255652
0.0237601
0.0220153
0.020331
0.0187095
0.0171522
0.0156615
0.0142419
0.012898
0.0116383
0.0104861
0.00937506
0.00826951
0.00714409
0.00596841
0.004699
0.00325484
0.0017168
0.0927681
0.0895408
0.0863731
0.0832646
0.0802148
0.0772233
0.0742896
0.0714127
0.0685929
0.0658286
0.0631198
0.0604661
0.0578663
0.0553201
0.0528273
0.0503864
0.047997
0.0456587
0.0433707
0.0411329
0.0389453
0.0368081
0.0347211
0.0326846
0.0306988
0.0287654
0.0268849
0.025059
0.02329
0.0215797
0.019932
0.0183514
0.0168441
0.015422
0.0140853
0.0127779
0.0114689
0.0101355
0.00875285
0.00728707
0.00568592
0.00386729
0.00198877
0.0942169
0.0912093
0.0882547
0.0853444
0.0824772
0.079652
0.0768687
0.0741273
0.0714279
0.0687701
0.066154
0.0635791
0.0610455
0.0585534
0.0561021
0.0536923
0.0513238
0.048995
0.046706
0.0444573
0.0422502
0.0400854
0.037963
0.0358831
0.0338472
0.0318568
0.0299137
0.0280208
0.0261812
0.0243983
0.0226766
0.0210238
0.0194522
0.0179414
0.0164537
0.0149627
0.0134475
0.0118854
0.0102486
0.00850062
0.00658211
0.00441417
0.00222675
0.0955871
0.0927937
0.0900382
0.087312
0.0846132
0.0819414
0.0792965
0.0766796
0.0740911
0.0715325
0.0690024
0.0665021
0.0640313
0.0615901
0.0591791
0.0568001
0.0544548
0.0521401
0.049854
0.047598
0.045376
0.0431897
0.0410406
0.0389287
0.0368522
0.0348148
0.0328201
0.0308715
0.0289745
0.0271328
0.025353
0.0236402
0.0219726
0.0203255
0.0186754
0.017003
0.0152874
0.0135044
0.0116237
0.00960646
0.00738957
0.00490088
0.00243688
0.0968583
0.0942878
0.0917209
0.0891643
0.0866233
0.084092
0.0815737
0.0790701
0.0765828
0.0741158
0.0716663
0.0692346
0.0668228
0.0644313
0.0620573
0.0597045
0.0573829
0.0550891
0.0528125
0.0505501
0.0483146
0.0461092
0.043942
0.0418082
0.0397015
0.0376236
0.0355875
0.0335918
0.0316479
0.0297603
0.0279252
0.0261205
0.0243281
0.0225389
0.0207317
0.0188871
0.0169828
0.0149929
0.0128829
0.0106091
0.00810981
0.00533048
0.00263304
0.098131
0.0957126
0.093308
0.0909024
0.0885112
0.0861062
0.0837021
0.0813039
0.0789036
0.0765233
0.0741491
0.0717788
0.0694231
0.0670805
0.0647468
0.0624064
0.0601012
0.0578376
0.0555882
0.0533158
0.0510685
0.0488373
0.0466527
0.0445124
0.0423951
0.0402715
0.0382095
0.0361663
0.0341798
0.0322385
0.0303299
0.0284299
0.0264965
0.0245719
0.0226167
0.0206158
0.0185344
0.0163547
0.0140416
0.0115244
0.0087319
0.00564246
0.00271002
0.000463071
0.000523679
0.000699223
0.00086756
0.00104155
0.00123585
0.00146648
0.00174659
0.00206413
0.00241279
0.00279019
0.00319495
0.0036268
0.00408533
0.00457103
0.0050842
0.00562547
0.00619497
0.00679364
0.00742174
0.00807998
0.00876889
0.0094889
0.0102412
0.0110264
0.0118453
0.0126979
0.0135857
0.0145096
0.0154698
0.0164677
0.0175038
0.0185789
0.0196938
0.0208494
0.0220463
0.0232855
0.0245675
0.0258928
0.0272625
0.0286773
0.0301379
0.0316468
0.000613172
0.00067458
0.000865636
0.00106803
0.00129593
0.0015608
0.00186773
0.00221833
0.0026036
0.0030169
0.00345606
0.00392018
0.0044091
0.00492265
0.00546024
0.00602257
0.00660968
0.00722163
0.00785843
0.0085212
0.00920931
0.00992364
0.0106645
0.0114322
0.0122278
0.0130513
0.0139036
0.0147849
0.0156963
0.0166381
0.0176109
0.0186156
0.0196527
0.020723
0.0218268
0.022965
0.0241383
0.0253472
0.0265924
0.0278745
0.0291942
0.0305526
0.0319533
0.000760408
0.000825001
0.00104904
0.0013033
0.0015974
0.00193378
0.00230965
0.00272524
0.00317215
0.00364446
0.00414059
0.00465983
0.00520154
0.0057653
0.0063509
0.00695786
0.0075865
0.00823669
0.00890823
0.00960143
0.0103161
0.0110526
0.011811
0.0125918
0.0133952
0.0142218
0.0150715
0.0159453
0.0168431
0.0177659
0.0187137
0.0196871
0.0206866
0.0217129
0.0227664
0.0238476
0.0249568
0.0260947
0.0272619
0.0284589
0.0296858
0.0309434
0.032232
0.00089698
0.00097775
0.00124845
0.00156246
0.00192239
0.00232305
0.00275986
0.0032352
0.00373747
0.00426326
0.00481098
0.00537971
0.00596885
0.00657749
0.00720552
0.00785236
0.00851755
0.00920094
0.00990243
0.0106217
0.0113589
0.0121138
0.0128868
0.0136776
0.014487
0.0153145
0.0161607
0.0170258
0.0179102
0.0188138
0.0197374
0.0206811
0.0216451
0.0226303
0.0236366
0.0246643
0.0257142
0.0267863
0.0278812
0.028999
0.0301396
0.0313027
0.0324879
0.00102541
0.00113594
0.0014604
0.00183454
0.00225443
0.00271201
0.0032044
0.00373257
0.00428474
0.00485874
0.00545291
0.00606633
0.00669785
0.0073467
0.00801221
0.00869394
0.00939136
0.0101038
0.0108311
0.011573
0.0123293
0.0130998
0.0138847
0.0146836
0.0154966
0.0163242
0.0171659
0.0180222
0.0188931
0.0197786
0.0206792
0.021595
0.0225262
0.023473
0.0244357
0.0254143
0.0264094
0.0274212
0.0284496
0.0294948
0.0305563
0.0316337
0.0327267
0.00114882
0.00129898
0.00167848
0.00210866
0.00258187
0.00308979
0.0036338
0.0042091
0.0048066
0.00542414
0.00605996
0.00671332
0.00738271
0.00806746
0.0087666
0.00947925
0.0102047
0.0109429
0.0116928
0.0124542
0.0132271
0.014011
0.0148057
0.0156109
0.0164269
0.0172531
0.01809
0.0189374
0.0197954
0.020664
0.021543
0.0224329
0.0233335
0.0242449
0.0251674
0.0261011
0.0270462
0.0280026
0.0289703
0.0299492
0.0309392
0.0319401
0.0329544
0.00126995
0.00146683
0.00189879
0.00237895
0.00289889
0.00345222
0.00404289
0.00466042
0.00529861
0.00595535
0.00662884
0.00731813
0.00802167
0.00873847
0.00946769
0.0102081
0.0109589
0.0117197
0.0124898
0.0132687
0.0140558
0.0148511
0.0156544
0.0164649
0.0172825
0.0181068
0.0189383
0.0197771
0.0206231
0.0214758
0.0223353
0.023201
0.0240727
0.0249512
0.0258366
0.0267291
0.0276284
0.0285345
0.0294468
0.0303656
0.0312905
0.0322216
0.0331592
0.00139024
0.00162599
0.00210488
0.0026307
0.00319393
0.0037907
0.00442427
0.00508162
0.00575789
0.00645088
0.00715934
0.0078824
0.00861856
0.0093656
0.010123
0.0108888
0.0116622
0.0124435
0.0132314
0.0140257
0.0148259
0.0156307
0.0164416
0.0172562
0.0180723
0.0188921
0.0197177
0.0205485
0.0213837
0.0222228
0.0230641
0.0239059
0.0247487
0.0255956
0.0264471
0.0273022
0.0281607
0.0290212
0.0298832
0.0307468
0.0316128
0.0324807
0.0333515
0.00149106
0.00182185
0.00235876
0.00292597
0.00352891
0.00416715
0.0048367
0.00552474
0.0062303
0.0069538
0.00769714
0.00846009
0.00922968
0.0100025
0.0107853
0.0115641
0.0123535
0.0131524
0.013951
0.0147568
0.0155661
0.0163733
0.0171954
0.0180075
0.0188063
0.0196157
0.0204362
0.0212612
0.0220895
0.0229193
0.0237447
0.0245555
0.0253631
0.0261812
0.0270018
0.0278245
0.0286478
0.0294677
0.030283
0.0310961
0.0319079
0.0327192
0.0335299
0.000104801
0.000399313
0.000906739
0.00154814
0.00218664
0.00281819
0.00344505
0.00406437
0.00467308
0.00528053
0.00589182
0.00651052
0.00713955
0.0077825
0.00844011
0.00911246
0.0098009
0.0105062
0.0112308
0.0119761
0.0127445
0.0135376
0.0143586
0.0152092
0.0160912
0.0170067
0.0179573
0.018945
0.0199707
0.0210351
0.0221402
0.0232867
0.0244763
0.0257093
0.0269857
0.0283047
0.0296658
0.0310698
0.032518
0.0340101
0.035542
0.0371091
0.0387006
5.66946e-05
0.000213707
0.000462206
0.000818372
0.0012775
0.00184381
0.0025065
0.00318039
0.00386256
0.00455279
0.00524435
0.00593062
0.00660874
0.00727608
0.00793565
0.00859155
0.00924753
0.00990732
0.0105744
0.011252
0.0119438
0.0126537
0.0133857
0.0141434
0.014931
0.0157522
0.0166108
0.0175102
0.0184526
0.0194412
0.020478
0.0215649
0.0227034
0.0238945
0.0251383
0.0264348
0.0277829
0.0291822
0.030632
0.0321313
0.0336772
0.0352655
0.0368886
3.80851e-05
0.000176978
0.000334217
0.000580846
0.00090025
0.00129734
0.00177837
0.00234334
0.00299314
0.00373356
0.00451493
0.00529006
0.00605386
0.00680522
0.00754425
0.00827149
0.00898702
0.00969146
0.0103864
0.0110743
0.0117582
0.0124414
0.0131282
0.0138232
0.0145324
0.0152614
0.0160167
0.0168043
0.0176305
0.018501
0.0194213
0.0203961
0.0214291
0.0225234
0.0236812
0.0249035
0.0261898
0.0275398
0.0289521
0.0304248
0.0319549
0.0335379
0.0351678
3.75376e-05
0.000157111
0.000300508
0.000507966
0.000772106
0.00109701
0.00148894
0.00195303
0.00249209
0.00310942
0.00380859
0.00459376
0.00541117
0.00622966
0.00704038
0.00784077
0.00863005
0.0094073
0.0101722
0.0109242
0.0116633
0.0123899
0.0131051
0.0138113
0.0145117
0.015211
0.0159152
0.016631
0.0173664
0.0181301
0.0189309
0.0197774
0.0206778
0.0216396
0.022669
0.0237706
0.0249472
0.0262008
0.0275308
0.0289359
0.0304133
0.0319584
0.0335648
3.55328e-05
0.000155105
0.000276112
0.000456732
0.000689989
0.000974968
0.00131566
0.00171736
0.00218531
0.00272197
0.00333042
0.00401468
0.00477816
0.00562075
0.00648451
0.00734583
0.00819825
0.00904018
0.00987064
0.0106888
0.0114939
0.0122848
0.0130606
0.0138207
0.0145652
0.0152951
0.0160129
0.0167223
0.0174291
0.0181406
0.0188659
0.0196153
0.0204
0.0212316
0.0221213
0.0230791
0.0241135
0.0252312
0.0264363
0.0277304
0.0291128
0.0305806
0.0321295
3.49682e-05
0.000149534
0.000262751
0.000424398
0.000635883
0.000893558
0.00120027
0.00156041
0.00197929
0.00246039
0.00300693
0.00362244
0.00431104
0.0050773
0.00592459
0.00681819
0.00771939
0.00861538
0.00950255
0.0103795
0.0112453
0.0120984
0.012937
0.0137599
0.0145657
0.0153528
0.0161207
0.0168699
0.0176017
0.0183198
0.0190297
0.0197394
0.0204587
0.0211999
0.0219769
0.0228034
0.0236934
0.0246601
0.0257139
0.0268628
0.0281116
0.0294633
0.0309232
3.43759e-05
0.000147904
0.000256036
0.00040004
0.000594764
0.000832442
0.00111453
0.00144475
0.00182748
0.00226771
0.00276799
0.00333146
0.00396252
0.0046651
0.00544336
0.00630178
0.00722183
0.00815787
0.00909236
0.01002
0.0109387
0.0118469
0.012743
0.0136252
0.0144916
0.0153402
0.0161688
0.0169758
0.0177599
0.018521
0.0192608
0.0199824
0.0206921
0.0213985
0.0221133
0.0228508
0.0236268
0.0244587
0.0253629
0.0263546
0.0274465
0.0286496
0.0299785
3.39948e-05
0.000145755
0.000250126
0.00038277
0.000563464
0.000785189
0.00104823
0.00135544
0.0017107
0.00211856
0.00258261
0.00310573
0.00369165
0.00434411
0.00506749
0.00586634
0.00674501
0.0076903
0.0086578
0.00962743
0.0105916
0.0115479
0.0124948
0.0134301
0.0143522
0.0152587
0.0161468
0.0170143
0.0178586
0.0186775
0.0194696
0.0202349
0.0209748
0.0216935
0.0223981
0.0230989
0.0238097
0.0245476
0.0253316
0.0261818
0.0271178
0.0281587
0.0293258
3.36775e-05
0.000144591
0.000246568
0.000370958
0.000538514
0.000747094
0.000994743
0.00128355
0.0016169
0.00199881
0.00243367
0.00292425
0.00347371
0.00408561
0.00476423
0.00551405
0.00633951
0.0072449
0.00821768
0.00921557
0.0102174
0.0112154
0.0122066
0.0131893
0.0141612
0.01512
0.0160631
0.0169879
0.0178916
0.0187707
0.0196225
0.0204448
0.0212361
0.0219965
0.0227283
0.023437
0.0241317
0.0248253
0.0255349
0.0262809
0.0270866
0.0279768
0.0289818
3.34775e-05
0.000143656
0.000243799
0.00036264
0.00051847
0.000715772
0.000950598
0.00122432
0.00153972
0.00190053
0.00231083
0.00277423
0.00329348
0.00387195
0.00451353
0.00522222
0.00600261
0.00685959
0.00779717
0.00879991
0.00982745
0.0108601
0.0118902
0.0129145
0.0139304
0.0149362
0.0159291
0.0169064
0.0178653
0.0188021
0.0197135
0.020596
0.0214464
0.0222625
0.023043
0.023789
0.0245047
0.0251976
0.0258799
0.0265684
0.0272852
0.0280576
0.0289219
3.33092e-05
0.000143
0.000241879
0.000356581
0.000502317
0.000689727
0.00091364
0.00117449
0.00147481
0.00181806
0.00220774
0.00264813
0.00314174
0.00369173
0.00430173
0.00497555
0.0057178
0.00653287
0.00742584
0.00840013
0.00943391
0.0104911
0.0115538
0.0126145
0.0136698
0.0147175
0.0157552
0.01678
0.0177893
0.0187797
0.0197472
0.0206882
0.0215987
0.0224749
0.0233136
0.0241128
0.0248726
0.0255955
0.0262885
0.026963
0.0276365
0.0283343
0.0290942
3.32245e-05
0.000142606
0.000240353
0.000351873
0.000489729
0.000667816
0.00088206
0.00113205
0.00141965
0.00174792
0.00212026
0.00254062
0.00301228
0.00353772
0.00412054
0.00476454
0.00547376
0.00625262
0.00710606
0.00803886
0.00905241
0.0101186
0.0112053
0.0122971
0.0133872
0.0144723
0.0155501
0.0166178
0.0176729
0.018712
0.0197316
0.0207275
0.0216956
0.0226314
0.0235307
0.0243895
0.0252052
0.025977
0.0267066
0.0274004
0.0280702
0.0287361
0.0294314
3.31244e-05
0.000142244
0.000239211
0.000348347
0.000480053
0.000649304
0.000855052
0.00109548
0.00137198
0.00168731
0.00204463
0.00244775
0.00290025
0.00340438
0.00396359
0.00458162
0.005262
0.00600939
0.00682831
0.00772353
0.00870011
0.0097542
0.0108529
0.0119686
0.0130887
0.0142074
0.0153212
0.0164277
0.0175242
0.0186078
0.0196749
0.0207216
0.0217434
0.0227361
0.0236946
0.0246142
0.0254904
0.0263201
0.0271017
0.0278369
0.0285324
0.0292016
0.0298693
3.30676e-05
0.000142096
0.000238391
0.00034564
0.000472648
0.000633614
0.0008316
0.00106348
0.00133032
0.00163441
0.00197871
0.00236696
0.00280254
0.00328811
0.00382678
0.00442189
0.00507708
0.00579656
0.00658509
0.00744721
0.00838776
0.00941102
0.0105054
0.0116359
0.0127804
0.0139284
0.0150746
0.0162161
0.0173503
0.0184742
0.0195846
0.0206778
0.0217495
0.0227951
0.0238099
0.0247885
0.0257255
0.0266164
0.0274573
0.0282466
0.0289863
0.0296839
0.0303547
3.30024e-05
0.000141959
0.000237786
0.000343516
0.000466755
0.000620222
0.00081106
0.00103542
0.00129382
0.00158806
0.00192096
0.00229602
0.00271662
0.00318578
0.00370615
0.004281
0.00491405
0.00560907
0.00637054
0.00720306
0.00811133
0.0091006
0.0101728
0.0113056
0.0124672
0.0136398
0.0148149
0.0159882
0.0171566
0.0183173
0.0194673
0.0206031
0.0217206
0.0228155
0.0238828
0.0249171
0.0259129
0.0268646
0.027767
0.0286161
0.0294103
0.0301516
0.0308461
3.29771e-05
0.000141904
0.000237308
0.000341739
0.00046192
0.000608891
0.000793117
0.00101071
0.00126139
0.00154695
0.00186977
0.00223308
0.00264041
0.00309506
0.00359925
0.00415605
0.0047693
0.00544243
0.00617974
0.00698577
0.00786544
0.00882346
0.00986475
0.0109852
0.0121545
0.0133461
0.0145464
0.0157483
0.0169479
0.0181422
0.0193285
0.0205032
0.0216629
0.0228031
0.0239193
0.0250058
0.0260571
0.0270673
0.0280304
0.0289407
0.0297938
0.0305873
0.0313206
3.29371e-05
0.000141826
0.000236864
0.000340211
0.000457872
0.000599384
0.000777232
0.000988536
0.00123235
0.00151011
0.00182402
0.00217703
0.00257249
0.00301405
0.00350374
0.00404461
0.00464006
0.00529357
0.00600935
0.00679183
0.00764554
0.00857535
0.00958663
0.0106826
0.0118481
0.0130518
0.0142725
0.0154998
0.0167278
0.017953
0.0191725
0.0203832
0.0215815
0.0227637
0.0239249
0.02506
0.0261633
0.027229
0.0282504
0.0292209
0.0301344
0.0309852
0.0317682
3.29579e-05
0.00014187
0.000236586
0.000339054
0.000454662
0.000591607
0.000763253
0.000968782
0.00120632
0.00147699
0.00178291
0.00212678
0.00251177
0.00294133
0.00341799
0.00394449
0.00452386
0.00515972
0.00585606
0.00661729
0.00744762
0.00835194
0.00933579
0.0104036
0.0115537
0.0127609
0.0139967
0.0152457
0.0164994
0.0177529
0.0190033
0.0202471
0.0214811
0.0227021
0.023905
0.0250852
0.0262372
0.0273549
0.0284316
0.0294604
0.0304343
0.0313456
0.0321874
3.29858e-05
0.000141975
0.000236364
0.000338048
0.000451847
0.000585035
0.000750892
0.000951021
0.00118281
0.00144699
0.00174566
0.00208125
0.00245674
0.00287546
0.00334033
0.00385383
0.0044189
0.00503884
0.00571768
0.00645959
0.00726893
0.00815015
0.00910866
0.0101495
0.0112763
0.0124774
0.013722
0.0149887
0.0162651
0.0175447
0.0188235
0.020098
0.0213654
0.0226221
0.0238638
0.0250859
0.0262833
0.0274497
0.0285789
0.0296636
0.0306962
0.0316691
0.0325743
3.29961e-05
0.000142082
0.000236184
0.00033711
0.000449367
0.000579413
0.000739799
0.000934771
0.00116129
0.00141972
0.00171169
0.00203967
0.00240655
0.00281553
0.0032697
0.00377145
0.00432342
0.00492894
0.00559189
0.00631629
0.00710635
0.0079667
0.00890231
0.00991824
0.0110198
0.0122054
0.0134518
0.0147312
0.0160272
0.0173305
0.0186354
0.0199386
0.021237
0.0225268
0.0238046
0.0250658
0.0263055
0.0275178
0.0286963
0.0298339
0.0309232
0.0319556
0.0329233
3.30004e-05
0.000142147
0.000235966
0.00033622
0.000447168
0.000574534
0.000729904
0.000920076
0.00114172
0.00139473
0.00168065
0.00200174
0.00236076
0.00276069
0.00320502
0.00369597
0.00423594
0.00482827
0.00547678
0.00618521
0.00695763
0.00779883
0.00871363
0.00970703
0.0107842
0.0119485
0.0131886
0.0144755
0.0157873
0.0171116
0.0184408
0.0197706
0.0210978
0.0224188
0.0237304
0.0250281
0.0263072
0.0275625
0.0287872
0.0299748
0.0311176
0.0322069
0.0332339
3.30333e-05
0.000142263
0.000235832
0.000335536
0.000445326
0.000570243
0.000721013
0.000906634
0.00112369
0.00137172
0.00165199
0.00196669
0.00231849
0.00271027
0.00314554
0.00362644
0.00415548
0.00473598
0.00537112
0.00606482
0.0068212
0.00764477
0.00854031
0.00951256
0.010567
0.0117087
0.0129351
0.0142232
0.015547
0.0168893
0.0182407
0.0195954
0.0209495
0.0222999
0.0236432
0.024975
0.0262912
0.0275865
0.0288548
0.0300893
0.0312825
0.0324255
0.0335088
3.30661e-05
0.00014235
0.000235726
0.00033497
0.000443697
0.000566455
0.000713183
0.000894297
0.00110695
0.0013503
0.00162541
0.00193426
0.00227942
0.00266371
0.00309046
0.00356202
0.00408097
0.00465033
0.00527317
0.00595333
0.00669506
0.00750244
0.00838006
0.00933284
0.0103665
0.011486
0.0126937
0.0139768
0.0153074
0.0166649
0.0180362
0.0194138
0.0207933
0.0221713
0.0235441
0.0249082
0.0262591
0.0275922
0.0289014
0.0301801
0.0314209
0.0326152
0.0337537
3.30885e-05
0.000142459
0.000235667
0.000334454
0.000442212
0.000563142
0.00070626
0.000883043
0.00109162
0.00133057
0.00160079
0.00190412
0.0022431
0.00262043
0.00303922
0.00350224
0.00401179
0.00457078
0.00518226
0.0058499
0.0065777
0.00737008
0.00823133
0.00916631
0.0101802
0.0112787
0.0124659
0.0137377
0.0150703
0.0164394
0.0178279
0.0192265
0.0206299
0.0220337
0.0234345
0.0248289
0.0262128
0.0275812
0.0289291
0.0302497
0.0315358
0.0327789
0.0339688
3.31469e-05
0.000142591
0.000235622
0.000333962
0.000440846
0.000560174
0.000700082
0.000872583
0.00107717
0.00131195
0.00157758
0.00187588
0.00220911
0.00257995
0.00299144
0.00344639
0.00394723
0.00449651
0.00509735
0.00575331
0.00646842
0.00724663
0.00809253
0.00901077
0.0100064
0.011085
0.0122518
0.0135076
0.014837
0.0162133
0.0176165
0.0190343
0.0204597
0.0218879
0.0233153
0.0247384
0.0261532
0.0275553
0.0289395
0.0303001
0.0316298
0.0329208
0.0341639
3.31538e-05
0.000142657
0.000235505
0.000333429
0.000439531
0.000557411
0.000694514
0.000862927
0.00106371
0.00129453
0.00155584
0.00184933
0.00217711
0.00254184
0.00294646
0.00339386
0.00388642
0.0044267
0.00501757
0.00566263
0.00636581
0.00713087
0.00796241
0.00886495
0.00984346
0.0109036
0.0120504
0.0132879
0.0146087
0.0159882
0.0174029
0.0188375
0.0202832
0.0217344
0.0231869
0.0246369
0.0260811
0.0275148
0.0289333
0.0303312
0.0317021
0.0330386
0.0343353
3.31822e-05
0.000142771
0.000235434
0.000333003
0.000438424
0.000554992
0.000689553
0.000853971
0.00105109
0.00127818
0.00153542
0.00182432
0.002147
0.00250599
0.00290414
0.00334456
0.00382931
0.00436105
0.00494258
0.00557735
0.00626915
0.00702181
0.00783987
0.00872766
0.00969013
0.0107327
0.0118606
0.0130789
0.0143868
0.0157649
0.0171877
0.0186367
0.0201011
0.0215736
0.0230494
0.024525
0.0259967
0.0274603
0.028911
0.0303437
0.0317519
0.0331276
0.0344591
3.32197e-05
0.000142867
0.000235364
0.0003326
0.000437346
0.000552682
0.000684968
0.000845655
0.00103926
0.00126278
0.00151616
0.0018007
0.00211853
0.00247212
0.00286419
0.00329797
0.00377539
0.00429904
0.00487176
0.00549687
0.00617794
0.00691889
0.00772418
0.0085981
0.00954544
0.0105715
0.0116814
0.0128808
0.0141725
0.0155445
0.0169715
0.0184327
0.0199136
0.0214059
0.0229038
0.0244033
0.0259009
0.0273925
0.0288737
0.0303392
0.0317828
0.0331978
0.0345778
3.32559e-05
0.00014296
0.000235366
0.000332307
0.000436418
0.000550594
0.000680762
0.000837897
0.00102811
0.00124819
0.0014979
0.00177842
0.0020916
0.00244002
0.00282638
0.00325363
0.00372408
0.00424006
0.00480445
0.00542042
0.00609142
0.0068215
0.00761471
0.00847534
0.00940828
0.0104185
0.0115115
0.0126928
0.0139669
0.0153284
0.0167563
0.0182262
0.0197214
0.0212317
0.0227503
0.0242726
0.0257947
0.0273128
0.0288225
0.030319
0.031796
0.0332467
0.034661
3.32882e-05
0.000143075
0.0002353
0.000331943
0.000435487
0.000548637
0.000676934
0.000830703
0.00101754
0.00123431
0.00148048
0.00175721
0.00206607
0.0024095
0.00279043
0.00321164
0.00367538
0.00418414
0.00474064
0.00534788
0.00600933
0.00672891
0.00751059
0.00835863
0.0092779
0.0102733
0.0113502
0.0125142
0.0137702
0.0151182
0.0165426
0.0180181
0.0195253
0.021052
0.0225899
0.0241335