/*--------------------------------*- C++ -*----------------------------------*\
| =========                 |                                                 |
| \\      /  F ield         | OpenFOAM: The Open Source CFD Toolbox           |
|  \\    /   O peration     | Version:  2.3.0                                 |
|   \\  /    A nd           | Web:      www.OpenFOAM.org                      |
|    \\/     M anipulation  |                                                 |
\*---------------------------------------------------------------------------*/
FoamFile
{
    version     2.0;
    format      ascii;
    class       volVectorField;
    location    "2000";
    object      U;
}
// * * * * * * * * * * * * * * * * * * * * * * * * * * * * * * * * * * * * * //

dimensions      [0 1 -1 0 0 0 0];

internalField   nonuniform List<vector> 
38388
(
(19.7894 14.094 1.13472e-20)
(19.6331 14.2982 2.83555e-20)
(19.4743 14.4983 -2.42494e-20)
(19.3092 14.6967 1.39792e-20)
(19.1369 14.8928 2.10085e-22)
(18.9564 15.0858 0)
(18.767 15.2745 -4.41524e-20)
(18.5678 15.4581 2.65082e-20)
(18.3577 15.6351 6.53278e-20)
(18.1358 15.8042 -1.92638e-19)
(17.9012 15.9642 2.78238e-19)
(17.6528 16.1134 -1.57578e-19)
(17.3896 16.2504 1.95932e-19)
(17.1108 16.3734 -1.91933e-19)
(16.8154 16.4807 0)
(16.5023 16.5704 2.77764e-20)
(16.1708 16.6409 2.18593e-20)
(15.8201 16.6906 2.38733e-20)
(15.4492 16.7177 3.81412e-19)
(15.0573 16.721 -3.532e-19)
(14.6436 16.6993 -1.26417e-20)
(14.2075 16.6519 4.42083e-19)
(13.7483 16.5789 -9.50047e-19)
(13.2646 16.4796 1.03463e-18)
(12.7567 16.3573 -5.38442e-19)
(12.223 16.213 -2.40032e-20)
(11.6622 16.05 -6.5657e-19)
(11.0729 15.8732 6.87759e-19)
(10.4529 15.6888 0)
(9.79993 15.5047 -3.43281e-20)
(9.10957 15.3293 3.75588e-20)
(8.37712 15.1736 0)
(7.59524 15.0478 0)
(6.75782 14.9693 -2.43976e-20)
(5.85512 14.9511 5.79439e-19)
(4.87646 15.0064 -1.86064e-20)
(3.81208 15.1514 -6.28894e-19)
(2.64367 15.4063 -3.12973e-20)
(1.34459 15.7672 -8.79794e-21)
(-0.118826 16.2304 -1.49454e-20)
(-1.7093 16.9128 2.10989e-20)
(-3.34271 17.9971 0)
(-5.08299 18.9423 1.00004e-19)
(19.6116 14.0354 -1.88001e-20)
(19.4688 14.2226 -2.48038e-20)
(19.3245 14.4092 -1.22244e-20)
(19.1757 14.5954 2.73723e-20)
(19.0221 14.782 -4.91982e-20)
(18.8632 14.9687 2.30138e-20)
(18.6987 15.1555 -1.00939e-20)
(18.5282 15.342 -9.58182e-21)
(18.3511 15.5281 -4.90366e-21)
(18.1668 15.7133 -1.48855e-20)
(17.9748 15.8977 -7.62101e-21)
(17.7743 16.0808 -3.81149e-21)
(17.5647 16.2627 -4.04525e-21)
(17.3453 16.443 -6.00067e-21)
(17.1154 16.6218 0)
(16.8743 16.7991 7.56711e-22)
(16.6213 16.9748 -8.3551e-21)
(16.3557 17.1491 3.38704e-21)
(16.0766 17.3221 -6.69807e-21)
(15.7833 17.4942 0)
(15.475 17.6657 -3.86259e-21)
(15.1508 17.837 1.6412e-20)
(14.8098 18.0086 1.37971e-20)
(14.4513 18.1808 -1.43789e-20)
(14.0742 18.3547 -2.22239e-21)
(13.6772 18.5304 5.84468e-21)
(13.2594 18.7092 0)
(12.8186 18.8906 0)
(12.3534 19.0754 3.4002e-20)
(11.8615 19.2635 -4.27282e-20)
(11.3396 19.4533 8.04383e-20)
(10.7849 19.6441 -7.16053e-20)
(10.1933 19.8316 0)
(9.56055 20.0116 0)
(8.88165 20.1762 -2.91697e-19)
(8.1523 20.3169 3.22822e-19)
(7.36794 20.4203 0)
(6.52626 20.4687 -4.07354e-20)
(5.62845 20.4336 -4.37749e-20)
(4.69784 20.2743 -5.0136e-20)
(3.77441 19.9519 2.17936e-20)
(2.90196 19.4401 6.84272e-19)
(2.09401 18.7026 -7.20226e-19)
(19.443 13.9579 4.04551e-20)
(19.3068 14.1264 -1.23527e-20)
(19.1684 14.2964 1.30346e-20)
(19.0254 14.466 5.28809e-20)
(18.8778 14.6364 0)
(18.7253 14.8077 0)
(18.5676 14.98 -9.89883e-21)
(18.4046 15.1533 9.55821e-21)
(18.236 15.3274 0)
(18.0612 15.5023 8.59694e-21)
(17.8798 15.678 0)
(17.6912 15.8544 7.77933e-21)
(17.4949 16.0315 1.01498e-20)
(17.2902 16.2092 0)
(17.0767 16.3877 5.43545e-20)
(16.8536 16.5669 -4.73438e-20)
(16.6203 16.7467 3.33458e-21)
(16.3761 16.9272 -3.33562e-21)
(16.1201 17.1083 -7.71414e-20)
(15.8512 17.2899 6.24527e-20)
(15.5685 17.472 -6.57571e-20)
(15.2708 17.6542 8.17285e-20)
(14.9568 17.8366 1.60833e-20)
(14.625 18.0186 9.56821e-20)
(14.2738 18.2 -1.0634e-19)
(13.9015 18.3801 -1.14015e-19)
(13.5065 18.5583 2.46826e-19)
(13.087 18.7335 -1.33444e-19)
(12.6408 18.9043 0)
(12.1658 19.0686 2.06968e-19)
(11.6602 19.2237 -2.06122e-19)
(11.1219 19.3661 -1.11088e-20)
(10.5494 19.4909 0)
(9.9422 19.5916 2.92169e-20)
(9.30077 19.6601 -3.36684e-20)
(8.62688 19.687 -2.56469e-20)
(7.92476 19.6601 0)
(7.2012 19.5661 3.83203e-20)
(6.46799 19.389 4.86285e-19)
(5.74383 19.1156 -8.99311e-19)
(5.05284 18.7374 4.04067e-19)
(4.41725 18.2496 -5.34081e-19)
(3.86005 17.6636 6.50947e-19)
(19.2933 13.8746 2.09375e-20)
(19.1647 14.0245 2.79105e-20)
(19.0339 14.1775 -4.88183e-20)
(18.8989 14.3301 7.7162e-21)
(18.7595 14.4834 0)
(18.6156 14.6376 -4.89275e-20)
(18.4669 14.7928 6.87532e-20)
(18.3135 14.9491 0)
(18.155 15.1065 0)
(17.9912 15.2649 0)
(17.8217 15.4242 0)
(17.6459 15.5845 0)
(17.4632 15.7456 -1.00739e-20)
(17.273 15.9074 1.6038e-20)
(17.0747 16.0699 1.1241e-19)
(16.8676 16.2332 -1.24119e-19)
(16.6509 16.3972 -1.21682e-19)
(16.4242 16.5619 1.41848e-19)
(16.1867 16.727 1.46835e-19)
(15.9376 16.8924 -1.36776e-19)
(15.6761 17.0577 1.52522e-19)
(15.4014 17.2226 -6.4099e-21)
(15.1123 17.3864 -1.83087e-19)
(14.8078 17.5483 1.92217e-19)
(14.4865 17.7076 -1.77899e-19)
(14.147 17.863 0)
(13.788 18.013 0)
(13.408 18.1561 3.87599e-20)
(13.0056 18.2903 -4.28429e-20)
(12.5796 18.4128 0)
(12.1287 18.5206 0)
(11.6521 18.6097 0)
(11.1494 18.6757 0)
(10.6206 18.7129 -2.81555e-20)
(10.0667 18.7152 -2.95725e-19)
(9.49034 18.6754 -8.20798e-20)
(8.89583 18.5862 3.80387e-19)
(8.28974 18.44 4.73375e-19)
(7.68151 18.2302 -4.81482e-19)
(7.08426 17.9518 0)
(6.51294 17.6046 1.51228e-19)
(5.98357 17.193 6.19765e-21)
(5.51061 16.7261 0)
(19.1592 13.7879 0)
(19.0378 13.9217 9.68621e-20)
(18.9142 14.0592 -6.26271e-20)
(18.7862 14.1962 -2.82457e-20)
(18.6541 14.3339 0)
(18.5175 14.4722 0)
(18.376 14.6113 0)
(18.2296 14.7515 1.81651e-20)
(18.0783 14.8929 6.65142e-20)
(17.922 15.0353 -4.77283e-20)
(17.7604 15.1787 0)
(17.5931 15.323 0)
(17.4194 15.4681 -1.99274e-20)
(17.2389 15.6137 -1.59539e-20)
(17.0509 15.7598 2.1159e-20)
(16.8544 15.9063 1.36982e-19)
(16.6489 16.0531 -1.60477e-19)
(16.4337 16.2001 1.54829e-19)
(16.208 16.3471 -1.7574e-19)
(15.9712 16.4939 0)
(15.7226 16.64 2.79252e-20)
(15.4614 16.7852 0)
(15.1868 16.9286 0)
(14.8978 17.0694 -2.51184e-19)
(14.5935 17.2068 5.6507e-19)
(14.2728 17.3392 -2.38714e-19)
(13.9342 17.4654 4.28447e-20)
(13.5765 17.5833 1.37802e-19)
(13.1986 17.6912 -3.32229e-19)
(12.7992 17.7867 4.13611e-20)
(12.378 17.867 -7.84212e-20)
(11.9352 17.9287 3.11155e-19)
(11.4711 17.968 -7.5073e-20)
(10.9864 17.9801 -8.30884e-20)
(10.4832 17.9599 -4.59851e-20)
(9.96449 17.9022 9.67329e-20)
(9.43453 17.8016 5.62463e-20)
(8.89951 17.6529 0)
(8.36717 17.452 -5.49627e-19)
(7.84704 17.1966 5.56775e-19)
(7.35038 16.8871 3.14131e-21)
(6.88786 16.5276 -3.51578e-19)
(6.46965 16.1247 3.54087e-19)
(19.041 13.704 3.98391e-20)
(18.9267 13.8222 -3.44106e-20)
(18.81 13.9456 0)
(18.6892 14.0686 -9.69354e-20)
(18.5646 14.1924 -9.9282e-22)
(18.4358 14.3168 7.69178e-20)
(18.3021 14.4416 -7.89086e-20)
(18.1631 14.5674 -1.94368e-20)
(18.0191 14.6944 1.60779e-19)
(17.8702 14.8225 -1.82073e-19)
(17.7164 14.9516 1.44061e-19)
(17.5572 15.0816 -8.41951e-20)
(17.3923 15.2124 4.34581e-20)
(17.221 15.3438 2.42528e-20)
(17.0429 15.4755 4.78792e-20)
(16.8571 15.6074 5.06168e-20)
(16.6629 15.7391 -9.8509e-20)
(16.4592 15.8706 2.81826e-20)
(16.2456 16.002 0)
(16.0215 16.1327 -1.17653e-19)
(15.786 16.2625 9.18217e-20)
(15.5385 16.3908 -1.67012e-19)
(15.2784 16.5173 1.71895e-19)
(15.0049 16.6407 -3.94283e-20)
(14.7174 16.7604 -3.63297e-20)
(14.4153 16.8752 -2.14405e-19)
(14.0979 16.9836 -3.72774e-21)
(13.7641 17.0832 4.0103e-19)
(13.412 17.172 -2.11779e-19)
(13.0404 17.2479 -3.01544e-19)
(12.6487 17.3086 5.83635e-19)
(12.2375 17.352 -7.15706e-19)
(11.8082 17.3743 3.78609e-19)
(11.3616 17.3713 -7.99196e-21)
(10.8995 17.3388 4.53385e-20)
(10.4249 17.2727 -1.58298e-19)
(9.9419 17.1687 4.23403e-19)
(9.45569 17.0234 -9.28038e-20)
(8.97331 16.8333 -8.19851e-19)
(8.50201 16.5967 1.31789e-19)
(8.04989 16.3148 2.3442e-19)
(7.62578 15.9908 -4.44707e-19)
(7.23823 15.63 5.4589e-19)
(18.9368 13.6194 -6.32495e-20)
(18.8292 13.726 0)
(18.7192 13.8377 0)
(18.605 13.9488 2.04888e-20)
(18.4873 14.0607 0)
(18.3658 14.1732 -6.61276e-20)
(18.2403 14.2858 1.13112e-19)
(18.1085 14.3992 -9.19685e-20)
(17.9713 14.5139 6.72059e-20)
(17.8289 14.6297 0)
(17.6818 14.7466 -7.44974e-20)
(17.5294 14.8642 9.70608e-20)
(17.3715 14.9827 7.8248e-20)
(17.2076 15.1021 -2.31279e-19)
(17.0375 15.2218 1.30425e-19)
(16.8604 15.3418 -2.59119e-20)
(16.6756 15.4614 0)
(16.4816 15.5803 6.22598e-20)
(16.2779 15.6988 -9.05079e-20)
(16.0642 15.8168 0)
(15.8397 15.9334 -1.42003e-19)
(15.6036 16.0482 1.79174e-19)
(15.3551 16.1611 4.30098e-21)
(15.0941 16.2709 -1.31048e-19)
(14.819 16.3764 1.74132e-19)
(14.5298 16.4774 1.4558e-19)
(14.2267 16.5729 -2.48998e-19)
(13.9103 16.6602 0)
(13.5785 16.7364 2.46647e-19)
(13.2294 16.7993 -1.85621e-19)
(12.8609 16.8466 0)
(12.4729 16.8779 7.41656e-20)
(12.0695 16.8901 3.47845e-19)
(11.6514 16.8785 -3.62414e-19)
(11.2195 16.8402 1.03133e-19)
(10.7775 16.7712 -1.20053e-19)
(10.3288 16.6674 2.31618e-19)
(9.87702 16.5275 2.59734e-19)
(9.43061 16.348 0)
(8.99432 16.1267 -3.04321e-19)
(8.5741 15.8645 0)
(8.17716 15.5655 3.58984e-19)
(7.81164 15.2338 -5.4337e-19)
(18.8413 13.5399 -9.30841e-22)
(18.7421 13.6352 0)
(18.6393 13.7365 -2.31276e-20)
(18.5319 13.8374 4.81689e-20)
(18.4206 13.9389 4.92898e-20)
(18.3053 14.0417 -1.22376e-19)
(18.1889 14.1439 2.5771e-20)
(18.0645 14.2465 0)
(17.9342 14.3506 5.13709e-20)
(17.7978 14.4561 0)
(17.6567 14.5628 2.76072e-20)
(17.5105 14.67 0)
(17.3587 14.778 1.4183e-19)
(17.2008 14.8871 -1.13502e-19)
(17.0375 14.9965 -1.19881e-19)
(16.8673 15.1064 1.20798e-19)
(16.6908 15.2162 0)
(16.5054 15.3249 3.16357e-20)
(16.3096 15.4332 -3.31044e-20)
(16.104 15.5412 -1.48216e-19)
(15.8888 15.6479 3.06835e-19)
(15.6628 15.7521 -1.58984e-19)
(15.4234 15.8547 1.33897e-19)
(15.174 15.9541 -1.78465e-19)
(14.9107 16.0487 1.98229e-19)
(14.6327 16.1376 -1.53049e-19)
(14.3386 16.2218 0)
(14.0345 16.2993 5.95679e-20)
(13.7183 16.3668 6.39042e-20)
(13.3878 16.4221 1.92155e-21)
(13.0423 16.4594 -1.5429e-19)
(12.6702 16.4819 3.25535e-19)
(12.2857 16.4881 -8.34464e-20)
(11.8907 16.471 9.33183e-20)
(11.4819 16.4297 -1.01497e-19)
(11.0642 16.3612 0)
(10.6453 16.2571 1.2887e-19)
(10.2184 16.1209 -3.85985e-19)
(9.79937 15.9506 1.50043e-19)
(9.39029 15.7413 7.44689e-21)
(8.99396 15.4944 0)
(8.61625 15.2139 1.73353e-19)
(8.26713 14.904 0)
(18.7458 13.4671 2.76145e-20)
(18.6588 13.553 -2.69591e-20)
(18.5665 13.6439 1.80938e-21)
(18.4687 13.7346 -5.33486e-20)
(18.3673 13.8266 1.05582e-19)
(18.2547 13.9215 1.09133e-21)
(18.1452 14.0155 -5.31336e-20)
(18.0261 14.109 0)
(17.9052 14.2038 -5.69395e-20)
(17.7782 14.2992 0)
(17.6462 14.3969 -5.84762e-20)
(17.5084 14.495 0)
(17.3645 14.5931 -5.82362e-20)
(17.2119 14.694 2.86261e-20)
(17.0572 14.794 0)
(16.8957 14.8938 -3.4568e-20)
(16.7307 14.9943 -6.72449e-20)
(16.5601 15.0921 3.07808e-20)
(16.3777 15.1893 -3.36464e-20)
(16.1834 15.2874 7.3748e-20)
(15.9792 15.3863 0)
(15.7681 15.4803 1.29135e-19)
(15.5362 15.5748 -1.33338e-19)
(15.2987 15.6668 0)
(15.0485 15.7536 -9.94586e-20)
(14.7881 15.8326 2.06802e-19)
(14.5004 15.9071 -1.09372e-19)
(14.2059 15.9738 4.6408e-21)
(13.9084 16.0268 -6.53995e-20)
(13.5935 16.0771 -1.43607e-19)
(13.2782 16.1077 8.20608e-20)
(12.9193 16.1203 1.69379e-19)
(12.5434 16.1264 -2.62113e-19)
(12.1643 16.1069 1.98434e-19)
(11.7719 16.0617 -2.03229e-19)
(11.3639 16.0029 0)
(10.9605 15.908 1.1672e-19)
(10.5333 15.7763 0)
(10.131 15.6108 2.87763e-19)
(9.7512 15.4043 -2.93558e-19)
(9.37602 15.1702 -3.33015e-19)
(9.00419 14.9092 -4.37423e-21)
(8.66072 14.62 2.51442e-21)
(-6.78275 18.1314 -1.42476e-19)
(-5.98449 16.6793 0)
(-5.22109 15.3353 4.64778e-19)
(-4.46631 14.2789 -5.34389e-19)
(-3.74446 13.4008 8.96947e-20)
(-3.05949 12.6573 7.14386e-20)
(-2.41477 12.0175 7.52843e-20)
(-1.81118 11.4609 -4.89482e-19)
(-1.24696 10.9719 8.21062e-19)
(-0.719416 10.5383 -9.90763e-19)
(-0.226244 10.1498 5.8599e-19)
(0.234724 9.79925 1.38039e-19)
(0.666659 9.48052 -1.3269e-19)
(1.07224 9.18828 0)
(1.45395 8.91832 9.30963e-19)
(1.81525 8.66788 -8.97101e-19)
(2.15686 8.43379 0)
(2.48119 8.21435 0)
(2.78945 8.00722 1.0402e-19)
(3.0841 7.81133 -1.05077e-19)
(3.36659 7.62515 1.5835e-18)
(3.63835 7.44752 -1.3542e-18)
(3.90029 7.27729 0)
(4.15354 7.1135 -1.86993e-19)
(4.39884 6.95537 -3.73602e-19)
(4.63683 6.80213 -1.27651e-18)
(4.86821 6.65317 4.76739e-22)
(5.09354 6.50806 1.43382e-18)
(5.31332 6.36632 -1.77678e-19)
(5.52795 6.2276 -3.61083e-19)
(5.73773 6.09148 0)
(5.94299 5.95769 -1.06455e-18)
(6.14403 5.8261 -3.56678e-19)
(6.34113 5.69648 1.05963e-18)
(6.53449 5.56866 -1.4238e-21)
(6.7243 5.44247 -1.05622e-18)
(6.91078 5.3178 3.54804e-19)
(7.09415 5.19466 0)
(7.27465 5.07298 5.42229e-21)
(7.45252 4.95272 5.08792e-19)
(7.62799 4.83351 -8.51235e-19)
(7.80136 4.71545 6.61256e-19)
(7.97595 4.60537 -6.54866e-19)
(1.41554 17.7382 0)
(0.995548 16.7129 -5.74867e-20)
(0.801411 15.7591 5.50104e-20)
(0.752305 14.8834 -8.73594e-20)
(0.805098 14.0884 3.97832e-19)
(0.926985 13.3711 0)
(1.09736 12.7259 0)
(1.30019 12.146 6.59515e-20)
(1.52447 11.6246 0)
(1.76122 11.1546 4.02751e-19)
(2.00506 10.7294 -5.08746e-19)
(2.25197 10.3432 0)
(2.4983 9.99073 9.72061e-19)
(2.74236 9.66732 -1.87848e-18)
(2.98328 9.36935 7.98109e-19)
(3.21958 9.09311 7.78446e-19)
(3.45113 8.8359 -7.52102e-19)
(3.67768 8.59505 0)
(3.89955 8.36849 -1.01281e-19)
(4.11644 8.15429 0)
(4.32858 7.95091 -1.73981e-18)
(4.53609 7.75703 1.32756e-18)
(4.73905 7.57148 1.83288e-19)
(4.93771 7.39347 1.8337e-19)
(5.13214 7.22207 1.80925e-19)
(5.3226 7.05667 -1.78863e-19)
(5.50928 6.89666 0)
(5.69236 6.74149 1.73534e-19)
(5.87204 6.59076 1.74954e-19)
(6.04846 6.444 0)
(6.22175 6.30085 1.7188e-19)
(6.39214 6.16106 0)
(6.55972 6.02432 0)
(6.72463 5.89039 3.82904e-21)
(6.88702 5.75907 3.48973e-19)
(7.04699 5.6301 -3.47046e-19)
(7.20469 5.50342 -1.77533e-21)
(7.36027 5.37886 2.50184e-21)
(7.51379 5.25632 0)
(7.66543 5.13566 -3.43803e-19)
(7.81524 5.01669 -3.36959e-19)
(7.96339 4.90059 -6.68395e-19)
(8.11299 4.79777 0)
(3.40324 17.0075 -2.96693e-19)
(3.05953 16.313 4.44454e-19)
(2.82178 15.6118 0)
(2.67791 14.9254 -1.19428e-19)
(2.61242 14.2681 -1.25005e-19)
(2.61087 13.6479 -6.37688e-20)
(2.66063 13.0683 -2.35986e-22)
(2.75 12.5299 -5.91812e-20)
(2.86969 12.0317 1.19057e-19)
(3.0118 11.5714 1.22276e-19)
(3.17011 11.1463 0)
(3.33974 10.7533 3.44181e-19)
(3.51709 10.3891 -4.40626e-19)
(3.69922 10.0512 0)
(3.88354 9.73657 9.56351e-19)
(4.06859 9.44264 -7.14782e-19)
(4.25304 9.16725 -9.0927e-19)
(4.43626 8.90847 9.78066e-19)
(4.61769 8.66447 0)
(4.79678 8.43375 5.66481e-19)
(4.97341 8.21499 3.73283e-19)
(5.14718 8.00682 -5.43507e-19)
(5.31824 7.80834 -1.80957e-19)
(5.48634 7.61854 0)
(5.65167 7.43665 -6.95012e-19)
(5.81434 7.26194 6.87148e-19)
(5.97436 7.0937 0)
(6.13182 6.93133 -8.48836e-19)
(6.28683 6.7743 6.74578e-19)
(6.43945 6.62208 1.67126e-19)
(6.58976 6.4743 5.02121e-19)
(6.73786 6.33062 -5.06421e-22)
(6.88382 6.19065 -1.00709e-18)
(7.02769 6.05413 -3.34009e-19)
(7.16959 5.92076 1.01525e-18)
(7.30958 5.79032 0)
(7.44778 5.66269 -3.40472e-19)
(7.58424 5.53757 2.55769e-19)
(7.71901 5.41483 4.23273e-19)
(7.85218 5.29423 -2.62706e-21)
(7.98378 5.17533 6.65859e-19)
(8.11378 5.05869 0)
(8.24373 4.95538 6.31164e-19)
(5.10513 16.2157 -9.53359e-20)
(4.77138 15.6737 0)
(4.51019 15.1144 0)
(4.31747 14.553 -1.12593e-19)
(4.1877 14.0011 -2.3062e-19)
(4.11275 13.4671 1.47405e-19)
(4.0843 12.9567 2.91867e-20)
(4.09458 12.4729 -5.86357e-20)
(4.13618 12.0173 -1.17421e-19)
(4.20311 11.5895 0)
(4.28996 11.1889 0)
(4.39236 10.8141 5.60113e-19)
(4.50664 10.4636 -5.406e-19)
(4.62965 10.1355 1.05278e-19)
(4.75917 9.82791 0)
(4.89325 9.53898 0)
(5.03036 9.26705 -7.94532e-19)
(5.16942 9.0106 5.77216e-19)
(5.30957 8.7682 -7.58517e-19)
(5.45027 8.53857 1.83539e-19)
(5.59072 8.32051 1.27026e-18)
(5.73065 8.11289 -8.91959e-19)
(5.86975 7.9148 0)
(6.0078 7.72536 5.20674e-19)
(6.14464 7.54392 -8.51835e-19)
(6.28022 7.36972 0)
(6.41447 7.20209 -5.03625e-19)
(6.54736 7.04047 6.64906e-19)
(6.67885 6.88428 0)
(6.80888 6.7331 -3.29572e-19)
(6.93739 6.58649 0)
(7.0644 6.44416 0)
(7.18991 6.30574 3.30967e-19)
(7.31399 6.17098 0)
(7.43668 6.03954 0)
(7.55798 5.91125 -6.60631e-19)
(7.67798 5.78587 3.32042e-19)
(7.79671 5.66319 0)
(7.91426 5.54305 -3.30446e-19)
(8.03072 5.42517 -8.51141e-20)
(8.14631 5.30914 -2.47218e-19)
(8.26148 5.19487 0)
(8.37785 5.08727 3.14275e-19)
(6.1025 15.6867 0)
(5.78929 15.2212 0)
(5.53158 14.7377 -1.11684e-19)
(5.3289 14.2472 3.26405e-19)
(5.17821 13.7592 1.13558e-19)
(5.07448 13.2809 0)
(5.01215 12.8179 -2.90637e-20)
(4.98542 12.3738 -8.58819e-20)
(4.98903 11.9509 -1.17337e-19)
(5.01776 11.5499 -1.06974e-21)
(5.06723 11.171 2.22878e-19)
(5.13351 10.8136 4.37684e-19)
(5.21311 10.4768 -3.15252e-19)
(5.30334 10.1597 3.13295e-19)
(5.40164 9.86081 3.79089e-21)
(5.50625 9.57872 -1.98556e-19)
(5.61529 9.31224 1.93373e-19)
(5.72784 9.06023 0)
(5.84288 8.82149 7.46781e-19)
(5.95956 8.59486 1.84583e-19)
(6.07728 8.37934 -7.14444e-19)
(6.19547 8.17398 8.78988e-19)
(6.31358 7.97794 -6.90941e-19)
(6.43132 7.79056 8.54318e-19)
(6.54867 7.61118 -1.34422e-18)
(6.66547 7.43908 1.33162e-18)
(6.78164 7.27363 -8.25225e-19)
(6.89705 7.11419 0)
(7.01149 6.96022 -6.51334e-19)
(7.12482 6.81135 8.11601e-19)
(7.23695 6.66721 0)
(7.34786 6.52751 0)
(7.4576 6.3919 -3.23465e-19)
(7.56623 6.26008 -1.61069e-19)
(7.67373 6.13173 3.24688e-19)
(7.78004 6.00666 3.26207e-19)
(7.88521 5.8847 1.63117e-19)
(7.9894 5.76566 0)
(8.09258 5.64938 3.27695e-19)
(8.19488 5.53571 -2.54537e-21)
(8.29652 5.42469 0)
(8.39786 5.31672 0)
(8.49912 5.21395 -9.42613e-19)
(6.89257 15.2383 0)
(6.59153 14.822 0)
(6.33706 14.3886 -1.05808e-19)
(6.12958 13.9466 -2.17774e-19)
(5.96703 13.5036 -2.21736e-19)
(5.84607 13.0658 -2.24001e-19)
(5.76182 12.6388 -1.96227e-19)
(5.71051 12.2263 8.53301e-20)
(5.68807 11.8306 0)
(5.69016 11.4531 -7.84429e-22)
(5.71287 11.0942 6.5271e-19)
(5.75265 10.7538 -4.30765e-19)
(5.80662 10.4314 4.17874e-19)
(5.87204 10.1263 2.04685e-19)
(5.94646 9.83762 2.00319e-19)
(6.02795 9.56422 -5.93802e-19)
(6.1149 9.30532 -1.96592e-19)
(6.20613 9.06002 3.7604e-19)
(6.30083 8.82728 1.83634e-19)
(6.3982 8.60604 -7.2471e-19)
(6.49751 8.39526 3.54309e-19)
(6.59774 8.19416 1.73965e-19)
(6.69832 8.00222 -1.20016e-18)
(6.7992 7.81895 5.06835e-19)
(6.90041 7.64361 -4.99905e-19)
(7.0018 7.47544 8.22604e-19)
(7.10316 7.31384 4.88958e-19)
(7.20422 7.15806 3.48599e-22)
(7.30451 7.00765 -4.8338e-19)
(7.40383 6.86236 7.99999e-19)
(7.50218 6.72194 1.13941e-22)
(7.59961 6.58604 -4.77668e-19)
(7.69616 6.45433 3.18914e-19)
(7.79188 6.32642 1.6026e-19)
(7.88659 6.20201 -3.19906e-19)
(7.98018 6.081 -1.60926e-19)
(8.07275 5.96331 1.60554e-19)
(8.16453 5.84861 -1.60896e-19)
(8.25528 5.73672 -3.25512e-19)
(8.34516 5.62765 -7.77811e-20)
(8.43436 5.52137 -2.388e-19)
(8.52308 5.41777 1.58523e-19)
(8.61169 5.31684 7.65391e-19)
(7.4827 14.8738 4.11914e-21)
(7.19234 14.491 9.27568e-21)
(6.9431 14.0923 4.57713e-21)
(6.73571 13.6845 2.14755e-19)
(6.56885 13.2737 4.36715e-19)
(6.43907 12.8652 1.93307e-19)
(6.34183 12.4648 4.70644e-19)
(6.27491 12.077 0)
(6.2361 11.7031 0)
(6.22078 11.3447 2.19288e-19)
(6.22579 11.0025 -2.14613e-19)
(6.2479 10.6768 -2.12087e-19)
(6.28437 10.3672 9.06913e-23)
(6.3329 10.0729 2.04341e-19)
(6.39056 9.79342 -7.9416e-19)
(6.45566 9.52823 -1.93955e-19)
(6.52628 9.27672 1.89884e-19)
(6.60187 9.03831 0)
(6.68181 8.81186 -5.50741e-19)
(6.76533 8.59615 8.97508e-19)
(6.85082 8.3901 -7.03781e-19)
(6.93722 8.19339 3.45156e-19)
(7.0241 8.00605 3.40203e-19)
(7.11209 7.8275 3.35125e-19)
(7.20102 7.65663 -1.64613e-19)
(7.29064 7.49286 -1.64088e-19)
(7.38053 7.33536 -1.6241e-19)
(7.47048 7.18347 0)
(7.55942 7.03681 1.58718e-19)
(7.6474 6.89548 -7.92803e-19)
(7.73466 6.75919 -1.70078e-22)
(7.82121 6.62748 4.7329e-19)
(7.90709 6.5 0)
(7.99238 6.37619 -1.57576e-19)
(8.07645 6.25589 1.57801e-19)
(8.15933 6.13927 1.58089e-19)
(8.24134 6.02622 -2.37207e-19)
(8.32287 5.91601 -2.37665e-19)
(8.40307 5.80869 0)
(8.48237 5.7045 0)
(8.56101 5.60319 3.17318e-19)
(8.63924 5.50481 -1.56976e-19)
(8.71785 5.41304 -2.99965e-19)
(7.95225 14.5665 1.90753e-19)
(7.67098 14.2082 -4.20067e-21)
(7.42672 13.8353 1.00379e-19)
(7.22115 13.4531 -2.09699e-19)
(7.05315 13.0664 1.04099e-19)
(6.91851 12.6796 -2.1511e-19)
(6.81082 12.3006 -4.32888e-19)
(6.73275 11.9327 2.1548e-19)
(6.68357 11.5768 -2.1424e-19)
(6.65578 11.2338 0)
(6.64779 10.9058 -2.11075e-19)
(6.65729 10.5928 0)
(6.68139 10.2945 0)
(6.71775 10.0096 -2.00659e-19)
(6.7621 9.73814 1.9679e-19)
(6.81432 9.48029 3.87365e-19)
(6.87149 9.23587 -3.76841e-19)
(6.93498 9.00449 0)
(7.00404 8.78427 0)
(7.07722 8.57355 -1.76579e-19)
(7.15168 8.3715 0)
(7.2266 8.17924 0)
(7.30225 7.99713 -1.69107e-19)
(7.38025 7.82361 -1.6661e-19)
(7.4592 7.65688 4.92191e-19)
(7.53959 7.49774 -4.84308e-19)
(7.6202 7.34399 -1.5933e-19)
(7.70196 7.19616 0)
(7.78131 7.05305 0)
(7.86035 6.91606 0)
(7.93865 6.784 1.55479e-19)
(8.0164 6.65652 1.55128e-19)
(8.0938 6.53325 1.55635e-19)
(8.17065 6.4133 -3.11306e-19)
(8.24548 6.297 -1.55278e-19)
(8.31941 6.18503 4.67797e-19)
(8.39298 6.07676 4.70278e-22)
(8.46631 5.97082 1.18056e-19)
(8.53722 5.86792 3.92518e-20)
(8.60759 5.76873 0)
(8.67728 5.67222 -2.34463e-19)
(8.74649 5.57817 2.33379e-19)
(8.81612 5.48991 -1.52018e-19)
(8.35184 14.2996 -1.81411e-19)
(8.06972 13.9633 -1.95249e-19)
(7.82606 13.6107 0)
(7.62254 13.2467 -1.04451e-19)
(7.45577 12.8767 -1.05659e-19)
(7.31783 12.5054 1.29714e-20)
(7.19713 12.1491 1.76065e-19)
(7.11073 11.7993 -2.39843e-19)
(7.05631 11.46 2.59392e-19)
(7.0184 11.1272 -2.08928e-19)
(7.00107 10.8114 0)
(7.00196 10.5103 0)
(7.01691 10.2213 -4.07737e-19)
(7.04447 9.94349 -2.09554e-21)
(7.07734 9.6772 1.91986e-19)
(7.12122 9.42676 -1.89643e-19)
(7.16748 9.1886 1.88049e-19)
(7.22447 8.96468 -1.84394e-19)
(7.2871 8.74931 -1.80333e-19)
(7.35298 8.54236 1.76685e-19)
(7.41845 8.34313 0)
(7.48346 8.15714 -3.43852e-19)
(7.54833 7.9808 3.40423e-19)
(7.61798 7.81123 -3.36625e-19)
(7.68768 7.64626 3.33875e-19)
(7.76236 7.49394 -1.62466e-19)
(7.83625 7.34148 4.77431e-19)
(7.91298 7.20029 0)
(7.98235 7.0589 3.1068e-19)
(8.05398 6.92803 -4.71488e-19)
(8.12287 6.79916 -6.97527e-22)
(8.19358 6.67605 -1.55851e-19)
(8.26321 6.55672 0)
(8.33236 6.43981 -1.54219e-19)
(8.39873 6.32773 1.54661e-19)
(8.46542 6.2215 -2.34813e-19)
(8.53085 6.11817 -4.61579e-23)
(8.59579 6.01561 7.84087e-20)
(8.65648 5.91718 0)
(8.71936 5.82399 0)
(8.78068 5.7324 1.58855e-19)
(8.84053 5.64292 -1.5799e-19)
(8.90208 5.54635 3.20539e-19)
(-1.06132 -3.10028 3.09649e-19)
(-0.918823 -3.13438 0)
(-0.778765 -3.16842 3.2728e-19)
(-0.640986 -3.20084 -3.32298e-19)
(-0.505814 -3.23174 -3.42569e-19)
(-0.373278 -3.26114 1.75163e-19)
(-0.243357 -3.28903 -5.34729e-19)
(-0.116035 -3.31542 9.07822e-19)
(0.00866172 -3.34029 -1.8784e-19)
(0.130749 -3.36365 -3.75804e-19)
(0.250256 -3.38552 3.84192e-19)
(0.367219 -3.40593 0)
(0.481656 -3.4249 1.97123e-19)
(0.593579 -3.44243 5.09673e-19)
(0.70303 -3.45855 -7.3996e-19)
(0.810036 -3.47328 1.11109e-19)
(0.914565 -3.48664 0)
(1.01663 -3.49869 3.50487e-19)
(1.11629 -3.50948 -3.65695e-19)
(1.21349 -3.51909 1.2503e-19)
(1.30821 -3.52758 0)
(1.40044 -3.53505 -2.80616e-19)
(1.49025 -3.54161 1.51359e-19)
(1.57762 -3.54736 -6.30547e-19)
(1.66253 -3.55246 6.7442e-19)
(1.74497 -3.557 9.0593e-20)
(1.82493 -3.56116 8.74622e-19)
(1.90237 -3.56505 1.02288e-19)
(1.97725 -3.56886 -1.9474e-18)
(2.04953 -3.57275 8.79191e-19)
(2.11914 -3.57692 1.36892e-19)
(2.18603 -3.58149 0)
(2.25001 -3.58662 0)
(2.311 -3.59239 -1.64367e-18)
(2.3689 -3.5988 1.2082e-21)
(2.42378 -3.60555 2.15001e-18)
(2.47628 -3.61203 2.35188e-18)
(2.52901 -3.61702 -2.77209e-18)
(2.5912 -3.61954 0)
(2.69633 -3.62549 -2.49915e-19)
(2.97766 -3.68763 1.5645e-19)
(3.96864 -4.1413 -6.52603e-18)
(8.15349 -6.6405 5.84391e-18)
(-0.997089 -3.13877 3.13163e-19)
(-0.865255 -3.17111 -3.16306e-19)
(-0.736584 -3.20356 1.64609e-19)
(-0.609905 -3.2347 -1.67095e-19)
(-0.485319 -3.26476 -1.70368e-19)
(-0.362811 -3.29377 -1.1195e-21)
(-0.242318 -3.32173 1.74875e-19)
(-0.123821 -3.34862 1.77223e-19)
(-0.00735775 -3.37443 -1.79708e-19)
(0.107117 -3.39915 1.84387e-19)
(0.21965 -3.42283 1.87627e-19)
(0.330266 -3.44547 -1.91215e-19)
(0.439018 -3.46708 9.76671e-20)
(0.545969 -3.48764 -9.90312e-20)
(0.651163 -3.50716 3.05935e-19)
(0.754636 -3.52563 0)
(0.856394 -3.54302 0)
(0.956462 -3.55931 -1.12275e-19)
(1.05484 -3.57449 1.16776e-19)
(1.15153 -3.58855 -1.23094e-19)
(1.24647 -3.60153 -1.266e-19)
(1.33966 -3.61342 2.69493e-19)
(1.4311 -3.62426 0)
(1.5208 -3.6341 -1.4941e-19)
(1.60873 -3.64295 1.59755e-19)
(1.69485 -3.65087 -4.29581e-19)
(1.77919 -3.65788 5.54654e-19)
(1.86176 -3.66403 -4.00093e-19)
(1.94254 -3.66932 0)
(2.02159 -3.67379 1.1795e-19)
(2.09905 -3.67738 1.30818e-19)
(2.17514 -3.68005 0)
(2.25028 -3.68165 0)
(2.32541 -3.68199 1.7884e-19)
(2.40247 -3.68086 1.59923e-18)
(2.4855 -3.6782 -1.81439e-18)
(2.58333 -3.67486 -2.59218e-19)
(2.71673 -3.67486 2.36494e-18)
(2.93458 -3.69309 -3.0821e-18)
(3.35684 -3.7832 2.00669e-19)
(4.28794 -4.13662 0)
(6.53247 -5.36841 2.55148e-19)
(11.9926 -8.98008 2.21567e-19)
(-0.932523 -3.16986 1.46775e-21)
(-0.809892 -3.20074 1.5752e-19)
(-0.690249 -3.23249 -1.60341e-19)
(-0.572214 -3.26333 1.63594e-19)
(-0.455793 -3.29342 1.66367e-19)
(-0.340974 -3.32276 1.68012e-19)
(-0.227706 -3.35131 4.9671e-22)
(-0.115931 -3.37904 1.74276e-19)
(-0.00566673 -3.40591 -1.7543e-19)
(0.103079 -3.43192 8.36156e-22)
(0.210346 -3.4571 -1.80926e-19)
(0.316152 -3.48146 1.84867e-19)
(0.420569 -3.50501 -1.89707e-19)
(0.523708 -3.52777 1.94121e-19)
(0.625639 -3.54971 -4.36966e-22)
(0.726401 -3.57081 -3.08595e-19)
(0.826091 -3.59102 0)
(0.924737 -3.61031 0)
(1.02237 -3.62859 2.27957e-19)
(1.11898 -3.64582 -1.20155e-19)
(1.21458 -3.66195 -1.23677e-19)
(1.30915 -3.67697 0)
(1.40271 -3.69085 2.76039e-19)
(1.4953 -3.70358 -4.38209e-19)
(1.58698 -3.71515 -3.12893e-19)
(1.67778 -3.72549 4.97591e-19)
(1.76783 -3.73459 -3.57827e-19)
(1.85728 -3.74238 4.79866e-19)
(1.94639 -3.7488 -4.15582e-19)
(2.03559 -3.75375 1.13373e-19)
(2.12554 -3.75714 -1.22423e-19)
(2.21735 -3.7588 1.35701e-19)
(2.31293 -3.75861 0)
(2.41561 -3.75656 -8.23039e-19)
(2.53146 -3.75308 1.46822e-18)
(2.67174 -3.74989 -1.43461e-18)
(2.85802 -3.75198 1.37959e-18)
(3.13235 -3.77296 0)
(3.5809 -3.84909 2.94016e-19)
(4.38336 -4.07837 -3.35128e-19)
(5.91361 -4.72516 -3.34053e-18)
(8.99283 -6.45657 2.90632e-18)
(14.3846 -10.1735 0)
(-0.867967 -3.19224 0)
(-0.75435 -3.22112 -1.55091e-19)
(-0.643511 -3.25151 0)
(-0.533637 -3.28122 1.61892e-19)
(-0.424843 -3.31045 -1.64799e-19)
(-0.317101 -3.33917 -1.1327e-21)
(-0.210402 -3.36733 -3.38311e-19)
(-0.104704 -3.39488 0)
(-1.54024e-05 -3.42176 -3.46499e-19)
(0.103642 -3.44795 2.63972e-19)
(0.206261 -3.47347 -2.67699e-19)
(0.307861 -3.49837 -1.82102e-19)
(0.408525 -3.52267 2.78884e-19)
(0.508403 -3.54643 0)
(0.607567 -3.56963 9.70138e-20)
(0.706127 -3.59223 -3.01748e-19)
(0.804207 -3.61421 1.04551e-19)
(0.901927 -3.6355 4.29467e-19)
(0.999355 -3.65599 -4.46107e-19)
(1.09655 -3.67556 2.32784e-19)
(1.19352 -3.69409 1.22243e-19)
(1.29029 -3.71151 0)
(1.38688 -3.72779 0)
(1.4834 -3.74286 2.84447e-19)
(1.58005 -3.75666 -1.52187e-19)
(1.67703 -3.76905 -3.23315e-19)
(1.77462 -3.77993 6.03838e-19)
(1.87322 -3.78916 9.37627e-20)
(1.97343 -3.79661 -2.00385e-19)
(2.07628 -3.80215 4.32415e-19)
(2.18322 -3.80565 -4.70129e-19)
(2.29662 -3.80702 -2.5603e-19)
(2.42038 -3.80635 0)
(2.56079 -3.8042 0)
(2.72857 -3.80227 6.76352e-19)
(2.94192 -3.80491 -1.12401e-18)
(3.23319 -3.82234 6.16841e-19)
(3.6618 -3.87826 -2.07611e-18)
(4.33792 -4.02768 1.05028e-18)
(5.46758 -4.39982 2.97994e-19)
(7.43358 -5.28892 6.28279e-19)
(10.9237 -7.30949 -2.91302e-19)
(16.0042 -10.8959 0)
(-0.80551 -3.20531 -1.51054e-19)
(-0.699645 -3.23365 3.08504e-19)
(-0.596392 -3.26283 -3.22036e-22)
(-0.493764 -3.29144 -1.60129e-19)
(-0.391653 -3.31972 1.62726e-19)
(-0.290103 -3.34755 3.28136e-19)
(-0.189098 -3.37501 -1.66952e-19)
(-0.0885853 -3.40204 2.53188e-19)
(0.0114186 -3.42853 -1.70557e-19)
(0.110884 -3.45445 1.72747e-19)
(0.20974 -3.4798 8.81066e-20)
(0.308002 -3.50464 -2.69102e-19)
(0.405719 -3.52903 9.12662e-20)
(0.503021 -3.55305 -1.80522e-22)
(0.600102 -3.57671 -4.5622e-22)
(0.697078 -3.59997 0)
(0.794092 -3.62284 -1.01373e-19)
(0.891325 -3.64527 1.0574e-19)
(0.989017 -3.66721 0)
(1.08731 -3.68841 1.14403e-19)
(1.18629 -3.70863 3.76734e-22)
(1.28587 -3.72771 -2.42414e-22)
(1.38612 -3.74561 -1.31742e-19)
(1.48725 -3.76232 0)
(1.58964 -3.77775 0)
(1.69374 -3.79175 1.56112e-19)
(1.80007 -3.80407 -3.33027e-19)
(1.90936 -3.81454 -1.77655e-19)
(2.0226 -3.82298 5.77507e-19)
(2.14134 -3.82927 -1.03481e-19)
(2.26816 -3.83341 4.48568e-19)
(2.40676 -3.83549 -3.66794e-19)
(2.563 -3.83601 -2.65449e-19)
(2.74602 -3.83623 -4.3134e-19)
(2.97015 -3.83924 7.89708e-19)
(3.25921 -3.85221 1.72623e-19)
(3.65442 -3.89039 0)
(4.22658 -3.98617 2.11535e-19)
(5.09772 -4.2083 0)
(6.47952 -4.70377 2.54574e-19)
(8.74172 -5.77862 -2.69654e-19)
(12.4018 -7.95746 1.21117e-18)
(17.1573 -11.3733 -9.11802e-19)
(-0.745241 -3.21603 1.43554e-19)
(-0.646341 -3.24092 -1.52508e-19)
(-0.549921 -3.26866 1.55637e-19)
(-0.453615 -3.29594 1.57713e-19)
(-0.357247 -3.32309 -3.19727e-19)
(-0.261004 -3.3498 8.1151e-20)
(-0.164974 -3.37625 -8.20878e-20)
(-0.0689371 -3.40251 -8.26794e-20)
(0.0271053 -3.42838 8.38959e-20)
(0.123106 -3.45377 -3.11148e-22)
(0.218914 -3.47861 0)
(0.314532 -3.503 -5.03756e-22)
(0.409949 -3.527 -8.97697e-20)
(0.505259 -3.55075 -1.72398e-22)
(0.600807 -3.57434 0)
(0.696703 -3.59766 -9.72481e-20)
(0.793088 -3.62071 -3.77431e-22)
(0.89018 -3.64355 -4.14012e-19)
(0.988346 -3.66625 1.07563e-19)
(1.08807 -3.68864 -1.11983e-19)
(1.18956 -3.71017 -2.09516e-22)
(1.29258 -3.73043 -1.22675e-19)
(1.39704 -3.74938 0)
(1.50327 -3.76714 1.36301e-19)
(1.61181 -3.78375 5.65007e-22)
(1.72352 -3.79906 3.05285e-19)
(1.83929 -3.8127 5.16762e-22)
(1.96001 -3.82433 -1.73873e-19)