/*--------------------------------*- C++ -*----------------------------------*\
| =========                 |                                                 |
| \\      /  F ield         | OpenFOAM: The Open Source CFD Toolbox           |
|  \\    /   O peration     | Version:  2.3.0                                 |
|   \\  /    A nd           | Web:      www.OpenFOAM.org                      |
|    \\/     M anipulation  |                                                 |
\*---------------------------------------------------------------------------*/
FoamFile
{
    version     2.0;
    format      ascii;
    class       volScalarField;
    location    "3000";
    object      nut;
}
// * * * * * * * * * * * * * * * * * * * * * * * * * * * * * * * * * * * * * //

dimensions      [0 2 -1 0 0 0 0];

internalField   nonuniform List<scalar> 
6617
(
0.0490056
0.0447903
0.0408975
0.0372313
0.0338887
0.0308374
0.0280496
0.0255132
0.0232241
0.0211792
0.019412
0.0182536
0.0566759
0.0529122
0.0495955
0.046826
0.0446035
0.0429021
0.0416838
0.0409004
0.0405016
0.0404366
0.0406527
0.0411008
0.0640693
0.0613701
0.0590598
0.0571761
0.0557036
0.0546132
0.0538691
0.0534327
0.0532642
0.053323
0.0535728
0.0539773
0.0702449
0.0682881
0.0666401
0.0653096
0.0642786
0.0635226
0.0630143
0.0627283
0.0626383
0.0627207
0.0629531
0.0633142
0.0753734
0.0739246
0.0727091
0.0717286
0.0709686
0.0704108
0.0700388
0.0698355
0.0697858
0.0698758
0.0700919
0.0704204
0.0796407
0.0785393
0.0776133
0.0768629
0.0762775
0.0758457
0.0755578
0.0754044
0.0753765
0.0754665
0.0756667
0.0759689
0.0832182
0.0823441
0.0816163
0.0810228
0.0805553
0.0802081
0.0799767
0.0798566
0.0798429
0.0799317
0.0801187
0.0803991
0.0861959
0.0855005
0.0849165
0.0844347
0.0840509
0.0837631
0.0835715
0.0834759
0.0834739
0.083562
0.0837383
0.0840004
0.0887111
0.0881417
0.0876647
0.087264
0.0869423
0.0866981
0.0865336
0.0864577
0.0864659
0.0865567
0.0867266
0.0869727
0.090855
0.0903666
0.0899775
0.0896323
0.0893581
0.0891521
0.0889982
0.0889381
0.0889551
0.0890512
0.0892245
0.0894606
0.0199829
0.0236033
0.0261364
0.0288427
0.0320456
0.0358418
0.0402425
0.045208
0.0506792
0.0565841
0.0628331
0.0692899
0.0417069
0.0425302
0.0436917
0.045243
0.0472316
0.0496932
0.0526463
0.05609
0.0600026
0.0643436
0.0690557
0.074034
0.0545034
0.0551893
0.056104
0.0572776
0.0587401
0.0605201
0.0626399
0.0651154
0.0679528
0.071145
0.0746672
0.078433
0.0637862
0.064392
0.0651702
0.0661377
0.0673123
0.0687115
0.070351
0.0722446
0.0744027
0.0768297
0.0795219
0.0824415
0.0708515
0.0713988
0.0720845
0.0729177
0.0739078
0.0750637
0.0763948
0.0779097
0.0796166
0.081522
0.0836294
0.0859303
0.0763664
0.0768679
0.0774858
0.078224
0.0790864
0.0800762
0.0811972
0.0824535
0.0838496
0.0853898
0.0870771
0.0888975
0.0807689
0.0812335
0.0817993
0.0824668
0.0832359
0.0841057
0.0850757
0.0861465
0.0873195
0.0885963
0.0899793
0.0914558
0.0843464
0.0847802
0.0853046
0.0859175
0.0866161
0.0873962
0.0882528
0.0891855
0.0901928
0.0912729
0.0924199
0.0936139
0.087296
0.0877043
0.0881955
0.088765
0.0894082
0.0901214
0.0908879
0.091716
0.092597
0.0935317
0.0945012
0.0954884
0.0897578
0.0901451
0.0906097
0.0911437
0.0917411
0.0924055
0.0930924
0.0938511
0.0946307
0.0954613
0.0962953
0.0971709
0.0844311
0.0718763
0.0604612
0.0502525
0.0413126
0.0336089
0.0271151
0.0219311
0.0183211
0.0150725
0.0117728
0.00816459
0.0951517
0.0846858
0.0750754
0.0664937
0.0589645
0.0522712
0.0461002
0.0402384
0.0345895
0.0289944
0.0232778
0.0172602
0.107134
0.0984975
0.0902744
0.0824871
0.0751091
0.0680547
0.0611926
0.0543862
0.0475067
0.0404474
0.0331062
0.0253912
0.117109
0.109432
0.10188
0.0944555
0.0871372
0.0798633
0.0725501
0.0651023
0.0574176
0.0493991
0.0409594
0.0320175
0.124936
0.117877
0.110764
0.103595
0.0963414
0.0889495
0.081351
0.0734646
0.0652017
0.0564721
0.0471897
0.0372705
0.131091
0.1245
0.117734
0.110781
0.103606
0.0961558
0.0883651
0.080157
0.0714473
0.0621472
0.0521682
0.0414259
0.135987
0.129783
0.123315
0.116559
0.109472
0.101999
0.0940725
0.0856136
0.0765398
0.0667609
0.0561868
0.044732
0.13992
0.134058
0.12786
0.121288
0.114293
0.106818
0.0987901
0.0901274
0.0807457
0.0705537
0.0594596
0.0473788
0.143095
0.137554
0.131608
0.12521
0.118304
0.110845
0.102741
0.0939094
0.0842606
0.073703
0.0621416
0.0494979
0.145709
0.140445
0.134729
0.12851
0.121671
0.114246
0.106091
0.0971225
0.0872374
0.0763477
0.0643492
0.0511639
0.00409431
0.00158578
0.00188148
0.00255093
0.00350068
0.00491554
0.00677044
0.0091008
0.0119834
0.0154997
0.0197413
0.0247983
0.0106173
0.00433544
0.00256179
0.00339909
0.00461432
0.00618507
0.00814624
0.010514
0.0133497
0.0167216
0.0206991
0.0253097
0.0170086
0.00824516
0.00373899
0.00437918
0.00581194
0.00754179
0.00959678
0.0119909
0.0147705
0.0179874
0.0216901
0.0259102
0.0223128
0.0119993
0.00532194
0.00541989
0.0070268
0.00889908
0.0110326
0.0134414
0.0161588
0.0192245
0.0226909
0.0266743
0.026499
0.0150939
0.00700814
0.0064911
0.00822688
0.0102165
0.0124128
0.0148268
0.0174836
0.0204183
0.0236819
0.0273362
0.0297558
0.0175132
0.00857746
0.00756361
0.00938661
0.0114722
0.0137183
0.0161322
0.0187338
0.0215516
0.0246206
0.0279685
0.0322867
0.0193747
0.00994209
0.00860729
0.0104901
0.0126542
0.0149403
0.017352
0.019903
0.022612
0.0254977
0.0285728
0.0342595
0.0208071
0.0110988
0.00960124
0.0115291
0.0137574
0.0160769
0.0184846
0.0209876
0.0235946
0.0263123
0.0291507
0.0357848
0.0219131
0.012096
0.0105251
0.0124939
0.0147833
0.0171322
0.0195326
0.0219881
0.0244991
0.0270636
0.0296857
0.0368077
0.0223989
0.0126419
0.0114162
0.0134641
0.0157417
0.0180578
0.020446
0.0228735
0.0252996
0.0277323
0.0302169
0.000723038
0.00245111
0.00547736
0.00897094
0.0126345
0.0165271
0.0206449
0.024956
0.0294246
0.0340287
0.0387224
0.0435112
0.000548739
0.00137381
0.00345163
0.00657245
0.00992306
0.0134343
0.0171159
0.0210658
0.0253091
0.0298259
0.0345692
0.0394861
0.000287565
0.000822815
0.00210115
0.0041566
0.00719947
0.0114998
0.0157998
0.0200086
0.0241776
0.0283745
0.0326734
0.0371784
0.000308549
0.000649541
0.00165328
0.00326662
0.00570185
0.0092422
0.0139428
0.0187732
0.0235612
0.0281527
0.0324647
0.0366323
0.000268532
0.000569368
0.00142874
0.0027941
0.00485775
0.00785383
0.0121094
0.0173049
0.0225932
0.0278106
0.0327116
0.0371454
0.000261505
0.000512187
0.00127583
0.00248081
0.00430446
0.00694638
0.0106957
0.0158596
0.0214821
0.0271831
0.0327421
0.0378442
0.000253079
0.000482005
0.00118439
0.00229014
0.00396559
0.00638603
0.0098174
0.0146173
0.0204454
0.026506
0.0325722
0.0383439
0.00025176
0.000467448
0.00111854
0.00215435
0.003724
0.00598641
0.00918458
0.0136502
0.0195281
0.0258604
0.0323171
0.0386238
0.000251899
0.000463347
0.00107089
0.00205685
0.00354775
0.00569744
0.00873054
0.0129571
0.018722
0.0252595
0.0320374
0.0387873
0.000253113
0.000461426
0.00103209
0.00197713
0.0034038
0.00546383
0.00836888
0.0124151
0.0179861
0.0246709
0.0317255
0.0388531
0.000254596
0.000460643
0.000999799
0.00190975
0.00328086
0.00526239
0.00805471
0.0119415
0.0173024
0.0240589
0.0313431
0.0387922
0.000256361
0.000460639
0.000973276
0.00185354
0.00317705
0.00509
0.00778208
0.0115253
0.016687
0.0234282
0.0308935
0.0386261
0.000258368
0.00046126
0.000951908
0.00180773
0.00309163
0.00494662
0.00755244
0.0111697
0.0161522
0.0228025
0.0304015
0.0383851
0.000260629
0.000462296
0.000934966
0.00177104
0.00302281
0.00483048
0.00736497
0.0108765
0.0157054
0.0222186
0.0298993
0.0380936
0.000263124
0.000463629
0.000921652
0.00174183
0.00296777
0.00473717
0.00721353
0.0106383
0.0153404
0.0217135
0.0294412
0.0378144
0.000265827
0.000465137
0.000911346
0.00171881
0.00292417
0.00466301
0.00709252
0.0104464
0.0150434
0.0212839
0.0290264
0.0375404
0.000268714
0.000466741
0.000903432
0.00170061
0.00288946
0.00460379
0.00699556
0.010292
0.0148028
0.0209274
0.0286666
0.0373023
0.000271753
0.00046841
0.000897536
0.0016863
0.00286193
0.00455666
0.00691808
0.0101681
0.0146092
0.0206377
0.0283691
0.0371306
0.000274884
0.000470137
0.000893252
0.001675
0.00283992
0.00451876
0.00685549
0.0100675
0.0144507
0.0203969
0.028113
0.0370056
0.000278086
0.000471912
0.000890313
0.0016661
0.0028222
0.00448797
0.00680443
0.00998512
0.0143203
0.0201954
0.0278803
0.0368572
0.000281334
0.000473752
0.000888547
0.0016593
0.00280806
0.00446281
0.00676217
0.00991674
0.0142124
0.02003
0.0276895
0.0367566
0.000284608
0.000475667
0.000887821
0.00165447
0.00279718
0.00444253
0.00672707
0.00985899
0.0141208
0.0198891
0.0275201
0.0366661
0.000287891
0.000477678
0.000888014
0.00165156
0.00278949
0.00442683
0.00669817
0.00980954
0.0140408
0.019766
0.0273726
0.0366064
0.000291175
0.000479786
0.00088902
0.00165061
0.00278515
0.00441613
0.0066761
0.00976869
0.0139707
0.0196538
0.0272309
0.0365573
0.000294457
0.000482002
0.000890682
0.0016515
0.00278413
0.00441061
0.00666152
0.00973774
0.0139123
0.0195518
0.0270805
0.0364386
0.000297736
0.000484294
0.000892917
0.00165418
0.00278638
0.00441041
0.00665515
0.00971877
0.0138703
0.0194716
0.0269586
0.0363606
0.000301037
0.000486672
0.00089572
0.00165863
0.00279173
0.00441529
0.00665689
0.00971234
0.0138465
0.0194145
0.0268529
0.0362572
0.00030438
0.000489143
0.000899203
0.00166494
0.00280022
0.00442498
0.00666612
0.00971781
0.013842
0.0193879
0.0267897
0.0361881
0.000307765
0.000491724
0.000903512
0.00167337
0.00281219
0.00443972
0.00668241
0.00973384
0.0138545
0.0193916
0.0267815
0.0362059
0.000311232
0.000494435
0.000908952
0.00168419
0.00282801
0.00445988
0.00670602
0.00975921
0.0138794
0.0194137
0.026808
0.0363084
0.000314776
0.000497398
0.0009158
0.00169764
0.00284806
0.00448633
0.00673809
0.00979488
0.0139154
0.019446
0.0268379
0.0363935
0.000318381
0.000500559
0.000924038
0.00171371
0.00287263
0.00451966
0.00677997
0.00984353
0.0139666
0.0194932
0.0268809
0.0365267
0.000322029
0.000503902
0.000933815
0.0017325
0.00290181
0.00456005
0.00683219
0.00990704
0.0140379
0.0195623
0.0269229
0.0365221
0.000325768
0.000507326
0.000945242
0.00175413
0.00293574
0.00460777
0.0068953
0.00998633
0.014133
0.0196713
0.027045
0.0366923
0.000329581
0.0005108
0.000958328
0.00177864
0.0029746
0.00466323
0.00696979
0.0100813
0.0142485
0.0198071
0.0272079
0.0369633
0.000333358
0.000514223
0.000972749
0.00180579
0.0030181
0.00472615
0.0070555
0.0101922
0.0143846
0.019964
0.0273735
0.0371426
0.000337073
0.000517509
0.00098845
0.00183539
0.00306588
0.00479599
0.00715196
0.0103194
0.0145449
0.0201555
0.0275873
0.0373789
0.000340741
0.000520569
0.00100542
0.00186738
0.00311764
0.00487209
0.00725822
0.0104617
0.014728
0.0203811
0.0278514
0.0376831
0.000344322
0.000523352
0.0010236
0.0019016
0.00317308
0.004954
0.00737331
0.0106172
0.0149309
0.0206367
0.0281609
0.038052
0.000347721
0.000525811
0.00104286
0.00193792
0.00323201
0.00504126
0.00749631
0.0107843
0.0151507
0.020917
0.0285071
0.0384784
0.000350907
0.00052788
0.00106327
0.00197636
0.00329435
0.00513368
0.00762663
0.0109615
0.015385
0.0212182
0.028881
0.0389098
0.000353881
0.000529451
0.00108483
0.0020169
0.00336005
0.00523103
0.00776402
0.0111486
0.0156323
0.0215382
0.029292
0.0394641
0.000356598
0.000530499
0.00110763
0.00205966
0.00342921
0.00533347
0.00790869
0.0113453
0.0158915
0.0218696
0.029701
0.0399358
0.000358958
0.000531177
0.00113159
0.00210434
0.00350147
0.00544077
0.00806038
0.0115519
0.016164
0.0222195
0.0301399
0.0404855
0.000360964
0.000531085
0.00115631
0.00215059
0.00357657
0.00555262
0.00821874
0.0117678
0.0164494
0.0225852
0.0305931
0.041023
0.000362639
0.000530685
0.00118245
0.00219905
0.00365488
0.00566901
0.00838344
0.0119928
0.0167473
0.0229689
0.0310724
0.0415842
0.000364063
0.000530378
0.00120977
0.00224942
0.00373609
0.00578985
0.00855457
0.0122265
0.0170572
0.0233692
0.0315831
0.0422716
0.000365495
0.00053169
0.00123833
0.00230159
0.00382007
0.00591484
0.00873177
0.0124685
0.0173774
0.0237788
0.0320801
0.0427919
0.000367185
0.000536263
0.00126765
0.0023556
0.00390697
0.00604386
0.00891459
0.0127184
0.0177094
0.0242111
0.0326356
0.0435083
0.000369072
0.000545311
0.00129839
0.00241193
0.00399726
0.00617743
0.00910297
0.012975
0.0180487
0.0246494
0.0331924
0.0442236
0.000370929
0.000557296
0.00133029
0.00247049
0.00409085
0.0063158
0.0092977
0.013239
0.0183963
0.0250934
0.0337403
0.0448533
0.000372317
0.000570619
0.00136354
0.00253125
0.00418779
0.00645922
0.00949956
0.0135123
0.0187551
0.0255523
0.0343152
0.045573
0.000373131
0.000584496
0.00139794
0.00259428
0.00428856
0.0066078
0.00970834
0.0137947
0.0191242
0.0260207
0.0348914
0.0462637
0.000373277
0.00059899
0.00143392
0.00265996
0.00439304
0.00676183
0.00992412
0.0140857
0.0195046
0.0265026
0.0354796
0.0469274
0.000373049
0.00061426
0.00147153
0.00272839
0.0045015
0.00692138
0.0101474
0.0143866
0.0198977
0.0270021
0.0361028
0.0477134
0.000372163
0.000630432
0.00151082
0.00279949
0.00461396
0.00708675
0.0103786
0.014697
0.0203005
0.0275086
0.0367183
0.0484272
0.000370444
0.000647213
0.00155162
0.00287342
0.00473105
0.00725837
0.0106178
0.0150177
0.0207153
0.0280286
0.0373485
0.0491602
0.000367887
0.000664929
0.0015946
0.00295088
0.00485306
0.00743719
0.0108664
0.0153495
0.0211441
0.0285652
0.0379985
0.0499208
0.00036452
0.000683703
0.00163968
0.00303183
0.00498027
0.00762309
0.0111243
0.0156935
0.0215872
0.0291171
0.0386633
0.0506934
0.000360168
0.000703562
0.00168705
0.00311697
0.00511364
0.00781716
0.0113931
0.0160507
0.0220452
0.0296851
0.0393433
0.0514748
0.000354571
0.00072471
0.00173744
0.00320715
0.00525474
0.00802075
0.011674
0.0164225
0.0225198
0.0302707
0.0400407
0.0522751
0.000347755
0.000747416
0.00179102
0.00330281
0.0054038
0.00823508
0.0119687
0.0168116
0.0230147
0.0308772
0.0407554
0.0530798
0.000339328
0.000771959
0.0018483
0.00340476
0.00556246
0.00846246
0.0122802
0.0172214
0.0235336
0.0315096
0.0414945
0.0538998
0.000328473
0.000798506
0.00191016
0.00351481
0.00573374
0.0087074
0.0126122
0.0176561
0.024082
0.0321757
0.0422698
0.0547564
0.000313798
0.000827018
0.00197741
0.00363464
0.0059202
0.00897433
0.0129712
0.0181218
0.0246664
0.0328827
0.0430899
0.0556616
0.000293171
0.000857769
0.00205097
0.00376616
0.00612506
0.00926836
0.0133678
0.0186294
0.0252978
0.0336415
0.0439656
0.0566194
0.000263526
0.000890948
0.00213165
0.00391097
0.00635129
0.00959391
0.013809
0.0191973
0.0259927
0.0344669
0.0449107
0.0576572
0.00022622
0.000927936
0.00222148
0.0040722
0.00660366
0.00995727
0.0143027
0.0198355
0.0267785
0.0353845
0.0459432
0.0587621
0.000205478
0.000975782
0.00232462
0.00425464
0.00688829
0.0103679
0.0148607
0.0205576
0.027671
0.0364351
0.0471105
0.0600062
0.000195765
0.00103872
0.00244505
0.0044654
0.00721698
0.0108418
0.0155046
0.0213903
0.028699
0.0376431
0.0484548
0.0614233
0.000195198
0.00110144
0.00258607
0.00471675
0.00761036
0.0114091
0.0162758
0.0223875
0.0299274
0.0390793
0.0500247
0.0629814
0.000209608
0.00118156
0.00276713
0.00503617
0.00810739
0.0121229
0.0172427
0.0236351
0.0314659
0.0408888
0.0520381
0.0650582
0.000229537
0.00128997
0.00301583
0.00547431
0.0087841
0.0130854
0.018532
0.0252821
0.0334822
0.043255
0.0546889
0.0678623
0.000259228
0.00140538
0.00332601
0.00606429
0.00973121
0.0144561
0.0203744
0.0276151
0.0362882
0.0464869
0.0582467
0.0715724
0.000298289
0.00195019
0.00442928
0.00775376
0.0119891
0.0172875
0.023777
0.0315679
0.0407469
0.0513457
0.0633504
0.0767138
0.00074375
0.00356267
0.00738935
0.0119266
0.017125
0.022889
0.0291279
0.0357755
0.0427709
0.0500404
0.0575104
0.0650802
0.000438095
0.00223015
0.0049839
0.00858406
0.0130039
0.0182099
0.0241499
0.0307511
0.0379186
0.0455356
0.0534705
0.0615728
0.000655952
0.00186523
0.00414311
0.00718039
0.0110164
0.0156767
0.0211645
0.0274497
0.0344624
0.042094
0.0502058
0.0586483
0.000615513
0.00154891
0.00352073
0.0061848
0.00961515
0.0138663
0.018975
0.0249464
0.0317427
0.0392772
0.0474134
0.0559585
0.000603362
0.00132956
0.00308308
0.005478
0.00860243
0.0125263
0.0173083
0.0229807
0.0295355
0.0369128
0.0449927
0.0535828
0.000597514
0.00118328
0.0027788
0.00497073
0.00785386
0.0115079
0.0160067
0.0214034
0.027716
0.0349128
0.0429036
0.05154
0.000596678
0.00108103
0.00254901
0.00458078
0.00726875
0.0106984
0.0149537
0.0201032
0.0261857
0.0331937
0.0410599
0.0496343
0.000598526
0.00100238
0.00236494
0.00426621
0.00679271
0.0100335
0.0140788
0.0190084
0.024877
0.0316982
0.0394268
0.0479429
0.000601621
0.000939023
0.00221336
0.00400599
0.00639648
0.00947574
0.0133383
0.0180715
0.0237428
0.030382
0.0379617
0.04637
0.000604819
0.000886523
0.0020856
0.00378631
0.00606033
0.00899962
0.0127013
0.0172587
0.0227487
0.029215
0.0366489
0.0449703
0.000608004
0.000842739
0.00197835
0.00359742
0.00577026
0.0085868
0.0121459
0.016545
0.0218684
0.0281711
0.0354598
0.0436638
0.000611139
0.000805796
0.00188642
0.00343261
0.00551635
0.0082242
0.0116557
0.0159115
0.0210816
0.0272312
0.0343813
0.042486
0.000614178
0.000774135
0.00180605
0.0032871
0.00529159
0.00790215
0.0112186
0.0153435
0.0203712
0.0263734
0.0333762
0.0413194
0.000617097
0.00074658
0.0017348
0.00315729
0.00509067
0.00761352
0.0108255
0.0148303
0.0197258
0.0255897
0.0324613
0.040331
0.000619843
0.000722326
0.00167102
0.00304057
0.00490973
0.00735292
0.0104693
0.0143635
0.0191357
0.024868
0.0316036
0.0393075
0.000622489
0.000701641
0.00161355
0.00293487
0.00474562
0.00711605
0.0101447
0.0139363
0.0185929
0.0242001
0.030807
0.0384006
0.000625883
0.000690576
0.0015618
0.00284002
0.00459601
0.00689958
0.00984719
0.0135438
0.0180931
0.0235856
0.030085
0.0376265
0.000630735
0.000691832
0.00151512
0.00275409
0.00445895
0.00670084
0.00957359
0.0131822
0.0176321
0.0230186
0.0294128
0.0368385
0.000636475
0.000699037
0.00147287
0.00267558
0.00433287
0.00651771
0.00932117
0.0128482
0.0172058
0.0224933
0.0287886
0.036132
0.000642293
0.000707172
0.00143445
0.00260336
0.00421636
0.00634834
0.00908756
0.0125388
0.0168105
0.022005
0.0282051
0.035453
0.000647781
0.00071445
0.00139936
0.00253669
0.0041084
0.0061913
0.00887077
0.0122514
0.0164425
0.0215483
0.0276536
0.0347955
0.000652847
0.00072054
0.00136715
0.00247488
0.00400801
0.0060452
0.00866892
0.0119833
0.016098
0.021118
0.0271271
0.0341558
0.000657501
0.000725577
0.00133748
0.00241741
0.00391435
0.00590889
0.00848036
0.0117323
0.0157743
0.020712
0.0266324
0.0335877
0.000661802
0.000729753
0.00131011
0.00236395
0.00382729
0.0057813
0.00830363
0.0114966
0.01547
0.0203314
0.0261757
0.0330805
0.00066581
0.00073324
0.00128501
0.0023143
0.00374646
0.00566167
0.00813761
0.0112749
0.0151833
0.0199713
0.0257337
0.0325181
0.000669581
0.000736384
0.00126364
0.00226814
0.00367104
0.00554927
0.00798139
0.0110661
0.0149133
0.0196339
0.0253323
0.0321193
0.000673286
0.000740247
0.001251
0.00222535
0.00360036
0.00544345
0.00783418
0.0108693
0.0146589
0.0193153
0.0249428
0.0316039
0.000677088
0.000745676
0.00124935
0.00218576
0.00353398
0.00534368
0.00769531
0.0106837
0.014419
0.019015
0.0245808
0.0312174
0.000681084
0.000752993
0.00125511
0.00214926
0.00347149
0.00524953
0.00756413
0.0105082
0.0141916
0.0187284
0.024222
0.0307203
0.000685318
0.000761239
0.00126369
0.00211554
0.00341257
0.00516038
0.00744
0.0103419
0.0139758
0.0184558
0.0238893
0.0303789
0.000689528
0.000769576
0.00127235
0.00208422
0.00335694
0.00507589
0.00732214
0.010184
0.0137705
0.0181953
0.0235646
0.0299423
0.000693655
0.000777454
0.00127994
0.00205495
0.00330443
0.00499584
0.00721042
0.010034
0.013575
0.0179464
0.0232539
0.029578
0.000697658
0.000784745
0.00128632
0.00202759
0.00325477
0.00491998
0.00710439
0.00989145
0.0133886
0.017709
0.0229595
0.0292278
0.000701525
0.000791338
0.00129141
0.0020019
0.00320782
0.00484838
0.00700357
0.00975567
0.0132111
0.017483
0.0226797
0.0288919
0.00070528
0.000797283
0.00129533
0.00197773
0.0031635
0.00478072
0.00690742
0.00962605
0.0130416
0.0172669
0.0224117
0.0285669
0.000708921
0.000802641
0.00129819
0.0019549
0.00312164
0.00471655
0.00681567
0.00950215
0.0128794
0.01706
0.0221541
0.0282533
0.000712454
0.000807582
0.00130029
0.00193338
0.00308195
0.00465561
0.00672837
0.0093841
0.0127243
0.0168624
0.0219116
0.0279834
0.000715901
0.000812111
0.00130171
0.00191316
0.00304427
0.00459752
0.00664496
0.00927117
0.0125766
0.016675
0.0216825
0.0277101
0.000719295
0.000816331
0.0013026
0.0018942
0.00300858
0.00454223
0.00656513
0.0091633
0.0124357
0.0164964
0.0214625
0.0274383
0.000722645
0.000820267
0.00130316
0.0018772
0.00297476
0.00448946
0.00648908
0.0090604
0.0123012
0.0163258
0.0212504
0.0271761
0.000725976
0.000824057
0.0013038
0.00186324
0.00294257
0.00443911
0.00641633
0.00896229
0.0121728
0.0161622
0.0210467
0.026927
0.000729309
0.000827909
0.00130533
0.00185452
0.00291225
0.00439129
0.00634704
0.00886844
0.0120501
0.0160055
0.0208487
0.026673
0.00073258
0.000831764
0.00130833
0.00185186
0.00288403
0.00434557
0.00628062
0.00877866
0.0119326
0.0158551
0.0206618
0.0264674
0.000735896
0.000836267
0.00131312
0.00185426
0.00285764
0.004302
0.00621732
0.00869291
0.01182
0.0157113
0.0204836
0.0262502
0.00073961
0.000841109
0.00131963
0.0018601
0.00283325
0.00426078
0.00615702
0.00861126
0.011713
0.0155752
0.020318
0.026068
0.000743289
0.000846511
0.00132759
0.00186779
0.00281061
0.00422163
0.00609979
0.00853334
0.011611
0.0154452
0.0201547
0.0258396
0.000747068
0.000851952
0.0013363
0.00187611
0.00278981
0.00418457
0.0060455
0.00845914
0.0115139
0.015322
0.0200047
0.0256921
0.00075087
0.000857762
0.00134524
0.00188427
0.00277038
0.00414954
0.0059943
0.0083889
0.0114218
0.0152043
0.0198543
0.0254599
0.000755029
0.000863451
0.00135413
0.00189212
0.00275233
0.0041167
0.00594595
0.00832208
0.0113342
0.015092
0.0197138
0.0253226
0.000759109
0.000869303
0.00136302
0.00189952
0.00273564
0.00408583
0.00590012
0.00825854
0.0112507
0.0149856
0.0195835
0.0251728
0.000763329
0.000874816
0.0013714
0.00190638
0.00272001
0.00405657
0.0058569
0.00819839
0.0111716
0.0148849
0.0194594
0.0250159
0.000767589
0.00088019
0.00137934
0.00191259
0.00270543
0.00402896
0.00581578
0.00814146
0.0110968
0.0147894
0.0193401
0.0248609
0.000771873
0.000885358
0.0013869
0.00191834
0.00269186
0.00400322
0.00577724
0.0080876
0.0110261
0.0146987
0.0192238
0.0247042
0.000776229
0.00089058
0.00139421
0.00192369
0.00267951
0.00397922
0.00574095
0.00803676
0.0109591
0.0146127
0.0191153
0.024586
0.000780687
0.000895515
0.00140099
0.00192853
0.0026679
0.00395667
0.00570712
0.00798915
0.0108961
0.0145315
0.0190124
0.0244506
0.000785298
0.00090037
0.00140746
0.00193302
0.00265726
0.00393569
0.00567535
0.00794474
0.0108375
0.014456
0.0189183
0.0243471
0.000790013
0.000905174
0.00141372
0.00193735
0.00264768
0.0039166
0.0056462
0.00790346
0.0107829
0.0143855
0.0188286
0.0242208
0.000794779
0.000909771
0.00141979
0.00194151
0.00263937
0.00389922
0.00561934
0.0078653
0.0107323
0.0143204
0.0187473
0.0241381
0.000799681
0.000914592
0.00142564
0.00194555
0.00263212
0.00388342
0.00559511
0.00783087
0.0106864
0.0142612
0.0186739
0.024043
0.000805157
0.00091936
0.00143135
0.00194964
0.00262628
0.00386955
0.00557334
0.00779966
0.0106452
0.014208
0.018605
0.0239438
0.000810714
0.000924268
0.00143725
0.00195401
0.00262222
0.00385763
0.00555423
0.00777213
0.0106086
0.0141609
0.0185471
0.0238943
0.000816495
0.000929064
0.00144304
0.00195869
0.00261993
0.00384762
0.00553786
0.00774831
0.0105769
0.0141196
0.0184914
0.023786
0.000822602
0.000933996
0.00144895
0.00196381
0.00261966
0.00383969
0.00552467
0.00772893
0.0105507
0.0140855
0.0184516
0.0237927
0.000829054
0.000939065
0.00145505
0.00196957
0.00262156
0.00383426
0.00551474
0.007714
0.0105306
0.0140594
0.0184166
0.0236916
0.000835933
0.000944429
0.00146161
0.00197613
0.00262572
0.00383146
0.0055083
0.00770391
0.0105166
0.0140405
0.0183886
0.0236678
0.00084332
0.000949894
0.00146837
0.00198341
0.00263181
0.00383142
0.00550601
0.00769941
0.0105092
0.0140294
0.0183699
0.0236275
0.000851322
0.000955654
0.00147552
0.00199148
0.00263976
0.00383456
0.0055082
0.00770121
0.01051
0.0140277
0.0183616
0.0236084
0.000860018
0.00096181
0.00148327
0.00200043
0.00264941
0.00384148
0.00551577
0.00770995
0.0105195
0.0140367
0.0183665
0.0236072
0.000869507
0.000968137
0.00149148
0.00201017
0.00266099
0.00385279
0.00552947
0.0077268
0.0105392
0.014058
0.0183873
0.0236368
0.000879985
0.00097506
0.00150018
0.0020207
0.00267441
0.00386944
0.00555101
0.00775395
0.0105714
0.0140946
0.0184288
0.0236907
0.000892328
0.000982563
0.00150945
0.00203206
0.0026901
0.00389274
0.00558207
0.00779367
0.0106197
0.0141509
0.0184924
0.0237498
0.000906632
0.000991732
0.00152082
0.00204583
0.00271074
0.00392674
0.00562752
0.00785109
0.010689
0.0142317
0.0185862
0.0238743
0.000922445
0.000996216
0.00152848
0.00205675
0.00273113
0.00396585
0.00568303
0.00792422
0.0107798
0.0143397
0.0187065
0.0239596
0.000961956
0.00103301
0.00156151
0.00209563
0.00279875
0.004065
0.00580468
0.00806537
0.0109362
0.014506
0.0188816
0.0242037
0.000712877
0.000912469
0.00150193
0.00202868
0.00272659
0.00401138
0.00577045
0.00805809
0.0109645
0.014582
0.0190157
0.0243427
0.11928
0.102329
0.157602
0.256512
0.078636
0.056734
0.138669
0.0579982
0.136441
0.0934559
0.237544
0.136533
0.182381
0.0806902
0.169579
0.0951837
0.090352
0.158573
0.136935
0.138772
0.110927
0.136469
0.092323
0.164289
0.133375
0.206398
0.191854
0.097662
0.0593696
0.166414
0.116922
0.134577
0.0887518
0.100984
0.137691
0.126862
0.420094
0.131784
0.0929342
0.114058
0.0903001
0.128169
0.0657792
0.135675
0.142291
0.178875
0.136403
0.127088
0.0991945
0.164059
0.136333
0.131688
0.166782
0.0821521
0.0483599
0.0778432
0.137771
0.139383
0.140065
0.137541
0.0513671
0.0410302
0.107812
0.193018
0.12033
0.0701188
0.139202
0.129918
0.10968
0.0379073
0.131026
0.127858
0.129687
0.0993729
0.129962
0.104791
0.0454559
0.137089
0.0769716
0.0505911
0.0503425
0.140053
0.137691
0.203091
0.136005
0.126486
0.14009
0.129185
0.140113
0.0686919
0.21819
0.149284
0.0896436
0.138706
0.138625
0.233345
0.139807
0.134053
0.246836
0.138464
0.135458
0.0690436
0.0999622
0.177578
0.138403
0.202306
0.138604
0.0764281
0.117682
0.139223
0.14007
0.139246
0.125201
0.219395
0.201877
0.115992
0.0942089
0.0497386
0.0915038
0.134641
0.103278
0.153549
0.134826
0.0943254
0.154801
0.0664158
0.068031
0.0955552
0.147918
0.139492
0.139585
0.0611214
0.171107
0.139175
0.136247
0.0314062
0.0606681
0.133807
0.0329501
0.13734
0.039873
0.0892842
0.102415
0.140053
0.139911
0.139876
0.13567
0.122148
0.140054
0.07968
0.132729
0.0748502
0.111525
0.112094
0.137069
0.156411
0.127114
0.115344
0.185745
0.136397
0.134327
0.123218
0.141769
0.0833275
0.0824001
0.207426
0.139782
0.034644
0.103022
0.163075
0.18401
0.0205656
0.130696
0.158366
0.138137
0.131695
0.132349
0.0832447
0.137177
0.0839633
0.0994531
0.0674596
0.134539
0.139071
0.0505347
0.0715537
0.137925
0.161478
0.136606
0.137537
0.138133
0.137749
0.252268
0.135198
0.142842
0.215955
0.137554
0.153947
0.0965273
0.099704
0.152493
0.0303806
0.0435749
0.100964
0.132674
0.126274
0.139351
0.22137
0.137506
0.029452
0.13424
0.0543181
0.123837
0.097824
0.0618828
0.132824
0.137889
0.136947
0.138812
0.169978
0.223236
0.138482
0.131316
0.047902
0.139872
0.14726
0.0777104
0.0963357
0.108992
0.0981159
0.0806347
0.094815
0.135578
0.0476295
0.111887
0.151263
0.0909917
0.0413167
0.0705699
0.129968
0.139998
0.264259
0.138233
0.110433
0.120416
0.0725546
0.0518845
0.138856
0.109437
0.124902
0.13979
0.0451205
0.0723005
0.10428
0.17895
0.242083
0.0481502
0.125541
0.200993
0.133806
0.0629972
0.130659
0.10851
0.180757
0.147428
0.139985
0.187975
0.192191
0.131807
0.110898
0.137913
0.117506
0.140013
0.136889
0.125785
0.134206
0.126461
0.101057
0.096712
0.100066
0.130843
0.137754
0.135741
0.06416
0.115782
0.0843861
0.13138
0.135119
0.208707
0.138423
0.134759
0.118451
0.137886
0.0801956
0.125052
0.103512
0.129411
0.0953755
0.139388
0.139177
0.0926567
0.0536085
0.205941
0.0744003
0.261302
0.0827396
0.134993
0.139002
0.136179
0.0304578
0.0994162
0.23839
0.0792488
0.150809
0.125661
0.0935327
0.139724
0.0725757
0.0539027
0.0767589
0.132457
0.0999491
0.134152
0.137967
0.158759
0.142347
0.0479773
0.139408
0.128207
0.134182
0.128321
0.137516
0.127145
0.135673
0.139988
0.119494
0.0698194
0.0429063
0.116052
0.0836864
0.0832999
0.131724
0.109475
0.0971637
0.151158
0.128052
0.145242
0.0978669
0.135693
0.129921
0.139503
0.105163
0.0759175
0.130942
0.137087
0.104131
0.121161
0.128381
0.112279
0.129203
0.0946166
0.140029
0.12625
0.231976
0.132307
0.138089
0.138782
0.104916
0.116426
0.138613
0.135125
0.0857034
0.13348
0.130269
0.102669
0.13884
0.126252
0.0807333
0.138629
0.133763
0.134878
0.100296
0.139771
0.0936983
0.10851
0.060032
0.0353314
0.0609323
0.120317
0.132643
0.138292
0.139882
0.0937132
0.134973
0.221584
0.107641
0.16747
0.0378736
0.04955
0.131677
0.0494278
0.145861
0.118858
0.131216
0.135231
0.0541518
0.10003
0.0356896
0.19559
0.0966054
0.139231
0.106204
0.123657
0.140053
0.107468
0.113801
0.205733
0.119935
0.134865
0.0989881
0.0885652
0.137538
0.179834
0.0727117
0.187023
0.0454163
0.064489
0.137727
0.0925546
0.131936
0.0628615
0.138299
0.0846863
0.138917
0.13904
0.132439
0.13751
0.114708
0.0627721
0.0714284
0.135044
0.119761
0.150957
0.0989652
0.185862
0.136795
0.123767
0.135497
0.136055
0.155976
0.133252
0.138287
0.11447
0.0307914
0.206982
0.123677
0.128345
0.19273
0.147772
0.1495
0.176507
0.137111
0.110509
0.0930692
0.139179
0.20711
0.0621206
0.139713
0.0360906
0.134402
0.0828439
0.131489
0.0725811
0.108176
0.0445125
0.0694022
0.0433197
0.121259
0.135961
0.100817
0.0594249
0.13805
0.138534
0.136414
0.055177
0.0763279
0.126508
0.11786
0.140095
0.140099
0.227536
0.06486
0.109121
0.136442
0.102185
0.171697
0.0651009
0.0989303
0.126867
0.0461439
0.130008
0.103502
0.200299
0.140218
0.110459
0.138581
0.127672
0.116337
0.104052
0.142756
0.108782
0.0969859
0.210585
0.143888
0.139956
0.103762
0.045193
0.0565285
0.124707
0.105775
0.139689
0.0924209
0.130445
0.12935
0.125837
0.138362
0.137799
0.138322
0.120445
0.0575264
0.132953
0.133165
0.102455
0.125044
0.13556
0.0631901
0.0755133
0.128551
0.121757
0.11896
0.138123
0.136802
0.219632
0.13986
0.137718
0.116388
0.139872
0.137089
0.122574
0.160268
0.0549958
0.136442
0.130508
0.137793
0.0476001
0.0628007
0.0654773
0.157107
0.147021
0.136466
0.0820666
0.139104
0.0714487
0.120596
0.132695
0.0460605
0.133354
0.199578
0.101472
0.150037
0.0296616
0.128058
0.139493
0.0936401