/*--------------------------------*- C++ -*----------------------------------*\
| =========                 |                                                 |
| \\      /  F ield         | OpenFOAM: The Open Source CFD Toolbox           |
|  \\    /   O peration     | Version:  2.3.0                                 |
|   \\  /    A nd           | Web:      www.OpenFOAM.org                      |
|    \\/     M anipulation  |                                                 |
\*---------------------------------------------------------------------------*/
FoamFile
{
    version     2.0;
    format      ascii;
    class       volVectorField;
    location    "3000";
    object      U;
}
// * * * * * * * * * * * * * * * * * * * * * * * * * * * * * * * * * * * * * //

dimensions      [0 1 -1 0 0 0 0];

internalField   nonuniform List<vector> 
6617
(
(21.0687 11.4845 -2.5916e-19)
(20.5581 12.3342 -3.50982e-19)
(19.9098 13.082 7.36624e-20)
(19.0405 13.7209 9.1869e-20)
(17.9428 14.2613 -1.74394e-19)
(16.639 14.7287 1.31916e-19)
(15.1694 15.1466 -5.46035e-19)
(13.5708 15.5104 0)
(11.8846 15.8029 6.10833e-20)
(10.199 16.0799 -1.24018e-19)
(8.62028 16.4367 1.07309e-19)
(7.11505 16.6171 2.0482e-18)
(20.2284 10.9483 0)
(19.6536 11.5622 3.44391e-19)
(19.0577 12.1566 -1.44612e-18)
(18.4069 12.678 3.31514e-18)
(17.7066 13.1057 -2.16468e-18)
(16.9614 13.4159 5.46358e-19)
(16.1804 13.595 -3.24159e-18)
(15.3769 13.6346 3.18682e-18)
(14.5724 13.5314 4.70602e-18)
(13.7941 13.2921 -4.50333e-18)
(13.0527 12.9338 2.7908e-18)
(12.3377 12.4749 -2.84707e-18)
(19.7406 10.3902 -8.52066e-19)
(19.175 10.7719 -3.50913e-19)
(18.5892 11.1246 0)
(17.9627 11.4097 0)
(17.3089 11.6306 3.00262e-19)
(16.641 11.7812 -7.77573e-19)
(15.9731 11.8585 1.62909e-18)
(15.32 11.8615 -1.58309e-18)
(14.6968 11.792 -2.19078e-18)
(14.1175 11.6546 4.80298e-18)
(13.5932 11.4556 -2.30642e-18)
(13.1324 11.2015 1.64597e-19)
(19.4065 9.91895 1.40257e-18)
(18.9179 10.1724 -1.84146e-18)
(18.4275 10.4065 5.41086e-19)
(17.9265 10.582 -3.89416e-19)
(17.4204 10.7018 0)
(16.9144 10.7636 -1.50784e-18)
(16.4147 10.7679 1.92638e-18)
(15.9283 10.7162 0)
(15.4622 10.6119 -2.94783e-19)
(15.0232 10.4594 1.12326e-20)
(14.6171 10.2649 0)
(14.249 10.0352 -1.71704e-19)
(19.1658 9.44153 -5.55369e-19)
(18.7331 9.62945 -7.82709e-20)
(18.3009 9.78697 -7.2337e-20)
(17.8661 9.89835 -3.22576e-20)
(17.4322 9.96717 0)
(17.0029 9.99305 2.02191e-18)
(16.5823 9.97653 -2.02455e-18)
(16.1747 9.91886 0)
(15.7846 9.82203 2.79197e-18)
(15.4163 9.68895 -1.74713e-19)
(15.0737 9.52355 -2.30243e-18)
(14.7601 9.33047 1.82304e-18)
(19.0058 9.05025 6.51456e-19)
(18.63 9.18004 1.48961e-18)
(18.2591 9.2866 7.85423e-19)
(17.8889 9.35756 4.28231e-19)
(17.521 9.3952 -1.97701e-18)
(17.1571 9.39933 4.62644e-18)
(16.7998 9.37017 -4.40569e-18)
(16.4517 9.30834 2.28582e-18)
(16.1157 9.21502 -1.29031e-18)
(15.7948 9.09197 1.29909e-18)
(15.4922 8.9418 1.09026e-18)
(15.2104 8.76784 -1.82663e-18)
(18.8862 8.69859 4.0508e-20)
(18.562 8.80076 -7.84246e-19)
(18.2387 8.87407 -4.41637e-19)
(17.915 8.92031 1.43046e-18)
(17.5922 8.94027 -1.46572e-18)
(17.2722 8.93354 -1.61844e-18)
(16.9567 8.89985 1.10166e-18)
(16.648 8.83906 1.23967e-18)
(16.3483 8.75139 -1.25207e-18)
(16.0598 8.63766 0)
(15.7846 8.49959 7.17466e-19)
(15.5253 8.3398 0)
(18.8094 8.41884 -1.50606e-18)
(18.5287 8.48421 -8.799e-19)
(18.243 8.53168 1.32809e-18)
(17.9553 8.56062 5.15854e-19)
(17.667 8.56893 -4.89677e-19)
(17.3795 8.55528 5.46945e-19)
(17.0943 8.51929 1.18716e-18)
(16.8137 8.46049 6.00255e-20)
(16.5403 8.37791 -1.27503e-18)
(16.2755 8.27163 2.10231e-18)
(16.0208 8.14258 -2.16138e-18)
(15.7781 7.99268 0)
(18.7567 8.16305 4.10898e-19)
(18.5108 8.20782 0)
(18.2549 8.24121 0)
(17.9954 8.26023 -5.00646e-19)
(17.7338 8.26201 -5.2701e-19)
(17.4708 8.24394 -5.51308e-19)
(17.2077 8.20594 -1.20034e-18)
(16.9475 8.14925 3.10408e-18)
(16.6939 8.07079 -1.28499e-18)
(16.4479 7.97013 -2.11167e-18)
(16.2107 7.84873 1.45119e-18)
(15.9819 7.70663 -7.53696e-19)
(18.7062 7.95462 4.55811e-19)
(18.4928 7.97508 -4.6071e-19)
(18.2619 7.99783 0)
(18.0283 8.00959 1.0396e-18)
(17.79 8.00747 5.3863e-19)
(17.5469 7.98764 5.60632e-19)
(17.3032 7.94586 0)
(17.0595 7.89088 -1.18812e-21)
(16.8242 7.8144 0)
(16.5958 7.71377 0)
(16.3741 7.59685 7.2944e-19)
(16.1578 7.45662 -7.69128e-19)
(5.582 15.8359 -5.05347e-18)
(5.4936 14.3444 7.2195e-18)
(5.68798 12.8941 -4.32091e-18)
(6.01362 11.5469 0)
(6.43049 10.2753 -2.07033e-19)
(6.93586 9.07469 -6.38604e-18)
(7.52543 7.95923 6.53373e-18)
(8.17191 6.93965 -4.9775e-18)
(8.84518 6.02805 1.36361e-17)
(9.51953 5.22719 -4.41918e-20)
(10.1837 4.54386 -1.22986e-17)
(10.8455 3.98418 5.33654e-18)
(11.6455 11.9339 0)
(11.0799 11.2938 -2.1384e-19)
(10.6565 10.5959 2.50162e-19)
(10.3644 9.87003 -5.33696e-19)
(10.1902 9.13419 -6.27755e-19)
(10.1234 8.40224 -2.71419e-18)
(10.1566 7.68544 -3.43683e-20)
(10.2833 6.99122 1.51639e-18)
(10.4944 6.32188 2.8065e-18)
(10.7785 5.67679 0)
(11.1257 5.07169 5.62506e-18)
(11.5232 4.53344 0)
(12.7307 10.8918 -1.76534e-19)
(12.3789 10.5131 0)
(12.0786 10.0646 0)
(11.8368 9.55963 9.70727e-19)
(11.658 9.01038 0)
(11.5448 8.4282 -1.07683e-18)
(11.4978 7.82451 0)
(11.5156 7.21071 -1.18618e-18)
(11.5949 6.59684 -1.36326e-18)
(11.7314 5.99154 0)
(11.9234 5.41251 -2.42253e-18)
(12.1591 4.88057 0)
(13.9147 9.77334 3.25997e-18)
(13.6061 9.47308 -4.79803e-18)
(13.3252 9.13175 1.6971e-18)
(13.0783 8.75431 -2.80655e-18)
(12.8704 8.34582 3.9411e-18)
(12.7055 7.91157 -3.10369e-18)
(12.5867 7.45691 3.22279e-18)
(12.5161 6.98694 -3.3948e-18)
(12.4949 6.50597 4.6321e-18)
(12.5236 6.01832 0)
(12.6037 5.53465 2.3637e-18)
(12.7304 5.06843 2.19259e-18)
(14.4728 9.11131 -1.48088e-18)
(14.2065 8.8619 -2.0403e-18)
(13.9622 8.58026 1.25046e-18)
(13.7441 8.2694 4.6177e-19)
(13.5557 7.93268 0)
(13.3994 7.57376 0)
(13.2771 7.1964 -1.05777e-18)
(13.1901 6.80421 1.06407e-18)
(13.1391 6.40032 1.03856e-18)
(13.1242 5.98816 0)
(13.1456 5.57589 2.15206e-18)
(13.1976 5.1667 -4.29099e-18)
(14.9489 8.57172 0)
(14.705 8.35137 8.22521e-19)
(14.4797 8.10615 4.35987e-19)
(14.2761 7.83837 -9.16903e-19)
(14.0965 7.55062 1.85429e-18)
(13.9427 7.24581 0)
(13.816 6.9268 0)
(13.7175 6.59607 -2.08203e-18)
(13.6476 6.25553 -3.75326e-21)
(13.6067 5.90669 1.0756e-18)
(13.5946 5.55499 -6.29754e-18)
(13.6077 5.20457 -4.60754e-20)
(15.2825 8.16016 0)
(15.0558 7.95996 -4.20082e-19)
(14.8468 7.73925 8.82335e-19)
(14.6575 7.50002 -8.87598e-19)
(14.4893 7.24463 -9.4166e-19)
(14.343 6.97595 -9.48142e-19)
(14.2196 6.69682 -9.90475e-19)
(14.12 6.40912 1.97898e-18)
(14.044 6.11434 2.03038e-18)
(13.9918 5.81295 1.00931e-18)
(13.9632 5.50937 2.0646e-18)
(13.9573 5.20964 -3.93866e-18)
(15.5483 7.82479 0)
(15.3338 7.63925 0)
(15.1365 7.43651 0)
(14.9586 7.2182 0)
(14.7996 6.98631 1.80661e-20)
(14.6595 6.74383 2.00915e-20)
(14.5393 6.49485 9.72462e-19)
(14.441 6.23987 -2.92817e-18)
(14.3629 5.98089 -1.00061e-18)
(14.3064 5.71674 9.79842e-19)
(14.2673 5.45159 -1.97198e-18)
(14.2407 5.18911 1.99694e-18)
(15.7608 7.54906 -7.98909e-19)
(15.5545 7.37438 -8.47782e-19)
(15.3658 7.18497 8.50803e-19)
(15.1974 6.98263 1.7847e-18)
(15.0467 6.76931 1.81608e-20)
(14.9115 6.54528 0)
(14.7941 6.32045 0)
(14.6982 6.08978 4.99588e-19)
(14.62 5.86122 -1.44137e-18)
(14.5651 5.62649 -9.70243e-19)
(14.5247 5.395 9.79942e-19)
(14.4928 5.16373 0)
(15.939 7.31436 2.42734e-18)
(15.7393 7.14894 -1.65043e-18)
(15.555 6.96891 -8.75307e-19)
(15.3927 6.77699 -1.36099e-18)
(15.2506 6.58278 -9.01565e-19)
(15.1188 6.37218 9.15809e-19)
(15.0024 6.16982 4.7941e-19)
(14.9097 5.95049 1.96288e-18)
(14.8325 5.75157 1.91979e-20)
(14.7806 5.53665 9.68436e-19)
(14.7429 5.337 -1.8605e-20)
(14.7121 5.12406 0)
(-3.60831 -2.60677 -3.88173e-18)
(-2.77518 -2.68375 2.3963e-18)
(-1.9319 -2.74907 -5.43677e-18)
(-1.10304 -2.79223 5.98296e-18)
(-0.298577 -2.80515 -4.06667e-18)
(0.487615 -2.78197 4.28997e-18)
(1.2833 -2.71847 -3.64988e-18)
(2.15433 -2.61346 0)
(3.22274 -2.47814 -4.17704e-18)
(4.71867 -2.3477 8.47675e-18)
(7.09942 -2.30945 -4.90874e-18)
(11.2822 -2.78471 1.53328e-19)
(-3.36588 -2.47121 0)
(-2.52688 -2.49699 -2.20434e-18)
(-1.65921 -2.51208 3.60264e-18)
(-0.761838 -2.50195 2.53241e-18)
(0.17762 -2.46168 -6.56414e-19)
(1.18659 -2.38815 -6.39621e-19)
(2.31623 -2.28363 0)
(3.64999 -2.1614 0)
(5.31508 -2.05646 0)
(7.49442 -2.04484 0)
(10.4212 -2.2639 0)
(14.2608 -2.919 1.42568e-19)
(-3.00576 -2.23278 -1.75097e-18)
(-2.12895 -2.20524 0)
(-1.19948 -2.16886 -8.49058e-21)
(-0.207339 -2.10995 -1.28779e-20)
(0.867807 -2.02869 -2.17201e-18)
(2.06122 -1.92974 1.60734e-18)
(3.42511 -1.82469 -2.14171e-18)
(5.03086 -1.73712 2.13008e-18)
(6.96891 -1.71024 -8.89208e-20)
(9.34068 -1.81518 -1.07613e-18)
(12.2234 -2.15588 0)
(15.5718 -2.84289 -1.79241e-18)
(-2.57746 -1.95938 1.6343e-18)
(-1.66502 -1.89288 0)
(-0.68409 -1.82385 0)
(0.380611 -1.74151 0)
(1.55186 -1.64988 4.88564e-19)
(2.8635 -1.55772 0)
(4.36041 -1.48069 0)
(6.09832 -1.44519 0)
(8.14025 -1.49238 0)
(10.5442 -1.68142 -2.21035e-19)
(13.3335 -2.08543 0)
(16.4431 -2.76902 1.53517e-18)
(-2.11379 -1.68923 -7.69193e-19)
(-1.17598 -1.60488 8.43706e-19)
(-0.161743 -1.52128 0)
(0.947057 -1.43254 4.31479e-19)
(2.17368 -1.3454 0)
(3.54948 -1.27052 -4.31766e-19)
(5.1132 -1.22449 1.31094e-18)
(6.90983 -1.23297 -9.04966e-19)
(8.98726 -1.3329 0)
(11.3839 -1.57345 -3.71959e-19)
(14.1049 -2.01043 1.6088e-18)
(17.084 -2.68707 -8.34421e-19)
(-1.63925 -1.43999 0)
(-0.693306 -1.35473 0)
(0.336002 -1.26641 -4.00299e-19)
(1.46586 -1.1798 -4.06189e-19)
(2.71918 -1.10257 4.15741e-19)
(4.12628 -1.04578 -8.10422e-19)
(5.72174 -1.02535 1.23472e-18)
(7.54428 -1.06574 -4.24305e-19)
(9.63263 -1.20061 0)
(12.0159 -1.47263 -9.49625e-19)
(14.6908 -1.92783 8.09778e-19)
(17.5846 -2.59852 -6.90517e-19)
(-1.17077 -1.21894 -6.61743e-21)
(-0.232435 -1.1418 -1.47306e-18)
(0.796868 -1.05446 -3.71805e-19)
(1.9312 -0.973503 -3.77824e-19)
(3.19231 -0.907021 7.71943e-19)
(4.61158 -0.866294 -3.82054e-19)
(6.22006 -0.86527 2.16786e-21)
(8.05261 -0.927511 -3.8311e-19)
(10.1417 -1.08506 0)
(12.5115 -1.37712 0)
(15.1517 -1.84279 -3.58764e-19)
(17.9831 -2.50765 3.12724e-19)
(-0.723618 -1.03094 0)
(0.199416 -0.960904 7.10063e-19)
(1.21817 -0.877544 3.61798e-19)
(2.34639 -0.803708 -3.56831e-19)
(3.60239 -0.747354 -3.49127e-19)
(5.02522 -0.721184 3.75971e-19)
(6.64001 -0.735202 3.65524e-19)
(8.47785 -0.81219 7.40562e-19)
(10.5639 -0.984095 3.60188e-19)
(12.9233 -1.2899 0)
(15.5396 -1.76237 3.52526e-19)
(18.3256 -2.42346 4.89145e-20)
(-0.304935 -0.859597 -6.1729e-19)
(0.593547 -0.801263 3.30742e-19)
(1.59563 -0.725145 0)
(2.70968 -0.659927 0)
(3.94617 -0.614645 -1.54823e-19)
(5.36259 -0.60217 -1.59699e-19)
(6.97536 -0.627313 -1.85432e-19)
(8.81275 -0.711884 -8.78186e-19)
(10.8873 -0.889081 9.62125e-21)
(13.2336 -1.20556 3.27257e-19)
(15.822 -1.67955 0)
(18.5608 -2.32948 -6.25911e-19)
(0.132996 -0.745813 5.87948e-19)
(0.988126 -0.680658 1.58558e-19)
(1.94854 -0.594299 -1.62808e-19)
(3.05999 -0.541712 -3.26018e-19)
(4.27179 -0.514942 3.35655e-19)
(5.73015 -0.525023 -3.7523e-21)
(7.35856 -0.567483 -3.44371e-19)
(9.21894 -0.670173 1.52758e-19)
(11.2704 -0.846506 -4.99123e-19)
(13.6038 -1.17211 -3.24655e-19)
(16.2053 -1.65918 0)
(18.9387 -2.32309 2.44054e-19)
(18.4849 -4.90658 0)
(22.1159 -6.4758 -6.28118e-20)
(23.179 -6.91632 -4.72071e-18)
(23.5576 -7.01363 3.93635e-18)
(23.6787 -6.99279 2.10631e-18)
(23.6438 -6.90039 -1.71821e-18)
(23.5272 -6.76124 4.46275e-19)
(23.3672 -6.59184 -4.39987e-19)
(23.1819 -6.40167 6.69466e-20)
(22.9798 -6.19544 9.85321e-20)
(22.7667 -5.97427 -9.52411e-19)
(22.5429 -5.73839 8.46676e-19)
(18.6114 -4.23191 0)
(22.399 -5.79598 0)
(23.7626 -6.38834 3.89068e-18)
(24.0062 -6.45033 -6.38997e-18)
(24.0272 -6.43152 4.65256e-18)
(23.9368 -6.36704 -1.75227e-18)
(23.7888 -6.27163 1.11466e-19)
(23.6094 -6.15322 -6.23334e-20)
(23.411 -6.01592 0)
(23.1996 -5.86281 -6.25973e-19)
(22.9831 -5.69011 8.04729e-19)
(22.7669 -5.48556 -3.42872e-19)
(19.1596 -3.93492 1.95307e-18)
(22.5038 -5.26793 0)
(24.0202 -5.95333 -1.30483e-18)
(24.1884 -6.01531 1.40384e-18)
(24.1477 -5.99167 0)
(24.0363 -5.9391 -6.93294e-19)
(23.8873 -5.86707 2.93758e-19)
(23.7162 -5.77905 4.00359e-19)
(23.5304 -5.67664 0)
(23.3329 -5.56184 6.2685e-20)
(23.1276 -5.43002 1.11536e-19)
(22.9205 -5.26695 7.83446e-19)
(19.7109 -3.75065 -3.25733e-18)
(22.6826 -4.89952 1.53764e-18)
(24.1883 -5.5919 -3.70881e-19)
(24.3219 -5.66846 0)
(24.2363 -5.64134 8.4267e-19)
(24.1075 -5.59676 -1.77107e-19)
(23.9551 -5.53892 -1.66635e-19)
(23.7886 -5.46966 -1.61396e-19)
(23.6129 -5.38948 -1.93375e-19)
(23.4288 -5.29893 -1.19578e-19)
(23.2324 -5.19816 1.2803e-20)
(23.0228 -5.084 -3.49884e-19)
(20.155 -3.60417 0)
(22.8669 -4.63134 1.85598e-19)
(24.2858 -5.28659 -9.59305e-19)
(24.4043 -5.37491 1.28488e-18)
(24.2923 -5.34633 0)
(24.1538 -5.30797 0)
(24.0004 -5.26012 -1.15652e-19)
(23.8382 -5.20423 0)
(23.6701 -5.14026 0)
(23.496 -5.06768 1.02718e-19)
(23.3103 -4.98793 -9.73421e-20)
(23.1083 -4.90439 0)
(20.5151 -3.47353 1.09035e-19)
(23.0316 -4.41661 1.57958e-18)
(24.3388 -5.02412 -5.56939e-19)
(24.4426 -5.11893 0)
(24.315 -5.09189 0)
(24.172 -5.05919 -1.58135e-19)
(24.0204 -5.01935 -3.7741e-19)
(23.8637 -4.97365 4.23515e-19)
(23.7031 -4.92193 -3.01354e-20)
(23.5378 -4.86322 -4.26099e-20)
(23.364 -4.79884 1.51314e-19)
(23.1781 -4.73539 1.98419e-19)
(20.8062 -3.35122 -7.37127e-19)
(23.1678 -4.23171 1.55838e-19)
(24.3674 -4.79507 -3.1446e-19)
(24.456 -4.89416 2.25572e-19)
(24.3197 -4.87168 -4.5655e-19)
(24.1747 -4.8444 1.57657e-19)
(24.0253 -4.81123 -7.4519e-20)
(23.8737 -4.77345 1.35737e-19)
(23.7199 -4.73098 -3.68178e-20)
(23.5629 -4.68283 -2.60116e-20)
(23.4008 -4.63028 0)
(23.2324 -4.58052 -1.41018e-19)
(21.0634 -3.2457 6.93775e-19)
(23.2929 -4.08191 -3.15872e-19)
(24.3878 -4.60712 0)
(24.456 -4.70321 7.09794e-19)
(24.3155 -4.68273 -5.91651e-19)
(24.1702 -4.65898 3.3056e-19)
(24.0232 -4.63103 -1.74699e-19)
(23.8758 -4.59954 2.26109e-19)
(23.7277 -4.56405 0)
(23.5786 -4.52377 -4.30149e-20)
(23.4271 -4.48019 -6.30935e-20)
(23.2735 -4.44119 1.62041e-19)
(21.2175 -3.12182 0)
(23.3391 -3.916 2.74033e-19)
(24.3725 -4.42229 5.09968e-19)
(24.4472 -4.53156 -7.45909e-19)
(24.3075 -4.51788 -7.02453e-19)
(24.1608 -4.49731 3.1449e-19)
(24.014 -4.4734 -3.49593e-19)
(23.8707 -4.44709 1.51825e-19)
(23.7281 -4.41703 2.37078e-20)
(23.5869 -4.38236 -1.15042e-21)
(23.4452 -4.34481 0)
(23.3041 -4.31358 -7.72104e-20)
(21.5451 -3.12332 -2.8772e-19)
(23.5362 -3.90338 -5.48767e-19)
(24.4197 -4.35832 0)
(24.4392 -4.41654 1.89897e-21)
(24.2949 -4.37827 1.80612e-19)
(24.1492 -4.35375 0)
(24.0054 -4.33455 -5.29771e-20)
(23.8672 -4.31477 8.77719e-20)
(23.7285 -4.28829 -1.62314e-20)
(23.5964 -4.25786 -2.31867e-20)
(23.4652 -4.22602 1.07271e-19)
(23.3344 -4.20771 -1.16808e-19)
(0.450335 1.76501 4.84513e-17)
(1.49292 1.8257 -2.09862e-17)
(3.18395 2.49421 1.25346e-17)
(5.19381 3.54035 -8.73635e-18)
(7.43321 4.72137 0)
(9.79519 6.05567 0)
(12.2549 7.46261 -4.24226e-19)
(14.7209 8.81688 2.09739e-18)
(17.0333 9.97419 -3.17434e-19)
(19.0144 10.7946 -2.32083e-18)
(20.5202 11.1842 -4.29749e-19)
(21.5345 11.0272 -2.9974e-19)
(-8.87394 2.798 -4.47197e-17)
(-8.25211 2.69471 2.641e-17)
(-7.15619 2.5462 -3.75876e-17)
(-5.71713 2.59071 2.56019e-17)
(-3.77331 2.80629 -1.07565e-17)
(-1.00677 3.16425 -9.28871e-19)
(2.4486 3.80465 1.39357e-18)
(6.42139 4.7893 -2.8943e-18)
(10.5826 6.08811 4.52643e-18)
(14.5566 7.52571 1.10671e-18)
(17.9571 8.85575 2.78689e-18)
(20.4638 9.62379 8.12834e-19)
(-3.87572 1.44772 -7.43036e-17)
(-4.5849 1.5061 4.05557e-17)
(-4.75046 1.50954 1.36348e-20)
(-4.55049 1.43216 0)
(-4.00452 1.36937 -2.83494e-20)
(-3.03824 1.40578 -9.65749e-18)
(-1.48888 1.63538 1.79702e-17)
(0.870171 2.16082 -1.87475e-18)
(4.29636 3.08254 -7.32176e-18)
(8.61979 4.42006 -1.53525e-18)
(13.289 6.09009 -2.00855e-18)
(17.4654 7.5241 -1.60101e-18)
(-5.02077 1.79762 0)
(-5.50239 1.96835 -4.69766e-17)
(-5.5664 1.98276 6.02636e-17)
(-5.38153 1.93031 -2.12215e-17)
(-4.97604 1.83662 -1.16839e-17)
(-4.30894 1.72743 1.34813e-17)
(-3.30924 1.65293 0)
(-1.82693 1.68856 2.03766e-18)
(0.408207 1.94548 0)
(3.74333 2.59838 0)
(8.24858 3.85664 0)
(13.2122 5.30829 -1.80733e-19)
(-4.37459 1.58854 -8.38199e-17)
(-5.00259 1.78644 5.04851e-17)
(-5.20585 1.85005 -2.03963e-18)
(-5.16189 1.83457 0)
(-4.93494 1.77613 -9.12467e-21)
(-4.51738 1.6931 -6.10011e-21)
(-3.86439 1.60506 0)
(-2.88815 1.54524 -4.32738e-18)
(-1.41076 1.57472 3.75358e-18)
(0.851323 1.8051 3.11725e-18)
(4.31854 2.49988 8.4022e-18)
(8.91874 3.52261 -1.16939e-19)
(-4.4327 1.60669 0)
(-5.08112 1.83577 0)
(-5.31514 1.92157 -2.16552e-18)
(-5.3061 1.92928 2.46319e-17)
(-5.13011 1.89156 -2.06753e-17)
(-4.79619 1.82236 -3.53952e-18)
(-4.28064 1.73365 0)
(-3.53401 1.64312 2.26107e-18)
(-2.44673 1.58357 -7.59847e-18)
(-0.806085 1.61757 3.4359e-18)
(1.73515 1.91511 9.48991e-20)
(5.4519 2.46023 3.45715e-18)
(-4.34085 1.57825 8.81034e-17)
(-5.02719 1.82509 0)
(-5.30327 1.93032 -3.58815e-17)
(-5.33606 1.95488 1.22298e-20)
(-5.20928 1.93375 1.90719e-17)
(-4.94178 1.88076 1.84226e-18)
(-4.5222 1.80511 0)
(-3.91861 1.71698 9.3572e-18)
(-3.06321 1.63514 -7.80682e-18)
(-1.8104 1.59052 -6.72926e-18)
(0.108305 1.67879 7.61158e-20)
(2.97776 1.87285 -4.14906e-18)
(-4.34976 1.58228 0)
(-5.05981 1.84332 0)
(-5.36163 1.96148 3.64893e-17)
(-5.42006 1.99818 -2.6075e-17)
(-5.32233 1.98846 -1.95349e-17)
(-5.09364 1.94617 3.02885e-17)
(-4.73074 1.87918 -2.3999e-17)
(-4.21179 1.79504 9.66339e-18)
(-3.49271 1.70521 -1.18857e-17)
(-2.47346 1.62674 3.73317e-20)
(-0.950708 1.61021 3.79483e-21)
(1.34084 1.64332 0)
(-4.35485 1.58567 -8.85011e-17)
(-5.08837 1.85707 5.52312e-17)
(-5.41196 1.98433 4.14882e-17)
(-5.49291 2.02961 -6.90586e-21)
(-5.41936 2.02765 -2.24129e-17)
(-5.22107 1.99276 1.35323e-17)
(-4.90043 1.93243 -1.22897e-17)
(-4.44237 1.8528 0)
(-3.81571 1.76144 -8.06243e-18)
(-2.9498 1.66904 1.02117e-17)
(-1.69185 1.60155 5.92427e-18)
(0.189003 1.55503 5.19084e-18)
(-4.37898 1.59491 1.76324e-16)
(-5.12785 1.8729 -5.5271e-17)
(-5.4705 2.00738 3.4875e-17)
(-5.56968 2.05909 -5.44568e-21)
(-5.5145 2.06244 2.52261e-18)
(-5.33843 2.03222 1.96027e-18)
(-5.04812 1.97576 -1.25222e-17)
(-4.6337 1.89819 0)
(-4.07175 1.80483 0)
(-3.31034 1.70239 -3.41623e-18)
(-2.23208 1.60304 0)
(-0.640778 1.49159 5.15146e-18)
(-4.40473 1.60446 2.74414e-18)
(-5.1669 1.88768 5.35882e-17)
(-5.52667 2.02843 -3.98029e-17)
(-5.64145 2.08535 -2.71512e-17)
(-5.6012 2.09277 5.71025e-21)
(-5.44238 2.06601 1.59951e-17)
(-5.17489 2.01245 3.18412e-18)
(-4.7928 1.93656 -2.56632e-18)
(-4.27776 1.84242 0)
(-3.59013 1.73459 0)
(-2.63701 1.6196 0)
(-1.24949 1.48557 0)
(-4.43327 1.61498 -9.00776e-17)
(-5.20841 1.9034 0)
(-5.58309 2.0498 2.35152e-18)
(-5.71106 2.11136 2.73905e-17)
(-5.68284 2.12234 -2.07482e-17)
(-5.53741 2.0986 0)
(-5.28717 2.04768 -3.22699e-18)
(-4.92923 1.97375 1.30189e-17)
(-4.44895 1.88015 -1.16158e-20)
(-3.81513 1.76996 3.46518e-18)
(-2.95344 1.64464 -5.88874e-18)
(-1.72255 1.48291 -4.95846e-18)
(-4.46417 1.62647 0)
(-5.25249 1.92025 0)
(-5.64019 2.07186 -2.36055e-18)
(-5.77949 2.13773 0)
(-5.76126 2.15212 -2.61669e-18)
(-5.62661 2.13146 1.63583e-17)
(-5.39 2.08359 3.2601e-18)
(-5.05102 2.01278 -1.31966e-17)
(-4.59825 1.9224 0)
(-4.00684 1.8161 -3.50493e-18)
(-3.21511 1.69932 -9.37259e-21)
(-2.09084 1.56469 9.72405e-21)
(-4.4988 1.63942 8.63675e-17)
(-5.30008 1.93855 -5.15388e-17)
(-5.6992 2.09485 2.35968e-18)
(-5.84826 2.16459 -2.94032e-17)
(-5.83845 2.18198 2.63057e-17)
(-5.71269 2.16399 0)
(-5.48716 2.11873 -3.29156e-18)
(-5.16348 2.05046 2.66267e-18)
(-4.73314 1.96234 4.33643e-18)
(-4.17726 1.85718 -3.54121e-18)
(-3.45058 1.73784 -1.16772e-20)
(-2.46233 1.59499 8.93253e-21)
(-4.53749 1.65388 1.71629e-16)
(-5.35135 1.95826 -1.65636e-18)
(-5.76048 2.1188 -3.77668e-17)
(-5.91796 2.19205 1.732e-18)
(-5.91526 2.21224 4.73125e-21)
(-5.79691 2.19683 1.65635e-17)
(-5.58048 2.15425 -9.94342e-18)
(-5.26911 2.08897 2.6868e-18)
(-4.85638 2.00415 -5.30626e-21)
(-4.32693 1.90268 -3.57158e-18)
(-3.64353 1.78798 5.87436e-18)
(-2.72429 1.65483 -4.87573e-18)
(-4.58046 1.66985 8.52284e-17)
(-5.40616 1.97911 -5.27118e-17)
(-5.82415 2.14335 0)
(-5.98889 2.2196 2.77554e-17)
(-5.99228 2.24209 -2.64913e-18)
(-5.88027 2.22876 -1.66263e-17)
(-5.67164 2.18826 1.33199e-17)
(-5.37082 2.12514 -2.10939e-21)
(-4.9732 2.04241 4.38208e-18)
(-4.46648 1.94264 -1.07614e-17)
(-3.82124 1.82868 0)
(-2.97208 1.69529 0)
(-4.6273 1.68727 -2.64606e-18)
(-5.46392 2.00101 5.24308e-17)
(-5.88971 2.16849 -2.35433e-18)
(-6.06072 2.24732 -1.7365e-18)
(-6.06928 2.27179 0)
(-5.96263 2.26027 0)
(-5.76056 2.22163 -6.67827e-18)
(-5.46848 2.16054 -1.35383e-17)
(-5.08305 2.07996 8.83552e-18)
(-4.59391 1.98233 3.59615e-18)
(-3.97688 1.87014 5.911e-18)
(-3.17688 1.73923 4.85321e-18)
(-4.67764 1.70587 8.65862e-17)
(-5.52398 2.02354 -5.21396e-17)
(-5.95683 2.19388 2.34242e-18)
(-6.13326 2.27486 5.71786e-17)
(-6.14628 2.30092 -6.35941e-17)
(-6.04431 2.29083 5.15584e-21)
(-5.84803 2.25369 1.67249e-17)
(-5.56367 2.19426 0)
(-5.18897 2.1155 -4.43627e-18)
(-4.71511 2.01978 -7.22073e-18)
(-4.12185 1.90947 1.182e-17)
(-3.36209 1.78017 -4.84488e-18)
(-4.73053 1.72532 -1.6663e-16)
(-5.58573 2.04648 5.34664e-17)
(-6.02484 2.21927 3.74049e-17)
(-6.20595 2.30199 -2.76839e-17)
(-6.22278 2.32929 4.29776e-21)
(-6.12486 2.32029 -2.08334e-18)
(-5.93365 2.28428 1.00449e-17)
(-5.65609 2.2261 2.17601e-17)
(-5.29077 2.14869 -1.33349e-17)
(-4.83019 2.05444 3.61322e-18)
(-4.25745 1.94608 -5.90528e-18)
(-3.53315 1.82054 9.55424e-18)
(-4.78529 1.74541 1.62736e-16)
(-5.64847 2.06966 -1.06305e-16)
(-6.09322 2.24456 -2.33259e-18)
(-6.27832 2.32868 5.52664e-17)
(-6.29841 2.3569 -4.23496e-17)
(-6.204 2.34868 2.08269e-18)
(-6.01724 2.31347 3.34644e-18)
(-5.74561 2.25613 2.7273e-18)
(-5.38835 2.17949 0)
(-4.93893 2.08557 3.62397e-18)
(-4.38339 1.97557 -1.18219e-17)
(-3.6909 1.84225 3.1055e-20)
(-4.84135 1.76591 1.69141e-16)
(-5.71177 2.09292 -4.96405e-17)
(-6.16156 2.26965 3.94535e-17)
(-6.35006 2.35489 -2.58512e-17)
(-6.37289 2.3838 -4.2293e-17)
(-6.28157 2.37619 2.08546e-17)
(-6.09878 2.34167 4.39785e-21)
(-5.83246 2.28517 1.90798e-17)
(-5.48233 2.20955 -1.78103e-17)
(-5.04246 2.11691 7.26881e-18)
(-4.49996 2.00926 0)
(-3.82412 1.88369 -4.78625e-18)
(-4.8982 1.78665 7.88226e-17)
(-5.77524 2.11611 -1.59378e-18)
(-6.22957 2.29444 2.31487e-18)
(-6.42089 2.38051 -2.92229e-17)
(-6.44603 2.40986 3.50226e-21)
(-6.35741 2.40261 2.70783e-17)
(-6.17823 2.36849 -1.67574e-17)
(-5.9168 2.31243 1.09009e-17)
(-5.57328 2.23719 -8.91324e-18)
(-5.14243 2.14462 0)
(-4.61301 2.03643 0)
(-3.95989 1.90827 0)
(-4.95535 1.80746 2.52568e-18)
(-5.83865 2.13922 5.22146e-17)
(-6.29701 2.31894 -7.59757e-17)
(-6.49058 2.40561 2.57162e-17)
(-6.5176 2.43524 -4.21556e-17)
(-6.43132 2.42825 2.08101e-17)
(-6.25538 2.39447 1.33873e-17)
(-5.99836 2.33889 -1.09005e-17)
(-5.66072 2.26422 1.78272e-17)
(-5.2376 2.17236 -5.08502e-21)
(-4.7185 2.06515 -5.91829e-18)
(-4.08027 1.93817 0)
(-5.01251 1.82826 7.75946e-17)
(-5.90177 2.16218 -5.0331e-17)
(-6.3637 2.3431 -3.89715e-17)
(-6.55901 2.43013 3.07658e-17)
(-6.5875 2.45985 1.83995e-17)
(-6.50326 2.45294 1.45396e-17)
(-6.33029 2.41932 -2.34266e-17)
(-6.07737 2.36395 -1.08969e-17)
(-5.74526 2.28949 1.33796e-17)
(-5.32965 2.19773 3.64363e-18)
(-4.82122 2.09076 5.91341e-18)
(-4.19971 1.96537 -9.33948e-18)
(-5.06941 1.84894 -5.9101e-22)
(-5.96467 2.18506 -5.00257e-17)
(-6.42962 2.36702 -3.65151e-17)
(-6.62611 2.45424 2.55511e-17)
(-6.65565 2.48392 -6.25895e-21)
(-6.57312 2.47702 2.07586e-18)
(-6.40276 2.44351 -3.34503e-18)
(-6.15345 2.3883 -2.72578e-18)
(-5.82608 2.31388 8.92079e-18)
(-5.41666 2.2217 -3.62939e-18)
(-4.9171 2.11272 0)
(-4.31187 1.98088 3.81261e-21)
(-5.12618 1.86958 2.46752e-18)
(-6.02754 2.20795 0)
(-6.49495 2.39078 -5.32369e-21)
(-6.69204 2.47804 0)
(-6.72225 2.50762 2.6111e-18)
(-6.64115 2.50074 -2.06588e-18)
(-6.47316 2.46742 3.33068e-18)
(-6.22717 2.41256 1.3588e-17)
(-5.90405 2.3386 -1.33534e-17)
(-5.49994 2.24697 -1.45543e-17)
(-5.00703 2.13903 0)
(-4.40933 2.01217 9.3791e-18)
(-5.18302 1.89031 -8.07017e-17)
(-6.0906 2.23106 4.94023e-17)
(-6.55977 2.41453 -3.1632e-17)
(-6.75691 2.50164 -2.53384e-17)
(-6.78742 2.53101 3.12368e-21)
(-6.70752 2.52408 3.4039e-21)
(-6.54169 2.49091 2.99395e-17)
(-6.29879 2.43629 -1.89881e-17)
(-5.97959 2.36251 4.4424e-18)
(-5.58033 2.2707 -1.60911e-20)
(-5.09404 2.16152 0)
(-4.50818 2.03147 8.75476e-21)
(-5.24043 1.91123 1.55312e-16)
(-6.15415 2.25438 -1.55569e-21)
(-6.62446 2.43836 -2.2471e-18)
(-6.82107 2.5252 -2.85881e-17)
(-6.85151 2.55434 0)
(-6.77257 2.54745 1.84947e-17)
(-6.60874 2.5146 -1.65787e-17)
(-6.36869 2.46054 8.11796e-18)
(-6.05296 2.38751 -4.44201e-18)
(-5.65742 2.29647 7.24783e-18)
(-5.17497 2.18763 0)
(-4.59374 2.05771 -4.69871e-18)
(-5.29888 1.93254 7.46382e-17)
(-6.21884 2.27811 -4.8764e-17)
(-6.68939 2.4623 0)
(-6.88485 2.5487 0)
(-6.9149 2.57754 -2.58593e-18)
(-6.83678 2.57069 -2.04456e-18)
(-6.67494 2.53822 1.32159e-17)
(-6.43788 2.48487 -8.08939e-18)
(-6.12589 2.41285 -4.42656e-18)
(-5.73451 2.32317 1.44646e-17)
(-5.25618 2.21622 -1.76628e-17)
(-4.67842 2.08946 4.69781e-18)
(-5.35874 1.95453 -7.40502e-17)
(-6.2843 2.3024 0)
(-6.75439 2.48647 -3.55333e-17)
(-6.94815 2.57216 1.66861e-18)
(-6.97752 2.60054 2.3131e-17)
(-6.90012 2.59364 0)
(-6.74028 2.56149 0)
(-6.50632 2.50878 -2.68404e-18)
(-6.19835 2.43767 -1.05805e-20)
(-5.81171 2.3492 1.08191e-17)
(-5.33844 2.24427 -1.17306e-17)
(-4.76579 2.12195 1.15194e-20)
(-5.41957 1.97675 1.51638e-16)
(-6.35046 2.32677 -4.95859e-17)
(-6.8194 2.51053 0)
(-7.01086 2.59529 2.48114e-17)
(-7.03927 2.62308 -2.86966e-21)
(-6.96248 2.61605 -1.82557e-17)
(-6.80461 2.58416 1.31057e-17)
(-6.57377 2.53202 -8.02821e-18)
(-6.26992 2.46168 -1.04089e-20)
(-5.88825 2.37403 -3.58948e-18)
(-5.42082 2.26947 0)
(-4.85635 2.14447 -9.23004e-18)
(-5.48139 1.99928 -1.50401e-16)
(-6.41743 2.35133 -1.96098e-21)
(-6.88432 2.53442 -2.19224e-18)
(-7.07291 2.61801 2.62951e-17)
(-7.10006 2.64509 0)
(-7.0237 2.63785 1.81487e-17)
(-6.86768 2.60615 -1.30448e-17)
(-6.63987 2.5545 -5.32883e-18)
(-6.33999 2.48484 8.7444e-18)
(-5.96316 2.39805 0)
(-5.5013 2.29526 1.16478e-17)
(-4.94217 2.17615 4.56863e-18)
(-5.54418 2.02222 7.4585e-17)
(-6.48543 2.3763 1.47688e-18)
(-6.94923 2.55834 -3.26441e-17)
(-7.13435 2.64058 0)
(-7.15992 2.66686 -2.01929e-17)
(-7.0838 2.65937 3.24435e-21)
(-6.92949 2.62783 3.67337e-21)
(-6.70446 2.57658 1.32506e-17)
(-6.40809 2.50731 9.9538e-21)
(-6.03518 2.42033 0)
(-5.57815 2.31492 1.59308e-21)
(-5.02913 2.1862 -4.60743e-18)
(-5.60888 2.04606 0)
(-6.55441 2.40195 0)
(-7.01407 2.58248 2.16138e-18)
(-7.19524 2.66316 0)
(-7.21904 2.6886 0)
(-7.14315 2.68094 1.59293e-17)
(-6.99061 2.64982 -3.39801e-21)
(-6.76848 2.59951 -3.92116e-21)
(-6.47566 2.53173 -1.29754e-17)
(-6.10626 2.44699 0)
(-5.65124 2.345 0)
(-5.0986 2.22215 4.6253e-18)
(-5.67528 2.07037 -7.33035e-17)
(-6.62352 2.42738 -4.66153e-17)
(-7.07865 2.60622 3.21312e-17)
(-7.25542 2.68509 2.57047e-17)
(-7.27736 2.7095 -1.98992e-17)
(-7.2018 2.70153 0)
(-7.05132 2.67065 -3.20322e-18)
(-6.83262 2.62106 -1.30876e-17)
(-6.54437 2.55446 4.29622e-18)
(-6.18057 2.47156 3.52858e-18)
(-5.73207 2.37338 0)
(-5.18649 2.26 1.33077e-20)
(-5.7425 2.09489 -2.2733e-18)
(-6.69288 2.45265 0)
(-7.14251 2.62936 0)
(-7.31444 2.70612 0)
(-7.33437 2.72933 0)
(-7.25912 2.72087 0)
(-7.11072 2.69003 3.17246e-18)
(-6.8955 2.64081 1.03883e-17)
(-6.61182 2.57473 -4.27712e-18)
(-6.25355 2.49219 -3.49843e-18)
(-5.81222 2.39342 0)
(-5.28017 2.27603 -4.53412e-18)
(-5.81017 2.11962 2.24925e-18)
(-6.76186 2.47776 4.44379e-17)
(-7.20511 2.65188 -1.69015e-21)
(-7.3718 2.72628 -2.68529e-17)
(-7.38962 2.74812 -1.95701e-17)
(-7.31472 2.73906 1.94987e-21)
(-7.16851 2.70816 1.26049e-17)
(-6.95683 2.65928 5.15743e-18)
(-6.67761 2.59378 4.23297e-18)
(-6.32424 2.51186 -6.95761e-18)
(-5.88757 2.41322 0)
(-5.35862 2.29499 0)
(-5.87831 2.14458 0)
(-6.82981 2.50249 1.42048e-18)
(-7.26577 2.6735 0)
(-7.42694 2.74526 2.6609e-17)
(-7.44266 2.76556 -1.94011e-17)
(-7.36825 2.75575 0)
(-7.22442 2.72468 -1.24975e-17)
(-7.01655 2.676 6.79575e-21)
(-6.74221 2.61099 8.40262e-18)
(-6.39433 2.52972 3.45433e-18)
(-5.963 2.43198 5.63008e-18)
(-5.43787 2.31527 0)
(-5.94616 2.16931 7.08021e-17)
(-6.89547 2.52613 0)
(-7.32381 2.69383 -3.31201e-17)
(-7.47922 2.76272 2.4819e-17)
(-7.49288 2.78132 -1.68198e-17)
(-7.41911 2.77063 1.52954e-17)
(-7.27789 2.73921 0)
(-7.07413 2.69056 -1.26748e-17)
(-6.80503 2.6258 2.08416e-17)
(-6.46316 2.54493 -1.02638e-17)
(-6.03803 2.44778 5.02604e-21)
(-5.51843 2.33171 -4.4337e-18)
(-6.01273 2.1935 7.01976e-17)
(-6.95881 2.54869 -8.95887e-17)
(-7.37859 2.71259 6.56589e-17)
(-7.52804 2.77836 -2.45874e-17)
(-7.53972 2.79511 1.42842e-17)
(-7.46677 2.78339 -4.52225e-22)
(-7.32836 2.75145 -2.45518e-17)
(-7.12895 2.7026 2.26167e-17)
(-6.86538 2.63781 -7.25009e-22)
(-6.52986 2.55697 3.39305e-18)
(-6.11147 2.45996 5.53345e-18)
(-5.59876 2.34423 -4.36405e-18)
(-6.07747 2.217 -2.17584e-18)
(-7.01896 2.56988 8.89112e-17)
(-7.42945 2.72957 -3.25399e-17)
(-7.5728 2.79203 -2.28304e-17)
(-7.5826 2.8068 2.12208e-17)
(-7.51064 2.79391 -1.87697e-18)
(-7.37528 2.76132 -3.04137e-18)
(-7.18044 2.7121 7.46952e-18)
(-6.92263 2.64707 -1.63732e-17)
(-6.59371 2.56592 6.72468e-18)
(-6.18237 2.46772 -5.47528e-18)
(-5.67772 2.34764 8.70451e-18)
(-6.14034 2.23993 2.15653e-18)
(-7.07519 2.58968 0)
(-7.47549 2.74457 3.22453e-17)
(-7.61268 2.80351 -2.41111e-17)
(-7.62078 2.81615 1.86779e-17)
(-7.55008 2.80197 -2.97289e-17)
(-7.41805 2.76856 2.40853e-17)
(-7.22815 2.71883 1.04411e-21)
(-6.97656 2.65349 -1.21613e-17)
(-6.65486 2.57226 1.56801e-21)
(-6.25109 2.47474 5.42866e-18)
(-5.75094 2.36027 -8.63953e-18)
(-6.20007 2.26173 6.84752e-17)
(-7.12539 2.60732 -4.37918e-17)
(-7.51551 2.75725 -1.99623e-18)
(-7.6467 2.81245 -3.32414e-22)
(-7.6534 2.82278 -1.61785e-17)
(-7.58429 2.80709 -1.17474e-21)
(-7.45594 2.77263 2.68239e-17)
(-7.27133 2.72203 -9.7618e-18)
(-7.02641 2.6558 -4.01554e-18)
(-6.71263 2.57335 1.97702e-17)
(-6.31816 2.47357 -5.3709e-18)
(-5.82878 2.3562 -4.29024e-18)
(-6.25549 2.28144 6.79349e-17)
(-7.17051 2.62216 0)
(-7.54939 2.76671 3.3649e-17)
(-7.67455 2.81815 5.51689e-23)
(-7.68006 2.82618 -2.28607e-18)
(-7.61277 2.80897 -1.09193e-17)