/*--------------------------------*- C++ -*----------------------------------*\
| =========                 |                                                 |
| \\      /  F ield         | OpenFOAM: The Open Source CFD Toolbox           |
|  \\    /   O peration     | Version:  2.3.0                                 |
|   \\  /    A nd           | Web:      www.OpenFOAM.org                      |
|    \\/     M anipulation  |                                                 |
\*---------------------------------------------------------------------------*/
FoamFile
{
    version     2.0;
    format      ascii;
    class       volScalarField;
    location    "1000";
    object      nut;
}
// * * * * * * * * * * * * * * * * * * * * * * * * * * * * * * * * * * * * * //

dimensions      [0 2 -1 0 0 0 0];

internalField   nonuniform List<scalar> 
38375
(
0.0443476
0.0426974
0.0410986
0.0395434
0.0380273
0.0365479
0.0351052
0.0337009
0.0323378
0.0310199
0.029751
0.0285318
0.0273564
0.0262113
0.0250914
0.0239974
0.0229341
0.0219044
0.0209103
0.0199512
0.0190248
0.0181255
0.0172476
0.0163858
0.015538
0.0147039
0.0138829
0.013075
0.0122795
0.0114951
0.0107215
0.00995812
0.00920663
0.00846742
0.00774683
0.00704894
0.00638236
0.00575917
0.00518982
0.00468348
0.00425131
0.00391013
0.00377019
0.0463926
0.0449154
0.0434897
0.0421033
0.0407498
0.0394261
0.0381301
0.0368613
0.0356208
0.0344079
0.0332227
0.0320654
0.0309355
0.0298305
0.0287495
0.0276924
0.0266609
0.0256568
0.024683
0.0237427
0.0228405
0.0219778
0.0211493
0.0203412
0.0195469
0.0187659
0.018001
0.0172538
0.0165276
0.0158234
0.0151417
0.0144857
0.0138558
0.0132548
0.012684
0.0121508
0.0116621
0.0112337
0.0108881
0.0106646
0.0106056
0.0107134
0.0109816
0.0482607
0.0469417
0.0456659
0.0444254
0.0432139
0.0420274
0.0408641
0.0397221
0.0386017
0.0375023
0.0364239
0.0353659
0.0343281
0.0333099
0.0323108
0.0313301
0.030369
0.0294271
0.0285042
0.0276019
0.0267209
0.0258614
0.0250248
0.0242081
0.0234124
0.0226372
0.0218844
0.0211562
0.0204554
0.0197847
0.0191488
0.0185505
0.0179948
0.0174883
0.0170373
0.0166475
0.0163282
0.0160887
0.0159393
0.0158896
0.0159479
0.016119
0.0164021
0.0499872
0.0487957
0.0476473
0.0465314
0.0454418
0.0443738
0.0433252
0.042294
0.0412797
0.0402818
0.0393006
0.0383355
0.0373861
0.0364526
0.0355339
0.0346309
0.033743
0.0328703
0.032013
0.0311713
0.0303464
0.0295388
0.0287484
0.0279769
0.0272245
0.0264933
0.025785
0.0251018
0.0244466
0.0238222
0.0232326
0.0226824
0.0221769
0.0217203
0.0213198
0.0209819
0.0207134
0.0205225
0.020416
0.0204008
0.0204819
0.020663
0.0209447
0.051569
0.0504916
0.0494524
0.0484431
0.0474573
0.0464906
0.04554
0.0446033
0.0436799
0.0427695
0.0418717
0.0409869
0.0401143
0.039254
0.0384058
0.03757
0.0367465
0.035935
0.0351359
0.0343499
0.0335772
0.0328187
0.0320754
0.0313478
0.0306384
0.0299482
0.0292791
0.0286341
0.0280159
0.0274279
0.0268736
0.0263585
0.0258861
0.0254618
0.0250929
0.0247836
0.024542
0.0243751
0.0242884
0.0242874
0.0243777
0.0245613
0.0248391
0.053025
0.0520464
0.0511002
0.0501809
0.0492831
0.0484022
0.0475352
0.0466793
0.0458333
0.0449967
0.04417
0.0433526
0.0425443
0.0417464
0.0409584
0.0401794
0.0394098
0.0386498
0.0379003
0.0371614
0.036434
0.0357175
0.0350133
0.0343245
0.0336514
0.0329952
0.0323583
0.0317438
0.0311547
0.0305953
0.0300681
0.0295783
0.0291304
0.0287292
0.0283816
0.0280923
0.0278688
0.0277167
0.027642
0.0276494
0.0277438
0.027928
0.0282027
0.0543715
0.0534777
0.052609
0.0517654
0.0509421
0.0501328
0.0493366
0.0485495
0.0477694
0.046995
0.0462274
0.0454676
0.0447134
0.0439664
0.0432281
0.0424973
0.0417737
0.041057
0.0403479
0.0396479
0.0389583
0.0382785
0.0376077
0.036949
0.0363064
0.0356789
0.0350691
0.0344791
0.0339124
0.0333745
0.0328688
0.0323994
0.0319695
0.0315859
0.0312532
0.0309789
0.0307681
0.030627
0.0305606
0.0305736
0.0306709
0.0308551
0.0311274
0.0556131
0.0547998
0.0539955
0.0532134
0.0524561
0.0517035
0.050968
0.0502382
0.0495158
0.0487944
0.0480737
0.0473629
0.0466556
0.0459474
0.0452498
0.044559
0.0438746
0.0431952
0.0425193
0.0418501
0.0411915
0.0405439
0.0399045
0.0392677
0.0386489
0.0380474
0.0374592
0.0368932
0.0363403
0.0358191
0.0353297
0.0348764
0.0344629
0.0340917
0.0337694
0.0335062
0.0333055
0.0331729
0.0331127
0.0331318
0.0332293
0.0334129
0.0336823
0.0567414
0.0560051
0.0552666
0.0545331
0.0538507
0.0531318
0.0524498
0.051762
0.051091
0.0504241
0.0497296
0.0490561
0.0483967
0.0477178
0.0470529
0.0463917
0.0457378
0.0450908
0.0444476
0.0437997
0.043163
0.0425399
0.0419457
0.0413215
0.0407151
0.0401416
0.0395585
0.0390326
0.038484
0.0379758
0.037498
0.0370549
0.0366552
0.0363013
0.03598
0.0357277
0.0355327
0.035411
0.0353514
0.0353812
0.0354731
0.0356609
0.0359177
0.00450441
0.00585394
0.00682762
0.00783454
0.00891216
0.0100516
0.0112408
0.0124709
0.0137336
0.0150233
0.0163377
0.017673
0.0190284
0.0204013
0.0217925
0.0231991
0.0246235
0.0260626
0.027518
0.0289882
0.030473
0.0319719
0.0334841
0.0350092
0.0365465
0.0380948
0.0396534
0.0412215
0.0427975
0.0443809
0.0459702
0.0475649
0.0491641
0.050767
0.0523732
0.0539823
0.0555936
0.0572066
0.0588204
0.0604343
0.0620471
0.0636584
0.0652669
0.0114094
0.0119884
0.0126868
0.0134945
0.0144021
0.0153938
0.0164576
0.0175805
0.0187513
0.0199615
0.0212047
0.0224749
0.0237679
0.0250803
0.0264108
0.027757
0.0291155
0.0304877
0.0318702
0.033263
0.0346649
0.0360751
0.0374929
0.0389173
0.0403479
0.0417834
0.0432229
0.0446659
0.0461114
0.0475586
0.049007
0.0504561
0.0519056
0.0533548
0.0548038
0.0562525
0.0577004
0.0591475
0.0605934
0.0620377
0.0634802
0.0649206
0.0663571
0.0167961
0.0173015
0.017918
0.0186387
0.0194532
0.0203514
0.021322
0.0223543
0.0234398
0.0245695
0.0257342
0.02693
0.0281513
0.029394
0.0306534
0.0319282
0.0332151
0.0345121
0.0358176
0.0371302
0.0384484
0.0397715
0.0410979
0.042427
0.0437576
0.0450888
0.0464198
0.0477498
0.0490783
0.0504046
0.0517284
0.0530494
0.0543672
0.0556819
0.0569936
0.0583022
0.0596075
0.06091
0.0622097
0.0635061
0.0647996
0.06609
0.0673766
0.021324
0.0218033
0.0223823
0.0230577
0.0238203
0.0246617
0.0255736
0.0265461
0.0275701
0.0286388
0.0297443
0.0308798
0.0320406
0.0332224
0.034421
0.035632
0.0368546
0.0380849
0.0393212
0.0405618
0.0418054
0.0430506
0.0442958
0.0455404
0.0467831
0.0480229
0.049259
0.0504907
0.0517171
0.0529385
0.054154
0.0553638
0.0565676
0.0577657
0.0589586
0.0601461
0.0613283
0.0625056
0.0636783
0.0648464
0.0660104
0.0671705
0.0683273
0.0252098
0.0256741
0.0262321
0.0268782
0.0276074
0.0284114
0.029282
0.0302108
0.0311898
0.0322115
0.0332685
0.0343557
0.0354663
0.0365964
0.0377418
0.0388989
0.0400647
0.0412366
0.0424122
0.0435899
0.0447681
0.0459451
0.0471196
0.0482909
0.0494574
0.050618
0.0517718
0.0529184
0.054057
0.0551874
0.0563095
0.0574232
0.0585287
0.0596266
0.0607171
0.0618004
0.0628764
0.0639457
0.0650085
0.0660654
0.0671168
0.0681631
0.0692057
0.0285678
0.0290224
0.0295651
0.0301922
0.0308974
0.0316736
0.0325139
0.0334096
0.0343539
0.0353383
0.0363573
0.0374035
0.0384726
0.039559
0.04066
0.0417708
0.042888
0.0440089
0.0451314
0.0462542
0.0473757
0.0484942
0.0496081
0.0507162
0.0518171
0.0529093
0.053992
0.0550651
0.056128
0.0571798
0.058221
0.0592519
0.0602731
0.061285
0.062288
0.0632816
0.0642664
0.0652425
0.0662105
0.0671708
0.0681243
0.0690717
0.0700145
0.0314885
0.0319365
0.0324686
0.0330804
0.0337671
0.034523
0.035339
0.036209
0.0371252
0.0380801
0.039066
0.0400789
0.0411124
0.0421623
0.0432247
0.0442958
0.0453708
0.0464467
0.0475227
0.0485977
0.0496707
0.050739
0.0518011
0.0528551
0.0538993
0.054932
0.0559529
0.0569632
0.0579605
0.0589437
0.0599144
0.0608742
0.0618235
0.0627622
0.0636901
0.0646066
0.0655128
0.0664085
0.0672941
0.0681709
0.0690396
0.0699011
0.0707573
0.0340423
0.0344857
0.0350116
0.035608
0.0362806
0.0370206
0.0378169
0.0386653
0.0395592
0.0404895
0.0414469
0.0424298
0.0434339
0.0444526
0.0454828
0.0465189
0.0475561
0.0485913
0.0496261
0.0506599
0.051693
0.0527173
0.0537358
0.054744
0.0557377
0.0567176
0.0576849
0.0586443
0.0595826
0.0605041
0.061414
0.0623133
0.0632014
0.0640783
0.0649415
0.0657905
0.0666305
0.067456
0.0682696
0.0690738
0.0698693
0.0706565
0.0714367
0.0362847
0.0367217
0.0372467
0.0378191
0.0384821
0.0392132
0.0399882
0.0408192
0.0416944
0.0426049
0.0435322
0.0444907
0.0454688
0.0464611
0.0474642
0.048469
0.0494713
0.0504675
0.0514701
0.0524686
0.0534753
0.0544552
0.0554446
0.0564105
0.0573571
0.0582929
0.0592143
0.0601426
0.0610136
0.0618798
0.0627393
0.0635887
0.0644254
0.0652527
0.0660592
0.0668462
0.0676348
0.068395
0.069146
0.0698882
0.0706209
0.071346
0.0720617
0.0904411
0.0860671
0.0817979
0.0776397
0.073598
0.0696761
0.0658784
0.0622073
0.0586635
0.0552471
0.051959
0.0487977
0.0457623
0.0428502
0.0400604
0.0373898
0.0348354
0.0323942
0.0300648
0.0278419
0.0257233
0.0237061
0.0217874
0.0199633
0.0182323
0.0165893
0.0150331
0.0135617
0.0121721
0.0108616
0.00962877
0.00847135
0.0073889
0.00637986
0.00544315
0.00457897
0.0037872
0.003069
0.00242481
0.00186226
0.0014281
0.00102171
0.000593708
0.0920596
0.0880264
0.0840709
0.0801989
0.0764167
0.0727284
0.0691374
0.0656465
0.0622568
0.0589701
0.055787
0.0527075
0.0497321
0.0468591
0.0440876
0.0414161
0.0388435
0.0363688
0.0339887
0.0317023
0.0295071
0.0274011
0.025382
0.0234491
0.0215991
0.0198308
0.0181433
0.0165341
0.0150019
0.0135462
0.0121656
0.0108605
0.00962986
0.00847448
0.00739478
0.00639235
0.00547081
0.00463819
0.00392901
0.00325696
0.00259175
0.00188901
0.0010824
0.0936747
0.0899513
0.0862851
0.0826809
0.0791437
0.0756776
0.0722865
0.0689725
0.0657377
0.0625837
0.0595118
0.0565231
0.0536184
0.0507973
0.0480591
0.0454041
0.0428315
0.0403403
0.03793
0.0355991
0.0333477
0.0311729
0.0290744
0.0270524
0.0251047
0.0232304
0.0214293
0.0197003
0.0180439
0.0164596
0.0149479
0.0135089
0.0121449
0.0108578
0.00965023
0.00853027
0.00751401
0.00658754
0.00567799
0.0047556
0.00378563
0.00270075
0.00149029
0.0952638
0.0918212
0.0884203
0.0850629
0.0817533
0.0784948
0.0752919
0.072146
0.0690599
0.0660357
0.0630741
0.0601777
0.0573475
0.0545835
0.0518867
0.0492564
0.0466935
0.0441981
0.0417697
0.0394084
0.0371137
0.0348848
0.0327231
0.0306275
0.0285976
0.0266339
0.0247367
0.0229063
0.0211432
0.0194486
0.017824
0.016271
0.0147942
0.013397
0.0120894
0.0108936
0.00974213
0.00859787
0.00743392
0.00622039
0.0049142
0.00343522
0.0018426
0.096799
0.0936163
0.0904598
0.0873309
0.084232
0.0811676
0.0781404
0.0751532
0.0722088
0.0693088
0.0664554
0.0636506
0.0608955
0.0581919
0.0555395
0.0529393
0.0503935
0.0479021
0.0454651
0.0430834
0.0407567
0.0384855
0.0362719
0.0341156
0.0320171
0.0299781
0.0280005
0.0260835
0.0242301
0.0224432
0.0207238
0.0190772
0.017509
0.0160313
0.0146402
0.0132807
0.0119218
0.0105407
0.00911094
0.00760025
0.00595649
0.00409859
0.00215274
0.0982552
0.0953201
0.0923916
0.0894734
0.0865699
0.0836849
0.080822
0.0779839
0.075173
0.0723921
0.069643
0.0669277
0.0642477
0.0616046
0.0589996
0.0564341
0.0539096
0.0514274
0.0489892
0.0465954
0.0442461
0.0419431
0.0396871
0.0374797
0.0353239
0.0332222
0.0311755
0.029187
0.0272591
0.0253948
0.0235986
0.0218776
0.0202422
0.018667
0.0171171
0.0155654
0.0139907
0.0123709
0.0106789
0.00887817
0.00691086
0.00469891
0.00242927
0.0996495
0.0969292
0.0942065
0.091482
0.0887587
0.0860397
0.0833296
0.080631
0.077946
0.0752777
0.0726283
0.0699999
0.0673934
0.0648113
0.0622554
0.0597267
0.0572266
0.0547581
0.0523236
0.0499253
0.0475623
0.0452358
0.0429461
0.0406964
0.0384911
0.0363344
0.0342312
0.0321836
0.0301947
0.0282676
0.0264107
0.0246267
0.0228891
0.0211713
0.019451
0.0177083
0.0159231
0.0140724
0.0121283
0.0100521
0.00778078
0.00523948
0.0026762
0.10094
0.0984268
0.0958966
0.0933508
0.090794
0.0882262
0.0856584
0.0830908
0.0805239
0.0779612
0.0754059
0.0728619
0.0703278
0.0678041
0.065299
0.0628112
0.060339
0.0578841
0.0554563
0.0530583
0.0506903
0.0483513
0.0460376
0.0437513
0.0415017
0.039296
0.0371428
0.0350482
0.0330125
0.031035
0.029113
0.0272335
0.0253711
0.0235071
0.021622
0.0196967
0.0177106
0.0156412
0.0134578
0.011127
0.00858044
0.00573192
0.00289142
0.102158
0.0998113
0.097459
0.0950756
0.0926755
0.09024
0.0878042
0.0853628
0.0829051
0.080442
0.0779717
0.0755108
0.0730528
0.0705802
0.0681259
0.0656827
0.063247
0.0608026
0.0583806
0.0559847
0.0536164
0.0512792
0.0489567
0.0466386
0.0443477
0.0420937
0.0398919
0.037758
0.0356888
0.0336556
0.0316444
0.0296562
0.0276663
0.0256648
0.0236278
0.0215291
0.0193523
0.0170787
0.0146683
0.0121004
0.00934683
0.00627074
0.00317971
0.000460564
0.000526047
0.000710518
0.000886316
0.00106642
0.00126508
0.00149786
0.00177957
0.00210083
0.00245444
0.00283794
0.00324959
0.00368929
0.00415678
0.00465235
0.00517658
0.00572968
0.00631225
0.00692481
0.00756793
0.00824181
0.00894704
0.00968431
0.0104544
0.0112578
0.0120956
0.0129678
0.013876
0.0148202
0.0158015
0.0168206
0.0178781
0.0189747
0.0201107
0.0212871
0.0225047
0.0237636
0.0250648
0.0264087
0.0277964
0.029229
0.0307072
0.0322289
0.000624807
0.000684456
0.000882893
0.00109153
0.00132374
0.00159154
0.00190077
0.00225324
0.00264396
0.00306322
0.00350955
0.00398206
0.00448008
0.00500383
0.0055528
0.00612751
0.0067277
0.00735372
0.00800541
0.00868331
0.00938741
0.0101183
0.0108763
0.0116618
0.0124755
0.0133177
0.0141891
0.0150901
0.0160213
0.0169833
0.0179764
0.0190014
0.0200587
0.0211488
0.022272
0.0234295
0.0246215
0.0258483
0.027111
0.02841
0.0297455
0.0311163
0.0325205
0.000786772
0.000840306
0.00107019
0.00132898
0.00162629
0.00196557
0.00234452
0.00276261
0.00321603
0.0036959
0.00420063
0.00472932
0.00528161
0.00585683
0.00645474
0.00707528
0.00771806
0.00838295
0.00906961
0.00977814
0.0105092
0.0112623
0.012038
0.0128364
0.0136582
0.0145033
0.0153719
0.0162648
0.0171821
0.018124
0.0190911
0.0200839
0.0211026
0.0221477
0.0232195
0.0243187
0.0254457
0.0266007
0.0277841
0.0289961
0.0302362
0.0315025
0.0327928
0.00093763
0.000996239
0.00127111
0.00158871
0.0019515
0.00235549
0.00279564
0.00327512
0.00378501
0.00431941
0.00487685
0.00545614
0.00605685
0.00667829
0.00731968
0.00798075
0.00866061
0.00935934
0.0100765
0.0108118
0.0115654
0.0123374
0.0131278
0.0139364
0.0147637
0.0156096
0.0164743
0.0173581
0.0182612
0.0191836
0.0201258
0.0210881
0.0220706
0.0230738
0.0240977
0.0251428
0.0262093
0.0272974
0.028407
0.0295381
0.0306898
0.0318599
0.0330469
0.0010783
0.00115573
0.00148294
0.00185992
0.00228289
0.00274418
0.0032402
0.00377468
0.0043356
0.00491933
0.0055242
0.00614915
0.00679342
0.00745587
0.0081356
0.00883223
0.00954474
0.0102728
0.0110161
0.0117745
0.0125475
0.0133351
0.0141374
0.0149541
0.0157854
0.0166309
0.0174909
0.0183655
0.019255
0.0201589
0.0210777
0.0220114
0.0229604
0.0239248
0.0249046
0.0258999
0.026911
0.0279377
0.0289796
0.0300365
0.0311072
0.0321904
0.0332844
0.00121206
0.0013189
0.00170008
0.00213284
0.00260984
0.00312253
0.00367021
0.00425324
0.00486031
0.00548862
0.00613625
0.00680204
0.00748504
0.0081842
0.00889807
0.00962607
0.0103673
0.0111212
0.0118873
0.0126655
0.0134553
0.0142563
0.0150685
0.0158915
0.0167254
0.0175701
0.0184251
0.0192907
0.0201669
0.0210535
0.0219505
0.022858
0.0237762
0.0247051
0.0256444
0.0265941
0.0275539
0.0285242
0.0295044
0.030494
0.0314917
0.0324966
0.033508
0.0013409
0.00148337
0.00191706
0.00240061
0.00292527
0.00348372
0.0040797
0.00470632
0.0053549
0.00602329
0.0067096
0.0074123
0.00813022
0.00886184
0.00960601
0.0103618
0.0111287
0.0119055
0.0126918
0.0134874
0.0142916
0.0151042
0.0159249
0.0167533
0.0175889
0.0184319
0.019282
0.0201392
0.0210031
0.0218733
0.0227498
0.023633
0.0245229
0.0254191
0.0263215
0.0272294
0.0281425
0.0290612
0.0299852
0.0309135
0.0318454
0.0327803
0.0337183
0.00146565
0.00165075
0.00213075
0.00265849
0.00322569
0.0038265
0.0044658
0.0051316
0.00581782
0.0065223
0.00724338
0.00797972
0.00872991
0.0094918
0.0102631
0.0110436
0.0118331
0.0126305
0.0134347
0.0142457
0.0150628
0.0158857
0.016714
0.0175467
0.0183828
0.0192235
0.0200693
0.0209192
0.0217711
0.0226247
0.0234811
0.0243417
0.0252065
0.0260735
0.026942
0.0278106
0.0286804
0.0295523
0.0304252
0.0312982
0.0321707
0.0330426
0.033916
0.00159244
0.00179193
0.00232352
0.00290089
0.0035099
0.00414951
0.00482521
0.00552615
0.00624908
0.00698961
0.00774495
0.00852204
0.00931168
0.0100997
0.0108885
0.0116899
0.0124978
0.013311
0.0141304
0.0149541
0.0157824
0.0166152
0.0174506
0.018284
0.0191159
0.0199532
0.0207984
0.0216449
0.0224807
0.0233118
0.0241482
0.0249891
0.0258346
0.0266762
0.0275138
0.0283422
0.0291699
0.0300006
0.0308275
0.0316501
0.0324682
0.0332805
0.0340919
9.34423e-05
0.000503587
0.00114676
0.00181715
0.00247901
0.00313524
0.00379336
0.00445862
0.00513628
0.00583174
0.00654743
0.00728152
0.00803272
0.00879982
0.00958142
0.0103777
0.0111883
0.0120138
0.0128544
0.0137109
0.0145843
0.0154757
0.016387
0.0173221
0.0182854
0.0192807
0.0203116
0.0213789
0.0224818
0.0236171
0.0247805
0.0259696
0.0271841
0.0284336
0.0297546
0.0311473
0.0325986
0.0340997
0.035648
0.0372424
0.0388828
0.0405722
0.0423206
2.56842e-05
0.000277738
0.000651068
0.00115898
0.00180975
0.00248925
0.003175
0.00386633
0.0045533
0.00522933
0.00589649
0.0065609
0.0072284
0.00790432
0.00859206
0.0092938
0.0100119
0.0107484
0.0115047
0.0122829
0.0130843
0.0139105
0.014763
0.0156445
0.0165578
0.0175067
0.0184943
0.0195226
0.0205933
0.0217046
0.0228541
0.0240387
0.0252561
0.0265111
0.027818
0.029182
0.0305953
0.0320572
0.0335906
0.0351918
0.0368506
0.0385668
0.0403459
4.64805e-06
0.000195788
0.000445442
0.000806597
0.00127043
0.00183819
0.00251141
0.00329132
0.00408548
0.00485999
0.00561132
0.00634088
0.00705
0.0077414
0.00841915
0.00908756
0.00975181
0.0104166
0.0110867
0.0117677
0.0124646
0.013182
0.0139247
0.0146972
0.0155045
0.016351
0.0172408
0.0181779
0.0191654
0.020204
0.0212931
0.0224311
0.0236158
0.024848
0.0261316
0.0274696
0.0288611
0.0303053
0.0318076
0.0333656
0.0349829
0.0366815
0.0384605
7.21916e-06
0.000175843
0.000431102
0.000759822
0.00116638
0.00165707
0.00223803
0.00291526
0.00368942
0.00450723
0.00532476
0.00612676
0.00690849
0.00766881
0.00840713
0.00912352
0.00981893
0.0104954
0.0111562
0.0118054
0.0124484
0.0130917
0.0137423
0.0144081
0.0150971
0.0158174
0.0165768
0.017383
0.0182424
0.0191596
0.0201379
0.0211786
0.0222812
0.0234461
0.0246729
0.0259626
0.0273146
0.028728
0.0302022
0.0317357
0.0333292
0.0349924
0.0367445
6.46256e-06
0.000173309
0.000411235
0.000723055
0.00110464
0.00155916
0.00209082
0.00270407
0.00340434
0.00419514
0.0050508
0.00591822
0.00677174
0.00760294
0.00840992
0.00919148
0.00994674
0.0106756
0.0113783
0.0120562
0.0127111
0.0133462
0.0139666
0.0145788
0.0151914
0.0158138
0.0164566
0.0171311
0.0178484
0.0186187
0.0194507
0.0203511
0.0213245
0.0223733
0.0234989
0.0247012
0.0259801
0.0273335
0.0287594
0.0302546
0.0318184
0.0334531
0.0351664
6.93092e-06
0.000162427
0.000406403
0.000710631
0.00107829
0.00151259
0.00201684
0.00259483
0.0032512
0.00399108
0.00481783
0.00570907
0.00661649
0.00751345
0.00838919
0.00923903
0.0100613
0.0108546
0.0116178
0.0123504
0.0130521
0.0137234
0.0143654
0.0149816
0.0155769
0.0161581
0.0167343
0.0173171
0.0179195
0.0185553
0.0192385
0.019982
0.020797
0.0216925
0.0226746
0.023747
0.0249111
0.0261661
0.0275098
0.0289389
0.0304502
0.0320435
0.0337268
6.99649e-06
0.000157557
0.000400744
0.000698961
0.00105706
0.00147786
0.00196373
0.00251789
0.0031442
0.00384716
0.00463146
0.00550022
0.00643306
0.00738394
0.0083247
0.00924287
0.0101338
0.0109953
0.0118251
0.0126221
0.0133846
0.0141118
0.0148031
0.0154587
0.0160801
0.0166704
0.0172349
0.0177814
0.0183207
0.0188659
0.0194325
0.0200372
0.0206968
0.0214271
0.0222415
0.0231508
0.0241622
0.0252787
0.0265011
0.0278273
0.0292537
0.0307777
0.0323987
7.25362e-06
0.000154635
0.000396994
0.000690384
0.00104049
0.00145032
0.00192169
0.00245747
0.00306115
0.00373633
0.00448747
0.00531947
0.00623488
0.00721114
0.00820384
0.00918548
0.0101436
0.0110734
0.0119718
0.0128366
0.013666
0.0144583
0.0152116
0.0159246
0.0165965
0.0172276
0.0178197
0.0183764
0.0189042
0.0194123
0.0199135
0.0204236
0.0209608
0.021545
0.0221959
0.0229318
0.0237679
0.0247151
0.0257801
0.0269654
0.0282698
0.0296913
0.0312284
7.3037e-06
0.000152334
0.000392551
0.000680995
0.00102366
0.00142336
0.00188194
0.0024019
0.00298624
0.00363803
0.0043615
0.0051612
0.0060414
0.00700409
0.00802464
0.00905831
0.0100791
0.0110751
0.0120413
0.0129744
0.0138726
0.0147335
0.0155545
0.0163334
0.0170685
0.0177578
0.018401
0.0189986
0.0195527
0.0200686
0.0205543
0.0210214
0.0214858
0.0219663
0.022485
0.0230646
0.0237278
0.0244939
0.0253787
0.0263922
0.0275399
0.0288236
0.030246
7.24526e-06
0.000150196
0.000388097
0.000671341
0.00100658
0.00139642
0.00184268
0.00234754
0.00291373
0.00354411
0.0042426
0.00501346
0.00586053
0.00678883
0.00779944
0.008863
0.0099359
0.0109932
0.0120244
0.0130247
0.013991
0.0149207
0.0158113
0.0166599
0.0174641
0.0182208
0.0189278
0.0195839
0.0201886
0.0207432
0.0212516
0.0217205
0.0221609
0.0225881
0.0230213
0.0234837
0.024001
0.024599
0.0253016
0.0261287
0.0270946
0.0282084
0.0294745
7.06324e-06
0.00014773
0.000383007
0.000661008
0.000988725
0.00136872
0.00180273
0.00229285
0.00284142
0.00345115
0.00412581
0.00486915
0.00568526
0.00657885
0.00755457
0.00861179
0.00971688
0.0108263
0.0119179
0.0129824
0.0140147
0.015012
0.0159718
0.0168909
0.0177661
0.018594
0.0193715
0.0200958
0.0207648
0.0213775
0.0219339
0.0224371
0.0228931
0.0233121
0.0237085
0.024102
0.0245167
0.0249802
0.0255215
0.0261684
0.0269448
0.0278691
0.0289516
6.78542e-06
0.000145195
0.00037772
0.000650255
0.000970304
0.00134052
0.00176231
0.00223751
0.00276845
0.0033581
0.0040095
0.00472623
0.00551234
0.0063722
0.00731069
0.00833262
0.00943492
0.0105783
0.0117222
0.0128465
0.0139422
0.015005
0.0160321
0.0170202
0.0179661
0.0188663
0.0197168
0.0205142
0.0212549
0.0219363
0.0225566
0.0231152
0.0236146
0.0240601
0.0244609
0.0248315
0.0251914
0.0255656
0.0259836
0.026477
0.0270766
0.0278101
0.0286979
6.43852e-06
0.000142458
0.000372133
0.000639215
0.000951645
0.00131205
0.00172161
0.0021821
0.00269584
0.00326541
0.00389382
0.00458458
0.00534148
0.00616826
0.00707019
0.00805215
0.00911808
0.0102626
0.0114429
0.0126199
0.0137746
0.0149
0.015992
0.0170471
0.0180621
0.0190336
0.0199573
0.0208291
0.0216449
0.0224008
0.0230936
0.0237207
0.0242814
0.0247776
0.0252137
0.0255987
0.0259469
0.0262781
0.0266184
0.0269983
0.0274519
0.0280127
0.0287111
6.03621e-06
0.000139702
0.000366489
0.000628088
0.000933262
0.00128404
0.00168162
0.00212778
0.00262463
0.00317466
0.00378038
0.00444555
0.00517377
0.00596856
0.00683454
0.00777678
0.00879969
0.00990816
0.0110938
0.0123083
0.0135157
0.0146998
0.0158537
0.0169732
0.0180553
0.0190962
0.0200918
0.0210376
0.0219292
0.022762
0.0235317
0.0242343
0.0248673
0.0254296
0.0259222
0.0263493
0.0267202
0.0270488
0.0273555
0.0276671
0.0280156
0.0284371
0.0289667
5.59495e-06
0.000136752
0.000360788
0.000617292
0.000915305
0.00125671
0.00164288
0.00207535
0.00255584
0.00308682
0.0036708
0.00431103
0.00501118
0.00577477
0.00660589
0.00750953
0.00849004
0.00955275
0.0107023
0.0119258
0.0131726
0.0144094
0.0156216
0.0168027
0.0179491
0.019057
0.0201224
0.0211408
0.0221074
0.0230172
0.0238653
0.024647
0.0253583
0.025996
0.0265586
0.0270471
0.0274656
0.0278233
0.0281344
0.0284199
0.0287076
0.0290311
0.0294287
5.15231e-06
0.000133784
0.000355162
0.000606747
0.000897923
0.00123064
0.00160599
0.00202533
0.00249023
0.00300298
0.00356625
0.00418262
0.00485578
0.00558909
0.00638654
0.00725289
0.00819237
0.00920999
0.010311
0.0115001
0.0127596
0.0140371
0.015302
0.0165413
0.017749
0.0189212
0.0200539
0.0211425
0.0221825
0.0231684
0.0240947
0.0249565
0.0257488
0.026467
0.0271079
0.0276698
0.0281534
0.0285631
0.0289084
0.029204
0.0294715
0.02974
0.0300488
4.72905e-06
0.000130965
0.000349787
0.000596776
0.000881505
0.00120607
0.00157129
0.00197836
0.00242886
0.00292467
0.00346816
0.00406204
0.00470962
0.00541419
0.00617949
0.00701009
0.00791019
0.00888428
0.00993773
0.0110762
0.0123034
0.0135966
0.0149035
0.0161958
0.0174619
0.0186956
0.0198928
0.0210491
0.0221601
0.0232202
0.0242237
0.0251651
0.0260389
0.0268399
0.0275634
0.028206
0.0287659
0.0292441
0.0296454
0.0299795
0.0302624
0.0305172
0.0307684
4.31307e-06
0.000128245
0.000344703
0.000587343
0.000866188
0.00118325
0.00153915
0.00193489
0.00237194
0.00285209
0.0033773
0.00395017
0.00457392
0.00525159
0.00598685
0.00678374
0.00764613
0.00857875
0.00958694
0.0106757
0.01185
0.0131141
0.01444
0.0157757
0.0170954
0.0183877
0.0196465
0.0208679
0.0220471
0.0231791
0.0242581
0.025278
0.0262327
0.0271167
0.0279248
0.028652
0.029295
0.029852
0.0303246
0.030718
0.0310428
0.0313155
0.0315532
3.9137e-06
0.000125486
0.000339602
0.000578289
0.000851864
0.00116201
0.00150946
0.00189508
0.00231987
0.00278554
0.00329402
0.00384773
0.00444952
0.00510232
0.0058096
0.00657498
0.00740245
0.00829622
0.00926169
0.0103032
0.011426
0.0126362
0.0139364
0.0152942
0.0166586
0.0180051
0.019323
0.0206069
0.0218521
0.0230533
0.0242052
0.0253018
0.0263363
0.0273028
0.0281955
0.0290091
0.0297386
0.0303806
0.0309338
0.0314002
0.0317852
0.0320991
0.0323573
3.53968e-06
0.000122827
0.000334852
0.00056992
0.00083863
0.00114268
0.00148255
0.00185897
0.00227289
0.00272558
0.00321907
0.00375552
0.00433725
0.00496718
0.00564877
0.00638533
0.00718043
0.00803856
0.00896405
0.00996159
0.0110361
0.0121935
0.0134393
0.0147753
0.0161647
0.0175575
0.0189307
0.0202746
0.0215834
0.0228515
0.024074
0.0252449
0.0263574
0.0274051
0.0283818
0.0292818
0.0300991
0.0308292
0.0314687
0.0320165
0.0324744
0.0328478
0.0331473
3.19344e-06
0.000120306
0.000330372
0.000562081
0.000826427
0.00112505
0.00145812
0.00182638
0.00223072
0.00267216
0.00315231
0.00367318
0.00423711
0.00484663
0.00550482
0.00621496
0.00698076
0.00780609
0.00869502
0.0096523
0.0106826
0.0117912
0.0129836
0.0142649
0.015637
0.0170578
0.0184791
0.0198797
0.0212499
0.0225829
0.0238737
0.0251165
0.026305
0.0274324
0.0284919
0.0294774
0.0303825
0.0312017
0.0319303
0.0325649
0.0331043
0.03355
0.0339071
2.87583e-06
0.000117794
0.000325928
0.000554595
0.000814912
0.00110857
0.00143583
0.00179717
0.00219317
0.00262472
0.00309324
0.0036006
0.00414884
0.00474016
0.00537731
0.00606386
0.00680309
0.00759865
0.00845467
0.00937549
0.0103656
0.0114296
0.0125732
0.0138011
0.0151191
0.0165282
0.0179811
0.0194318
0.02086
0.0222559
0.0236133
0.0249263
0.0261885
0.0273937
0.0285345
0.0296042
0.0305964
0.0315047
0.0323235
0.033048
0.0336744
0.0342012
0.034629
2.57373e-06
0.00011509
0.00032144
0.00054729
0.000803997
0.00109324
0.00141543
0.00177072
0.00215947
0.00258276
0.00304164
0.00353746
0.00407204
0.00464739
0.00526618
0.00593157
0.00664682
0.00741575
0.00824229
0.00913019
0.0100839
0.0111082
0.0122076
0.0133871
0.0146526
0.0160096
0.0174566
0.0189423
0.0204229
0.0218791
0.0233014
0.0246829
0.0260175
0.0272983
0.0285186
0.0296713
0.0307493
0.0317463
0.0326555
0.033471
0.0341881
0.0348022
0.0353112
2.30353e-06
0.000112551
0.000317093
0.000540261
0.000793557
0.00107882
0.00139645
0.00174639
0.00212915
0.0025456
0.00299643
0.00348283
0.0040062
0.00456822
0.00517106
0.00581757
0.00651122
0.0072562
0.00805621
0.00891486
0.00983626
0.010825
0.0118852
0.0130219
0.0142401
0.0155454
0.0169438
0.0184302
0.01995
0.0214614
0.0229461
0.0243948
0.0258001
0.0271553
0.0284535
0.0296876
0.0308504
0.0319349
0.0329342
0.0338415
0.0346508
0.0353568
0.0359561
2.05472e-06
0.000109988
0.000312812
0.000533312
0.000783349
0.00106507
0.00137856
0.00172379
0.00210137
0.00251187
0.00295611
0.00343459
0.00394821
0.0044988
0.00508838
0.00571932
0.00639484
0.00711848
0.00789439
0.00872692
0.00961974
0.0105771
0.0116031
0.012702
0.0138787
0.0151386
0.0164868
0.0179295
0.0194578
0.0210127
0.0225555
0.0240692
0.0255438
0.0269723
0.0283471
0.0296613
0.0309077
0.0320786
0.0331672
0.034166
0.0350684
0.0358679
0.0365594
1.82916e-06
0.000107443
0.000308525
0.000526505
0.000773576
0.00105186
0.00136141
0.00170248
0.0020754
0.00248075
0.00291905
0.00339032
0.00389556
0.00443645
0.00501492
0.00563295
0.00629341
0.00699944
0.0077547
0.00856362
0.00943108
0.010361
0.011357
0.0124231
0.0135639
0.014784
0.0160891
0.0174844
0.0189757
0.0205474
0.0221383
0.0237131
0.0252555
0.026756
0.0282065
0.0295998
0.0309282
0.0321845
0.0333611
0.0344505
0.0354454
0.0363379
0.0371201
1.62445e-06
0.000104932
0.000304298
0.000519871
0.000764091
0.00103909
0.00134513
0.00168237
0.00205109
0.00245181
0.00288432
0.00334901
0.00384693
0.00437953
0.00494841
0.00555554
0.00620333
0.00689476
0.00763311
0.00842247
0.00926729
0.0101727
0.0111423
0.0121801
0.0132898
0.0144762
0.0157443
0.0170991
0.0185461
0.0200904
0.021707
0.0233347
0.0249415
0.0265123
0.0280373
0.0295083
0.0309177
0.032258
0.0335215
0.0347
0.0357859
0.0367705
0.0376438
1.43939e-06
0.00010248
0.00030019
0.000513444
0.000754884
0.00102683
0.00132953
0.00166314
0.00202812
0.00242427
0.00285148
0.00331022
0.0038016
0.00432674
0.00488704
0.00548467
0.00612177
0.00680086
0.00752527
0.00829864
0.0091247
0.0100082
0.0109546
0.0119676
0.0130509
0.0142089
0.0154455
0.0167658
0.0181751
0.0196789
0.0212812
0.0229436
0.024608
0.0262463
0.0278439
0.0293913
0.0308803
0.0323031
0.0336516
0.0349179
0.0360936
0.0371696
0.0381367
1.27303e-06
0.000100086
0.000296188
0.000507217
0.000746023
0.00101505
0.00131464
0.00164494
0.00200624
0.00239804
0.00282033
0.00327351
0.00375869
0.00427701
0.00482966
0.00541878
0.00604667
0.00671541
0.00742785
0.0081876
0.00899822
0.00986386
0.0107895
0.0117807
0.0128414
0.0139748
0.0151849
0.0164764
0.0178543
0.0193233
0.0208899
0.0225538
0.0242618
0.025962
0.0276298
0.029252
0.0308192
0.0323228
0.0337548
0.035107
0.0363707
0.0375364
0.0385939
1.1244e-06
9.77614e-05
0.000292266
0.000501208
0.000737536
0.00100388
0.00130057
0.00162781
0.00198547
0.00237292
0.0027904
0.00323846
0.00371788
0.00422985
0.00477564
0.00535703
0.00597644
0.00663593
0.00733794
0.00808604
0.00888363
0.00973446
0.0106432
0.011615
0.0126553
0.0137675
0.0149553
0.0162229
0.0175747
0.0190152
0.0205504
0.0221863
0.0239127
0.0256645
0.027398
0.0290927
0.0307362
0.032319
0.0338327
0.0352687
0.0366179
0.0378704
0.0390149
9.91797e-07
9.55703e-05
0.000288572
0.000495515
0.000729527
0.000993289
0.00128723
0.00161162
0.00196569
0.00234905
0.00276195
0.00320494
0.00367885