/*--------------------------------*- C++ -*----------------------------------*\
| =========                 |                                                 |
| \\      /  F ield         | OpenFOAM: The Open Source CFD Toolbox           |
|  \\    /   O peration     | Version:  2.3.0                                 |
|   \\  /    A nd           | Web:      www.OpenFOAM.org                      |
|    \\/     M anipulation  |                                                 |
\*---------------------------------------------------------------------------*/
FoamFile
{
    version     2.0;
    format      ascii;
    class       surfaceScalarField;
    location    "1000";
    object      phi;
}
// * * * * * * * * * * * * * * * * * * * * * * * * * * * * * * * * * * * * * //

dimensions      [0 3 -1 0 0 0 0];

internalField   nonuniform List<scalar> 
76410
(
-0.00581313
-0.00491745
0.00539411
0.00533535
-0.00625568
-0.0047102
0.00515275
-0.00666374
-0.00451429
0.00492229
-0.0070375
-0.00432361
0.00469739
-0.00737858
-0.00414064
0.0044817
-0.00768943
-0.00396482
0.00427569
-0.00796841
-0.00379418
0.00407316
-0.00822116
-0.00362926
0.00388203
-0.00844529
-0.00347002
0.00369415
-0.00864399
-0.00331636
0.00351507
-0.00881472
-0.0031702
0.00334094
-0.00896014
-0.00302623
0.00317166
-0.00908125
-0.0028892
0.00301031
-0.00918111
-0.00275236
0.00285224
-0.00925618
-0.0026246
0.00269967
-0.00930995
-0.00249809
0.00255187
-0.00934237
-0.00237699
0.00240941
-0.00935039
-0.00225841
0.00226645
-0.00934013
-0.00214393
0.00213367
-0.00930817
-0.0020315
0.00199955
-0.00925421
-0.00192443
0.00187047
-0.0091827
-0.00181621
0.00174471
-0.00908553
-0.00171613
0.00161897
-0.00897328
-0.00161148
0.00149923
-0.00883957
-0.00151312
0.00137942
-0.00868598
-0.00141607
0.00126249
-0.0085127
-0.00132044
0.00114716
-0.00832196
-0.00122555
0.00103482
-0.00811513
-0.00113013
0.000923316
-0.0078931
-0.00103974
0.000817712
-0.00765938
-0.000945013
0.000711304
-0.00741776
-0.000851587
0.000609981
-0.00717088
-0.000760614
0.000513749
-0.00692388
-0.000664908
0.000417914
-0.00668374
-0.000568497
0.000328371
-0.00645584
-0.000472198
0.000244304
-0.00625115
-0.000369975
0.000165281
-0.00607298
-0.00027007
9.19209e-05
-0.00593562
-0.000166003
2.86376e-05
-0.00584396
-6.28334e-05
-2.8798e-05
-0.00580672
4.23433e-05
-7.95878e-05
-0.00582811
0.000138067
-0.000116644
0.000234034
-0.00598175
-8.04007e-05
-0.00526602
-0.00449019
0.00483882
-0.00565729
-0.00431891
-0.00601892
-0.00415266
-0.00634812
-0.0039944
-0.00665012
-0.00383864
-0.0069245
-0.00369043
-0.0071698
-0.00354888
-0.00739112
-0.00340793
-0.00758813
-0.00327301
-0.00775857
-0.00314591
-0.00791076
-0.00301801
-0.00804048
-0.0028965
-0.00815071
-0.00277898
-0.00823765
-0.00266541
-0.00830785
-0.0025544
-0.00836014
-0.00244579
-0.00839628
-0.00234085
-0.00841689
-0.0022378
-0.00841919
-0.00214162
-0.00840983
-0.00204085
-0.00838619
-0.00194807
-0.0083503
-0.00185209
-0.00830436
-0.00176207
-0.00824405
-0.00167178
-0.0081762
-0.00158097
-0.00809814
-0.00149413
-0.00801362
-0.00140496
-0.00791965
-0.00131952
-0.00781849
-0.00123129
-0.00771179
-0.00114643
-0.00759758
-0.00105923
-0.00747602
-0.000973139
-0.00735245
-0.000884183
-0.00721905
-0.000798313
-0.00707706
-0.00071048
-0.00692576
-0.0006235
-0.00675946
-0.000536278
-0.00657906
-0.000450465
-0.00637829
-0.000366774
-0.00615712
-0.000283997
-0.00590584
-0.000208933
-0.00563119
-0.000136581
-7.94013e-05
-0.00531775
-0.00477209
-0.00411138
0.00439335
-0.00512023
-0.00397075
-0.00544033
-0.00383255
-0.0057329
-0.00370181
-0.00599675
-0.00357478
-0.00623841
-0.00344876
-0.00645564
-0.00333164
-0.00664809
-0.00321548
-0.00681781
-0.00310329
-0.00696938
-0.00299433
-0.00709822
-0.00288917
-0.00720745
-0.00278726
-0.00729814
-0.00268828
-0.00737416
-0.0025894
-0.00743093
-0.00249762
-0.00747256
-0.00240416
-0.00749856
-0.00231485
-0.00750959
-0.00222677
-0.00750929
-0.00214192
-0.00749449
-0.00205565
-0.00746884
-0.00197372
-0.00742956
-0.00189136
-0.00738129
-0.00181035
-0.00732144
-0.00173163
-0.00725014
-0.00165227
-0.00717224
-0.00157203
-0.00708184
-0.00149536
-0.00698684
-0.00141452
-0.00688119
-0.00133695
-0.00676947
-0.00125815
-0.00664953
-0.00117918
-0.0065242
-0.00109847
-0.00638985
-0.00101853
-0.00625148
-0.000936686
-0.00610686
-0.000855107
-0.00595457
-0.000775795
-0.00579595
-0.000694901
-0.00563134
-0.000615077
-0.00545885
-0.000539266
-0.00527749
-0.000465359
-0.00508715
-0.000399274
-0.00488417
-0.000339565
-0.000290127
-0.00467344
-0.00432498
-0.00377559
0.00398923
-0.00463794
-0.00365777
-0.00492005
-0.00355043
-0.00518234
-0.00343951
-0.0054178
-0.00333932
-0.00563032
-0.00323623
-0.00582254
-0.00313942
-0.00599228
-0.00304573
-0.00614224
-0.00295332
-0.0062726
-0.00286397
-0.00638602
-0.00277576
-0.00648149
-0.00269178
-0.00656233
-0.00260745
-0.00662274
-0.00252898
-0.00667129
-0.00244907
-0.00670736
-0.00236809
-0.00672761
-0.0022946
-0.00673493
-0.00221944
-0.00672962
-0.00214723
-0.00671212
-0.00207315
-0.00668409
-0.00200175
-0.00664724
-0.00192822
-0.00659766
-0.00185993
-0.0065414
-0.00178789
-0.00647569
-0.00171798
-0.00640074
-0.00164698
-0.00631978
-0.00157632
-0.0062299
-0.0015044
-0.00613271
-0.00143413
-0.0060283
-0.00136257
-0.00591948
-0.001288
-0.00580299
-0.00121497
-0.00567796
-0.00114356
-0.00554829
-0.00106636
-0.0054102
-0.000993196
-0.00526713
-0.000918875
-0.00511726
-0.000844778
-0.00496056
-0.000771776
-0.00479796
-0.00070187
-0.00462719
-0.000636131
-0.0044523
-0.000574166
-0.00427338
-0.000518484
-0.000471664
-0.00409185
-0.00392365
-0.00347166
0.00361973
-0.00420098
-0.00338043
-0.00445653
-0.00329486
-0.00468734
-0.00320869
-0.00489845
-0.0031282
-0.0050882
-0.00304647
-0.00525635
-0.00297127
-0.00540845
-0.00289362
-0.00554234
-0.00281943
-0.00565946
-0.00274685
-0.00575808
-0.00267713
-0.00584154
-0.00260832
-0.00590807
-0.00254092
-0.00596401
-0.00247305
-0.00600531
-0.00240777
-0.00603043
-0.00234297
-0.00604566
-0.00227937
-0.0060499
-0.0022152
-0.00604369
-0.00215344
-0.00602686
-0.00208998
-0.00599985
-0.00202875
-0.0059598
-0.00196827
-0.00591276
-0.00190697
-0.00585772
-0.00184293
-0.00579625
-0.00177945
-0.00572413
-0.0017191
-0.00564599
-0.00165446
-0.00555909
-0.00159131
-0.00546798
-0.00152525
-0.00536993
-0.00146063
-0.0052648
-0.00139314
-0.00515564
-0.00132413
-0.00504107
-0.00125813
-0.00491947
-0.00118797
-0.00479412
-0.00111855
-0.00466299
-0.00105
-0.00452758
-0.000980199
-0.00438688
-0.000912476
-0.00424064
-0.000848112
-0.0040916
-0.000785176
-0.00393853
-0.000727239
-0.0037817
-0.000675314
-0.00062872
-0.00362464
-0.00355999
-0.00320078
0.00328913
-0.00380846
-0.00313196
-0.00403754
-0.00306578
-0.00424531
-0.0030009
-0.00443377
-0.00293975
-0.00460373
-0.0028765
-0.00475669
-0.00281831
-0.00489158
-0.00275873
-0.00500919
-0.00270182
-0.00511096
-0.00264508
-0.00520134
-0.00258675
-0.00527376
-0.00253589
-0.00533598
-0.0024787
-0.00538293
-0.0024261
-0.00541804
-0.00237265
-0.00544115
-0.00231987
-0.00545322
-0.0022673
-0.00545485
-0.00221357
-0.00544591
-0.00216238
-0.00542693
-0.00210896
-0.00539941
-0.00205627
-0.0053637
-0.00200399
-0.00532143
-0.00194923
-0.00526952
-0.00189485
-0.0052086
-0.00184038
-0.0051416
-0.00178609
-0.00507003
-0.00172603
-0.00498987
-0.00167147
-0.00490552
-0.0016096
-0.00481445
-0.0015517
-0.00471943
-0.00148815
-0.00461618
-0.0014274
-0.00451065
-0.00136367
-0.00440102
-0.0012976
-0.00428373
-0.00123584
-0.00416544
-0.00116829
-0.00404086
-0.00110478
-0.0039138
-0.00103954
-0.00378192
-0.000979994
-0.00364602
-0.000921077
-0.00350864
-0.000864627
-0.00336903
-0.000814916
-0.0007683
-0.00322945
-0.00323247
-0.00295873
0.00299042
-0.00345564
-0.00290879
-0.00366181
-0.00285961
-0.00384968
-0.00281303
-0.00401926
-0.00277016
-0.00417061
-0.00272516
-0.00430777
-0.00268114
-0.00442718
-0.00263933
-0.00453552
-0.00259347
-0.00462708
-0.00255353
-0.00470391
-0.00250992
-0.00477168
-0.00246812
-0.00482533
-0.00242505
-0.00486727
-0.00238416
-0.0048967
-0.00234323
-0.00491683
-0.00229973
-0.00492653
-0.00225761
-0.00492589
-0.00221421
-0.00491772
-0.00217056
-0.00490006
-0.00212663
-0.00487442
-0.00208191
-0.00484054
-0.00203787
-0.00479858
-0.0019912
-0.00475054
-0.00194288
-0.00469503
-0.00189589
-0.00463505
-0.00184607
-0.00456463
-0.00179646
-0.00449446
-0.00174164
-0.00441436
-0.0016897
-0.00433057
-0.0016355
-0.00424164
-0.00157708
-0.0041491
-0.00151994
-0.00405254
-0.00146022
-0.00394849
-0.00140166
-0.00384502
-0.00133931
-0.00373571
-0.00127761
-0.00362298
-0.00121752
-0.00350606
-0.00115645
-0.0033873
-0.00109876
-0.00326773
-0.00104065
-0.003142
-0.000990357
-0.00301704
-0.000939875
-0.000895628
-0.00288972
-0.00293745
-0.00273749
0.00271622
-0.00314081
-0.00270542
-0.00332344
-0.00267698
-0.00349114
-0.00264533
-0.00364456
-0.00261674
-0.00378175
-0.00258796
-0.00390448
-0.00255841
-0.00401408
-0.00252973
-0.00410856
-0.00249899
-0.00419229
-0.00246979
-0.00426149
-0.00244073
-0.00432197
-0.00240764
-0.00436783
-0.00237919
-0.00440593
-0.00234607
-0.00443277
-0.00231638
-0.0044505
-0.002282
-0.00445844
-0.00224967
-0.00445744
-0.0022152
-0.00444961
-0.00217839
-0.0044319
-0.00214434
-0.0044065
-0.00210731
-0.00437679
-0.00206758
-0.00434032
-0.00202766
-0.00429276
-0.00199045
-0.00424319
-0.00194545
-0.00418778
-0.00190149
-0.00412626
-0.00185798
-0.00405648
-0.00181141
-0.00398379
-0.00176239
-0.00390748
-0.00171181
-0.00382623
-0.00165834
-0.00374152
-0.00160465
-0.0036505
-0.00155125
-0.00355966
-0.0014925
-0.00346154
-0.00143743
-0.00336189
-0.00137725
-0.00326087
-0.00131854
-0.00315553
-0.00126179
-0.00304887
-0.00120541
-0.00293663
-0.00115289
-0.00282385
-0.00110313
-0.00270995
-0.00105377
-0.00101023
-0.00259535
-0.00266878
-0.00254299
0.00247429
-0.00284996
-0.00252424
-0.00301845
-0.00250849
-0.00317114
-0.00249264
-0.00330918
-0.00247869
-0.00343086
-0.00246629
-0.00354185
-0.00244742
-0.00364119
-0.00243038
-0.00372786
-0.00241232
-0.00380204
-0.00239562
-0.00386649
-0.00237627
-0.00391706
-0.00235708
-0.00396259
-0.00233366
-0.00399619
-0.00231247
-0.00402144
-0.00229113
-0.00403649
-0.00226695
-0.00404276
-0.00224341
-0.00404238
-0.00221558
-0.00403338
-0.00218739
-0.00401754
-0.00216018
-0.00399549
-0.00212937
-0.00396623
-0.00209684
-0.00392848
-0.00206541
-0.00388826
-0.00203067
-0.00384115
-0.00199256
-0.00379031
-0.00195233
-0.00373274
-0.00191555
-0.00367132
-0.00187283
-0.00360533
-0.00182839
-0.00353502
-0.00178212
-0.00346004
-0.00173332
-0.00338205
-0.00168263
-0.00330202
-0.00163128
-0.00321476
-0.00157976
-0.00312694
-0.00152526
-0.00303524
-0.00146895
-0.00294112
-0.00141266
-0.00284575
-0.00135717
-0.00274835
-0.00130282
-0.0026488
-0.00125245
-0.0025473
-0.00120463
-0.00244142
-0.00115965
-0.0023386
-0.00111305
-0.005432
0.000296082
-0.000845809
-0.00505072
0.000288056
-0.000669332
-0.0047451
0.00026383
-0.000569442
-0.00448271
0.000234645
-0.000497032
-0.00425117
0.000202577
-0.00043411
-0.00403913
0.000166189
-0.000378231
-0.00384316
0.000129928
-0.00032589
-0.0036569
8.98301e-05
-0.000276081
-0.00348055
5.03982e-05
-0.000226746
-0.00331113
8.85873e-06
-0.000178273
-0.00314819
-3.14581e-05
-0.000131486
-0.00298907
-7.46322e-05
-8.44784e-05
-0.00283572
-0.000116899
-3.64451e-05
-0.0026864
-0.000161238
1.19151e-05
-0.00254157
-0.000205012
6.0187e-05
-0.00240137
-0.000250351
0.000110149
-0.00226445
-0.000298085
0.000161172
-0.00213306
-0.000344977
0.000213587
-0.00200576
-0.00039498
0.000267687
-0.0018837
-0.00044602
0.000323958
-0.00176622
-0.000499111
0.000381634
-0.00165425
-0.000554402
0.000442431
-0.00154842
-0.000611345
0.000505517
-0.00144925
-0.000670317
0.000571152
-0.00135746
-0.000731853
0.000640062
-0.00127369
-0.000796261
0.000712487
-0.00119828
-0.000862956
0.000787555
-0.00113248
-0.000932308
0.000866507
-0.00107687
-0.00100523
0.000949621
-0.00103222
-0.00108058
0.00103593
-0.000999563
-0.0011598
0.00112714
-0.000980444
-0.00124119
0.00122207
-0.000975397
-0.00132667
0.00132163
-0.000985181
-0.0014159
0.00142569
-0.00101108
-0.00150825
0.00153415
-0.00105434
-0.00160406
0.00164732
-0.00111561
-0.00170443
0.0017657
-0.00119621
-0.00180788
0.00188848
-0.00129627
-0.00191633
0.00201639
-0.00141855
-0.00202791
0.00215019
-0.00156184
-0.0021449
0.00228818
-0.00172891
-0.0022655
0.00243258
-0.0023915
0.00258121
-0.00191862
-0.00498324
-3.84256e-05
-0.00467956
-1.56226e-05
-0.00440508
-1.06462e-05
-0.00415727
-1.31652e-05
-0.00392886
-2.5826e-05
-0.00371924
-4.34363e-05
-0.00352311
-6.61995e-05
-0.00334028
-9.29983e-05
-0.00316792
-0.000121966
-0.00300388
-0.000155176
-0.00284741
-0.000187928
-0.00269756
-0.00022448
-0.00255268
-0.000261771
-0.00241459
-0.000299328
-0.00228081
-0.000338793
-0.00215073
-0.000380433
-0.00202692
-0.000421888
-0.00190596
-0.000465939
-0.00179043
-0.000510507
-0.00167967
-0.00055678
-0.00157404
-0.000604739
-0.00147528
-0.000653159
-0.00138177
-0.000704855
-0.00129492
-0.000757159
-0.00121519
-0.000811586
-0.00114328
-0.000868172
-0.00107922
-0.000927013
-0.00102446
-0.000987076
-0.000979482
-0.00105021
-0.00094478
-0.00111529
-0.000921968
-0.00118261
-0.000910519
-0.00125264
-0.000911723
-0.00132547
-0.000926826
-0.0014008
-0.000956391
-0.00147868
-0.00100076
-0.00155968
-0.00106122
-0.00164398
-0.00113879
-0.00173031
-0.00123408
-0.00182104
-0.00134749
-0.00191451
-0.0014807
-0.00201168
-0.00163406
-0.00211214
-0.00221629
-0.00180926
-0.00445855
-0.000253319
-0.00424058
-0.00023359
-0.00403053
-0.000220691
-0.00382763
-0.000216067
-0.00363314
-0.000220315
-0.00344682
-0.00022976
-0.00326881
-0.000244211
-0.00309903
-0.000262771
-0.00293639
-0.000284612
-0.00278083
-0.000310731
-0.00263023
-0.000338525
-0.0024874
-0.000367309
-0.00234919
-0.000399982
-0.0022158
-0.000432716
-0.00208692
-0.000467667
-0.001964
-0.000503353
-0.00184591
-0.000539981
-0.00173263
-0.000579221
-0.00162481
-0.000618322
-0.00152212
-0.000659472
-0.00142613
-0.00070072
-0.00133458
-0.000744709
-0.00125044
-0.000789
-0.00117278
-0.000834813
-0.00110157
-0.000882801
-0.00103849
-0.000931251
-0.00098401
-0.000981488
-0.000937091
-0.001034
-0.000899935
-0.00108736
-0.000872622
-0.0011426
-0.0008553
-0.00119993
-0.00084915
-0.00125879
-0.000854337
-0.00132028
-0.000872109
-0.00138303
-0.000902577
-0.00144821
-0.000946575
-0.00151569
-0.00100485
-0.0015857
-0.0010782
-0.00165696
-0.00116732
-0.00173192
-0.00127264
-0.00180918
-0.00139565
-0.00188867
-0.00153619
-0.0019716
-0.00205694
-0.00169554
-0.00390864
-0.000436525
-0.00372836
-0.000413866
-0.00355188
-0.000397173
-0.00337916
-0.000388783
-0.00321328
-0.0003862
-0.00305312
-0.000389921
-0.00289819
-0.000399141
-0.00274844
-0.000412521
-0.00260467
-0.000428376
-0.00246605
-0.000449346
-0.00233283
-0.000471746
-0.00220307
-0.00049707
-0.00208021
-0.000522844
-0.0019614
-0.000551527
-0.00184708
-0.000581981
-0.00173705
-0.000613389
-0.00163129
-0.000645738
-0.00153154
-0.000678969
-0.0014363
-0.000713558
-0.00134644
-0.000749333
-0.00126158
-0.000785584
-0.00118256
-0.000823725
-0.00110933
-0.000862235
-0.00104209
-0.000902051
-0.000982553
-0.000942334
-0.000929296
-0.000984508
-0.000883404
-0.00102738
-0.00084596
-0.00107144
-0.00081633
-0.00111699
-0.000796025
-0.0011629
-0.000784708
-0.00121125
-0.000783439
-0.00126006
-0.000792621
-0.0013111
-0.000812444
-0.00136321
-0.000844071
-0.00141659
-0.000887532
-0.00147222
-0.000944524
-0.00152871
-0.00101375
-0.00158774
-0.00109725
-0.00164842
-0.00119578
-0.00171065
-0.00130924
-0.00177522
-0.00143805
-0.00184279
-0.0019117
-0.00158329
-0.00346776
-0.000593405
-0.00331346
-0.00056817
-0.00315988
-0.000550754
-0.00301059
-0.000538076
-0.00286409
-0.000532691
-0.0027225
-0.000531515
-0.00258541
-0.000536234
-0.00245224
-0.000545692
-0.002323
-0.000557616
-0.00219914
-0.000573202
-0.00207934
-0.000591542
-0.00196436
-0.000612054
-0.00185241
-0.000634796
-0.00174455
-0.000659378
-0.00164218
-0.00068435
-0.0015441
-0.00071147
-0.00145054
-0.000739296
-0.00136078
-0.000768736
-0.0012759
-0.000798433
-0.00119677
-0.000828463
-0.00112151
-0.000860843
-0.00105191
-0.000893323
-0.000988108
-0.000926037
-0.000930465
-0.000959694
-0.000878179
-0.000994619
-0.000833502
-0.00102919
-0.000794965
-0.00106592
-0.000764689
-0.00110171
-0.000741356
-0.00114033
-0.000726101
-0.00117816
-0.000719817
-0.00121753
-0.000721903
-0.00125797
-0.000733482
-0.00129952
-0.000755493
-0.00134119
-0.000786898
-0.00138518
-0.000830285
-0.00142884
-0.000883638
-0.00147536
-0.000949676
-0.0015217
-0.00102802
-0.00157007
-0.00111907
-0.0016196
-0.0012236
-0.00167068
-0.00134254
-0.00172385
-0.0017781
-0.00147614
-0.00308951
-0.000733353
-0.0029504
-0.000707277
-0.00281539
-0.000685763
-0.00268237
-0.000671095
-0.00255273
-0.000662332
-0.00242588
-0.000658361
-0.00230281
-0.00065931
-0.00218486
-0.000663644
-0.00206954
-0.000672929
-0.00195803
-0.000684718
-0.00185045
-0.000699121
-0.00174729
-0.000715213
-0.00164743
-0.000734653
-0.00155228
-0.000754533
-0.0014602
-0.000776427
-0.00137272
-0.000798945
-0.00128851
-0.000823512
-0.00120934
-0.000847899
-0.00113397
-0.000873809
-0.00106322
-0.000899215
-0.000997421
-0.000926638
-0.000937196
-0.000953547
-0.000881098
-0.000982135
-0.00083086
-0.00100993
-0.000787241
-0.00103824
-0.000748807
-0.00106762
-0.000717166
-0.00109756
-0.000691773
-0.00112711
-0.00067375
-0.00115835
-0.000662859
-0.00118905
-0.000659598
-0.00122079
-0.000664887
-0.00125268
-0.000678538
-0.00128587
-0.000700469
-0.00131926
-0.000732777
-0.00135287
-0.000773251
-0.00138836
-0.00082494
-0.00142367
-0.000886936
-0.0014597
-0.000960164
-0.00149684
-0.00104487
-0.0015349
-0.0011415
-0.00157405
-0.00125161
-0.00161374
-0.00165577
-0.00137394
-0.00276432
-0.00085875
-0.00264098
-0.000830611
-0.00251844
-0.000808309
-0.00239946
-0.000790076
-0.00228288
-0.000778912
-0.00216988
-0.000771353
-0.00205964
-0.000769551
-0.00195279
-0.000770499
-0.00184971
-0.000776004
-0.00175
-0.000784433
-0.00165328
-0.000795838
-0.00155987
-0.00080862
-0.00147111
-0.000823418
-0.00138443
-0.000841209
-0.00130255
-0.000858309
-0.00122405
-0.000877447
-0.00114938
-0.000898174
-0.00107809
-0.000919195
-0.00101239
-0.000939504
-0.000949484
-0.000962123
-0.000891427
-0.000984694
-0.000837519
-0.00100746
-0.000789228
-0.00103043
-0.000745569
-0.00105359
-0.000707599
-0.00107621
-0.000674902
-0.00110032
-0.000648822
-0.00112364
-0.000627637
-0.00114829
-0.000613717
-0.00117227
-0.000606396
-0.00119637
-0.00060591
-0.00122128
-0.000613039
-0.00124556
-0.000627604
-0.0012713
-0.000649946
-0.00129692
-0.000680506
-0.00132231
-0.000720348
-0.00134852
-0.00076877
-0.00137524
-0.000826746
-0.00140173
-0.000894872
-0.00142871
-0.00097353
-0.00145624
-0.00106266
-0.00148493
-0.00116351
-0.00151289
-0.00154292
-0.00127635
-0.00248216
-0.000971941
-0.00237062
-0.000942158
-0.00226039
-0.000918531
-0.0021523
-0.000898165
-0.00204847
-0.000882746
-0.00194607
-0.000873759
-0.00184704
-0.00086858
-0.00175092
-0.000866619
-0.00165789
-0.000869035
-0.0015677
-0.000874624
-0.00148168
-0.000881855
-0.0013976
-0.000892698
-0.00131738
-0.000903643
-0.00124064
-0.000917948
-0.00116683
-0.000932113
-0.0010958
-0.000948482
-0.00102896
-0.000965016
-0.000966554
-0.000981597
-0.000906767
-0.000999291
-0.000851466
-0.00101742
-0.0007996
-0.00103656
-0.000752185
-0.00105487
-0.00070991
-0.0010727
-0.000671974
-0.00109153
-0.000638654
-0.00110953
-0.000611464
-0.00112751
-0.000589441
-0.00114566
-0.00057192
-0.00116581
-0.00056084
-0.00118335
-0.000555805
-0.00120141
-0.000557772
-0.00121931
-0.000565542
-0.00123779
-0.000580378
-0.00125647
-0.000602236
-0.00127506
-0.000632045
-0.00129251
-0.000669439
-0.00131113
-0.000715049
-0.00132963
-0.000769193
-0.00134758
-0.000832435
-0.00136547
-0.00090498
-0.00138369
-0.000987623
-0.00140228
-0.00107945
-0.00142106
-0.00143981
-0.00118256
-0.00223812
-0.00107243
-0.00213572
-0.00104456
-0.00203445
-0.0010198
-0.00193765
-0.000994968
-0.00184328
-0.000977115
-0.00175189
-0.000965142
-0.00166207
-0.000958399
-0.00157519
-0.000953501
-0.00149123
-0.000953
-0.00140949
-0.00095636
-0.00133231
-0.000959032
-0.00125675
-0.000968263
-0.00118379
-0.000976605
-0.00111455
-0.000987187
-0.00104761
-0.000999048
-0.000985574
-0.00101052
-0.000925066
-0.00102552
-0.000868481
-0.00103818
-0.000816375
-0.0010514
-0.000765143
-0.00106866
-0.000720645
-0.00108106
-0.000678482
-0.00109703
-0.000640213
-0.00111097
-0.000607429
-0.00112431
-0.000579419
-0.00113754
-0.000556945
-0.00114998
-0.000536881
-0.00116572
-0.000522205
-0.00118049
-0.00051382
-0.00119173
-0.000511048
-0.00120418
-0.000514056
-0.0012163
-0.000522557
-0.00122928
-0.000537114
-0.00124191
-0.00055866
-0.00125352
-0.000586598
-0.00126457
-0.000621964
-0.00127576
-0.000664819
-0.00128678
-0.000715545
-0.00129685
-0.00077407
-0.00130695
-0.000840858
-0.0013169
-0.000916623
-0.00132652
-0.00100091
-0.00133677
-0.00109465
-0.00134608
0.00108166
0.00039355
-0.000402446
-0.00107277
0.00109388
0.000414738
-0.000426956
0.00110895
0.000433253
-0.000448323
0.00112641
0.000449385
-0.000466846
0.00114512
0.00046379
-0.000482498
0.00116541
0.000475679
-0.000495971
0.00118581
0.000486023
-0.000506425
0.00120606
0.000494551
-0.000514799
0.00122548
0.000501833
-0.000521254
0.00124419
0.000507636
-0.000526353
0.00126134
0.000511794
-0.000528935
0.00127679
0.000515087
-0.000530536
0.00129008
0.000516965
-0.000530261
0.00130124
0.000518222
-0.000529378
0.00130944
0.000518295
-0.000526496
0.0013148
0.000517636
-0.000522997
0.00131693
0.000516357
-0.000518488
0.00131651
0.000513685
-0.000513267
0.00131221
0.000511119
-0.00050682
0.00130491
0.000507673
-0.000500372
0.00129375
0.000503854
-0.000492701
0.00127949
0.000499314
-0.000485048
0.00126145
0.000494582
-0.000476542
0.00124012
0.000489209
-0.000467878
0.00121475
0.000484079
-0.000458712
0.00118645
0.00047826
-0.000449958
0.00115481
0.000471971
-0.000440337
0.0011191
0.000466131
-0.00043042
0.00108027
0.000459794
-0.000420961
0.00103807
0.00045328
-0.000411079
0.000992907
0.000446755
-0.000401596
0.00094475
0.000440122
-0.000391965
0.000893501
0.000433379
-0.00038213
0.00083947
0.000426728
-0.000372698
0.000782358
0.000420373
-0.000363262
0.000722146
0.000413909
-0.000353699
0.00065867
0.000407998
-0.000344523
0.000590044
0.000403847
-0.000335223
0.000513512
0.000402937
-0.000326405
0.000418711
0.000412253
-0.000317455
0.000281119
0.000450193
-0.000312601
2.77493e-05
0.000578864
-0.000325496
0.000996129
-0.000572233
-0.000396146
0.000980316
0.000381771
-0.000968538
0.000995091
0.000399963
0.00101163
0.000416709
0.00103002
0.000431003
0.00104984
0.00044397
0.00106976
0.00045576
0.00109028
0.000465501
0.00111013
0.000474694
0.00112949
0.000482477
0.00114786
0.000489263
0.0011648
0.000494851
0.00118027
0.000499621
0.00119352
0.000503718
0.00120485
0.000506891
0.00121362
0.000509518
0.00121995
0.00051131
0.0012239
0.000512406
0.00122434
0.000513247
0.00122244
0.000513018
0.00121709
0.000513022
0.00120877
0.000512172
0.00119672
0.000511368
0.0011816
0.000509695
0.00116298
0.000507834
0.00114116
0.000505901
0.00111587
0.000503542
0.00108683
0.000501016
0.00105442
0.00049854
0.00101876
0.000495455
0.00097916
0.000492876
0.000936306
0.000489609
0.000889732
0.000486695
0.00083954
0.00048357
0.000785402
0.000480866
0.000726585
0.00047919
0.000662503
0.00047799
0.00059047
0.00048003
0.000507702
0.000486615
0.000405063
0.000505575
0.000265763
0.000551552
5.68207e-05
0.000659134
-0.000285307
0.00092099
0.0014889
-0.000778083
0.000887214
0.000368062
-0.000873505
0.000903308
0.000383869
0.000921222
0.000398795
0.000939914
0.000412312
0.000959399
0.000424484
0.000979439
0.000435719
0.000999231
0.000445709
0.00101897
0.000454957
0.00103786
0.00046358
0.00105585
0.000471282
0.0010722
0.0004785
0.00108721
0.000484604
0.0011006
0.000490328
0.00111202
0.000495478
0.00112119
0.000500343
0.00112813
0.000504376
0.00113234
0.000508193
0.00113395
0.000511634
0.00113229
0.000514677
0.00112842
0.000516897
0.00112155
0.000519034
0.00111138
0.000521536
0.00109846
0.000522617
0.0010819
0.000524399
0.00106208
0.000525722
0.0010388
0.000526822
0.00101209
0.000527722
0.000981963
0.000528665
0.000948252
0.000529166
0.000911102
0.000530025
0.000869666
0.000531045
0.00082426
0.0005321
0.00077432
0.00053351
0.000718449
0.000536736
0.000656932
0.000540707
0.000586818
0.000548104
0.000505863
0.000560985
0.000406762
0.000585715
0.000279801
0.000632535
0.000108392
0.000722961
-0.000137712
0.000905237
-0.000492876
0.00127615
0.00191239
-0.000916362
0.00080164
0.000353242
-0.000786821
0.000817975
0.000367534
0.000835656
0.000381113
0.000854604
0.000393363
0.000873446
0.000405643
0.000893044
0.000416121
0.000911952
0.000426801
0.000930428
0.00043648
0.000948459
0.000445549
0.00096534
0.000454401
0.000981093
0.000462746
0.000995397
0.0004703
0.00100793
0.000477798
0.00101886
0.000484543
0.0010278
0.000491406
0.00103423
0.000497947
0.00103861
0.000503813
0.00104071
0.000509534
0.00104031
0.000515074
0.00103685
0.000520356
0.00103037
0.000525513
0.00102166
0.000530244
0.00100968
0.0005346
0.000994866
0.000539213
0.000976682
0.000543906
0.000955504
0.000548001
0.000931112
0.000552113
0.000902922
0.000556856
0.000870859
0.000561229
0.000835566
0.000565318
0.000795303
0.000571308
0.00075088
0.000576523
0.000700556
0.000583833
0.000644496
0.000592797
0.000580197
0.000605006
0.00050577
0.00062253
0.000416653
0.000650102
0.000307517
0.00069485
0.000167953
0.000772099
-1.76511e-05
0.000908564
-0.00027074
0.00115833
-0.000604247
0.00160966
0.00228342
-0.000975277
0.000722816
0.000337688
-0.000707262
0.000739255
0.000351095
0.000756773
0.000363595
0.00077477
0.000375366
0.000793431
0.000386982
0.000811364
0.000398188
0.000829591
0.000408575
0.000847081
0.000418989
0.000863537
0.000429093
0.000879315
0.000438623
0.000894126
0.000447935
0.000907387
0.000457039
0.000919193
0.000465993
0.000929194
0.000474541
0.000937275
0.000483325
0.000943935
0.000491287
0.000948172
0.000499575
0.000950089
0.000507617
0.000949654
0.000515508
0.000946851
0.000523158
0.000941248
0.000531117
0.000933527
0.000537964
0.000922429
0.000545698
0.000908703
0.000552938
0.000891926
0.000560682
0.000872424
0.000567503
0.000848866
0.000575671
0.000822469
0.000583252
0.000792585
0.000591113
0.0007579
0.000600002
0.000719595
0.000609614
0.000675518
0.000620599
0.000626227
0.000633124
0.000569713
0.00064931
0.00050452
0.000670199
0.000427584
0.000699464
0.00033556
0.000742126
0.000221622
0.000808788
7.87727e-05
0.000914949
-0.000107723
0.00109506
-0.000351697
0.0014023
-0.000658647
0.00191661
0.00261182
-0.000987044
0.0006504
0.000321725
-0.000634437
0.000667387
0.000334108
0.000684204
0.000346778
0.000701327
0.000358243
0.000718666
0.000369643
0.000735942
0.000380911
0.000752451
0.000392066
0.000768675
0.000402765
0.000784318
0.000413451
0.000799098
0.000423843
0.000812446
0.000434587
0.000824805
0.000444679
0.000835622
0.000455176
0.000845038
0.000465126
0.000852788
0.000475574
0.000858386
0.000485689
0.000862254
0.000495707
0.0008643
0.00050557
0.000863846
0.000515962
0.000861167
0.000525838
0.000856133
0.00053615
0.000848484
0.000545613
0.000838174
0.000556008
0.000825523
0.000565589
0.000810185
0.000576021
0.000790999
0.000586688
0.000769694
0.000596977
0.000744343
0.000608603
0.000715534
0.000619922
0.000682747
0.000632789
0.000645706
0.000646654
0.000603891
0.000662415
0.000555015
0.000682
0.000499851
0.000704473
0.00043516
0.000734889
0.000358535
0.00077609
0.00026612
0.000834541
0.000152592
0.000922316
1.01606e-05
0.00105738
-0.000169505
0.00127473
-0.000398323
0.00163112
-0.000674786
0.00219307
0.0029091
-0.000972071
0.000585729
0.000306277
-0.000570281
0.000601189
0.000318649
0.000617474
0.000330493
0.000633934
0.000341783
0.0006503
0.000353276
0.000666232
0.00036498
0.00068183
0.000376468
0.000696571
0.000388024
0.000710922
0.0003991
0.00072425
0.000410515
0.000736658
0.000422179
0.000747654
0.000433683
0.000757742
0.000445087
0.000766024
0.000456844
0.000773017
0.000468581
0.000778462
0.000480244
0.00078236
0.000491809
0.00078378
0.00050415
0.00078375
0.000515992
0.000781056
0.000528532
0.000776285
0.000540921
0.000769105
0.000552793
0.000759634
0.000565478
0.000747293
0.00057793
0.000732607
0.000590707
0.00071518
0.000604115
0.000694327
0.000617829
0.000670806
0.000632125
0.000642994
0.000647734
0.000611866
0.000663916
0.000576265
0.000682255
0.000535648
0.000703032
0.000489702
0.000727946
0.000435731
0.000758445
0.000373256
0.000797364
0.000299551
0.000849794
0.000209814
0.000924278
9.90331e-05
0.0010331
-3.88865e-05
0.0011953
-0.000209805
0.00144564
-0.000422804
0.00184411
-0.000675841
0.00244611
0.00317329
-0.000940028
0.000526176
0.000291136
-0.000511035
0.000541543
0.000303282
0.000556846
0.00031519
0.000572179
0.00032645
0.000587353
0.000338102
0.000602145
0.000350188
0.000616312
0.000362301
0.000630461
0.000373874
0.00064345
0.000386111
0.000655638
0.000398327
0.00066678
0.000411036
0.000677035
0.000423427
0.000686055
0.000436068
0.000693963
0.000448935
0.0007005
0.000462044
0.000705109
0.000475635
0.000708183
0.000488735
0.000709948
0.000502385
0.000709683
0.000516257
0.000707532
0.000530681
0.000702873
0.000545581
0.000695959
0.000559707
0.000687218
0.000574219
0.00067569
0.000589458
0.000661554
0.000604842
0.00064517
0.000620499
0.000625647
0.000637352
0.000602936
0.000654835
0.000577345
0.000673324
0.000547146
0.000694115
0.000513154
0.000716247
0.000474703
0.000741483
0.000430514
0.000772134
0.000378944
0.000810014
0.00031849
0.000857818
0.000248232
0.000920052
0.000163396
0.00100911
5.59872e-05
0.0011405
-7.73687e-05
0.00132865
-0.00023412
0.00160239
-0.000428006
0.002038
-0.00065723
0.00267533
0.00340637
-0.000890311
0.000472744
0.000275832
-0.00045744
0.000487306
0.000288719
0.00050155
0.000300946
0.000516094
0.000311905
0.000530239
0.000323957
0.000543957
0.00033647
0.000556842
0.000349416
0.00056917
0.000361546
0.000581278
0.000374002
0.000592567
0.000387038
0.000602669
0.000400934
0.000611756
0.000414341
0.00061994
0.000427883
0.000627042
0.000441833
0.000632665
0.000456422
0.000636746
0.000471553
0.00063962
0.000485862
0.000641242
0.000500762
0.000641157
0.000516343
0.000638566
0.000533272
0.000634684
0.000549463
0.000628136