/*--------------------------------*- C++ -*----------------------------------*\
| =========                 |                                                 |
| \\      /  F ield         | OpenFOAM: The Open Source CFD Toolbox           |
|  \\    /   O peration     | Version:  2.3.0                                 |
|   \\  /    A nd           | Web:      www.OpenFOAM.org                      |
|    \\/     M anipulation  |                                                 |
\*---------------------------------------------------------------------------*/
FoamFile
{
    version     2.0;
    format      ascii;
    class       volScalarField;
    location    "150";
    object      p;
}
// * * * * * * * * * * * * * * * * * * * * * * * * * * * * * * * * * * * * * //

dimensions      [0 2 -2 0 0 0 0];

internalField   nonuniform List<scalar> 
7991
(
-0.00112455
0.0217674
0.0796517
0.183204
0.33298
0.522434
0.741265
0.980034
1.23207
1.49508
1.76861
2.05665
2.38952
2.88864
3.51861
0.215237
0.239734
0.26601
0.295895
0.335119
0.390114
0.466787
0.569136
0.698591
0.854303
1.03342
1.23225
1.44658
1.67383
1.91243
0.431579
0.511196
0.609069
0.722434
0.849197
0.985191
1.12602
1.26789
1.40782
1.54382
1.6744
1.79878
1.91604
2.02589
2.12839
0.563794
0.635011
0.714872
0.798756
0.886686
0.978137
1.07247
1.16893
1.26665
1.36483
1.46255
1.55914
1.65378
1.74609
1.83583
0.668922
0.739741
0.820053
0.903393
0.988992
1.07571
1.16252
1.24858
1.3332
1.41597
1.49651
1.57466
1.65016
1.72302
1.79317
0.740625
0.802061
0.871242
0.941847
1.01327
1.08499
1.15664
1.2279
1.29847
1.36817
1.43674
1.50406
1.56992
1.63424
1.69691
0.790235
0.8464
0.9086
0.971952
1.03575
1.09961
1.1633
1.2266
1.2893
1.35126
1.41232
1.47236
1.53122
1.58882
1.64502
0.821845
0.876193
0.931816
0.988082
1.0447
1.10144
1.15817
1.21476
1.27107
1.32699
1.38236
1.43706
1.49093
1.54386
1.59568
0.850545
0.899366
0.948832
0.999275
1.05031
1.1017
1.1533
1.20498
1.25661
1.30806
1.3592
1.40989
1.45996
1.50926
1.55761
0.867065
0.914955
0.960089
1.00604
1.05266
1.0998
1.14732
1.19508
1.24298
1.29088
1.33868
1.38624
1.43335
1.47983
1.52546
0.88305
0.926875
0.968337
1.01055
1.0535
1.09716
1.14135
1.18591
1.23078
1.27577
1.32081
1.3658
1.41053
1.45479
1.49829
0.895581
0.93518
0.973771
1.013
1.05327
1.0941
1.13526
1.17691
1.21927
1.26178
1.30439
1.34717
1.39001
1.43249
1.47427
0.906204
0.943861
0.980151
1.01662
1.05402
1.09239
1.13168
1.17142
1.21129
1.25123
1.29199
1.33398
1.37615
1.4181
1.45815
0.923566
0.955155
0.99372
1.02696
1.05354
1.0895
1.13296
1.1726
1.20879
1.24495
1.28434
1.32721
1.36709
1.41113
1.4534
4.28391
4.3841
4.25734
4.25447
4.28759
4.3067
4.30442
4.28426
4.24752
4.19192
4.11267
4.00391
3.86161
3.68715
3.4976
2.16921
2.44137
2.70086
2.9434
3.16288
3.35145
3.50153
3.60745
3.66601
3.67716
3.64417
3.57328
3.47279
3.35179
3.22331
2.22579
2.3203
2.41264
2.5031
2.59101
2.67526
2.75449
2.82721
2.8914
2.94463
2.98367
3.00484
3.00465
2.98211
2.94437
1.92442
2.01349
2.10334
2.19319
2.2819
2.36799
2.44971
2.52515
2.5922
2.64878
2.69282
2.72249
2.73651
2.73524
2.72302
1.8614
1.9288
1.99584
2.06226
2.12767
2.19149
2.25307
2.31162
2.36619
2.41569
2.45872
2.49369
2.51893
2.53374
2.53986
1.7584
1.81938
1.88002
1.94001
1.99899
2.05651
2.11204
2.16499
2.21465
2.26026
2.30091
2.33555
2.36313
2.38373
2.40242
1.70006
1.7544
1.80815
1.86106
1.91288
1.96328
2.01191
2.05839
2.10225
2.143
2.18002
2.21257
2.23988
2.26168
2.27891
1.64652
1.69667
1.74613
1.7947
1.84213
1.88817
1.93251
1.97485
2.01487
2.0522
2.08641
2.11701
2.14347
2.16543
2.18371
1.60503
1.65172
1.69765
1.74262
1.78643
1.82884
1.8696
1.90849
1.94524
1.9796
2.01127
2.03991
2.06504
2.08627
2.10558
1.57017
1.61408
1.65719
1.69932
1.74029
1.77984
1.81775
1.85388
1.888
1.91994
1.94946
1.97633
2.00022
2.02062
2.03782
1.54079
1.58237
1.62311
1.66282
1.7015
1.73874
1.77433
1.8082
1.84012
1.87005
1.89774
1.92309
1.94591
1.96572
1.98152
1.51505
1.55468
1.59352
1.63104
1.66803
1.7036
1.73738
1.76947
1.79954
1.82788
1.85415
1.87826
1.89989
1.91887
1.93297
1.49673
1.53307
1.56964
1.60574
1.64163
1.6749
1.70573
1.73575
1.76382
1.79064
1.81549
1.83831
1.85905
1.87798
1.89252
1.48772
1.51805
1.55032
1.58569
1.62341
1.6511
1.67748
1.70517
1.73091
1.7558
1.77767
1.79501
1.81628
1.83858
1.85332
-0.85173
-0.844162
-0.781427
-0.656578
-0.482638
-0.284875
-0.0939549
0.0631879
0.170629
0.224075
0.228114
0.188707
0.110452
-0.0163342
-0.0188362
-0.811611
-0.848074
-0.892131
-0.953973
-1.04044
-1.14697
-1.26231
-1.37393
-1.47138
-1.54892
-1.60559
-1.6457
-1.67105
-1.70474
-1.70519
-0.813168
-0.890033
-0.984418
-1.09059
-1.19862
-1.2961
-1.37481
-1.43254
-1.47151
-1.49642
-1.51284
-1.52785
-1.54153
-1.55543
-1.55739
-0.756659
-0.80179
-0.842236
-0.874292
-0.897145
-0.911448
-0.919372
-0.923529
-0.92608
-0.928751
-0.933003
-0.941747
-0.954746
-0.966006
-0.968307
-0.672816
-0.690971
-0.703541
-0.71202
-0.718444
-0.723965
-0.728894
-0.73309
-0.736462
-0.739444
-0.743027
-0.74937
-0.759487
-0.767409
-0.76702
-0.608471
-0.623307
-0.637135
-0.650625
-0.663273
-0.674518
-0.68387
-0.691165
-0.696667
-0.701194
-0.706066
-0.713158
-0.723561
-0.731624
-0.730433
-0.564472
-0.573561
-0.585344
-0.597158
-0.607912
-0.617556
-0.626198
-0.634016
-0.641271
-0.648459
-0.656488
-0.6666
-0.679331
-0.689184
-0.688226
-0.515707
-0.519881
-0.526708
-0.534167
-0.54187
-0.550295
-0.559613
-0.569818
-0.580799
-0.592558
-0.605448
-0.620101
-0.63642
-0.648891
-0.648632
-0.47242
-0.468033
-0.471032
-0.475712
-0.48223
-0.491285
-0.503068
-0.517484
-0.534199
-0.552831
-0.573338
-0.595567
-0.618201
-0.635175
-0.636494
-0.421665
-0.419065
-0.419743
-0.42186
-0.426601
-0.435236
-0.448497
-0.466776
-0.489605
-0.516401
-0.546984
-0.581378
-0.616887
-0.644914
-0.652256
-0.386669
-0.376108
-0.37247
-0.370389
-0.371527
-0.378047
-0.392007
-0.414933
-0.446037
-0.482976
-0.527594
-0.580434
-0.635381
-0.677843
-0.693024
-0.344891
-0.334092
-0.326371
-0.318545
-0.311875
-0.310207
-0.316258
-0.338716
-0.374853
-0.415627
-0.462026
-0.535462
-0.639383
-0.72572
-0.767166
-0.316011
-0.297598
-0.289414
-0.27632
-0.263904
-0.258195
-0.260886
-0.291057
-0.354992
-0.406004
-0.471333
-0.561122
-0.721548
-0.819011
-0.855688
-0.275247
-0.248702
-0.24405
-0.225898
-0.183544
-0.145176
-0.0733945
-0.0801209
-0.169694
-0.189657
-0.127757
-0.159513
-0.625043
-0.914451
-0.943531
-0.0122046
-0.00185036
0.132309
0.217598
0.264706
0.268736
0.223534
0.1246
-0.0230773
-0.20228
-0.384592
-0.539388
-0.640846
-0.677521
-0.65825
-1.70168
-1.69626
-1.65749
-1.62712
-1.5805
-1.51553
-1.42769
-1.318
-1.19244
-1.06189
-0.939439
-0.837098
-0.758399
-0.695913
-0.638253
-1.55357
-1.54473
-1.5244
-1.50473
-1.48285
-1.45837
-1.42391
-1.37386
-1.30347
-1.21078
-1.09854
-0.975675
-0.854393
-0.744441
-0.649868
-0.964758
-0.955585
-0.937942
-0.918945
-0.903582
-0.891828
-0.880606
-0.868458
-0.853588
-0.833847
-0.806634
-0.76981
-0.72267
-0.666332
-0.603952
-0.763626
-0.757278
-0.743114
-0.727108
-0.714368
-0.703589
-0.69249
-0.680119
-0.66603
-0.650325
-0.633075
-0.61387
-0.591509
-0.564194
-0.530522
-0.727135
-0.721674
-0.707419
-0.691142
-0.677691
-0.665691
-0.653184
-0.638894
-0.622006
-0.602269
-0.579827
-0.555183
-0.52895
-0.501797
-0.473532
-0.685029
-0.679445
-0.663489
-0.644942
-0.628533
-0.613462
-0.59843
-0.582566
-0.565373
-0.546567
-0.525956
-0.503487
-0.479307
-0.454476
-0.431699
-0.645755
-0.639943
-0.621757
-0.599862
-0.579037
-0.559168
-0.539605
-0.520043
-0.500469
-0.480966
-0.461562
-0.44223
-0.422774
-0.403566
-0.387121
-0.633709
-0.626591
-0.604129
-0.576216
-0.548183
-0.520956
-0.494641
-0.469376
-0.445513
-0.423299
-0.402899
-0.384385
-0.367485
-0.352037
-0.340295
-0.651689
-0.641177
-0.608933
-0.568659
-0.528352
-0.490228
-0.454932
-0.423076
-0.39452
-0.369546
-0.348355
-0.330758
-0.316211
-0.304095
-0.295956
-0.692012
-0.671528
-0.619614
-0.561692
-0.506717
-0.455122
-0.410304
-0.371428
-0.338478
-0.31204
-0.291744
-0.277156
-0.266622
-0.259247
-0.256436
-0.797641
-0.758365
-0.652034
-0.558073
-0.478964
-0.409241
-0.354748
-0.31511
-0.27873
-0.251324
-0.234172
-0.223968
-0.219019
-0.21747
-0.218723
-0.908284
-0.805209
-0.579527
-0.50464
-0.440298
-0.340788
-0.295289
-0.24851
-0.199308
-0.179637
-0.167646
-0.169185
-0.170402
-0.177309
-0.185079
-1.40326
-1.20595
-0.590077
-0.538615
-0.392531
-0.234568
-0.193196
-0.208257
-0.145633
-0.122309
-0.124834
-0.127139
-0.134974
-0.149852
-0.168865
-8.32517
-7.70427
-7.14787
-6.55564
-5.91143
-5.20863
-4.46532
-3.70752
-2.96639
-2.27775
-1.67479
-1.1813
-0.804581
-0.534578
-0.355394
-0.121762
-1.05214
-1.19637
-1.2352
-1.3093
-1.39419
-1.45766
-1.48728
-1.4739
-1.40905
-1.28974
-1.12311
-0.926645
-0.723818
-0.544719
-0.736873
-1.119
-0.963384
-0.932092
-0.962703
-0.990122
-1.00333
-1.00708
-1.00156
-0.983581
-0.948641
-0.891653
-0.808975
-0.701284
-0.584405
-2.13996
-2.15013
-1.89129
-1.821
-1.76178
-1.67987
-1.58177
-1.47415
-1.35782
-1.23433
-1.10681
-0.978862
-0.852868
-0.728862
-0.612969
-2.09255
-1.80246
-1.63111
-1.60792
-1.56231
-1.50078
-1.43191
-1.35653
-1.27248
-1.17924
-1.07724
-0.967921
-0.853754
-0.737358
-0.626382
-1.14268
-0.842454
-0.849921
-0.874525
-0.874949
-0.876823
-0.88063
-0.881081
-0.874574
-0.858998
-0.832258
-0.792507
-0.738739
-0.670963
-0.594397
-0.567372
-0.474085
-0.528528
-0.53583
-0.542873
-0.560418
-0.582727
-0.604581
-0.623488
-0.63721
-0.6432
-0.638831
-0.62174
-0.589838
-0.54372
-0.526094
-0.521561
-0.54005
-0.528562
-0.52857
-0.534446
-0.54325
-0.552977
-0.562324
-0.56959
-0.572933
-0.570356
-0.559808
-0.539069
-0.505777
-0.561477
-0.569126
-0.56532
-0.554906
-0.551742
-0.549012
-0.548248
-0.548887
-0.549801
-0.54967
-0.54725
-0.541172
-0.529947
-0.512015
-0.484801
-0.571034
-0.572527
-0.563315
-0.555492
-0.549873
-0.543789
-0.539522
-0.536585
-0.534042
-0.530924
-0.526301
-0.51911
-0.50815
-0.492227
-0.468622
-0.57356
-0.570396
-0.560738
-0.552062
-0.544419
-0.537429
-0.531569
-0.526537
-0.521784
-0.516637
-0.510373
-0.502166
-0.491043
-0.476023
-0.454662
-0.571218
-0.566358
-0.556926
-0.547168
-0.539153
-0.532409
-0.525869
-0.519752
-0.513765
-0.507359
-0.499927
-0.490814
-0.479273
-0.464578
-0.444889
-0.561518
-0.556561
-0.54768
-0.538113
-0.530874
-0.524706
-0.518109
-0.511792
-0.505529
-0.498816
-0.491112
-0.481849
-0.470412
-0.456237
-0.437809
-0.549068
-0.544618
-0.536477
-0.527717
-0.521177
-0.515308
-0.508895
-0.502735
-0.496574
-0.489956
-0.482404
-0.473387
-0.462334
-0.448721
-0.43111
-0.538825
-0.534878
-0.527316
-0.519074
-0.512349
-0.506241
-0.500097
-0.494147
-0.488124
-0.481648
-0.474299
-0.465577
-0.454932
-0.441857
-0.425073
-0.53119
-0.527494
-0.520207
-0.512017
-0.504623
-0.498192
-0.492395
-0.486595
-0.480672
-0.474331
-0.467193
-0.458798
-0.448654
-0.436308
-0.420645
-0.523862
-0.520257
-0.513141
-0.504962
-0.497295
-0.49095
-0.485499
-0.479776
-0.473943
-0.467746
-0.460831
-0.452772
-0.443124
-0.431496
-0.416781
-0.515389
-0.51191
-0.505075
-0.497167
-0.489804
-0.483897
-0.478761
-0.47315
-0.467476
-0.461481
-0.454822
-0.447101
-0.437896
-0.426829
-0.412854
-0.506434
-0.503191
-0.496777
-0.489361
-0.48256
-0.477066
-0.472111
-0.466666
-0.461212
-0.455466
-0.449105
-0.441756
-0.43301
-0.422505
-0.409273
-0.498241
-0.495286
-0.489319
-0.482423
-0.476074
-0.470607
-0.465604
-0.460421
-0.455252
-0.449802
-0.443779
-0.436839
-0.428592
-0.418698
-0.406287
-0.491872
-0.489151
-0.48353
-0.47698
-0.470773
-0.464942
-0.459739
-0.454849
-0.449907
-0.444701
-0.438979
-0.432412
-0.424631
-0.415304
-0.40367
-0.486615
-0.484031
-0.478632
-0.472255
-0.466027
-0.459888
-0.454636
-0.450027
-0.44523
-0.440205
-0.434722
-0.428464
-0.42107
-0.412206
-0.401208
-0.48177
-0.479269
-0.474038
-0.46778
-0.461568
-0.455404
-0.450304
-0.445903
-0.441177
-0.436284
-0.430988
-0.424985
-0.41792
-0.409448
-0.398907
-0.476757
-0.474342
-0.469299
-0.463218
-0.457169
-0.451247
-0.446427
-0.442197
-0.437554
-0.432803
-0.427693
-0.421931
-0.415188
-0.407107
-0.396796
-0.471909
-0.469613
-0.464799
-0.458976
-0.4532
-0.447619
-0.443028
-0.43888
-0.434339
-0.429741
-0.424822
-0.419311
-0.412898
-0.405304
-0.395594
-0.467607
-0.465457
-0.460896
-0.455378
-0.449913
-0.444627
-0.440059
-0.435872
-0.431484
-0.427059
-0.422334
-0.417062
-0.410945
-0.403738
-0.394524
-0.464364
-0.462356
-0.458028
-0.452788
-0.447562
-0.44241
-0.437622
-0.43329
-0.429089
-0.424817
-0.420263
-0.415208
-0.409361
-0.402502
-0.393829
-0.462008
-0.460111
-0.45597
-0.450939
-0.44585
-0.440706
-0.435656
-0.43123
-0.427223
-0.423059
-0.418639
-0.413757
-0.408127
-0.401513
-0.393058
-0.460264
-0.458443
-0.454443
-0.449551
-0.444523
-0.439349
-0.434164
-0.42976
-0.425907
-0.421802
-0.417482
-0.412741
-0.407296
-0.40093
-0.392854
-0.458658
-0.456891
-0.45301
-0.448231
-0.443263
-0.438118
-0.432981
-0.428717
-0.424995
-0.420945
-0.416727
-0.41212
-0.406851
-0.400709
-0.392946
-0.457107
-0.455395
-0.451634
-0.446977
-0.442104
-0.437065
-0.4321
-0.428021
-0.424406
-0.420426
-0.416327
-0.411878
-0.406829
-0.401012
-0.394131
-0.455535
-0.453887
-0.45026
-0.445754
-0.441033
-0.436176
-0.431449
-0.427546
-0.424013
-0.420131
-0.416162
-0.411866
-0.407002
-0.401339
-0.394749
-0.454251
-0.45268
-0.449199
-0.444871
-0.440336
-0.435689
-0.431184
-0.427346
-0.423821
-0.420058
-0.416218
-0.412058
-0.407341
-0.401767
-0.395467
-0.453546
-0.452056
-0.448722
-0.444578
-0.440239
-0.435785
-0.431431
-0.427511
-0.423927
-0.42032
-0.416618
-0.412604
-0.408054
-0.402609
-0.396354
-0.453611
-0.452198
-0.449
-0.445029
-0.440859
-0.436548
-0.432257
-0.428172
-0.42452
-0.421088
-0.417512
-0.41364
-0.409271
-0.404031
-0.397804
-0.454568
-0.453216
-0.450132
-0.446298
-0.442248
-0.438006
-0.433708
-0.429464
-0.425784
-0.422503
-0.419018
-0.415283
-0.411108
-0.406213
-0.400598
-0.456183
-0.454877
-0.451887
-0.448159
-0.444191
-0.439984
-0.435666
-0.431349
-0.4277
-0.424519
-0.421064
-0.417387
-0.413264
-0.408396
-0.402615
-0.458494
-0.457222
-0.454308
-0.450657
-0.44674
-0.442541
-0.438207
-0.43388
-0.430282
-0.427138
-0.423671
-0.420009
-0.415903
-0.411063
-0.405818
-0.461185
-0.459941
-0.457098
-0.453519
-0.449656
-0.445492
-0.441191
-0.436939
-0.433426
-0.43031
-0.426841
-0.423214
-0.419176
-0.414404
-0.409526
-0.464361
-0.463145
-0.460373
-0.456865
-0.453061
-0.448945
-0.444703
-0.440545
-0.437094
-0.433966
-0.430479
-0.426853
-0.422831
-0.418011
-0.412784
-0.467785
-0.466603
-0.463905
-0.460481
-0.456758
-0.452726
-0.448582
-0.444541
-0.441122
-0.437959
-0.434468
-0.430838
-0.426827
-0.42207
-0.416725
-0.471595
-0.470451
-0.467832
-0.464501
-0.460874
-0.456944
-0.452906
-0.448964
-0.445504
-0.442272
-0.438819
-0.435237
-0.431322
-0.426821
-0.422243
-0.475739
-0.474637
-0.472099
-0.468869
-0.465349
-0.461531
-0.457595
-0.453717
-0.450139
-0.446807
-0.443406
-0.439833
-0.435895
-0.431264
-0.426288
-0.480268
-0.479206
-0.476748
-0.473621
-0.470206
-0.466494
-0.462638
-0.458783
-0.455048
-0.45162
-0.448281
-0.444703
-0.440734
-0.435998
-0.431232
-0.485282
-0.48426
-0.481876
-0.478845
-0.475526
-0.4719
-0.468095
-0.464233
-0.460366
-0.456893
-0.453636
-0.450077
-0.446144
-0.441372
-0.436294
-0.490777
-0.489791
-0.487475
-0.484531
-0.481297
-0.477746
-0.47398
-0.470118
-0.466192
-0.462746
-0.459591
-0.456084
-0.452243
-0.447579
-0.442397
-0.496873
-0.495917
-0.493663
-0.490795
-0.48763
-0.484136
-0.480398
-0.47654
-0.472615
-0.469237
-0.466172
-0.462718
-0.458962
-0.454421
-0.44894
-0.503558
-0.502627
-0.500429
-0.497628
-0.494524
-0.491082
-0.487377
-0.483551
-0.479688
-0.476415
-0.473453
-0.470104
-0.466535
-0.462401
-0.457637
-0.510869
-0.509962
-0.507816
-0.505076
-0.502028
-0.498634
-0.494969
-0.491189
-0.487409
-0.484226
-0.481314
-0.477995
-0.47444
-0.470287
-0.464766
-0.518888
-0.518002
-0.515907
-0.513222
-0.510224
-0.506876
-0.503255
-0.499527
-0.495834
-0.492718
-0.48983
-0.486545
-0.483059
-0.479178
-0.475201
-0.527595
-0.526731
-0.524685
-0.522058
-0.519116
-0.515823
-0.512258
-0.50859
-0.504974
-0.501872
-0.498932
-0.495575
-0.491921
-0.487554
-0.481916
-0.537219
-0.536377
-0.53438
-0.531807
-0.528918
-0.525673
-0.522159
-0.518538
-0.514965
-0.511805
-0.508749
-0.505285
-0.50144
-0.496779
-0.491022
-0.547722
-0.546904
-0.544958
-0.542446
-0.539623
-0.536448
-0.533007
-0.529456
-0.525937
-0.522704
-0.519573
-0.516138
-0.512354
-0.507902
-0.502728
-0.559343
-0.558549
-0.556653
-0.554204
-0.551445
-0.548337
-0.544963
-0.541463
-0.537966
-0.534615
-0.531397
-0.528001
-0.524232
-0.51982
-0.514897
-0.571949
-0.571177
-0.56933
-0.566943
-0.564251
-0.561211
-0.557897
-0.554429
-0.550911
-0.54739
-0.544021
-0.54054
-0.536528
-0.531635
-0.525954
-0.585758
-0.585008
-0.583205
-0.580872
-0.578236
-0.575245
-0.571966
-0.568497
-0.564924
-0.561236
-0.557748
-0.554231
-0.550143
-0.545221
-0.541184
-0.600732
-0.600002
-0.598243
-0.595965
-0.593383
-0.590443
-0.587195
-0.583718
-0.580083
-0.576255
-0.572652
-0.569026
-0.564717
-0.559206
-0.55348
-0.617134
-0.616423
-0.614704
-0.612474
-0.609936
-0.607029
-0.60379
-0.60028
-0.596563
-0.592603
-0.588869
-0.585064
-0.580485
-0.574652
-0.568838
-0.635077
-0.634383
-0.632702
-0.630516
-0.628018
-0.625139
-0.621904
-0.618359
-0.614564
-0.610493
-0.60662
-0.602585
-0.597634
-0.591237
-0.583957
-0.654918
-0.65424
-0.652593
-0.650445
-0.647977
-0.645112
-0.641865
-0.638273
-0.634394
-0.630215
-0.626183
-0.621868
-0.616478
-0.609503
-0.601575
-0.676841
-0.676178
-0.674568
-0.672459
-0.670022
-0.667176
-0.663926
-0.6603
-0.656355
-0.652088
-0.647904
-0.643326
-0.637562
-0.630123
-0.622064
-0.701284
-0.700637
-0.699061
-0.696988
-0.694577
-0.691741
-0.688476
-0.684804
-0.680778
-0.676395
-0.672001
-0.667073
-0.66081
-0.652598
-0.643419
-0.72857
-0.727937
-0.726395
-0.724355
-0.721966
-0.719132
-0.715846
-0.712113
-0.707977
-0.703426
-0.698724
-0.693313
-0.686405
-0.677301
-0.667052
-0.759241
-0.758623
-0.757115
-0.755105
-0.752731
-0.749887
-0.746555
-0.742727
-0.738427
-0.733616
-0.728459
-0.722375
-0.71459
-0.704283
-0.692131
-0.793952
-0.793349
-0.791875
-0.789891
-0.787523
-0.784652
-0.781248
-0.777276
-0.772733
-0.767533
-0.761712
-0.754689
-0.745682
-0.733756
-0.719426
-0.83351
-0.832923
-0.831482
-0.82952
-0.827148
-0.82423
-0.820716
-0.816536
-0.81164
-0.805878
-0.79913
-0.790834
-0.780172
-0.766038
-0.749089
-0.879375
-0.878803
-0.877393
-0.875444
-0.873042
-0.870029
-0.866326
-0.861813
-0.856377
-0.849778
-0.841724
-0.831679
-0.818776
-0.801647
-0.781549
-0.932488
-0.931934
-0.930554
-0.928612
-0.926165
-0.923028
-0.91907
-0.914108
-0.90793
-0.900178
-0.890362
-0.877958
-0.862031
-0.840887
-0.816537
-0.997362
-0.996825
-0.995476
-0.993512
-0.990935
-0.987512
-0.983033
-0.977216
-0.96971
-0.960003
-0.947399
-0.931359
-0.91091
-0.884106
-0.853629
-1.07214
-1.07162
-1.07027
-1.06825
-1.0655
-1.06175
-1.05665
-1.04979
-1.04061
-1.02836
-1.01208
-0.991099
-0.964397
-0.929888
-0.890607
-1.18051
-1.18
-1.17868
-1.17645
-1.17307
-1.16808
-1.16091
-1.15086
-1.13707
-1.11854
-1.09413
-1.06331
-1.02545
-0.978979
-0.927643
-1.28081
-1.28027
-1.27872
-1.27617
-1.27239
-1.26673
-1.25835
-1.2462
-1.22892
-1.20502
-1.17294
-1.1321
-1.08229
-1.0229
-0.957372
-1.56245
-1.56225
-1.56037
-1.55575
-1.54665
-1.53165
-1.50895
-1.47669
-1.43321
-1.37768
-1.31049
-1.23416
-1.15222
-1.06749
-0.984891
-1.54477
-1.54333
-1.54389
-1.53802
-1.52783
-1.5128
-1.49134
-1.46134
-1.42073
-1.36806
-1.30312
-1.22814
-1.14668
-1.06208
-0.978968
-3.03229
-3.10922
-3.04915
-2.96684
-2.86327
-2.72845
-2.55562
-2.34556
-2.10587
-1.85145
-1.60263
-1.38118
-1.20172
-1.06443
-0.961426
15.1789
14.5478
13.7409
12.9591
12.1192
11.1925
10.1982
9.16953
8.14211
7.15629
6.25157
5.45943
4.79492
4.25397
3.83057
6.61592
5.76912
5.80266
5.91444
5.95726
5.95545
5.92648
5.85872
5.73583
5.54662
5.28788
4.96743
4.60449
4.22496
3.86702
4.53486
4.21028
4.42427
4.48687
4.49115
4.49516
4.50089
4.49659
4.4758
4.43383
4.36426
4.25927
4.11215
3.92052
3.70064
3.85988
3.84871
4.07447
4.09889
4.10913
4.12752
4.14272
4.14446
4.12871
4.09224
4.0324
3.94746
3.83609
3.69599
3.53306
3.21182
3.4954
3.64448
3.6507
3.67605
3.70901
3.73925
3.7626
3.77619
3.77476
3.75244
3.7042
3.62706
3.51958
3.38674
3.36031
3.66499
3.65552
3.63266
3.63222
3.62763
3.61714
3.60355
3.58713
3.56557
3.53547
3.49236
3.43139
3.34768
3.24054
3.55927
3.65743
3.60154
3.59403
3.58592
3.56534
3.53704
3.50454
3.46818
3.42745
3.38148
3.32863
3.2663
3.19062
3.0972
3.34422
3.35122
3.33176
3.34262
3.34063
3.33079
3.31555
3.2957
3.27083
3.24044
3.20364
3.15918
3.10546
3.04056
2.9606
3.06026
3.05412
3.05806
3.06838
3.07014
3.07014
3.06649
3.05883
3.04698
3.0305
3.00836
2.97907
2.94092
2.89266
2.83404
2.83726
2.8364
2.84555
2.8526
2.85668
2.86069
2.8616
2.85921
2.85352
2.84418
2.83038
2.81087
2.78402
2.74834
2.70418
2.65489
2.65806
2.66724
2.67464
2.68078
2.68609
2.68902
2.68949
2.68732
2.68216
2.6733
2.6597
2.63991
2.61227
2.57766
2.49625
2.50103
2.51015
2.51916
2.5263
2.53174
2.53583
2.53816
2.53842
2.53627
2.53115
2.52213
2.50788
2.48671
2.46003
2.36046
2.36554
2.37446
2.38391
2.39075
2.39591
2.40055
2.40385
2.4055
2.40527
2.40273
2.39714
2.38745
2.3721
2.35315
2.24355
2.24827
2.25658
2.26538
2.27144
2.27628
2.2811
2.28476
2.28708
2.28791
2.2869
2.28349
2.27679
2.26528
2.25026
2.13827
2.14241
2.15001
2.15803
2.1638
2.16871
2.17351
2.1773
2.17997
2.18142
2.18136
2.17929
2.17447
2.1655
2.15311
2.04002
2.04376
2.05091
2.05865
2.06499
2.07034
2.07503
2.07888
2.08185
2.08379
2.08449
2.08356
2.08041
2.07404
2.06594
1.94845
1.95203
1.95902
1.96684
1.97386
1.97952
1.98402
1.98801
1.99127
1.99364
1.99497
1.99496
1.99311
1.98849
1.98299
1.86469
1.86821
1.87505
1.88284
1.88997
1.89548
1.89978
1.90389
1.90733
1.90998
1.91174
1.91233
1.91133
1.90774
1.90327
1.78837
1.79174
1.79827
1.80575
1.81251
1.81761
1.82173
1.82589
1.8294
1.83222
1.83426
1.83532
1.83504
1.83256
1.82975
1.71787
1.72099
1.7271
1.73408
1.7403
1.74509
1.74917
1.75329
1.7568
1.7597
1.76195
1.76337
1.76371
1.76217
1.76074
1.65105
1.65389
1.65958
1.6661
1.67197
1.6769
1.68117
1.68518
1.68865
1.69159
1.69398
1.69569
1.6965
1.69571
1.69525
1.58685
1.58948
1.59487
1.60111
1.60693
1.61232
1.61685
1.62071
1.62414
1.62714
1.62964
1.63154
1.63272
1.63248
1.63256
1.52545
1.52797
1.53318
1.5393
1.54521
1.55093
1.55557
1.55927
1.56275
1.56581
1.56842
1.57049
1.57192
1.5721
1.57241
1.46741
1.46986
1.47493
1.48097
1.48688
1.49263
1.49715
1.50074
1.50428
1.5074
1.5101
1.51231
1.51394
1.51451
1.51545
1.41276
1.41513
1.42003
1.42591
1.43168
1.43722
1.44151
1.44502
1.4486
1.45177
1.45455
1.4569
1.45875
1.45968
1.46219
1.36109
1.36335
1.36803
1.37366
1.37917
1.38438
1.38846
1.39195
1.39552
1.39869
1.40153
1.404
1.40608
1.40731
1.41039
1.31151
1.31362
1.31805
1.32339
1.3286
1.33353
1.33762
1.34118
1.34469
1.34782
1.35065
1.35315
1.35532
1.35661
1.35977
1.26334
1.26531
1.26951
1.27457
1.27955
1.28435
1.28866
1.2924
1.29579
1.29886
1.30167
1.3042
1.30647
1.30795
1.31155
1.21631
1.21817
1.22219
1.22705
1.2319
1.23672
1.24133
1.2452
1.24846
1.25152
1.25435
1.25693
1.25933
1.26102
1.26481
1.17058
1.17237
1.17626
1.18099
1.18579
1.19066
1.19544
1.19934
1.20249
1.20556
1.2084
1.21101
1.21348
1.2153
1.21885
1.12627
1.128
1.13179
1.13642
1.14119
1.14607
1.15086
1.15467
1.15774
1.16083
1.16366
1.16625
1.16867
1.1703
1.17257
1.0835
1.08519
1.08887
1.09341
1.09811
1.10292
1.10758
1.11125
1.11427
1.11737
1.1202
1.12282
1.12532
1.12721
1.12849
1.04217
1.04381
1.04737
1.05178
1.05636
1.06104
1.06551
1.06904
1.07205
1.07518
1.07805
1.08076
1.08342
1.08582
1.08721
1.002
1.00356
1.00699
1.01124
1.01567
1.02016
1.02443
1.0279
1.03093
1.03405
1.03691
1.03964
1.04233
1.04499
1.04535
0.962535
0.964023
0.96731
0.97139
0.97563
0.979943
0.984064
0.987599
0.990713
0.993748
0.996553
0.999219
1.0018
1.00455
1.00482
0.923553
0.924965
0.928119
0.932033
0.936107
0.940279
0.944336
0.948058
0.951292
0.954228
0.956993
0.959648
0.962192
0.96506
0.966466
0.884983
0.886332
0.889371
0.893144
0.897094
0.901188
0.905261
0.909191
0.912517
0.915356
0.91811
0.920764
0.923304
0.926114
0.927242
0.846855
0.848155
0.851101
0.854765
0.858632
0.862698
0.866814
0.870879
0.874227
0.876989
0.879749
0.882392
0.884903
0.887605
0.888565
0.809219
0.810482
0.813352
0.816935
0.820751
0.824811
0.828962
0.833071
0.836393
0.839123
0.841924
0.844606
0.847201
0.85006
0.850838
0.772189
0.773423
0.776225
0.779738
0.783509
0.787551
0.791697
0.795769
0.79903
0.801753
0.804608
0.807347
0.810044
0.813192
0.81398
0.735712
0.736917
0.73965
0.743094
0.746811
0.75081
0.754907
0.758887
0.762072
0.764796
0.767689
0.770464
0.773195
0.776453
0.777608
0.69976
0.700932
0.70359
0.706951
0.710591
0.714509
0.718512
0.722362
0.725471
0.728196
0.731098
0.733885
0.736612
0.739817
0.740992
0.664115
0.665248
0.667827
0.671097
0.674644
0.678462
0.682353
0.686079
0.689168
0.69193
0.694835
0.697647
0.700438
0.703747
0.704659
0.62867
0.629761
0.632257
0.635424
0.638863
0.642563
0.646335
0.64996
0.653108
0.655954
0.658848
0.661693
0.664579
0.66815
0.669396
0.593189
0.594237
0.596651
0.599714
0.603042
0.606626
0.610295
0.613866
0.617143
0.620088
0.622932
0.625775
0.628656
0.632299
0.634015
0.557548
0.558555
0.560892
0.563856
0.56708
0.570564
0.574161
0.57772
0.581148
0.584172
0.586939
0.589765
0.592594
0.596085
0.598026
0.521684
0.522655
0.524924
0.5278
0.530937
0.534347
0.537907
0.54149
0.545051
0.548126
0.550844
0.553703
0.556579
0.560096
0.562166
0.48553
0.486473
0.488682
0.491487
0.49456
0.497925
0.501481
0.505109
0.508766
0.511874
0.514592
0.517538
0.520561
0.524315
0.526885
0.449057
0.449976
0.452133
0.454878
0.457901
0.461237
0.464798
0.468461
0.472162
0.475276
0.478013
0.481044
0.484172
0.488107
0.490722
0.412195
0.413094
0.415205
0.417899
0.420881
0.424195
0.427758
0.431437
0.435132
0.438227
0.440986
0.444075
0.447282
0.451588
0.455705
0.374917
0.375797
0.377862
0.380507
0.383449
0.386736
0.390284
0.39395
0.397601
0.400657
0.403421
0.406529
0.409656
0.41353
0.419788
0.337214
0.338075
0.340095
0.34269
0.34559
0.348841
0.352359
0.355993
0.359587
0.36262
0.365426
0.368617
0.371894
0.375547
0.383064
0.299036
0.299876
0.301848
0.30439
0.307241
0.310447
0.313921
0.317509
0.321046
0.324083
0.326956
0.330224
0.333681
0.337138
0.344363
0.260262
0.261079
0.263001
0.265485
0.268278
0.271427
0.274845
0.278381
0.281873
0.284967
0.287961
0.291347
0.295111
0.298981
0.307104
0.220692
0.221484
0.223354
0.225777
0.228509
0.231594
0.234947
0.238427
0.241886
0.245079
0.248204
0.25165
0.255543
0.259435
0.267275
0.18016
0.180927
0.182746
0.185104
0.187769
0.190783
0.194069
0.197496
0.200944
0.204275
0.207539
0.211027
0.215053
0.219078
0.22646
0.13847
0.139212
0.140982
0.143279
0.145881
0.148833
0.152066
0.155471
0.158954
0.162474
0.165919
0.169516
0.173784
0.178259
0.185828
0.0955254
0.0962433
0.0979649
0.100202
0.102742
0.105636
0.10883
0.112237
0.115793
0.119526
0.123183
0.12698
0.131626
0.136807
0.145314
0.0509487
0.0516449
0.0533232
0.0555081
0.0579995
0.0608547
0.064035
0.067476
0.0711361
0.0750767
0.0789461
0.0829822
0.0880255
0.0938348
0.103082
0.00448894
0.00516531
0.00680225
0.00893794
0.0113851
0.0142085
0.017386
0.0208735
0.024643
0.0287652
0.0328341
0.0371373
0.0425997
0.0490491
0.0594494
-0.0442591
-0.0436009
-0.042002
-0.039909
-0.0374953
-0.0346886
-0.031495
-0.0279423
-0.0240494
-0.0197506
-0.0154596
-0.0108234
-0.00486049
0.00227378
0.0142045
-0.0956302
-0.0949888
-0.0934274
-0.0913736
-0.0889885
-0.0861893
-0.0829689
-0.0793382
-0.0753097
-0.0708224
-0.0662633
-0.0612079
-0.0546295
-0.0467493
-0.0330364
-0.150129
-0.149504
-0.147978
-0.145959
-0.143593
-0.140789
-0.137524
-0.133795
-0.129604
-0.124889
-0.119982
-0.114387
-0.107027
-0.0982818
-0.0827384
-0.208366
-0.207757
-0.206266
-0.204277
-0.201923
-0.199099
-0.195769
-0.191911
-0.18751
-0.182491
-0.17711
-0.170794
-0.162396
-0.152446
-0.135271
-0.271115
-0.270523
-0.269068
-0.267109
-0.264757
-0.2619
-0.258477
-0.254444
-0.249756
-0.244303
-0.238236
-0.230896
-0.221009
-0.209032
-0.188863
-0.339438
-0.338862
-0.337443
-0.335506
-0.333144
-0.330224
-0.326665
-0.322386
-0.317299
-0.311239
-0.304223
-0.295512
-0.283732
-0.269277
-0.245996
-0.414891
-0.414334
-0.412952
-0.411034
-0.408645
-0.40563
-0.401871
-0.397241
-0.391586
-0.384658
-0.376311
-0.365738
-0.351476
-0.3338
-0.306588
-0.498993
-0.498455
-0.497106
-0.495191
-0.492744
-0.489577
-0.485524
-0.480389
-0.473925
-0.46576
-0.455532
-0.442359
-0.424671
-0.40255
-0.369831
-0.596257
-0.595736
-0.594422
-0.592483
-0.589899
-0.586427
-0.581821
-0.575777
-0.567905
-0.557658
-0.544417
-0.527242
-0.504504
-0.476115
-0.436142
-0.705711
-0.705203
-0.703885
-0.701871
-0.699088
-0.695219
-0.689906
-0.682686
-0.672958
-0.659908
-0.642566
-0.619879
-0.590138
-0.553041
-0.500685
-0.850926
-0.850428
-0.849141
-0.8469
-0.843441
-0.838263
-0.830768
-0.820195
-0.80562
-0.785926
-0.759916
-0.726724
-0.685111
-0.635911
-0.570314
-0.992073
-0.991564
-0.990033
-0.987448
-0.98352
-0.977533
-0.968608
-0.955593
-0.937055
-0.911329
-0.876738
-0.832451
-0.777666
-0.714868
-0.636903
-1.31778
-1.31753
-1.3156
-1.31081
-1.30137
-1.28573
-1.26204
-1.22827
-1.18264
-1.12412
-1.05295
-0.97154
-0.882631
-0.791834
-0.696807
-1.35418
-1.35287
-1.35351
-1.34744
-1.33672
-1.32064
-1.29742
-1.26471
-1.22026
-1.16237
-1.09069
-1.00743
-0.915418
-0.819905
-0.724439
-2.90158
-2.97811
-2.91754
-2.83431
-2.72868
-2.59026
-2.41208
-2.19485
-1.94646
-1.68227
-1.42317
-1.19173
-1.00137
-0.851272
-0.732602
0.296864
1.19954
-0.385262
-0.0916847
0.0634742
-0.566403
0.115104
1.91026
0.50115
0.317149
0.0995292
1.21887
0.451474
-0.120107
-0.0213463
1.46225
-0.192683
-2.20248
-0.331589
0.260226
1.15611
0.474101
1.51955
0.800898
0.718575
2.33187
1.86998
-0.0237702
1.15958
-0.197111
-6.73406
0.326739
-0.562974
-0.289902
1.70684
1.40378
0.44202
-0.900344
0.82933
1.94488
0.865054
-0.375983
0.706419
1.01209
0.723321
0.197054
0.707307
0.545379
-0.418558
1.77542
0.984142
0.12493
-0.0127226
2.6783
0.852618
3.47139
0.643831
-0.792979
0.676185
0.720074
1.68204
-1.18094
0.264137
-0.269433
1.46515
1.35159
0.119567
4.73182
0.35763
1.99347
1.17775
0.500985
0.29138
-0.387922
1.00907
0.336125
0.430736
1.00864
-0.350141
1.74247
1.40105
0.66372
0.676288
-0.193804
3.43232
0.0710457
0.839915
0.411777
-0.356691
2.14688
0.443583
0.455877
-0.160355
1.06683
0.0474817
0.985312
0.488442
1.50249
0.0416318
0.675482