/*--------------------------------*- C++ -*----------------------------------*\
| =========                 |                                                 |
| \\      /  F ield         | OpenFOAM: The Open Source CFD Toolbox           |
|  \\    /   O peration     | Version:  2.3.0                                 |
|   \\  /    A nd           | Web:      www.OpenFOAM.org                      |
|    \\/     M anipulation  |                                                 |
\*---------------------------------------------------------------------------*/
FoamFile
{
    version     2.0;
    format      ascii;
    class       volVectorField;
    location    "150";
    object      U;
}
// * * * * * * * * * * * * * * * * * * * * * * * * * * * * * * * * * * * * * //

dimensions      [0 1 -1 0 0 0 0];

internalField   nonuniform List<vector> 
7991
(
(20.0738 0.137906 -6.71133e-23)
(20.0756 0.150735 -5.90547e-22)
(20.0783 0.165913 2.4142e-21)
(20.0821 0.183939 -1.75536e-21)
(20.0868 0.204385 -1.12225e-20)
(20.0915 0.226372 2.72687e-20)
(20.0952 0.248848 -1.57454e-20)
(20.0969 0.270812 0)
(20.0953 0.291444 0)
(20.0899 0.31012 -1.70084e-20)
(20.0803 0.32642 1.5727e-20)
(20.0662 0.340072 -1.968e-20)
(20.0477 0.350816 1.80756e-20)
(20.0245 0.355804 0)
(19.9975 0.357979 0)
(20.0608 0.135582 0)
(20.0579 0.143413 0)
(20.054 0.15099 0)
(20.0489 0.158617 -3.80215e-21)
(20.0427 0.166469 7.94678e-21)
(20.0356 0.174611 7.43887e-22)
(20.0281 0.182954 -1.00878e-20)
(20.0203 0.191266 5.18181e-21)
(20.0122 0.199231 -7.23212e-21)
(20.004 0.206524 -1.43957e-21)
(19.9958 0.212861 1.65453e-20)
(19.9875 0.218029 -1.32468e-20)
(19.9793 0.221884 4.54326e-21)
(19.9713 0.224322 0)
(19.9637 0.225245 1.07324e-35)
(20.0522 0.133725 0)
(20.0489 0.140214 0)
(20.0454 0.146488 7.85445e-21)
(20.0415 0.152351 -7.68094e-21)
(20.0372 0.157638 -1.02036e-20)
(20.0325 0.16221 -1.46381e-21)
(20.0274 0.166005 -1.41709e-21)
(20.0219 0.169014 1.13929e-20)
(20.0162 0.171269 0)
(20.0104 0.172814 0)
(20.0046 0.1737 0)
(19.9988 0.173978 0)
(19.9931 0.173701 0)
(19.9877 0.172924 0)
(19.9825 0.171695 0)
(20.0452 0.129353 0)
(20.0413 0.133575 -3.94199e-21)
(20.037 0.137503 3.89429e-21)
(20.0325 0.140987 0)
(20.0278 0.144042 -1.01264e-20)
(20.0232 0.146653 9.71951e-21)
(20.0185 0.148811 -1.11616e-20)
(20.0139 0.150518 2.22265e-20)
(20.0095 0.151785 -5.08087e-21)
(20.0051 0.152629 -5.70255e-21)
(20.001 0.153075 0)
(19.997 0.153153 0)
(19.9932 0.152891 0)
(19.9896 0.152321 -1.66226e-21)
(19.9862 0.151469 1.62736e-21)
(20.0408 0.125435 0)
(20.0371 0.128359 0)
(20.0333 0.131094 4.91955e-21)
(20.0295 0.133398 4.68894e-22)
(20.0257 0.13531 -5.11262e-21)
(20.022 0.136836 -5.83811e-21)
(20.0182 0.137996 5.63147e-21)
(20.0146 0.138812 0)
(20.011 0.139311 0)
(20.0075 0.13952 0)
(20.0041 0.139466 0)
(20.0008 0.139172 0)
(19.9977 0.138661 -3.53146e-21)
(19.9947 0.137954 3.45719e-21)
(19.9918 0.137066 -6.57082e-36)
(20.0375 0.121675 0)
(20.0341 0.123633 -2.4155e-21)
(20.0307 0.12549 2.38187e-21)
(20.0273 0.127 0)
(20.0239 0.128215 0)
(20.0206 0.129152 5.91917e-21)
(20.0174 0.12983 -1.18845e-20)
(20.0143 0.130267 -3.5381e-22)
(20.0112 0.130481 -3.41618e-22)
(20.0083 0.13049 -3.29615e-22)
(20.0054 0.130307 6.57878e-21)
(20.0026 0.129948 0)
(20 0.129426 0)
(19.9974 0.128754 -1.87152e-21)
(19.9949 0.12794 1.86127e-21)
(20.0353 0.1185 0)
(20.0323 0.1198 0)
(20.0293 0.121078 0)
(20.0263 0.122099 0)
(20.0234 0.122898 0)
(20.0205 0.123486 0)
(20.0178 0.123881 0)
(20.015 0.124094 0)
(20.0124 0.124139 0)
(20.0097 0.124025 0)
(20.0072 0.123763 0)
(20.0047 0.12336 0)
(20.0023 0.122824 0)
(20 0.122163 0)
(19.9977 0.121384 0)
(20.0338 0.115623 -1.24314e-21)
(20.0311 0.116591 1.23056e-21)
(20.0284 0.117482 0)
(20.0258 0.11819 0)
(20.0232 0.118728 0)
(20.0206 0.119106 0)
(20.0181 0.119336 -6.4241e-21)
(20.0157 0.119426 6.35523e-21)
(20.0133 0.119383 0)
(20.0109 0.119213 0)
(20.0086 0.11892 -3.70287e-21)
(20.0063 0.118507 3.69298e-21)
(20.0041 0.117979 0)
(20.0019 0.11734 0)
(19.9998 0.116594 3.77274e-36)
(20.0328 0.113077 1.2797e-21)
(20.0303 0.113917 -1.27364e-21)
(20.0279 0.114575 0)
(20.0255 0.115086 0)
(20.0232 0.115459 0)
(20.0209 0.115706 -3.15379e-21)
(20.0186 0.115833 6.40417e-21)
(20.0164 0.115848 -6.65519e-21)
(20.0142 0.115754 -1.41657e-22)
(20.012 0.115554 3.52502e-21)
(20.0098 0.115249 3.80672e-21)
(20.0077 0.114838 -3.81244e-21)
(20.0056 0.114321 2.04861e-21)
(20.0036 0.1137 -9.93383e-22)
(20.0015 0.112979 -1.06588e-21)
(20.0319 0.111154 0)
(20.0298 0.111788 0)
(20.0276 0.112253 0)
(20.0255 0.112617 2.96676e-21)
(20.0234 0.112876 -2.94674e-21)
(20.0212 0.113034 0)
(20.0191 0.113094 0)
(20.017 0.113061 3.45595e-21)
(20.015 0.112937 -3.4583e-21)
(20.0129 0.112722 -3.73801e-21)
(20.0108 0.112415 5.69449e-21)
(20.0088 0.112012 -1.95188e-21)
(20.0069 0.111509 0)
(20.0049 0.110905 1.08684e-21)
(20.003 0.110203 -1.0934e-21)
(20.0314 0.109488 -6.685e-22)
(20.0294 0.11002 2.05847e-21)
(20.0275 0.110367 -1.38504e-21)
(20.0255 0.110634 3.00021e-21)
(20.0236 0.110818 -2.98828e-21)
(20.0216 0.11092 3.23357e-21)
(20.0196 0.110936 -3.23295e-21)
(20.0176 0.110871 0)
(20.0157 0.110726 0)
(20.0137 0.110502 -1.89253e-21)
(20.0117 0.110199 1.90285e-21)
(20.0098 0.109808 0)
(20.0079 0.10932 0)
(20.0061 0.108731 0)
(20.0042 0.108043 0)
(20.031 0.108142 0)
(20.0292 0.10857 0)
(20.0274 0.108838 -1.45921e-21)
(20.0256 0.109038 2.96489e-21)
(20.0238 0.109176 -1.50811e-21)
(20.022 0.109241 0)
(20.0201 0.109227 0)
(20.0182 0.109141 0)
(20.0163 0.10898 1.82745e-21)
(20.0144 0.108749 -1.83789e-21)
(20.0125 0.10845 -1.97675e-21)
(20.0107 0.108072 1.99017e-21)
(20.0089 0.1076 0)
(20.0071 0.107024 0)
(20.0053 0.106343 0)
(20.0307 0.10709 0)
(20.029 0.107384 0)
(20.0274 0.107594 1.47104e-21)
(20.0257 0.107743 -1.46585e-21)
(20.024 0.107857 -1.57319e-21)
(20.0223 0.107908 3.20477e-21)
(20.0205 0.107875 -1.63462e-21)
(20.0187 0.107777 1.75789e-21)
(20.0169 0.1076 -1.76683e-21)
(20.015 0.107359 0)
(20.0131 0.107065 1.97156e-21)
(20.0113 0.106696 -1.9849e-21)
(20.0096 0.106238 1.06322e-21)
(20.0079 0.105676 -1.07016e-21)
(20.0062 0.104993 0)
(20.0304 0.106101 0)
(20.0288 0.106374 0)
(20.0274 0.106579 0)
(20.0258 0.106685 -1.56822e-21)
(20.0242 0.106797 3.16067e-21)
(20.0226 0.106853 -1.52403e-21)
(20.0208 0.106794 0)
(20.019 0.106704 0)
(20.0173 0.106519 0)
(20.0155 0.106259 0)
(20.0136 0.105958 0)
(20.0119 0.105581 1.0089e-21)
(20.0102 0.105132 -1.01127e-21)
(20.0085 0.10461 -2.66329e-22)
(20.0068 0.10393 2.73332e-22)
(19.9557 0.324111 0)
(19.9145 0.309576 0)
(19.8801 0.291594 3.48375e-20)
(19.8527 0.276065 -3.79756e-20)
(19.8331 0.259445 4.17412e-20)
(19.8214 0.241127 -4.51859e-20)
(19.8175 0.221111 0)
(19.8206 0.199645 0)
(19.8294 0.177146 -1.0535e-19)
(19.8424 0.154289 2.15349e-19)
(19.8575 0.132006 -1.08512e-19)
(19.873 0.111368 -5.15072e-20)
(19.8877 0.0933228 9.96401e-20)
(19.901 0.0784727 -2.48397e-20)
(19.9129 0.0658238 -2.15239e-20)
(19.9566 0.224704 -1.07641e-35)
(19.95 0.22225 0)
(19.9439 0.217448 9.57577e-21)
(19.9382 0.210426 -3.28282e-20)
(19.9329 0.201275 5.03158e-20)
(19.9282 0.190201 1.47282e-21)
(19.9243 0.177541 -3.19509e-20)
(19.9211 0.16377 3.64456e-20)
(19.9187 0.149458 -7.80794e-20)
(19.9172 0.135209 1.04255e-22)
(19.9166 0.121554 8.55844e-20)
(19.9173 0.108855 -4.37122e-20)
(19.9193 0.0972404 0)
(19.9228 0.0866791 0)
(19.9276 0.0762631 0)
(19.9774 0.170069 0)
(19.9722 0.167961 0)
(19.9669 0.165252 0)
(19.9616 0.161927 0)
(19.9564 0.157949 0)
(19.9514 0.153292 0)
(19.9468 0.147939 0)
(19.9427 0.141883 2.72885e-20)
(19.9393 0.135126 5.96181e-22)
(19.9367 0.127688 4.96006e-22)
(19.9352 0.11962 -3.30456e-20)
(19.9347 0.111026 -3.47135e-20)
(19.9353 0.102085 3.54937e-20)
(19.9368 0.0930669 0)
(19.9392 0.0836747 0)
(19.9829 0.150348 1.79058e-21)
(19.9796 0.148899 -1.83291e-21)
(19.9762 0.147044 0)
(19.9728 0.144751 0)
(19.9694 0.141983 0)
(19.9661 0.138706 -1.04697e-20)
(19.9629 0.134892 -1.16712e-20)
(19.9599 0.130524 4.81004e-20)
(19.9571 0.125599 -2.55585e-20)
(19.9546 0.120135 2.79136e-20)
(19.9524 0.11417 -2.90861e-20)
(19.9508 0.107768 0)
(19.9497 0.101016 1.58193e-20)
(19.9493 0.0940159 -1.60115e-20)
(19.9497 0.0864435 0)
(19.989 0.136005 6.58274e-36)
(19.9862 0.134734 4.03409e-21)
(19.9833 0.13321 -4.12151e-21)
(19.9805 0.131414 0)
(19.9776 0.129323 0)
(19.9747 0.126912 0)
(19.972 0.124158 0)
(19.9693 0.121037 0)
(19.9667 0.117528 1.20629e-20)
(19.9644 0.113614 -1.25073e-20)
(19.9623 0.109287 -1.34107e-20)
(19.9605 0.104549 -1.69415e-22)
(19.9591 0.0994199 1.43392e-20)
(19.9582 0.0939395 0)
(19.9579 0.0878231 0)
(19.9925 0.126987 2.00144e-21)
(19.99 0.125868 -2.016e-21)
(19.9876 0.124556 0)
(19.9852 0.123039 0)
(19.9827 0.121301 9.53931e-21)
(19.9804 0.119326 2.7077e-22)
(19.978 0.117099 2.65524e-22)
(19.9757 0.114601 2.57367e-22)
(19.9736 0.111816 -2.28092e-20)
(19.9715 0.108728 1.18485e-20)
(19.9696 0.105324 0)
(19.9678 0.101597 0)
(19.9664 0.0975518 6.77072e-21)
(19.9652 0.0932076 -6.86628e-21)
(19.9643 0.0883761 0)
(19.9955 0.120486 0)
(19.9932 0.119452 0)
(19.991 0.118265 0)
(19.9888 0.116917 0)
(19.9867 0.115399 0)
(19.9845 0.113701 0)
(19.9824 0.111813 0)
(19.9804 0.109722 0)
(19.9784 0.107417 0)
(19.9766 0.104883 0)
(19.9748 0.102107 0)
(19.9732 0.0990769 0)
(19.9718 0.0957813 0)
(19.9705 0.0922135 0)
(19.9696 0.0881891 0)
(19.9977 0.115742 -3.77836e-36)
(19.9956 0.114772 0)
(19.9936 0.113673 0)
(19.9916 0.11244 4.77655e-21)
(19.9896 0.111069 -4.78967e-21)
(19.9876 0.109554 0)
(19.9857 0.107888 0)
(19.9839 0.106064 1.07128e-20)
(19.9821 0.104076 -1.08295e-20)
(19.9804 0.101913 0)
(19.9789 0.0995663 0)
(19.9774 0.0970252 0)
(19.976 0.0942793 0)
(19.9748 0.091324 3.15773e-21)
(19.9737 0.0880818 -3.14772e-21)
(19.9996 0.112159 -1.13323e-21)
(19.9976 0.111234 -1.19373e-21)
(19.9957 0.110197 2.31697e-21)
(19.9938 0.109047 -4.87131e-21)
(19.9919 0.10778 4.86425e-21)
(19.9901 0.106393 5.09633e-21)
(19.9883 0.104883 1.09826e-22)
(19.9866 0.103246 -1.05644e-20)
(19.985 0.101481 1.08248e-20)
(19.9835 0.0995818 -5.50264e-21)
(19.982 0.0975424 0)
(19.9806 0.0953545 0)
(19.9794 0.0930105 0)
(19.9782 0.0905051 -3.05672e-21)
(19.9771 0.0878254 3.00815e-21)
(20.0011 0.109407 -1.15984e-21)
(19.9992 0.108516 1.15439e-21)
(19.9974 0.107528 0)
(19.9955 0.106441 -2.46986e-21)
(19.9938 0.105252 7.49301e-21)
(19.9921 0.103957 -5.0164e-21)
(19.9904 0.102559 -5.22062e-21)
(19.9889 0.101057 5.21721e-21)
(19.9873 0.0994532 0)
(19.9859 0.0977461 0)
(19.9845 0.0959319 -5.63157e-21)
(19.9833 0.0940055 5.6699e-21)
(19.9821 0.0919604 0)
(19.981 0.0897905 0)
(19.98 0.0875118 0)
(20.0024 0.107263 0)
(20.0006 0.1064 0)
(19.9988 0.105452 0)
(19.997 0.104418 0)
(19.9954 0.103289 2.52695e-21)
(19.9937 0.102062 -2.51329e-21)
(19.9922 0.100744 0)
(19.9907 0.099341 0)
(19.9893 0.0978575 -5.37028e-21)
(19.9879 0.0962947 5.3714e-21)
(19.9866 0.0946494 -5.54349e-21)
(19.9854 0.0929209 5.56567e-21)
(19.9843 0.0911057 -2.86437e-21)
(19.9833 0.0891953 4.33479e-21)
(19.9823 0.0872418 -1.45785e-21)
(20.0035 0.105578 0)
(20.0017 0.10474 0)
(20 0.103828 0)
(19.9983 0.102837 2.48152e-21)
(19.9967 0.101755 -2.46485e-21)
(19.9951 0.100577 -2.55448e-21)
(19.9936 0.0993174 2.54001e-21)
(19.9922 0.0979876 0)
(19.9908 0.0965967 0)
(19.9896 0.0951444 0)
(19.9884 0.0936259 -2.72982e-21)
(19.9872 0.0920489 5.50541e-21)
(19.9862 0.0904088 -2.78052e-21)
(19.9853 0.0886897 0)
(19.9843 0.0869454 0)
(20.0044 0.104246 0)
(20.0027 0.103435 -1.1906e-21)
(20.0009 0.102555 1.18294e-21)
(19.9993 0.101601 -2.45958e-21)
(19.9978 0.100546 2.44305e-21)
(19.9963 0.0994032 0)
(19.9949 0.0981865 -2.55705e-21)
(19.9935 0.096913 2.54416e-21)
(19.9922 0.0955964 -2.61765e-21)
(19.991 0.0942285 5.26126e-21)
(19.9898 0.0928026 -2.64841e-21)
(19.9888 0.0913499 -2.71961e-21)
(19.9878 0.0898532 2.72923e-21)
(19.9869 0.0882899 0)
(19.9861 0.0867346 0)
(20.0051 0.103232 2.95969e-22)
(20.0034 0.102439 -2.93198e-22)
(20.0018 0.101564 -1.20021e-21)
(20.0001 0.100632 1.15236e-21)
(19.9987 0.0996035 0)
(19.9973 0.0985039 0)
(19.996 0.0973051 0)
(19.9947 0.0960605 0)
(19.9934 0.0948034 0)
(19.9923 0.0934913 -2.61511e-21)
(19.9912 0.0921195 5.38113e-21)
(19.9902 0.0907674 -2.69433e-21)
(19.9893 0.0893864 0)
(19.9884 0.0879424 0)
(19.9876 0.0865285 0)
(20.0752 0.0100443 -9.1995e-21)
(20.0345 0.00749576 1.03038e-20)
(19.9611 0.00431906 0)
(19.8381 0.000463734 0)
(19.6477 -0.00435149 0)
(19.3805 -0.0100546 0)
(19.0358 -0.0165839 7.10811e-22)
(18.6175 -0.0239644 -7.89381e-22)
(18.1291 -0.0321346 0)
(17.5696 -0.0409779 0)
(16.9279 -0.0507557 -1.35996e-20)
(16.1725 -0.061601 1.60882e-20)
(15.2335 -0.0753224 -2.03322e-21)
(13.9957 -0.0653468 2.09531e-21)
(12.6323 -0.0790566 7.49126e-22)
(20.0734 0.00801042 0)
(20.0377 0.00595885 -2.24343e-20)
(19.9767 0.00305709 2.47395e-20)
(19.8777 -0.00114669 0)
(19.7267 -0.00705177 0)
(19.5138 -0.0144298 0)
(19.2343 -0.0228255 0)
(18.8869 -0.0317755 6.43183e-20)
(18.4699 -0.0408773 -7.12665e-20)
(17.9781 -0.0498796 8.83797e-20)
(17.3965 -0.0590683 3.0429e-21)
(16.691 -0.0685917 -1.20376e-19)
(15.7982 -0.0804858 7.49503e-20)
(14.6684 -0.0763088 -4.64917e-20)
(13.5922 -0.0484028 -6.10382e-20)
(20.0721 0.00396363 0)
(20.0409 0.000423348 0)
(19.9891 -0.00415201 3.08406e-20)
(19.907 -0.00981568 -3.36081e-20)
(19.7833 -0.0164456 -4.38981e-20)
(19.6081 -0.0235776 -3.33234e-21)
(19.3745 -0.0308132 -2.80159e-21)
(19.0776 -0.0379454 6.38081e-20)
(18.7121 -0.0449358 0)
(18.2691 -0.0518939 0)
(17.7304 -0.0593409 0)
(17.0598 -0.0673911 0)
(16.2002 -0.0760414 0)
(15.1336 -0.0724443 0)
(14.1712 -0.0344767 0)
(20.0691 0.000724875 0)
(20.0399 -0.00312985 -1.17179e-20)
(19.9934 -0.00763919 1.27036e-20)
(19.9219 -0.0127851 0)
(19.8164 -0.0184807 -3.26014e-20)
(19.6679 -0.0244844 3.52338e-20)
(19.4683 -0.0306074 -3.88628e-20)
(19.21 -0.0367668 8.46388e-20)
(18.8847 -0.0429859 -2.31198e-20)
(18.4802 -0.049404 -2.56636e-20)
(17.9755 -0.0565022 0)
(17.3325 -0.0644143 0)
(16.4976 -0.0716434 0)
(15.4674 -0.0674437 -1.19228e-20)
(14.5543 -0.0286701 1.4486e-20)
(20.0654 -0.000929516 0)
(20.038 -0.0044082 0)
(19.996 -0.00835642 1.13614e-20)
(19.9335 -0.0128282 1.27081e-22)
(19.8429 -0.0178088 1.09753e-22)
(19.7159 -0.0231598 -2.87725e-20)
(19.5435 -0.0287335 1.55574e-20)
(19.3165 -0.0344408 -1.70218e-20)
(19.0241 -0.0402966 -7.97365e-23)
(18.6517 -0.0464495 2.04095e-20)
(18.1755 -0.0533336 0)
(17.5561 -0.0611373 0)
(16.7411 -0.0677332 -1.52243e-20)
(15.7337 -0.0630359 1.80287e-20)
(14.8445 -0.0255166 0)
(20.0624 -0.00215576 0)
(20.037 -0.00520091 0)
(19.9994 -0.00877365 1.07324e-20)
(19.9445 -0.0128228 -2.31209e-20)
(19.8659 -0.0173101 2.51457e-20)
(19.7558 -0.0221501 2.07523e-22)
(19.605 -0.0272436 -2.97221e-20)
(19.4031 -0.0325324 1.61e-20)
(19.1377 -0.0380499 -1.7721e-20)
(18.7919 -0.0439634 3.87967e-20)
(18.3401 -0.050665 -2.14535e-20)
(17.7412 -0.0583429 0)
(16.943 -0.0646539 0)
(15.9509 -0.0597 0)
(15.0741 -0.0234725 0)
(20.0598 -0.00287736 0)
(20.0364 -0.00569188 0)
(20.0023 -0.00905161 0)
(19.9534 -0.0127789 0)
(19.8842 -0.0168676 0)
(19.7871 -0.0213015 0)
(19.6533 -0.0260352 0)
(19.4716 -0.0310384 0)
(19.2284 -0.0363492 0)
(18.9052 -0.0421323 0)
(18.4745 -0.0487372 0)
(17.8937 -0.0563139 0)
(17.1098 -0.0624639 0)
(16.1287 -0.0573608 0)
(15.2582 -0.0220563 0)
(20.0576 -0.00350475 0)
(20.0355 -0.00593329 4.4382e-21)
(20.0044 -0.00906231 -4.67373e-21)
(19.9604 -0.0125453 1.01269e-20)
(19.8984 -0.0163773 1.60172e-22)
(19.8118 -0.0205777 -2.31784e-20)
(19.6916 -0.0251274 -2.18255e-22)
(19.5264 -0.0300066 -2.52734e-22)
(19.3018 -0.0352454 2.2249e-20)
(18.9979 -0.0409915 1.70232e-22)
(18.5857 -0.0475568 -9.01084e-21)
(18.021 -0.0550496 1.04084e-20)
(17.2497 -0.0610712 -1.76228e-20)
(16.2768 -0.0558346 6.81907e-21)
(15.4094 -0.0211113 0)
(20.0552 -0.00334657 1.97062e-21)
(20.0346 -0.0057718 -2.0713e-21)
(20.0059 -0.00883867 0)
(19.9659 -0.0122036 0)
(19.9099 -0.0159328 0)
(19.8316 -0.0200693 -5.32248e-21)
(19.7224 -0.0246034 1.14137e-20)
(19.5708 -0.0295138 -1.24737e-20)
(19.3619 -0.0348144 -2.27014e-22)
(19.0747 -0.0406293 7.50045e-21)
(18.6788 -0.0472186 0)
(18.1286 -0.0546091 0)
(17.3686 -0.060413 5.6887e-21)
(16.4027 -0.0549183 -3.17686e-21)
(15.5368 -0.0204156 -3.70482e-21)
(20.0531 -0.00341907 0)
(20.0337 -0.00559229 0)
(20.0071 -0.00849724 0)
(19.9703 -0.0117739 4.20028e-21)
(19.9191 -0.0154818 -4.39272e-21)
(19.8475 -0.0196664 0)
(19.7473 -0.0243232 0)
(19.6072 -0.0294164 5.79602e-21)
(19.4116 -0.0349313 -6.15989e-21)
(19.139 -0.0409558 -7.31786e-21)
(18.7579 -0.0477275 1.20529e-20)
(18.2211 -0.0552243 -4.54222e-21)
(17.4717 -0.0609542 0)
(16.5115 -0.0551103 3.23993e-21)
(15.646 -0.0204453 -3.64008e-21)
(20.0511 -0.0027712 0)
(20.0328 -0.00508451 0)
(20.0079 -0.0079521 0)
(19.9737 -0.0111918 3.75554e-21)
(19.9263 -0.0149579 4.07609e-23)
(19.86 -0.0193315 -8.37014e-21)
(19.7671 -0.0243063 4.45104e-21)
(19.6363 -0.0298009 0)
(19.4519 -0.0357273 0)
(19.1918 -0.0422192 -3.46352e-21)
(18.8232 -0.0494413 3.7083e-21)
(18.2986 -0.0570194 0)
(17.5597 -0.062365 0)
(16.606 -0.0558237 0)
(15.7413 -0.0202599 0)
(20.0494 -0.00240698 0)
(20.032 -0.00446365 1.60978e-21)
(20.0086 -0.00717674 -3.26732e-21)
(19.9765 -0.010289 1.66498e-21)
(19.9322 -0.0140161 0)
(19.8705 -0.0185039 0)
(19.7838 -0.0238946 3.81312e-21)
(19.6612 -0.0300169 -4.00133e-21)
(19.4872 -0.0364604 0)
(19.2385 -0.0432598 -2.99179e-21)
(18.8829 -0.0513303 -4.35496e-22)
(18.3703 -0.0607172 1.60234e-21)
(17.6407 -0.0670452 2.50355e-21)
(16.6909 -0.0596808 -1.76523e-21)
(15.8254 -0.0232912 1.95767e-21)
(20.0477 -0.00152173 0)
(20.0309 -0.00368356 0)
(20.0088 -0.00630213 0)
(19.9785 -0.00926695 0)
(19.936 -0.0130775 0)
(19.8769 -0.01791 1.45797e-21)
(19.7931 -0.0240259 -1.51776e-21)
(19.6762 -0.0313818 0)
(19.51 -0.0385843 0)
(19.2696 -0.0461565 0)
(18.918 -0.0553079 0)
(18.4129 -0.0654809 -2.46757e-21)
(17.7007 -0.0717644 2.67777e-21)
(16.7643 -0.0622853 0)
(15.9003 -0.0227956 0)
(20.0466 -0.000463214 0)
(20.031 -0.00257309 0)
(20.0107 -0.00508226 0)
(19.9815 -0.0074094 -1.10321e-21)
(19.9425 -0.0105919 2.04664e-21)
(19.8888 -0.0145292 -9.37814e-22)
(19.8127 -0.0208207 0)
(19.7028 -0.030139 0)
(19.5502 -0.0378988 0)
(19.3201 -0.0432039 0)
(18.9964 -0.0528127 0)
(18.4999 -0.074172 0)
(17.7872 -0.0851298 0)
(16.8385 -0.0720647 -1.04744e-21)
(15.9676 -0.0408893 1.15393e-21)
(12.6897 0.0860103 3.12101e-22)
(14.095 0.0699807 3.51811e-21)
(15.3464 0.0796376 -2.88284e-21)
(16.291 0.0660101 1.85762e-20)
(17.0494 0.0554574 -1.57095e-20)
(17.692 0.0459966 0)
(18.2497 0.0375139 0)
(18.7328 0.0297809 5.1225e-21)
(19.1418 0.0229427 -4.61303e-21)
(19.473 0.0170659 0)
(19.7235 0.0121035 0)
(19.8953 0.0081584 0)
(20.0013 0.00514612 0)
(20.0608 0.00286331 8.11093e-21)
(20.0907 0.000912934 -7.29714e-21)
(13.6383 0.0582171 -6.06873e-20)
(14.7668 0.0839641 -4.59076e-20)
(15.9153 0.0876657 7.43129e-20)
(16.8139 0.0758536 -1.18602e-19)
(17.5208 0.0666855 3.50631e-21)
(18.1011 0.0578448 8.66964e-20)
(18.5887 0.0491875 -6.87647e-20)
(18.9982 0.0404551 6.20647e-20)
(19.3347 0.031929 0)
(19.6001 0.0240219 0)
(19.7967 0.0171993 0)
(19.9308 0.0119461 0)
(20.0148 0.00839833 2.0653e-20)
(20.0635 0.00613627 -1.87313e-20)
(20.0892 0.00443501 0)
(14.2147 0.0465843 0)
(15.2323 0.0827755 0)
(16.3202 0.0857185 0)
(17.1855 0.0771143 0)
(17.8559 0.0694463 0)
(18.3912 0.0623859 0)
(18.8279 0.0557886 0)
(19.1841 0.049139 6.08414e-20)
(19.4689 0.0423405 -3.34947e-21)
(19.6881 0.0354357 -3.87363e-21)
(19.8478 0.0286524 -4.05872e-20)
(19.9563 0.0224292 -2.96065e-20)
(20.0249 0.0172062 2.71602e-20)
(20.0657 0.0130718 0)
(20.0879 0.00979947 0)
(14.5975 0.0425667 1.4349e-20)
(15.5674 0.0798312 -1.17958e-20)
(16.6201 0.0833067 0)
(17.4601 0.0761103 0)
(18.1013 0.0685829 0)
(18.6008 0.0618848 -2.45094e-20)
(18.9971 0.0558252 -2.16243e-20)
(19.3117 0.0499208 7.95231e-20)
(19.5571 0.0440425 -3.62841e-20)
(19.7424 0.0381751 3.19235e-20)
(19.8763 0.0324252 -2.95259e-20)
(19.9679 0.0270089 0)
(20.0274 0.0221575 1.07166e-20)
(20.0639 0.0179291 -9.88595e-21)
(20.0848 0.0142626 0)
(14.8882 0.0408176 0)
(15.8352 0.0769821 1.76497e-20)
(16.8655 0.0809489 -1.49184e-20)
(17.6848 0.074388 0)
(18.3009 0.0669738 0)
(18.7701 0.0605015 1.92893e-20)
(19.1329 0.0547057 -2.943e-22)
(19.4135 0.0491479 -1.58851e-20)
(19.6271 0.0436929 1.40807e-20)
(19.7854 0.0383413 -2.57991e-20)
(19.8987 0.0332038 3.34598e-22)
(19.9767 0.0284396 3.54844e-22)
(20.0284 0.024171 9.65644e-21)
(20.0612 0.0203877 0)
(20.081 0.017027 0)
(15.1185 0.0398924 0)
(16.0539 0.0748611 0)
(17.0689 0.0791093 0)
(17.8705 0.0728511 0)
(18.4647 0.0655788 -2.04476e-20)
(18.9079 0.0593057 3.67767e-20)
(19.2428 0.0537551 -1.67012e-20)
(19.4955 0.0485309 1.47467e-20)
(19.6837 0.0434827 -2.69847e-20)
(19.8208 0.0385943 4.24607e-22)
(19.918 0.0339391 2.19333e-20)
(19.9851 0.0296161 -1.96858e-20)
(20.0301 0.0256911 9.01927e-21)
(20.0594 0.0221788 0)
(20.0777 0.0191391 0)
(15.3034 0.0393999 0)
(16.2331 0.073503 0)
(17.237 0.077928 0)
(18.0233 0.0718532 0)
(18.598 0.0647051 0)
(19.0188 0.0585509 0)
(19.33 0.0531453 0)
(19.5598 0.0481364 0)
(19.7277 0.0433781 0)
(19.8482 0.0388476 0)
(19.9331 0.0345818 0)
(19.9917 0.0306195 0)
(20.0315 0.0269641 0)
(20.0578 0.0236097 0)
(20.0748 0.0207152 0)
(15.4552 0.0391187 0)
(16.3825 0.072718 6.66455e-21)
(17.3777 0.0773377 -1.71261e-20)
(18.1505 0.0714437 1.00906e-20)
(18.7079 0.0644193 -8.54269e-21)
(19.109 0.0583343 2.7163e-22)
(19.3999 0.0529884 2.05724e-20)
(19.6107 0.0480711 -4.65574e-22)
(19.7621 0.0434525 -4.35443e-22)
(19.8695 0.0391112 -2.02118e-20)
(19.9446 0.0350647 3.83231e-22)
(19.9966 0.03132 8.49011e-21)
(20.0321 0.027847 -3.68413e-21)
(20.0561 0.024616 3.49744e-21)
(20.072 0.0218166 0)
(15.5834 0.0390913 -3.66215e-21)
(16.5098 0.0724539 -3.0757e-21)
(17.4978 0.077335 5.56414e-21)
(18.2582 0.0716736 0)
(18.7999 0.0647906 0)
(19.1835 0.0587338 6.99365e-21)
(19.457 0.0533661 -3.30427e-22)
(19.6518 0.0484245 -1.12886e-20)
(19.7896 0.0438059 1.00842e-20)
(19.8863 0.0395013 -4.64103e-21)
(19.9536 0.0355167 0)
(20.0002 0.0318465 0)
(20.0324 0.0284535 0)
(20.0543 0.0252927 -1.52184e-21)
(20.0692 0.0225465 1.46295e-21)
(15.6929 0.0390461 -3.6185e-21)
(16.6192 0.0728736 3.21444e-21)
(17.6009 0.0783285 0)
(18.3501 0.0729168 -4.40194e-21)
(18.8774 0.0660275 1.15755e-20)
(19.2455 0.0598294 -6.99417e-21)
(19.5038 0.0542709 -5.64375e-21)
(19.685 0.0491548 5.31014e-21)
(19.8116 0.0444075 0)
(19.8996 0.0400003 0)
(19.9606 0.0359459 -3.50936e-21)
(20.0029 0.0322422 3.35572e-21)
(20.0323 0.0288549 0)
(20.0526 0.0257429 0)
(20.0665 0.0231036 0)
(15.7904 0.0399465 0)
(16.7169 0.0743312 0)
(17.6916 0.0802365 0)
(18.4291 0.0749178 0)
(18.9428 0.0680007 3.5201e-21)
(19.297 0.0615605 -3.28887e-21)
(19.542 0.05566 0)
(19.7119 0.0502122 0)
(19.8291 0.0451324 3.75242e-21)
(19.9101 0.0404726 -6.89477e-21)
(19.966 0.0362335 1.83645e-22)
(20.0048 0.0324182 2.87424e-21)
(20.0319 0.0289968 0)
(20.0508 0.0259001 0)
(20.064 0.0232811 0)
(15.8724 0.0391666 2.03493e-21)
(16.798 0.0775918 -1.83138e-21)
(17.7663 0.0851247 2.56805e-21)
(18.4956 0.0792262 1.68241e-21)
(18.9984 0.0712378 -5.39001e-22)
(19.3397 0.0639006 -3.02071e-21)
(19.5736 0.0571743 0)
(19.7332 0.0511878 -3.62013e-21)
(19.8425 0.0458887 3.44974e-21)
(19.9179 0.0408548 0)
(19.9697 0.0363119 0)
(20.0059 0.032334 1.14135e-21)
(20.0312 0.0288445 -2.1963e-21)
(20.0491 0.0257995 1.06095e-21)
(20.0617 0.0233028 0)
(15.9667 0.044521 0)
(16.8904 0.0858678 0)
(17.8412 0.0906439 2.25412e-21)
(18.5563 0.0813081 -2.07844e-21)
(19.0442 0.0741216 0)
(19.3744 0.0665323 0)
(19.5978 0.0588299 0)
(19.7515 0.0528392 0)
(19.8544 0.0465166 -1.10584e-21)
(19.9243 0.0407805 1.06227e-21)
(19.9731 0.0359094 0)
(20.0068 0.0317783 0)
(20.0307 0.0283354 0)
(20.0477 0.0253447 0)
(20.0599 0.0230204 0)
(16.0057 0.029285 1.6123e-21)
(16.9182 0.097333 -1.45745e-21)
(17.8582 0.104994 0)
(18.5958 0.0888007 0)
(19.0894 0.0797843 0)
(19.4013 0.068829 0)
(19.6245 0.0589771 0)
(19.7646 0.0522767 0)
(19.8568 0.047575 0)
(19.9275 0.0406454 -7.01882e-22)
(19.9724 0.0353888 1.37123e-21)
(20.0068 0.0310189 -6.74064e-22)
(20.0289 0.0275111 0)
(20.0458 0.0246866 0)
(20.0572 0.0229439 0)
(19.4019 0.136614 0)
(19.9575 0.0865874 0)
(20.06 0.100408 0)
(20.1124 0.109489 0)
(20.1417 0.11856 0)
(20.1572 0.12674 0)
(20.163 0.134365 0)
(20.1616 0.141121 0)
(20.1547 0.146489 0)
(20.1437 0.149857 0)
(20.1306 0.150678 0)
(20.1172 0.148718 0)
(20.105 0.14422 0)
(20.095 0.137933 0)
(20.0875 0.130063 0)
(17.5879 -0.265829 0)
(19.906 0.198692 0)
(19.9579 0.109644 0)
(20.001 0.100043 0)
(20.0396 0.10311 0)
(20.0703 0.107752 0)
(20.0933 0.112006 0)
(20.1092 0.11599 0)
(20.1187 0.11958 0)
(20.1224 0.122529 0)
(20.1213 0.124588 0)
(20.1165 0.125517 0)
(20.1096 0.125114 0)
(20.1019 0.123382 0)
(20.0947 0.119572 0)
(15.6946 -0.145134 -1.13363e-37)
(19.8955 0.220797 0)
(19.9867 0.108807 0)
(19.9992 0.109469 0)
(20.0266 0.111909 0)
(20.0532 0.112563 0)
(20.0753 0.112926 0)
(20.0921 0.113645 0)
(20.1037 0.114487 0)
(20.1104 0.115183 0)
(20.1128 0.115542 0)
(20.1117 0.11544 0)
(20.108 0.114801 0)
(20.1029 0.113695 0)
(20.0972 0.111298 0)
(14.0689 -0.0596778 0)
(19.7936 0.151348 0)
(20.0326 0.0706957 0)
(20.0336 0.0874054 0)
(20.0466 0.0900972 0)
(20.0647 0.0907969 0)
(20.0819 0.0918892 0)
(20.0957 0.0937334 0)
(20.1053 0.095958 0)
(20.1109 0.0983123 0)
(20.1128 0.100551 0)
(20.1116 0.102417 0)
(20.1083 0.10368 0)
(20.1037 0.104322 0)
(20.0985 0.103671 0)
(13.9719 0.0357826 0)
(19.1782 0.0262945 0)
(19.8946 0.0339875 0)
(20.0068 0.0609593 0)
(20.0356 0.0649101 0)
(20.054 0.0674394 0)
(20.0704 0.0704196 0)
(20.0845 0.0739816 0)
(20.0953 0.0778637 0)
(20.1026 0.0819157 0)
(20.1065 0.085927 0)
(20.1072 0.0896412 0)
(20.1056 0.0927828 0)
(20.1024 0.095229 0)
(20.0983 0.0963664 0)
(14.6571 0.0690856 0)
(18.3679 -0.0409024 0)
(19.5878 0.0312529 0)
(19.9092 0.0540554 0)
(19.9956 0.0591794 0)
(20.0288 0.0626574 0)
(20.0493 0.0656927 0)
(20.0655 0.0687532 0)
(20.0786 0.0720313 0)
(20.0884 0.0755522 0)
(20.0951 0.0791851 0)
(20.0987 0.0827403 0)
(20.0998 0.0859947 0)
(20.0988 0.0888134 0)
(20.0964 0.0907112 0)
(15.0548 0.0309149 4.41376e-36)
(17.8411 -0.0273692 0)
(19.2618 0.038883 0)
(19.7765 0.0545426 0)
(19.9446 0.0626862 0)
(20.0054 0.0671452 0)
(20.0343 0.069726 0)
(20.053 0.0716387 0)
(20.0672 0.0735532 0)
(20.0782 0.0756813 0)
(20.0863 0.0780142 0)
(20.0915 0.0804557 0)
(20.0943 0.0828579 0)
(20.0949 0.0851033 0)
(20.0941 0.0869122 0)
(15.1248 0.00682215 0)
(17.5399 -3.94527e-05 0)
(18.9854 0.0389957 0)
(19.6329 0.0533871 0)
(19.8854 0.0645699 0)
(19.9823 0.0700631 0)
(20.0243 0.0727567 0)
(20.047 0.0742405 0)
(20.0621 0.0754086 0)
(20.0734 0.0766248 0)
(20.0817 0.0780051 0)
(20.0874 0.0795412 0)
(20.0907 0.0811523 0)
(20.0922 0.0827339 0)
(20.0922 0.0841737 0)
(15.001 0.00241975 -8.94829e-36)
(17.3407 0.014865 0)
(18.7617 0.03613 0)
(19.4911 0.0514785 0)
(19.8173 0.0637576 0)
(19.9536 0.0700568 0)
(20.0129 0.073321 0)
(20.042 0.0749785 0)
(20.0591 0.0759744 0)
(20.0707 0.0768021 0)
(20.0791 0.0776885 0)
(20.0849 0.0786983 0)
(20.0885 0.0798088 0)
(20.0904 0.0809383 0)
(20.0909 0.0821291 0)
(14.8176 0.00369166 -9.2155e-36)
(17.1612 0.0190535 0)
(18.5725 0.0338762 0)
(19.357 0.0493813 0)
(19.7442 0.0615078 0)
(19.9189 0.0685113 0)
(19.9978 0.0724885 0)
(20.0355 0.0745718 0)
(20.0559 0.0756926 0)
(20.0685 0.0764305 0)
(20.0772 0.0770959 0)
(20.0831 0.0778154 0)
(20.0869 0.0786156 0)
(20.089 0.0794413 0)
(20.0898 0.0803802 0)
(14.6336 0.00466907 0)
(16.9828 0.0186575 0)
(18.4037 0.0320537 0)
(19.2302 0.0468706 0)
(19.6688 0.0586489 0)
(19.88 0.0663093 0)
(19.9795 0.0709156 0)
(20.0273 0.0734732 0)
(20.0521 0.0748543 0)
(20.0664 0.0756674 0)
(20.0756 0.0762752 0)
(20.0817 0.076854 0)
(20.0856 0.0774693 0)
(20.0879 0.0780912 0)
(20.0889 0.0788092 0)
(14.4653 0.0047553 9.42297e-36)
(16.8092 0.0170535 0)
(18.2468 0.0301157 0)
(19.1081 0.0440803 0)
(19.5919 0.0557152 0)
(19.838 0.0638996 0)
(19.9584 0.068987 0)
(20.0175 0.0719835 0)
(20.0475 0.0736644 0)
(20.0641 0.0746272 0)
(20.0741 0.0752657 0)
(20.0805 0.0757957 0)
(20.0846 0.0763151 0)
(20.087 0.0768189 0)
(20.0882 0.077403 0)
(14.3138 0.00444148 0)
(16.6451 0.015477 0)
(18.098 0.0281175 0)
(18.9889 0.041379 0)
(19.5137 0.0529928 0)
(19.7935 0.0615259 0)
(19.9351 0.0669799 0)
(20.006 0.0703602 0)
(20.0421 0.0723321 0)
(20.0614 0.0734663 0)
(20.0726 0.0741732 0)
(20.0795 0.0747005 0)
(20.0838 0.0751747 0)
(20.0863 0.0756156 0)
(20.0876 0.0761385 0)
(14.1757 0.00405734 1.84236e-35)
(16.4917 0.0142324 0)
(17.9559 0.0262686 0)
(18.8724 0.0389546 0)
(19.4348 0.050529 0)
(19.7473 0.0592682 0)
(19.9098 0.065028 0)
(19.993 0.0687387 0)
(20.0357 0.0709761 0)
(20.0583 0.0722823 0)
(20.0709 0.0730723 0)
(20.0784 0.0736167 0)
(20.083 0.0740666 0)
(20.0857 0.0744631 0)
(20.0871 0.0749106 0)
(14.0475 0.00372798 -1.82214e-35)
(16.3483 0.0132579 0)
(17.8204 0.0246095 0)
(18.7593 0.0367441 0)
(19.3558 0.0482224 0)
(19.6995 0.0570966 0)
(19.883 0.063165 0)
(19.9788 0.0671612 0)
(20.0286 0.0696367 0)
(20.0548 0.0711082 0)
(20.0691 0.0719872 0)
(20.0773 0.0725583 0)
(20.0822 0.0729932 0)
(20.0851 0.0733509 0)
(20.0867 0.0737305 0)
(13.9274 0.00347114 0)
(16.214 0.012392 0)
(17.6918 0.023057 0)
(18.6503 0.0346311 0)
(19.2765 0.0459592 0)
(19.65 0.0549766 0)
(19.8547 0.0613798 0)
(19.9635 0.0656276 0)
(20.0207 0.0683212 0)
(20.0508 0.069953 0)
(20.0671 0.0709265 0)
(20.0762 0.0715353 0)
(20.0815 0.071968 0)
(20.0846 0.0723025 0)
(20.0863 0.0726569 0)
(13.8153 0.00325499 0)
(16.0884 0.0115458 0)
(17.5702 0.0215671 0)
(18.5452 0.0326036 0)
(19.197 0.0437395 0)
(19.5988 0.0529256 0)
(19.8251 0.0596509 0)
(19.9472 0.0641291 0)
(20.0122 0.0670306 0)
(20.0465 0.0688208 0)
(20.0649 0.0698946 0)
(20.075 0.0705514 0)
(20.0808 0.0709946 0)
(20.0842 0.0713171 0)
(20.086 0.0716495 0)
(13.711 0.00304858 1.77851e-35)
(15.9709 0.0107396 0)
(17.4551 0.0201764 0)
(18.4437 0.0307275 0)
(19.1176 0.0416455 0)
(19.5462 0.0509793 0)
(19.7941 0.0579765 0)
(19.9299 0.0626724 0)
(20.0029 0.065774 0)
(20.0418 0.0677182 0)
(20.0625 0.0688941 0)
(20.0738 0.0696047 0)
(20.0801 0.0700646 0)
(20.0837 0.0703805 0)
(20.0857 0.0706877 0)
(13.6139 0.0028456 -1.75767e-35)
(15.8608 0.0100309 0)
(17.3459 0.0189395 0)
(18.3454 0.0290539 0)
(19.0386 0.0397269 0)
(19.4925 0.0491493 0)
(19.7618 0.056358 0)
(19.9116 0.0612658 0)
(19.993 0.0645592 0)