/*--------------------------------*- C++ -*----------------------------------*\
| =========                 |                                                 |
| \\      /  F ield         | OpenFOAM: The Open Source CFD Toolbox           |
|  \\    /   O peration     | Version:  2.3.0                                 |
|   \\  /    A nd           | Web:      www.OpenFOAM.org                      |
|    \\/     M anipulation  |                                                 |
\*---------------------------------------------------------------------------*/
FoamFile
{
    version     2.0;
    format      ascii;
    class       volScalarField;
    location    "8000";
    object      nuTilda;
}
// * * * * * * * * * * * * * * * * * * * * * * * * * * * * * * * * * * * * * //

dimensions      [0 2 -1 0 0 0 0];

internalField   nonuniform List<scalar> 
6275
(
0.0629676
0.0569993
0.0514661
0.0465553
0.0424327
0.0391767
0.0367112
0.0344243
0.03192
0.0291399
0.0261371
0.0234785
0.0697534
0.0655158
0.0617043
0.0583573
0.0555062
0.0531713
0.0513549
0.0500275
0.0491352
0.0486174
0.0484183
0.0484838
0.0755712
0.0725139
0.0698285
0.0675295
0.0656173
0.0640805
0.0628978
0.0620395
0.0614706
0.0611542
0.0610532
0.061132
0.0804832
0.0782448
0.0763036
0.0746555
0.0732902
0.0721923
0.0713425
0.0707201
0.0703036
0.0700706
0.0700004
0.0700724
0.0845932
0.0829201
0.0814705
0.0802368
0.0792085
0.0783736
0.0777197
0.0772341
0.0769048
0.0767194
0.076666
0.0767325
0.0880281
0.0867472
0.0856306
0.0846722
0.0838645
0.0831996
0.0826711
0.0822727
0.0819985
0.0818424
0.0817983
0.0818593
0.090905
0.0899021
0.089017
0.0882481
0.0875916
0.0870434
0.0866009
0.0862624
0.0860263
0.0858908
0.085853
0.0859092
0.0933282
0.0925258
0.0918048
0.0911707
0.0906225
0.0901583
0.0897778
0.0894822
0.0892743
0.0891548
0.0891225
0.089175
0.0953762
0.0947273
0.0941231
0.0935877
0.0931195
0.0927189
0.0923856
0.0921208
0.0919341
0.0918285
0.0918032
0.0918544
0.0971123
0.0965867
0.0960615
0.0956017
0.0951919
0.0948411
0.09455
0.0943077
0.0941379
0.0940446
0.0940299
0.0940883
0.0248695
0.0287603
0.0311632
0.0336068
0.0365487
0.0401076
0.0442692
0.0489745
0.054151
0.0597206
0.065601
0.0717386
0.048723
0.0491709
0.0499482
0.0511135
0.0527145
0.0547864
0.0573461
0.0603891
0.0638907
0.0678086
0.0720922
0.0767212
0.0613469
0.0617166
0.0623006
0.0631303
0.0642377
0.0656503
0.0673919
0.0694781
0.0719152
0.0746982
0.0778137
0.081273
0.070263
0.0705823
0.0710623
0.0717207
0.0725759
0.0736449
0.0749437
0.0764861
0.0782827
0.0803395
0.08266
0.0852759
0.0769053
0.07719
0.0776047
0.0781592
0.0788628
0.0797245
0.0807537
0.0819587
0.0833471
0.0849257
0.0867009
0.0887108
0.0820173
0.0822756
0.0826448
0.0831292
0.0837328
0.084459
0.0853115
0.0862942
0.0874109
0.0886658
0.0900642
0.0916396
0.0860552
0.086293
0.0866285
0.0870627
0.087596
0.0882277
0.0889573
0.089785
0.090712
0.0917404
0.0928741
0.094135
0.08931
0.0895309
0.0898407
0.0902377
0.0907192
0.0912822
0.091922
0.0926371
0.0934262
0.0942888
0.0952287
0.0962562
0.0919761
0.092183
0.0924742
0.0928432
0.0932839
0.0937961
0.0943665
0.0949974
0.0956844
0.0964193
0.0972133
0.0980615
0.0941867
0.094384
0.0946642
0.0950136
0.0954161
0.0958919
0.0964019
0.0969717
0.0975899
0.098215
0.0989033
0.0996177
0.0546074
0.0446291
0.0353208
0.0275351
0.0213593
0.0165306
0.0127843
0.00990765
0.00780706
0.00652042
0.00525534
0.0037551
0.0560073
0.0474741
0.0394662
0.0323462
0.026372
0.0216431
0.017973
0.0153483
0.013336
0.0113866
0.00927591
0.00677387
0.0575712
0.0503589
0.0435016
0.0371063
0.0313676
0.0267346
0.0231384
0.0205329
0.0180734
0.0155137
0.0126765
0.0093829
0.0590805
0.0528729
0.0468572
0.0410477
0.0356533
0.0312369
0.0278994
0.0249629
0.0220674
0.0190032
0.0155903
0.01166
0.0604418
0.0549726
0.0495642
0.0442068
0.0391623
0.0349547
0.0316744
0.0285582
0.0253738
0.0219412
0.0180838
0.0136288
0.0616171
0.0567122
0.0517649
0.0467676
0.0420487
0.0380351
0.0347524
0.0315137
0.0281257
0.0244174
0.0202085
0.0153144
0.0626464
0.058166
0.0535848
0.0488859
0.044483
0.0407463
0.0373826
0.0340177
0.0304583
0.0265244
0.022023
0.0167543
0.0634693
0.0593757
0.0551078
0.0506612
0.0465229
0.0429803
0.0395986
0.0361477
0.0324527
0.0283319
0.023581
0.0179853
0.0641691
0.0604
0.0564049
0.0521849
0.0482564
0.0448347
0.0414621
0.03796
0.0341666
0.0298976
0.0249379
0.0190534
0.0647965
0.0612807
0.0575272
0.0535212
0.049751
0.0464033
0.0430356
0.0395002
0.0356412
0.0312719
0.0261879
0.0201177
0.00195478
0.00137064
0.00184474
0.00239163
0.00303708
0.00393452
0.00529767
0.00713949
0.00946829
0.0123656
0.0159171
0.0202262
0.00381181
0.00206236
0.00227056
0.00288621
0.0036863
0.00477624
0.00623526
0.00811484
0.0104112
0.0131921
0.0165277
0.0204885
0.00561283
0.00284347
0.00271643
0.00344317
0.00441559
0.0056634
0.00721307
0.00912247
0.0113824
0.0140447
0.0171664
0.0208199
0.00719678
0.00362532
0.00318107
0.00403248
0.00516419
0.00653847
0.0081693
0.0101014
0.0123241
0.0148752
0.0178012
0.0211542
0.00856299
0.00436228
0.00365736
0.00462811
0.00589615
0.00737179
0.00907896
0.0110284
0.0132143
0.0156631
0.0184101
0.0214923
0.00973246
0.00503548
0.0041337
0.00521143
0.00659628
0.00816107
0.00993266
0.0118951
0.0140449
0.0163993
0.0189823
0.0218188
0.0107311
0.00564122
0.00459953
0.00577155
0.0072582
0.00890315
0.0107263
0.012698
0.0148128
0.0170805
0.0195171
0.022149
0.0115823
0.00618231
0.00504462
0.00629989
0.00787709
0.00959405
0.0114599
0.0134378
0.0155192
0.0177083
0.0200151
0.022458
0.0123051
0.00665252
0.00547433
0.00680947
0.00846512
0.0102413
0.0121392
0.014116
0.0161654
0.0182844
0.0204746
0.0227408
0.0131015
0.00716801
0.00584046
0.00720424
0.00891686
0.0107673
0.012698
0.0147299
0.0167813
0.0188462
0.0209011
0.0229973
0.00129916
0.00450594
0.00933812
0.014654
0.0199062
0.0248541
0.0294665
0.0339389
0.0383725
0.0432041
0.0493834
0.0564617
0.0011921
0.00348291
0.00748672
0.0114477
0.015633
0.02007
0.024655
0.0292849
0.0339089
0.0387248
0.0441491
0.0509435
0.00078048
0.00227131
0.00551372
0.0101966
0.0147817
0.0191211
0.0233307
0.0275077
0.0317437
0.0361991
0.0411572
0.0471717
0.000715894
0.00196583
0.00483543
0.00914654
0.0141465
0.0189618
0.0234279
0.0275132
0.0313427
0.0352067
0.0395208
0.0448151
0.000642055
0.00178793
0.00439731
0.00829488
0.0134086
0.0186382
0.0235862
0.0280499
0.0319232
0.0353923
0.0389997
0.0434895
0.000629247
0.00167057
0.00410843
0.00773734
0.0127523
0.0182666
0.0236239
0.0285544
0.0327968
0.0362652
0.0393602
0.0429683
0.000614917
0.00158717
0.00390138
0.00733387
0.012169
0.0178614
0.0235588
0.0289124
0.0336162
0.0373854
0.0403125
0.0432287
0.000606586
0.00152358
0.00374289
0.00702681
0.0116792
0.017454
0.0234339
0.0291561
0.0343007
0.0384967
0.0415586
0.0440188
0.000597793
0.00147309
0.00361666
0.00678167
0.0112708
0.017057
0.0232712
0.0293202
0.0348645
0.0395071
0.0428911
0.0451989
0.000589889
0.00143222
0.00351419
0.0065827
0.0109332
0.0166815
0.0230837
0.029426
0.0353318
0.040399
0.0441781
0.04653
0.000581944
0.00139806
0.00342838
0.00641655
0.0106493
0.0163284
0.0228757
0.0294825
0.0357176
0.0411782
0.0453698
0.0479385
0.000573958
0.00136865
0.00335463
0.00627389
0.0104052
0.015998
0.0226496
0.0294947
0.036032
0.0418562
0.046453
0.0493361
0.000565734
0.00134236
0.00328877
0.00614713
0.0101886
0.0156873
0.0224041
0.0294613
0.0362782
0.04244
0.0474269
0.0506759
0.00055731
0.00131846
0.00322889
0.00603221
0.00999284
0.0153963
0.0221427
0.0293847
0.0364603
0.0429377
0.0483002
0.0519469
0.000548722
0.00129639
0.00317362
0.00592642
0.00981298
0.0151234
0.02187
0.0292685
0.036583
0.0433556
0.0490765
0.0531241
0.000540013
0.00127603
0.00312257
0.00582889
0.00964761
0.0148692
0.0215935
0.0291239
0.036659
0.0437081
0.0497679
0.0542055
0.000531138
0.00125682
0.00307453
0.00573751
0.00949315
0.0146303
0.0213141
0.0289511
0.0366887
0.0439959
0.0503715
0.0551717
0.000522126
0.00123842
0.00302854
0.00565025
0.00934612
0.0144022
0.0210309
0.0287487
0.0366696
0.0442157
0.0508853
0.0560302
0.000513017
0.00122082
0.00298459
0.00556708
0.00920643
0.0141853
0.0207495
0.0285251
0.0366112
0.0443798
0.0513272
0.056811
0.000503818
0.00120368
0.00294182
0.00548635
0.00907118
0.0139751
0.0204673
0.0282773
0.0365088
0.0444828
0.0516864
0.0574771
0.000494604
0.00118713
0.00290054
0.00540856
0.00894117
0.0137733
0.0201897
0.0280139
0.0363715
0.0445342
0.0519764
0.0580617
0.000485395
0.00117104
0.00286039
0.00533301
0.0088151
0.0135778
0.0199159
0.0277372
0.0362037
0.0445407
0.0522066
0.0585726
0.00047624
0.00115563
0.00282185
0.00526044
0.00869409
0.0133901
0.0196498
0.0274539
0.0360142
0.0445137
0.0523918
0.0590297
0.000467212
0.00114091
0.0027848
0.00519047
0.00857716
0.0132085
0.0193893
0.0271608
0.0357956
0.0444426
0.0525167
0.0594012
0.000458456
0.00112764
0.00275102
0.00512624
0.00846917
0.0130399
0.0191453
0.0268759
0.0355683
0.0443467
0.0526027
0.0597267
0.000449915
0.00111593
0.00272102
0.00506903
0.0083727
0.0128888
0.0189253
0.0266145
0.0353545
0.0442524
0.0526777
0.0600304
0.000441405
0.00110515
0.00269338
0.00501651
0.00828418
0.0127499
0.0187224
0.0263716
0.0351567
0.0441663
0.0527464
0.0602983
0.000432665
0.00109456
0.00266629
0.0049653
0.00819853
0.012616
0.0185261
0.0261322
0.0349586
0.0440765
0.0528006
0.0605227
0.000423564
0.0010829
0.00263684
0.00490984
0.00810584
0.0124717
0.0183135
0.0258622
0.034713
0.0439266
0.0527758
0.0606321
0.000414344
0.00107122
0.00260718
0.0048541
0.00801298
0.0123272
0.018101
0.0255862
0.0344502
0.0437564
0.0527479
0.0608182
0.000405016
0.00105913
0.00257664
0.0047967
0.00791748
0.0121793
0.0178834
0.025298
0.0341588
0.0435443
0.0526627
0.0608921
0.000395706
0.00104739
0.00254697
0.00474125
0.00782558
0.0120374
0.0176759
0.0250227
0.0338766
0.0433377
0.0525936
0.061039
0.000386352
0.00103539
0.00251668
0.00468443
0.00773156
0.0118922
0.0174627
0.0247344
0.0335646
0.0430815
0.0524382
0.0609909
0.000377053
0.00102355
0.0024867
0.00462834
0.00763843
0.0117485
0.0172515
0.0244464
0.0332422
0.0428002
0.0522489
0.0609347
0.000367734
0.00101181
0.00245716
0.0045732
0.00754748
0.0116083
0.0170462
0.0241661
0.032927
0.0425268
0.0520753
0.0609155
0.000358289
0.000999475
0.00242636
0.00451595
0.00745314
0.0114637
0.0168341
0.0238739
0.0325906
0.0422292
0.051876
0.0608589
0.000348824
0.000986753
0.0023946
0.00445695
0.0073561
0.0113148
0.0166169
0.0235735
0.0322341
0.0418975
0.051633
0.0607463
0.00033938
0.000974661
0.00236443
0.00440067
0.00726335
0.011173
0.0164101
0.0232876
0.0318904
0.0415739
0.0514041
0.060686
0.000329777
0.000963151
0.00233571
0.00434709
0.0071748
0.0110369
0.0162115
0.0230117
0.0315511
0.0412384
0.0511339
0.060504
0.000319697
0.000952977
0.00231051
0.0042998
0.00709656
0.0109166
0.0160356
0.0227682
0.0312507
0.0409418
0.0509092
0.0604218
0.000308483
0.000943513
0.00228772
0.00425731
0.00702599
0.0108079
0.0158765
0.0225467
0.0309758
0.0406664
0.0506904
0.0602955
0.000295677
0.000934265
0.0022663
0.00421746
0.00696004
0.010706
0.015727
0.0223379
0.0307135
0.0403956
0.0504603
0.0601363
0.000281282
0.000924823
0.00224532
0.00417886
0.00689619
0.0106077
0.0155825
0.0221355
0.0304584
0.0401308
0.0502361
0.0599942
0.000266248
0.000914465
0.00222245
0.00413708
0.00682748
0.0105019
0.0154269
0.0219158
0.0301768
0.0398324
0.049971
0.059792
0.000252067
0.000903444
0.00219774
0.0040918
0.00675341
0.0103886
0.0152609
0.0216827
0.0298755
0.039507
0.0496802
0.0595883
0.000239679
0.000892619
0.00217261
0.00404574
0.00667788
0.0102733
0.0150926
0.0214465
0.0295698
0.0391756
0.049386
0.0593817
0.000229297
0.000881928
0.00214685
0.00399794
0.00659942
0.0101533
0.0149178
0.0212012
0.0292472
0.0388092
0.049024
0.0590308
0.000220593
0.000872801
0.00212418
0.00395564
0.00652947
0.0100461
0.0147618
0.0209837
0.0289634
0.0384891
0.0487281
0.0588402
0.000213256
0.00086491
0.0021038
0.00391758
0.00646658
0.00994945
0.0146206
0.0207861
0.0287052
0.0381982
0.0484565
0.0586318
0.000207076
0.000857574
0.00208429
0.00388094
0.00640596
0.00985643
0.0144844
0.0205946
0.0284526
0.0379088
0.0481765
0.0583969
0.000201926
0.000850856
0.00206554
0.00384575
0.00634771
0.00976669
0.0143529
0.0204091
0.0282069
0.0376256
0.0479037
0.0581811
0.00019788
0.0008446
0.00204712
0.0038107
0.00628956
0.00967682
0.0142203
0.0202209
0.0279548
0.0373299
0.0476072
0.0579116
0.000195344
0.000839107
0.00202957
0.00377731
0.00623402
0.00959138
0.0140952
0.0200447
0.0277208
0.0370566
0.0473417
0.0577135
0.000194916
0.000834774
0.00201365
0.0037467
0.00618324
0.00951287
0.0139795
0.0198812
0.0275044
0.0368085
0.0471087
0.0575412
0.000196075
0.000829425
0.00199468
0.00371055
0.00612348
0.00942127
0.0138449
0.0196893
0.0272421
0.0364836
0.0467433
0.0570991
0.000194347
0.000823618
0.0019759
0.00367481
0.00606429
0.00933022
0.0137117
0.0195015
0.0269898
0.0361821
0.0464503
0.0569303
0.000188412
0.000817664
0.00195896
0.0036428
0.00601121
0.00924873
0.0135926
0.0193346
0.026769
0.0359252
0.0462088
0.0567581
0.000181153
0.000811971
0.00194335
0.00361354
0.00596271
0.009174
0.0134833
0.0191811
0.026565
0.035685
0.0459725
0.0565579
0.000173943
0.000806698
0.00192887
0.00358617
0.00591729
0.00910382
0.01338
0.019035
0.0263685
0.0354475
0.0457261
0.0563292
0.000167321
0.000801884
0.00191558
0.00356101
0.00587505
0.00903815
0.0132825
0.0188957
0.0261793
0.0352157
0.0454823
0.0561027
0.000161938
0.000797403
0.00190319
0.0035373
0.00583511
0.00897545
0.0131889
0.0187609
0.0259946
0.034988
0.0452413
0.0558753
0.000158407
0.000793411
0.00189238
0.00351644
0.00579967
0.00891982
0.0131057
0.0186417
0.0258332
0.0347943
0.0450479
0.055724
0.000156552
0.000790606
0.00188445
0.00350066
0.00577201
0.00887494
0.0130372
0.0185422
0.0256991
0.0346373
0.0449002
0.055625
0.00015532
0.000787576
0.00187627
0.00348434
0.00574351
0.00882852
0.0129647
0.0184333
0.0255422
0.0344299
0.0446466
0.0552932
0.00015423
0.000784426
0.00186763
0.00346702
0.00571261
0.00877727
0.0128836
0.0183096
0.0253628
0.0341954
0.0443877
0.0550684
0.00015293
0.000780192
0.00185649
0.003445
0.00567428
0.00871465
0.0127855
0.0181599
0.0251432
0.0338997
0.0440332
0.0546451
0.000151737
0.000776393
0.00184618
0.00342426
0.00563743
0.00865411
0.0126906
0.0180172
0.0249402
0.0336452
0.0437842
0.0545215
0.000150871
0.000774321
0.00183961
0.00340994
0.0056108
0.00860858
0.0126177
0.0179065
0.024785
0.0334619
0.0436241
0.0544275
0.000150514
0.000774937
0.00183919
0.00340639
0.0056005
0.00858645
0.0125763
0.0178371
0.0246817
0.0333397
0.0435194
0.0543484
0.000150822
0.000779046
0.00184592
0.0034147
0.0056078
0.0085881
0.0125652
0.0178029
0.0246151
0.0332495
0.0434321
0.0542582
0.000151662
0.00078666
0.00186155
0.00343822
0.00563692
0.00861763
0.0125863
0.0178024
0.0245785
0.033181
0.0433628
0.0542021
0.000153726
0.000800204
0.00188698
0.00347714
0.00568791
0.00867536
0.0126394
0.0178327
0.0245629
0.0331155
0.0432841
0.054122
0.000158554
0.000827561
0.00194265
0.00356078
0.00579418
0.00879273
0.0127495
0.0179079
0.0245682
0.0330331
0.0431629
0.0539795
0.000164403
0.000847997
0.00200191
0.00366544
0.00593961
0.00896322
0.0129178
0.0180354
0.0246052
0.0329482
0.0430504
0.0539
0.000180311
0.00108299
0.00237637
0.00412402
0.00643532
0.00945617
0.0133713
0.018413
0.0248682
0.033067
0.0431054
0.0539442
0.00130992
0.00504487
0.00948921
0.0144827
0.0199685
0.0258907
0.0321895
0.0388041
0.0456677
0.0527191
0.0599033
0.0671897
0.000434693
0.00188668
0.00503528
0.00902347
0.013866
0.0194821
0.0257821
0.0326456
0.0399499
0.0475702
0.0553881
0.0633081
0.000606229
0.00172439
0.00414045
0.00737342
0.0114755
0.0164333
0.0222132
0.0287466
0.0359297
0.0436279
0.0516861
0.0599512
0.000689091
0.00159443
0.00365241
0.00644477
0.010049
0.0144947
0.0198004
0.0259482
0.0328748
0.0404679
0.0485729
0.057013
0.000702412
0.00140911
0.00322971
0.00572171
0.00897465
0.0130399
0.0179651
0.0237679
0.0304212
0.0378442
0.0459
0.0544171
0.000706451
0.00125637
0.00289977
0.00516602
0.00814997
0.0119138
0.0165226
0.0220184
0.028404
0.0356294
0.043585
0.0521204
0.000706515
0.00114229
0.00264627
0.00473361
0.00750159
0.0110176
0.0153577
0.0205812
0.0267142
0.0337346
0.0415609
0.050058
0.00070516
0.00105385
0.00244339
0.00438407
0.0069726
0.0102802
0.0143896
0.0193721
0.025272
0.0320907
0.0397715
0.0481948
0.000704036
0.000982746
0.00227647
0.00409415
0.00653016
0.00965944
0.0135681
0.0183361
0.0240218
0.0306441
0.0381654
0.0464681
0.000703056
0.00092461
0.00213699
0.00384963
0.00615447
0.00912893
0.012861
0.0174371
0.0229257
0.0293613
0.0367259
0.0449473
0.00070205
0.000876193
0.00201847
0.00364033
0.00583073
0.00866953
0.0122452
0.0166485
0.0219563
0.028216
0.0354277
0.0435359
0.000700958
0.000835253
0.00191634
0.0034586
0.00554816
0.00826689
0.0117026
0.0159496
0.0210914
0.027186
0.0342485
0.0422377
0.000700117
0.000802733
0.00182722
0.00329902
0.0052988
0.00791022
0.01122
0.0153248
0.0203135
0.0262528
0.0331697
0.0410334
0.000700847
0.000787148
0.00174867
0.00315752
0.00507667
0.00759156
0.0107873
0.0147622
0.0196092
0.0254021
0.0321781
0.0399185
0.000703305
0.000785701
0.00167893
0.00303104
0.00487719
0.00730472
0.0103966
0.0142521
0.0189676
0.0246228
0.031264
0.0388865
0.000706466
0.00078931
0.00161675
0.00291734
0.00469741
0.00704485
0.0100416
0.0137871
0.0183803
0.023906
0.0304193
0.0379297
0.000709471
0.000793226
0.00156111
0.00281471
0.0045347
0.00680808
0.0097172
0.013361
0.0178401
0.0232439
0.0296347
0.0370306
0.000712008
0.000796138
0.0015111
0.00272161
0.00438649
0.00659128
0.0094194
0.0129686
0.017341
0.0226292
0.0289009
0.0361774
0.000714059
0.000797966
0.00146595
0.00263672
0.0042507
0.00639182
0.00914483
0.0126059
0.0168783
0.0220577
0.0282178
0.0353982
0.000715697
0.000798911
0.00142515
0.00255895
0.00412574
0.00620766
0.00889077
0.0122697
0.0164483
0.0215251
0.027579
0.0346532
0.000717016
0.000799389
0.0013902
0.00248741
0.00401023
0.00603688
0.00865482
0.0119567
0.0160471
0.0210266
0.0269773
0.0339417
0.000718244
0.000800852
0.00136822
0.00242163
0.00390306
0.00587797
0.00843486
0.0116645
0.0156715
0.020558
0.0264082
0.0332656
0.000719637
0.000804596
0.00136128
0.00236132
0.0038033
0.00572955
0.00822915
0.0113906
0.0153187
0.0201166
0.0258717
0.0326365
0.000721268
0.000810416
0.00136306
0.00230608
0.00371022
0.00559048
0.00803615
0.0111333
0.0149863
0.0196991
0.0253597
0.0320141
0.000723023
0.000817129
0.00136748
0.00225527
0.00362323
0.00546037
0.00785469
0.0108908
0.0146725
0.0193046
0.0248804
0.0314767
0.000724728
0.000823745
0.00137154
0.00220839
0.00354192
0.00533851
0.00768374
0.010662
0.0143762
0.0189324
0.0244294
0.0309505
0.000726325
0.000829722
0.00137416
0.00216488
0.0034658
0.00522408
0.00752247
0.0104459
0.0140961
0.0185806
0.0240015
0.0304407
0.000727749
0.000834763
0.00137517
0.00212436
0.00339433
0.00511626
0.00736995
0.0102413
0.0138308
0.0182468
0.0235926
0.0299476
0.000728995
0.00083904
0.00137474
0.00208643
0.00332712
0.00501441
0.00722548
0.0100474
0.013579
0.0179296
0.023204
0.0294911
0.000730071
0.000842452
0.00137302
0.00205084
0.00326366
0.004918
0.00708853
0.00986336
0.0133399
0.0176277
0.0228333
0.0290468
0.000730933
0.000845255
0.0013703
0.00201744
0.00320371
0.00482666
0.0069584
0.00968837
0.0131124
0.0173404
0.0224817
0.0286373
0.000731719
0.000847585
0.00136685
0.0019866
0.00314703
0.00473995
0.00683469
0.0095219
0.0128958
0.0170668
0.0221461
0.0282344
0.000732421
0.000849497
0.00136323
0.00196016
0.00309338
0.00465755
0.00671684
0.00936324
0.0126893
0.0168054
0.0218232
0.0278367
0.000733068
0.000851374
0.00136057
0.00194169
0.00304291
0.00457916
0.00660454
0.00921194
0.012492
0.0165552
0.0215122
0.0274537
0.00073372
0.000853392
0.00136008
0.00193273
0.00299563
0.00450455
0.00649736
0.00906734
0.0123033
0.0163148
0.0212111
0.0270803
0.000734383
0.000856007
0.00136228
0.00193114
0.00295164
0.00443354
0.00639539
0.00892907
0.0121225
0.0160846
0.0209266
0.0267563
0.000735183
0.000859174
0.00136673
0.00193359
0.00291065
0.00436606
0.00629833
0.00879668
0.0119491
0.0158625
0.0206459
0.0263793
0.000736052
0.000862826
0.00137268
0.00193756
0.00287243
0.00430192
0.00620567
0.00866978
0.0117826
0.0156501
0.0203862
0.026121
0.000737016
0.000866771
0.0013793
0.00194162
0.00283666
0.00424088
0.00611716
0.00854817
0.0116229
0.015446
0.0201299
0.0257623
0.000738029
0.000870703
0.00138595
0.00194505
0.00280295
0.00418272
0.0060324
0.00843141
0.0114694
0.0152498
0.0198858
0.0254894
0.000739053
0.000874573
0.00139224
0.00194756
0.00277111
0.00412721
0.00595121
0.00831923
0.0113217
0.0150606
0.0196467
0.0251702
0.000740065
0.000878099
0.00139791
0.00194908
0.00274081
0.00407413
0.00587331
0.00821142
0.0111796
0.0148777
0.0194148
0.0248865
0.00074099
0.000881367
0.00140292
0.00194963
0.00271203
0.00402339
0.00579852
0.00810766
0.0110426
0.0147013
0.0191938
0.024633
0.000741928
0.000884338
0.00140719
0.00194927
0.00268458
0.00397477
0.00572673
0.00800778
0.0109106
0.0145316
0.0189832
0.0243848
0.000742854
0.00088702
0.00141081
0.00194814
0.00265857
0.0039282
0.00565768
0.00791156
0.0107834
0.0143685
0.0187805
0.0241355
0.000743769
0.000889464
0.00141382
0.0019464
0.00263443
0.00388357
0.00559132
0.00781892
0.010661
0.0142117
0.0185851
0.0238983
0.000744668
0.000891613
0.00141632
0.00194444
0.00261314
0.00384085
0.00552744
0.00772961
0.010543
0.0140605
0.0183964
0.0236668
0.000745567
0.000893682
0.00141858
0.00194283
0.00259644
0.00380007
0.00546594
0.00764361
0.0104293
0.013915
0.0182152
0.0234511
0.000746468
0.000895552
0.00142078
0.00194227
0.00258553
0.00376142
0.00540691
0.0075611
0.0103199
0.0137749
0.0180408
0.0232379
0.000747329
0.000897453
0.00142331
0.00194331
0.00258035
0.00372502
0.00535024
0.00748189
0.0102144
0.0136394
0.0178696
0.0230119
0.000748288
0.000899499
0.00142638
0.00194616
0.00257962
0.00369091
0.005296
0.00740589
0.0101128
0.0135088
0.0177056
0.0228224
0.000749326
0.00090167
0.00143013
0.00195064
0.00258172
0.00365899
0.00524405
0.00733286
0.0100149
0.0133828
0.0175476
0.0226278
0.000750422
0.000904067
0.00143455
0.00195637
0.00258535
0.0036291
0.0051944
0.00726276
0.00992069
0.0132615
0.0173946
0.022433
0.000751623
0.000906599
0.00143952
0.00196294
0.00258957
0.00360106
0.00514691
0.0071954
0.00982998
0.0131444
0.0172461
0.0222438
0.000752878
0.000909318
0.00144494
0.00196996
0.00259387
0.00357466
0.00510148
0.00713073
0.00974262
0.0130311
0.0171009
0.0220554
0.000754235
0.000912108
0.00145054
0.0019771
0.00259788
0.00354977
0.00505812
0.00706866
0.00965861
0.0129218
0.0169612
0.0218841
0.000755686
0.000914957
0.00145625
0.00198415
0.00260147
0.00352625
0.00501668
0.00700909
0.00957748
0.0128162
0.0168256
0.0217102
0.000757233
0.000917837
0.00146191
0.00199095
0.0026046
0.003504
0.00497717
0.00695196
0.00949961
0.0127145
0.0166962
0.0215586
0.000758871
0.000920646
0.00146742
0.0019974
0.0026072
0.00348296
0.00493949
0.00689732
0.00942474
0.0126168
0.0165727
0.0214073
0.000760566
0.000923411
0.00147273
0.00200346
0.00260933
0.00346306
0.00490362
0.00684515
0.00935322
0.0125236
0.0164545
0.0212587
0.000762378
0.000926102
0.00147779
0.00200912
0.00261102
0.00344429
0.00486959
0.00679532
0.00928486
0.0124342
0.0163396
0.0211053
0.000764307
0.000928749
0.00148263
0.0020144
0.00261236
0.00342674
0.00483744
0.00674811
0.00921963
0.012349
0.0162312
0.0209809
0.000766368
0.000931331
0.00148721
0.0020193
0.00261339
0.00341046
0.00480708
0.00670344
0.00915802
0.0122682
0.0161284
0.0208509
0.000768583
0.00093387
0.00149158
0.00202387
0.00261425
0.00339562
0.00477866
0.00666133
0.00909979
0.0121921
0.0160318
0.0207317
0.000770988
0.000936416
0.00149575
0.00202818
0.00261511
0.00338262
0.0047525
0.00662225
0.00904532
0.0121204
0.0159379
0.0205925
0.000773608
0.000938898
0.00149977
0.00203235
0.00261615
0.00337183
0.00472845
0.00658609
0.0089951
0.0120537
0.0158536
0.0205203
0.000776479
0.000941467
0.00150374
0.00203645
0.00261755
0.00336336
0.00470693
0.00655321
0.00894925
0.0119926
0.0157735
0.020385
0.000779668
0.00094405
0.00150768
0.0020407
0.00261966
0.00335787
0.00468818
0.00652417
0.00890834
0.0119373
0.0157009
0.0203075
0.000783235
0.000946775
0.00151174
0.00204512
0.00262266
0.00335552
0.0046729
0.00649941
0.00887295
0.0118886
0.0156346
0.0202016
0.000787381
0.000949741
0.00151598
0.00205003
0.00262677
0.00335602
0.00466158
0.0064801
0.0088444
0.0118478
0.0155779
0.0201399
0.000792226
0.000952827
0.00152053
0.00205548
0.00263212
0.00335965
0.00465482
0.00646685
0.00882348
0.0118166
0.0155367
0.0201156
0.000798124
0.000956947
0.00152638
0.00206251
0.0026397
0.00336712
0.00465545
0.00646259
0.00881325
0.011798
0.0155102
0.0200694
0.000804828
0.000958191
0.0015298
0.0020679
0.00264616
0.0033747
0.00465882
0.00646406
0.00881163
0.0117914
0.0154991
0.0200654
0.000820497
0.000979731
0.00155168
0.00209156
0.00267318
0.00340949
0.0047037
0.00650926
0.00885228
0.0118227
0.0155179
0.0200527
0.00075819
0.000902196
0.00149911
0.00204209
0.00261435
0.0033371
0.00461785
0.0064222
0.00877208
0.0117581
0.0154779
0.0200299
0.0855492
0.134286
0.0914531
0.0256743
0.0816821
0.137376
0.0875014
0.0880357
0.069568
0.0778836
0.140191
0.0918134
0.0839901
0.114604
0.129256
0.0764458
0.115628
0.140046
0.114279
0.0748423
0.120271
0.131807
0.1085
0.115352
0.0850599
0.0919548
0.135517
0.075311
0.081976
0.0693827
0.0798328
0.124738
0.0772438
0.13999
0.0722603
0.0974437
0.0910185
0.338772
0.076067
0.0687347
0.0771313
0.0677067
0.0860935
0.137349
0.0887783
0.128875
0.117306
0.141283
0.124661
0.121006
0.199724
0.0719038
0.139748
0.0342103
0.129487
0.106236
0.359867
0.075316
0.143671
0.132821
0.139753
0.139268
0.13856
0.105716
0.0987419
0.0908288
0.0674282
0.120472
0.136144
0.0900363
0.137806
0.0866163
0.101486
0.03155
0.125375
0.0659925
0.0829224
0.139675
0.140076
0.0726157
0.0474618
0.180204
0.0466179
0.126983
0.139932
0.140055
0.12913
0.11158
0.0801336
0.084388
0.0832219
0.0887152
0.13211
0.0922595
0.0989595
0.1323
0.119917
0.135291
0.0602174
0.0693281
0.0872878
0.139403
0.130877
0.0817622
0.0725845
0.103001
0.0308929
0.120122
0.0863465
0.139153
0.0742999
0.112839
0.131378
0.140008
0.156591
0.0905964
0.139937
0.0903873
0.0418128
0.081981
0.13391
0.131973
0.139581
0.0848954
0.139849
0.0832601
0.136932
0.104063
0.136836
0.0244442
0.173265
0.0738631
0.0668174
0.0288774
0.0966301
0.113564
0.140098
0.140148
0.0788892
0.0542092
0.134588
0.140544
0.129138
0.096594
0.138157
0.193742
0.043475
0.0395371
0.0887762
0.15622
0.079304
0.0901054
0.111795
0.032172
0.115483
0.135257
0.0828748
0.109949
0.0957207
0.140072
0.0843832
0.0354861
0.119128
0.121008
0.15513
0.131364
0.084699
0.140196
0.103763
0.0922936
0.143254
0.0859683
0.074522
0.0792828
0.0405914
0.139742
0.0751963
0.131553
0.0837589
0.140119
0.0366025
0.0812338
0.125521
0.0882319
0.136592
0.140004
0.0751173
0.0868541
0.0883891
0.140085
0.119719
0.02534
0.134953
0.235698
0.0565888
0.0923292
0.0712701
0.130317
0.0723662
0.0736956
0.13699
0.129952
0.137529
0.0883785
0.0269401
0.0868162
0.115048
0.13607
0.0742788
0.139889
0.0493546
0.135151
0.138169
0.111475
0.0805394
0.14027
0.14019
0.134772
0.135821
0.0970491
0.139838
0.0653662
0.0774933
0.090865
0.111174
0.176839
0.113622
0.121365
0.138724
0.162188
0.0901281
0.0483516
0.0809617
0.16746
0.0933519
0.0861779
0.0312578
0.133491
0.079529
0.0471514
0.0669925
0.137202
0.0625737
0.147637
0.138344
0.123882
0.117432
0.0885316
0.11667
0.141775
0.0366282
0.0726768
0.140112
0.133687
0.114482
0.079108
0.125665
0.0747626
0.155563
0.0809066
0.122291
0.0926729
0.0347634
0.0883432
0.0578244
0.136379
0.135442
0.0934436
0.0964128
0.147479
0.170421
0.129007
0.0821544
0.139527
0.138637
0.133224
0.0889755
0.139446
0.138851
0.128571
0.143156
0.0770565
0.213474
0.0668776
0.138785
0.0649134
0.136093
0.114327
0.0639307
0.104815
0.127944
0.248951
0.0943218
0.0835412
0.068309
0.0830717
0.13421
0.053549
0.064043
0.139668
0.103645
0.0797632
0.0683023
0.120303
0.140082
0.138622
0.0428379
0.119687
0.146314
0.125385
0.140143
0.129347
0.0662074
0.126123
0.0994136
0.125826
0.0773878
0.135871
0.0398489
0.137957
0.0531849
0.135208
0.139982
0.139503
0.0820422
0.117831
0.0986178
0.089799
0.139923
0.135337
0.111253
0.0546595
0.127494
0.0676808
0.0851807
0.133562
0.044006
0.112322
0.139938
0.0913704
0.122651
0.139639
0.0749208
0.132425
0.125205
0.0426437
0.138447
0.0421009
0.0992649
0.13443
0.0899631
0.112607
0.0331411
0.143824
0.0831812
0.0832725
0.143409
0.080045
0.0855015
0.0921143
0.134828
0.139107
0.0825919
0.0788498
0.0767853
0.0539375
0.1397
0.0928992
0.0628066
0.06709
0.042622
0.03567
0.126579
0.127528
0.0101236
0.138014
0.0772118
0.11751
0.137684
0.117927
0.110917
0.070018
0.0862881
0.250293
0.139719
0.138279
0.132274
0.0930321
0.140006
0.0262706
0.0652728
0.0907183
0.138429
0.0787618
0.128015
0.0336617
0.0337726
0.0582175
0.0894792
0.140064
0.107631
0.0953854
0.137979
0.139653
0.0686432
0.137385
0.0953492
0.106073
0.0648779
0.100703
0.0917179
0.00930427
0.02081
0.139902
0.0334198
0.066134
0.0735854
0.0325082
0.0730979
0.103235
0.251391
0.139864
0.0709885
0.0694098
0.0442202
0.0423638
0.139331
0.139776
0.138806
0.139409
0.114548
0.0755533
0.0897155
0.0822747
0.135957
0.135182
0.0512828
0.0927887
0.0632934
0.140096
0.0860391
0.109872
0.0341064
0.135231
0.220043
0.131019
0.0910195
0.10471
0.0524108
0.13926
0.0548283
0.124902
0.0926405
0.049544
0.139805
0.121836
0.140174
0.137122
0.0954424
0.0311401
0.0532334
0.0416857
0.137918
0.162391
0.088034
0.138196
0.097204
0.137916
0.13778
0.0500698
0.0397727
0.0246432
0.045173
0.145439
0.348157
0.0559678
0.140176
0.139136
0.139163
0.054716
0.111163
0.139761
0.0977179
0.0351714
0.127226
0.138071
0.138081
0.137191
0.125114
0.22081
0.124631
0.125072
0.117523
0.02077
0.0804978
0.120931
0.135471
0.138925
0.118133
0.136722
0.0482652
0.0916616
0.366176
0.0846485
0.128332
0.139954
0.13018
0.139806
0.10858
0.351214
0.0620455
0.138673
0.0923831
0.0669969
0.136432
0.0241355
0.13991
0.0501713
0.090409
0.0931416
0.138758
0.134769
0.0973778
0.0765311
0.139809
0.125756
0.0636581
0.0616017
0.132844
0.0851262
0.0975264
0.122785
0.041855
0.133441
0.0834092
0.0847548
0.128023
0.135888
0.171894
0.0711037
0.129886
0.12596
0.0949889
0.126371
0.0495687
0.0803594
0.247164
0.072909
0.045019
0.130035
0.110629
0.097457
0.100345
0.123798
0.128336
0.136779
0.0671721
0.150308
0.127983
0.139839
0.139646
0.15279
0.0630541
0.0757204
0.133077
0.106319
0.0337357
0.109191
0.0725961