/*--------------------------------*- C++ -*----------------------------------*\
| =========                 |                                                 |
| \\      /  F ield         | OpenFOAM: The Open Source CFD Toolbox           |
|  \\    /   O peration     | Version:  2.3.0                                 |
|   \\  /    A nd           | Web:      www.OpenFOAM.org                      |
|    \\/     M anipulation  |                                                 |
\*---------------------------------------------------------------------------*/
FoamFile
{
    version     2.0;
    format      ascii;
    class       volScalarField;
    location    "4000";
    object      nut;
}
// * * * * * * * * * * * * * * * * * * * * * * * * * * * * * * * * * * * * * //

dimensions      [0 2 -1 0 0 0 0];

internalField   nonuniform List<scalar> 
14767
(
0.049042
0.045978
0.0430335
0.0402445
0.0376359
0.0352389
0.0330816
0.0311235
0.0292171
0.0273829
0.0256448
0.0240073
0.0224657
0.0210098
0.0196289
0.0183142
0.0170569
0.0158518
0.0146964
0.0135884
0.0125276
0.0115147
0.010574
0.00991903
0.0530998
0.0505344
0.0480641
0.0456987
0.0434441
0.0413022
0.0392776
0.0373687
0.0355708
0.0338848
0.0323144
0.0308644
0.0295394
0.0283424
0.0272791
0.0263527
0.0255696
0.0249342
0.0244515
0.0241259
0.0239602
0.0239551
0.0241118
0.0244252
0.0567499
0.0546074
0.0525505
0.0505835
0.0487084
0.0469271
0.0452417
0.0436526
0.0421621
0.040772
0.0394842
0.0383028
0.0372311
0.0362732
0.0354325
0.034714
0.0341206
0.0336568
0.0333258
0.0331285
0.0330655
0.0331344
0.0333293
0.0336438
0.0600035
0.0582089
0.0564891
0.0548449
0.0532775
0.0517882
0.0503779
0.0490479
0.0478002
0.0466358
0.045558
0.0445703
0.0436746
0.0428755
0.0421771
0.0415831
0.0410965
0.0407215
0.0404606
0.0403153
0.0402863
0.0403718
0.0405684
0.0408712
0.0628935
0.0613796
0.0599311
0.0585444
0.0572202
0.0559592
0.0547625
0.0536316
0.0525676
0.0515724
0.0506491
0.0497998
0.0490292
0.0483398
0.0477375
0.0472248
0.0468069
0.0464867
0.0462676
0.0461519
0.0461401
0.0462327
0.0464273
0.0467202
0.0654408
0.0641635
0.0629351
0.0617544
0.0606225
0.0595401
0.0585093
0.0575319
0.0566089
0.0557425
0.0549354
0.0541897
0.0535098
0.0529005
0.0523652
0.0519094
0.0515373
0.0512527
0.0510602
0.0509621
0.0509603
0.0510549
0.051246
0.05153
0.0676953
0.0666091
0.0655582
0.064543
0.063564
0.0626228
0.0617215
0.0608631
0.06005
0.0592837
0.0585664
0.0579008
0.0572904
0.0567398
0.0562543
0.0558391
0.0554991
0.0552395
0.055064
0.0549769
0.0549804
0.0550755
0.0552625
0.0555396
0.0696908
0.0687592
0.0678514
0.0669704
0.0661153
0.0652867
0.0644874
0.0637219
0.0629942
0.062307
0.0616617
0.0610597
0.0605044
0.0599999
0.0595521
0.0591675
0.0588514
0.0586086
0.0584438
0.0583632
0.0583693
0.0584636
0.058647
0.0589178
0.0714546
0.0706537
0.0698591
0.0690878
0.0683353
0.0675983
0.0668824
0.0661868
0.0655254
0.0649
0.0643129
0.0637647
0.063255
0.062791
0.0623698
0.062009
0.0617121
0.0614836
0.0613226
0.0612447
0.0612511
0.0613441
0.0615244
0.0617903
0.0730208
0.0723382
0.0716187
0.0709362
0.0702736
0.0696089
0.0689699
0.0683215
0.0677088
0.0671294
0.0665846
0.0660877
0.0656159
0.0652021
0.0647942
0.0644522
0.0641675
0.0639586
0.0637939
0.0637172
0.0637206
0.06381
0.0639873
0.0642506
0.0109809
0.0131511
0.0146423
0.0161195
0.0177277
0.0194969
0.0214212
0.0234899
0.0256919
0.0280169
0.0304555
0.0329994
0.0356423
0.038378
0.041201
0.044106
0.047087
0.0501379
0.0532523
0.056423
0.0596422
0.0629013
0.0661916
0.0695067
0.0248799
0.0254901
0.0262794
0.0272504
0.0283999
0.0297213
0.0312056
0.0328411
0.034615
0.0365158
0.038532
0.0406524
0.0428684
0.0451712
0.0475536
0.0500093
0.0525325
0.0551174
0.0577591
0.060452
0.0631914
0.065972
0.0687884
0.0716371
0.0340669
0.0346114
0.0352971
0.0361256
0.0370963
0.0382046
0.0394451
0.0408105
0.0422922
0.0438817
0.0455708
0.0473504
0.0492137
0.0511536
0.0531637
0.0552385
0.0573733
0.0595633
0.0618044
0.0640925
0.0664241
0.0687964
0.0712065
0.0736539
0.0412742
0.0417845
0.0424146
0.043164
0.0440316
0.0450139
0.0461054
0.0472999
0.0485908
0.0499711
0.0514333
0.0529708
0.0545769
0.0562465
0.0579739
0.0597543
0.061584
0.0634594
0.0653774
0.0673352
0.0693301
0.0713603
0.0734234
0.0755107
0.047108
0.0475947
0.0481873
0.0488842
0.0496833
0.0505805
0.0515702
0.0526466
0.0538033
0.0550334
0.0563308
0.0576893
0.0591033
0.0605677
0.0620782
0.0636306
0.0652217
0.0668482
0.0685078
0.0701985
0.0719186
0.0736673
0.0754425
0.0772285
0.0519048
0.0523731
0.0529377
0.0535964
0.054346
0.0551815
0.0560972
0.0570869
0.0581442
0.0592624
0.060436
0.0616594
0.0629271
0.0642346
0.0655777
0.0669526
0.0683562
0.0697857
0.0712387
0.0727142
0.0742108
0.0757289
0.077269
0.0788151
0.0559036
0.0563567
0.0568996
0.0575292
0.0582413
0.0590303
0.0598898
0.0608129
0.0617929
0.0628243
0.0639018
0.0650199
0.0661736
0.0673584
0.0685703
0.0698053
0.0710603
0.0723325
0.0736194
0.0749201
0.0762339
0.0775612
0.0789032
0.0802734
0.0592736
0.0597139
0.0602387
0.0608455
0.0615293
0.0622826
0.0630981
0.0639683
0.0648864
0.065848
0.0668481
0.0678824
0.0689455
0.0700324
0.0711399
0.0722635
0.0733995
0.074545
0.0756971
0.0768548
0.0780178
0.079188
0.0803654
0.0815617
0.0621385
0.0625687
0.0630772
0.0636651
0.0643287
0.0650558
0.0658362
0.0666622
0.0675281
0.0684322
0.0693668
0.0703346
0.0713244
0.072332
0.0733563
0.0743896
0.0754294
0.0764719
0.0775136
0.0785522
0.0795892
0.0806302
0.0816709
0.082704
0.0645889
0.0650114
0.0655016
0.0660748
0.0667256
0.0674289
0.0681787
0.0689662
0.069785
0.0706393
0.0715083
0.0724291
0.0733579
0.0743031
0.0752639
0.0762216
0.0771851
0.0781437
0.079095
0.0800313
0.0809565
0.0818958
0.0828574
0.083773
0.0802348
0.0743888
0.06878
0.0633807
0.0581904
0.0532147
0.0484616
0.0439392
0.0396545
0.0356127
0.0318177
0.0282702
0.0249675
0.0219083
0.0190909
0.0165136
0.0141707
0.0120533
0.0101623
0.00853491
0.00727893
0.00607188
0.00478424
0.00330262
0.0838639
0.0787511
0.0738236
0.069044
0.0644085
0.0599209
0.0555893
0.0514231
0.0474319
0.043624
0.0400048
0.0365797
0.0333519
0.0303246
0.0275067
0.0249326
0.022647
0.02058
0.0185761
0.016553
0.0144745
0.0122935
0.00994562
0.00734589
0.0876726
0.0832967
0.0790369
0.0748711
0.070798
0.0668221
0.0629513
0.0591964
0.0555691
0.0520824
0.0487522
0.0455931
0.0426109
0.0397878
0.0370868
0.034466
0.031889
0.0293203
0.0267155
0.0240273
0.0212068
0.018208
0.0149827
0.0114786
0.0916724
0.0879525
0.084307
0.0807149
0.0771751
0.0736911
0.0702703
0.0669199
0.0636479
0.0604584
0.0573507
0.0543193
0.0513554
0.0484427
0.045558
0.042671
0.0397524
0.0367684
0.033685
0.0304617
0.0270564
0.0234252
0.0195215
0.0153065
0.0957182
0.0925457
0.0894033
0.0862715
0.0831486
0.0800371
0.0769411
0.073864
0.0708087
0.0677762
0.0647612
0.0617553
0.0587495
0.0557288
0.0526723
0.0495599
0.0463632
0.0430524
0.0395941
0.0359511
0.0320818
0.0279441
0.0234944
0.0186924
0.099566
0.0967997
0.0940262
0.0912294
0.0884088
0.0855645
0.082697
0.0798083
0.076899
0.0739674
0.0710072
0.0680096
0.0649638
0.0618552
0.0586672
0.0553782
0.0519634
0.0483936
0.0446353
0.0406515
0.0364026
0.0318456
0.0269371
0.0216358
0.103051
0.100584
0.0980852
0.0955398
0.092947
0.0903035
0.0876084
0.0848609
0.0820616
0.0792076
0.0762909
0.0733012
0.0702261
0.0670523
0.0637627
0.0603366
0.0567489
0.0529701
0.0489664
0.0447001
0.0401322
0.0352185
0.0299153
0.024181
0.106103
0.103889
0.101609
0.0992628
0.0968498
0.094365
0.0918053
0.08917
0.0864583
0.0836692
0.0807945
0.0778166
0.0747221
0.0714983
0.068129
0.0645942
0.0608687
0.0569196
0.0527113
0.0482066
0.043366
0.0381451
0.0324995
0.0263859
0.108799
0.106768
0.104666
0.102482
0.100216
0.0978593
0.0954084
0.0928641
0.0902238
0.0874895
0.0846601
0.0817036
0.0785957
0.0753293
0.0718933
0.0682712
0.0644379
0.0603527
0.0559714
0.0512593
0.0461838
0.0406989
0.0347568
0.0283115
0.111125
0.109258
0.107311
0.105275
0.10313
0.100878
0.0985132
0.096045
0.0934627
0.0907663
0.0879938
0.0850825
0.0819626
0.0786514
0.0751526
0.0714532
0.0675439
0.0633621
0.0588272
0.0539246
0.0486467
0.0429386
0.0367451
0.0300315
0.00162595
0.000875191
0.00112104
0.00141245
0.00169513
0.00198574
0.00230678
0.00269018
0.00317704
0.00379302
0.00451245
0.00533208
0.0062544
0.00728529
0.0084323
0.00970285
0.0111046
0.0126461
0.0143364
0.0161856
0.0182041
0.0204034
0.0227942
0.0253788
0.00441951
0.00196676
0.00144695
0.00171574
0.00203381
0.00238733
0.00280171
0.0033002
0.00389953
0.00460904
0.0054047
0.0062866
0.007258
0.00832387
0.00948982
0.0107614
0.0121446
0.0136468
0.0152756
0.0170396
0.018948
0.0210097
0.0232328
0.0256259
0.00763014
0.00379342
0.00194034
0.00202485
0.0024019
0.00284452
0.0033647
0.0039704
0.00466619
0.00545501
0.0063171
0.00725377
0.00826765
0.00936241
0.0105418
0.0118099
0.0131716
0.0146329
0.0162002
0.0178803
0.0196805
0.0216076
0.0236691
0.025872
0.0107078
0.00589293
0.00268094
0.00235154
0.00279151
0.00332977
0.00394824
0.00464491
0.00542626
0.00628285
0.00720263
0.0081866
0.00923648
0.0103543
0.0115424
0.0128042
0.0141437
0.015565
0.0170732
0.0186738
0.0203723
0.0221739
0.0240829
0.026099
0.0134689
0.00792116
0.00360171
0.0027081
0.00319258
0.00382145
0.0045267
0.00530324
0.00615832
0.0070739
0.00804413
0.00906895
0.0101493
0.0112856
0.0124795
0.0137335
0.0150505
0.0164338
0.0178868
0.0194136
0.0210181
0.0227043
0.0244773
0.0263485
0.0158792
0.00974081
0.00458176
0.00309527
0.00359433
0.00430473
0.00508651
0.00593483
0.0068523
0.00782007
0.00883458
0.00989524
0.0110011
0.0121525
0.0133501
0.0145958
0.0158911
0.0172384
0.0186401
0.0200989
0.0216178
0.0232003
0.0248519
0.0265811
0.0179599
0.0113243
0.00552747
0.00350207
0.00398776
0.00476919
0.0056174
0.006532
0.00750372
0.00851806
0.00957179
0.0106632
0.0117911
0.0129549
0.0141551
0.015392
0.0166668
0.0179807
0.0193352
0.020732
0.0221734
0.0236625
0.0252043
0.0268069
0.0197545
0.0126907
0.00639514
0.00391345
0.00436702
0.0052102
0.00611863
0.00709171
0.0081113
0.0091669
0.0102553
0.0113737
0.0125206
0.0136948
0.0148963
0.0161248
0.0173802
0.0186634
0.0199746
0.021315
0.0226865
0.024091
0.0255313
0.0270089
0.0213183
0.0138745
0.00716766
0.00431363
0.00472804
0.00562471
0.00658894
0.00761295
0.00867491
0.00976689
0.0108862
0.0120289
0.0131923
0.0143754
0.0155777
0.0167982
0.0180358
0.01929
0.0205606
0.0218488
0.0231568
0.0244845
0.0258327
0.0272033
0.0227351
0.0149568
0.00790022
0.00470623
0.00506608
0.0060204
0.00703328
0.00809435
0.00919071
0.0103256
0.0114814
0.0126414
0.0138137
0.0150047
0.0162102
0.0174219
0.0186407
0.0198616
0.0210845
0.0223205
0.0235751
0.0248367
0.0261041
0.0273962
0.000345933
0.00118916
0.00252174
0.004118
0.00573619
0.00734466
0.00895908
0.0105931
0.0122466
0.0139203
0.0156173
0.0173435
0.0191081
0.0209237
0.0228031
0.0247566
0.026785
0.0288874
0.0311155
0.0335151
0.0360643
0.0388023
0.0418625
0.0451425
0.000253793
0.000676714
0.0015719
0.00280668
0.00429074
0.00577813
0.00726622
0.00875096
0.0102469
0.0117708
0.0133357
0.0149461
0.0166074
0.0183269
0.0201146
0.0219817
0.0239391
0.0259973
0.0281777
0.0305112
0.0330133
0.0357118
0.038663
0.0417558
6.9421e-05
0.000405998
0.000971462
0.00177622
0.0028455
0.00419861
0.00586794
0.00762364
0.00933242
0.0109926
0.0126132
0.0142094
0.0157971
0.0173921
0.0190132
0.0206825
0.0224248
0.0242671
0.0262377
0.0283701
0.0306969
0.0332498
0.0360583
0.0390813
9.36803e-05
0.000337611
0.000797029
0.00143775
0.0022896
0.00337857
0.00473835
0.00640613
0.00824659
0.0100932
0.0119128
0.0136968
0.0154365
0.0171274
0.0187722
0.020384
0.021988
0.0236211
0.0253298
0.0271686
0.0291952
0.0314649
0.0340211
0.0368713
5.15989e-05
0.000292316
0.000687897
0.00123544
0.00196714
0.00290002
0.00406185
0.00548544
0.00720735
0.00915478
0.0111257
0.0130736
0.0149873
0.0168552
0.018663
0.0203982
0.0220576
0.0236546
0.0252248
0.0268269
0.0285394
0.0304515
0.0326476
0.0351819
4.88317e-05
0.000273154
0.000622028
0.00111072
0.0017606
0.00259122
0.00362568
0.00489415
0.00643171
0.00827482
0.0103098
0.0123765
0.0144305
0.0164559
0.0184363
0.0203508
0.0221766
0.0238966
0.0255109
0.0270472
0.0285689
0.0301754
0.0319899
0.0341411
4.11245e-05
0.000266434
0.00057165
0.0010174
0.00160808
0.00236567
0.00330847
0.00446342
0.00586223
0.00754151
0.00952687
0.0116624
0.0138245
0.0159769
0.0181016
0.0201787
0.0221827
0.0240835
0.0258543
0.0274835
0.0289913
0.0304453
0.0319648
0.0336948
3.82862e-05
0.00026082
0.000534796
0.000947994
0.00149375
0.00219522
0.0030682
0.00413708
0.00543149
0.00698573
0.00883808
0.010967
0.0131992
0.0154513
0.0176947
0.0199093
0.0220709
0.0241484
0.0261056
0.0279075
0.0295346
0.0310037
0.0323883
0.0338145
3.53059e-05
0.000256639
0.000505773
0.00089361
0.00140463
0.00206078
0.00287847
0.00387936
0.00509078
0.00654501
0.0082788
0.0103247
0.0125811
0.0149069
0.0172465
0.0195754
0.021871
0.0241042
0.026238
0.0282295
0.0300372
0.0316365
0.0330431
0.0343271
3.34862e-05
0.00025277
0.000483157
0.000850763
0.00133407
0.00195348
0.00272654
0.00367238
0.00481655
0.00618931
0.00782579
0.0097648
0.0119946
0.0143638
0.0167793
0.019203
0.0216116
0.0239783
0.0262685
0.0284384
0.0304386
0.0322211
0.0337573
0.0350609
3.23039e-05
0.000249808
0.000465766
0.000816549
0.00127749
0.00186713
0.00260397
0.0035049
0.00459392
0.00589975
0.00745569
0.00929999
0.0114609
0.013841
0.0163118
0.0188136
0.0213173
0.0237978
0.0262232
0.0285522
0.0307341
0.0327112
0.0344296
0.035857
3.19242e-05
0.0002481
0.000453567
0.000789458
0.00123214
0.00179763
0.00250491
0.00336911
0.00441274
0.00566312
0.00715219
0.00891668
0.0109946
0.0133547
0.0158596
0.0184241
0.0210083
0.0235858
0.0261276
0.0285957
0.030941
0.0331038
0.0350188
0.0366258
3.20747e-05
0.000247529
0.000445974
0.000768116
0.00119588
0.00174168
0.00242482
0.00325889
0.00426528
0.00546986
0.00690323
0.00860076
0.0106019
0.0129172
0.0154356
0.0180486
0.0207009
0.0233621
0.0260045
0.0285933
0.031083
0.0334156
0.0355229
0.0373358
3.27102e-05
0.000247672
0.000441625
0.00075124
0.00116692
0.0016969
0.00236002
0.0031695
0.00414533
0.00531229
0.0066996
0.0083414
0.0102765
0.012535
0.015049
0.0176972
0.0204076
0.023142
0.0258727
0.0285676
0.0311844
0.0336694
0.0359555
0.0379685
3.3702e-05
0.000248168
0.000439234
0.000737756
0.00114352
0.00166078
0.00230725
0.00309658
0.00404733
0.0051833
0.00653266
0.00812816
0.0100077
0.0122085
0.0147041
0.0173761
0.0201361
0.0229362
0.025746
0.0285353
0.0312657
0.0338865
0.0363343
0.0385315
3.48964e-05
0.000248714
0.000437748
0.000726651
0.00112422
0.00163093
0.00226366
0.00303628
0.0039664
0.00507684
0.00639467
0.00795168
0.00978471
0.0119332
0.0144008
0.0170866
0.0198892
0.0227492
0.0256319
0.0285076
0.0313407
0.0340847
0.03668
0.0390531
3.62637e-05
0.000249237
0.000436787
0.000717355
0.00110796
0.00160585
0.002227
0.00298576
0.00389862
0.00498773
0.00627927
0.00780405
0.00959796
0.011701
0.0141349
0.0168263
0.0196652
0.0225808
0.0255319
0.0284882
0.0314163
0.0342733
0.0370032
0.0395356
3.7729e-05
0.000249701
0.000436113
0.000709474
0.00109401
0.0015843
0.00219553
0.00294242
0.00384065
0.0049115
0.00618069
0.00767819
0.00943879
0.0115023
0.0139009
0.0165901
0.0194595
0.0224266
0.0254429
0.0284755
0.0314927
0.0344541
0.0373073
0.0399846
3.93057e-05
0.000250082
0.000435605
0.00070258
0.00108182
0.00156541
0.00216796
0.00290441
0.00378982
0.00484488
0.00609456
0.00756829
0.00929998
0.0113288
0.0136924
0.0163726
0.0192663
0.0222807
0.0253587
0.0284642
0.0315653
0.0346241
0.0375909
0.0404011
4.09376e-05
0.000250439
0.000435243
0.000696425
0.00107087
0.00154848
0.0021432
0.00287039
0.00374434
0.00478525
0.00601767
0.00747025
0.00917622
0.0111741
0.0135039
0.0161689
0.0190803
0.0221371
0.0252734
0.0284481
0.0316284
0.034778
0.0378489
0.0407775
4.24783e-05
0.000250692
0.000434841
0.000690838
0.00106088
0.00153295
0.00212052
0.00283916
0.00370269
0.00473074
0.00594739
0.00738075
0.0090634
0.0110331
0.013331
0.0159755
0.0188973
0.0219913
0.025182
0.0284223
0.0316779
0.0349131
0.0380827
0.0411282
4.40101e-05
0.000250884
0.000434426
0.000685614
0.00105155
0.00151851
0.00209941
0.00281016
0.003664
0.00468018
0.00588221
0.0072978
0.00895888
0.0109025
0.0131701
0.0157902
0.0187153
0.0218402
0.0250808
0.0283831
0.0317097
0.0350249
0.0382837
0.0414243
4.55421e-05
0.000251078
0.000434099
0.000680763
0.00104277
0.00150486
0.00207953
0.00278287
0.00362756
0.00463256
0.00582098
0.00721988
0.00886077
0.01078
0.0130188
0.0156121
0.0185334
0.0216829
0.0249685
0.0283291
0.0317235
0.0351152
0.0384611
0.0417046
4.69956e-05
0.000251235
0.000433752
0.000676199
0.00103445
0.0014919
0.00206059
0.00275685
0.00359288
0.0045873
0.00576278
0.00714596
0.00876778
0.010664
0.0128753
0.0154406
0.0183518
0.021519
0.0248446
0.0282596
0.0317185
0.0351833
0.0386117
0.0419461
4.84014e-05
0.0002514
0.000433463
0.000671938
0.00102654
0.00147952
0.00204247
0.00273196
0.00355972
0.00454401
0.00570715
0.00707534
0.00867904
0.0105534
0.0127386
0.0152756
0.0181712
0.0213496
0.0247095
0.028175
0.0316951
0.0352304
0.0387396
0.0421707
4.97456e-05
0.000251576
0.000433211
0.00066798
0.00101904
0.00146771
0.00202515
0.00270809
0.00352788
0.00450244
0.00565375
0.00700763
0.00859401
0.0104475
0.0126077
0.0151168
0.0179927
0.0211758
0.0245643
0.0280757
0.0316535
0.0352556
0.0388405
0.0423554
5.10146e-05
0.000251766
0.000433005
0.000664349
0.00101192
0.00145649
0.00200865
0.0026852
0.0034973
0.00446249
0.00560244
0.00694258
0.00851236
0.0103459
0.0124822
0.0149639
0.0178174
0.0209992
0.0244106
0.0279633
0.0315953
0.0352614
0.0389196
0.0425191
5.22233e-05
0.000251987
0.000432857
0.000661055
0.00100518
0.00144584
0.00199306
0.00266332
0.00346799
0.0044242
0.00555323
0.00688015
0.008434
0.0102484
0.0123618
0.014817
0.017646
0.0208213
0.0242498
0.0278392
0.0315219
0.0352493
0.0389787
0.0426595
5.33946e-05
0.000252238
0.000432784
0.000658109
0.000998791
0.00143568
0.00197815
0.0026424
0.00343999
0.00438759
0.00550617
0.00682042
0.00835898
0.010155
0.0122465
0.0146759
0.0174795
0.0206437
0.0240839
0.0277051
0.0314345
0.0352205
0.0390202
0.0427871
5.45591e-05
0.000252545
0.000432828
0.000655561
0.000992785
0.00142605
0.001964
0.00262253
0.00341336
0.00435277
0.00546139
0.00676353
0.00828749
0.0100659
0.0121364
0.014541
0.0173188
0.0204681
0.0239147
0.0275625
0.0313341
0.0351744
0.03904
0.0428893
5.57103e-05
0.000252896
0.000432975
0.000653398
0.000987152
0.00141695
0.00195061
0.00260371
0.00338814
0.0043198
0.00541897
0.00670963
0.00821971
0.00998141
0.0120318
0.0144126
0.0171648
0.0202963
0.0237444
0.0274135
0.0312223
0.0351112
0.0390338
0.0429439
5.6864e-05
0.000253302
0.000433245
0.000651633
0.000981921
0.00140841
0.00193802
0.00258598
0.00336439
0.00428874
0.005379
0.00665883
0.00815579
0.00990166
0.011933
0.0142913
0.0170184
0.0201304
0.0235757
0.0272616
0.0311031
0.0350366
0.0390133
0.0429877
5.80112e-05
0.000253755
0.000433626
0.000650234
0.000977075
0.00140041
0.00192621
0.00256937
0.00334212
0.0042596
0.00534148
0.00661114
0.00809579
0.00982682
0.0118403
0.0141774
0.0168805
0.019972
0.0234115
0.0271102
0.0309805
0.034955
0.0389825
0.0430169
5.91467e-05
0.000254232
0.000434078
0.000649156
0.000972612
0.00139298
0.00191521
0.00255386
0.00332132
0.00423236
0.00530639
0.00656652
0.00803968
0.00975682
0.0117536
0.0140708
0.0167513
0.0198223
0.0232539
0.0269623
0.0308583
0.0348706
0.0389449
0.0430332
6.0297e-05
0.000254741
0.000434617
0.00064837
0.000968529
0.00138612
0.00190502
0.00253946
0.00330199
0.00420701
0.00527369
0.00652494
0.00798732
0.0096915
0.0116728
0.0139714
0.0166308
0.0196818
0.0231043
0.0268203
0.0307401
0.0347889
0.03891
0.043055
6.14531e-05
0.000255274
0.00043522
0.000647837
0.00096483
0.00137981
0.00189561
0.00252616
0.0032841
0.00418353
0.00524338
0.0064863
0.00793858
0.00963061
0.0115973
0.0138787
0.0165181
0.0195499
0.0229626
0.0266849
0.030627
0.0347116
0.0388792
0.0430811
6.26168e-05
0.000255825
0.000435878
0.00064751
0.000961473
0.00137403
0.00188698
0.00251394
0.00326764
0.00416188
0.00521537
0.00645054
0.00789339
0.00957402
0.0115271
0.0137921
0.0164128
0.0194257
0.0228278
0.0265548
0.0305179
0.0346373
0.0388506
0.0431075
6.3791e-05
0.000256388
0.000436576
0.000647354
0.000958435
0.00136876
0.00187909
0.00250274
0.00325252
0.00414199
0.00518962
0.00641757
0.00785163
0.00952161
0.0114618
0.0137115
0.0163141
0.0193086
0.022699
0.0264289
0.0304111
0.034564
0.0388228
0.0431352
6.49727e-05
0.000256957
0.000437301
0.000647329
0.000955676
0.00136393
0.00187185
0.00249247
0.00323867
0.00412376
0.00516601
0.0063873
0.00781323
0.00947331
0.0114015
0.0136366
0.0162222
0.0191986
0.0225761
0.0263063
0.0303047
0.0344883
0.0387905
0.0431602
6.61569e-05
0.00025753
0.000438043
0.000647408
0.000953173
0.00135951
0.00186523
0.00248306
0.00322601
0.0041071
0.0051444
0.00635962
0.00777808
0.00942899
0.011346
0.0135677
0.0161372
0.0190961
0.02246
0.0261883
0.0301996
0.0344096
0.0387485
0.0431621
6.73435e-05
0.000258097
0.000438787
0.000647559
0.00095089
0.00135545
0.00185915
0.00247443
0.00321439
0.00409183
0.00512462
0.00633429
0.00774592
0.00938848
0.0112953
0.0135046
0.0160592
0.0190016
0.0223521
0.0260773
0.0300994
0.0343332
0.0387054
0.0431563
6.85302e-05
0.000258659
0.000439524
0.00064776
0.000948802
0.00135172
0.00185355
0.00246649
0.00320371
0.00407781
0.00510649
0.0063111
0.00771651
0.00935143
0.0112489
0.0134469
0.0159879
0.0189152
0.0222528
0.0259746
0.0300068
0.0342638
0.0386697
0.0431619
6.97051e-05
0.000259212
0.000440246
0.000648001
0.000946894
0.00134829
0.00184838
0.00245917
0.00319388
0.00406491
0.00508982
0.00628979
0.00768952
0.00931749
0.0112065
0.0133941
0.0159227
0.018836
0.0221617
0.0258801
0.029922
0.0342023
0.0386437
0.0431836
7.08796e-05
0.000259753
0.000440952
0.000648275
0.000945145
0.00134511
0.00184361
0.00245239
0.00318479
0.004053
0.00507445
0.00627017
0.00766468
0.00928629
0.0111675
0.0133456
0.0158629
0.0187635
0.0220779
0.0257927
0.0298436
0.0341462
0.0386218
0.0432062
7.20689e-05
0.000260278
0.000441656
0.000648577
0.00094355
0.00134219
0.00183919
0.00244611
0.00317635
0.00404194
0.00506018
0.00625198
0.00764171
0.00925747
0.0111316
0.0133011
0.015808
0.0186967
0.0220005
0.0257119
0.0297712
0.0340949
0.0386027
0.0432283
7.32659e-05
0.000260799
0.00044236
0.000648909
0.000942108
0.0013395
0.0018351
0.00244027
0.00316848
0.00403163
0.00504688
0.00623505
0.00762034
0.0092307
0.0110982
0.0132598
0.0157571
0.018635
0.0219289
0.0256368
0.0297043
0.0340492
0.0385899
0.0432562
7.44546e-05
0.000261314
0.000443056
0.000649258
0.000940809
0.00133704
0.00183133
0.00243485
0.00316115
0.00402198
0.00503442
0.00621915
0.00760029
0.00920562
0.0110671
0.0132213
0.0157098
0.0185775
0.021862
0.0255663
0.0296412
0.0340063
0.0385796
0.0432912
7.5619e-05
0.00026181
0.000443734
0.000649622
0.000939644
0.00133479
0.00182785
0.00242982
0.0031543
0.00401293
0.00502268
0.00620415
0.00758135
0.00918195
0.0110377
0.013185
0.0156653
0.0185237
0.0217992
0.0254998
0.0295812
0.033965
0.0385687
0.0433211
7.6775e-05
0.000262293
0.000444403
0.00065
0.000938609
0.00133277
0.00182469
0.00242519
0.00314795
0.00400446
0.00501161
0.00618995
0.00756335
0.00915941
0.0110097
0.0131506
0.0156232
0.0184728
0.02174
0.0254369
0.0295243
0.0339254
0.0385567
0.0433464
7.79153e-05
0.000262764
0.000445055
0.00065039
0.000937721
0.00133098
0.00182182
0.00242096
0.00314208
0.00399656
0.00500122
0.00617651
0.00754623
0.00913784
0.0109829
0.0131174
0.0155827
0.018424
0.0216834
0.0253771
0.0294707
0.0338891
0.0385461
0.0433617
7.90283e-05
0.000263227
0.000445696
0.000650811
0.000936983
0.0013294
0.00181928
0.00241715
0.00313672
0.00398927
0.00499154
0.00616386
0.00752997
0.00911722
0.010957
0.0130854
0.0155434
0.0183765
0.0216281
0.0253186
0.0294189
0.0338568
0.0385468
0.0434117
8.01258e-05
0.00026369
0.000446332
0.000651257
0.000936389
0.00132806
0.00181706
0.00241376
0.00313188
0.00398263
0.00498261
0.00615207
0.00751465
0.00909759
0.0109322
0.0130543
0.015505
0.0183298
0.0215732
0.0252594
0.029365
0.0338203
0.0385393
0.0434416
8.1237e-05
0.000264148
0.000446984
0.000651734
0.000935929
0.00132694
0.00181516
0.00241077
0.00312759
0.00397667
0.00497448
0.0061412
0.0075004
0.00907911
0.0109086
0.0130244
0.0154676
0.0182838
0.0215183
0.0251991
0.0293083
0.03378
0.0385278
0.0434697
8.23533e-05
0.000264607
0.000447642
0.000652233
0.000935594
0.00132604
0.00181355
0.00240823
0.00312382
0.00397137
0.00496718
0.00613132
0.00748727
0.00906199
0.0108864
0.0129961
0.0154317
0.018239
0.021464
0.0251379
0.0292486
0.0337345
0.0385096
0.0434896
8.34164e-05
0.000265058
0.000448279
0.000652737
0.000935364
0.00132531
0.00181221
0.00240605
0.0031206
0.00396667
0.00496067
0.00612252
0.00747543
0.00904628
0.0108659
0.0129695
0.0153978
0.018196
0.0214112
0.0250768
0.0291867
0.0336834
0.0384819
0.0434948
8.44745e-05
0.000265484
0.000448889
0.000653264
0.000935282
0.00132481
0.0018112
0.00240426
0.00311786
0.00396269
0.00495498
0.00611462
0.00746479
0.00903208
0.0108472
0.0129453
0.0153665
0.0181561
0.0213612
0.0250179
0.0291248
0.0336298
0.0384496
0.0434962
8.55632e-05
0.000265949
0.00044956
0.000653811
0.000935335
0.00132455
0.00181047
0.00240292
0.00311565
0.00395932
0.00495014
0.00610783
0.00745541
0.00901953
0.0108305
0.0129234
0.0153381
0.0181195
0.0213152
0.024963
0.0290661
0.033577
0.0384154
0.0434945
8.653e-05
0.000266374
0.000450146
0.000654381
0.000935535
0.00132448
0.00181005
0.0024019
0.0031139
0.00395654
0.00494599
0.00610192
0.00744725
0.00900835
0.0108156
0.0129037
0.0153124
0.0180866
0.0212738
0.0249133
0.0290128
0.0335289
0.0383826
0.043487
8.75389e-05
0.000266792
0.000450738
0.000654978
0.000935865
0.00132465
0.00180993
0.00240135
0.0031127
0.00395449
0.00494269
0.00609699
0.00744019
0.00899866
0.0108024
0.0128862
0.0152895
0.0180569
0.0212364
0.024869
0.0289656
0.0334878
0.0383574
0.0434824
8.8618e-05
0.000267261
0.000451439
0.000655649
0.00093636
0.00132507
0.00181021
0.00240131
0.00311212
0.00395312
0.00494031
0.00609314
0.00743438
0.00899028
0.0107909
0.0128706
0.0152688
0.0180301
0.0212025
0.0248286
0.0289236
0.0334533
0.0383437
0.0435061
8.96336e-05
0.000267696
0.000452065
0.000656323
0.000937046
0.00132577
0.00181086
0.00240168
0.00311208
0.00395246
0.00493867
0.00609018
0.00742971
0.00898328
0.010781
0.0128569
0.0152504
0.0180059
0.0211716
0.0247913
0.0288838
0.0334202
0.0383287
0.0435214
9.06422e-05
0.000268136
0.000452715
0.000657012
0.000937871
0.00132677
0.00181188
0.00240263
0.00311274
0.00395264
0.00493805
0.00608838
0.00742633
0.00897788
0.0107727
0.0128453
0.0152343
0.0179843
0.0211434
0.0247569
0.0288465
0.0333876
0.0383112
0.0435296
9.15856e-05
0.000268566
0.000453335
0.000657749
0.000938869
0.00132802
0.00181331
0.00240407
0.00311408
0.00395355
0.00493836
0.0060878
0.00742433
0.00897392
0.0107663
0.0128355
0.0152204
0.0179652
0.0211185
0.024726
0.0288131
0.0333586
0.0382956
0.0435351
9.25667e-05
0.000268985
0.000453955
0.000658524
0.00094007
0.00132954
0.00181513
0.00240606
0.0031161
0.00395542
0.00493974
0.00608836
0.00742374
0.0089716
0.0107617
0.0128278
0.0152088
0.0179488
0.0210963
0.0246986
0.0287835
0.0333349
0.0382879
0.0435508
9.35752e-05
0.000269444
0.000454641
0.000659351
0.000941487
0.00133145
0.00181741
0.0024087
0.00311889
0.00395818
0.00494232
0.0060904
0.00742475
0.00897122
0.0107591
0.0128224
0.0151997
0.0179349
0.0210767
0.0246737
0.0287566
0.0333144
0.0382871
0.0435882
9.44831e-05
0.000269867
0.000455245
0.000660205
0.000943091
0.00133363
0.00182013
0.00241182
0.00312236
0.00396184
0.00494595
0.00609376
0.0074275
0.00897274
0.0107589
0.0128196
0.0151933
0.0179239
0.0210601
0.0246509
0.0287306
0.0332924
0.0382799
0.0436067
9.54513e-05
0.000270285
0.000455863
0.000661094
0.000944885
0.00133615
0.00182329
0.0024156
0.00312665
0.00396655
0.00495082
0.00609858
0.00743194
0.00897643
0.0107611
0.0128197
0.0151902
0.0179163
0.021047
0.0246318
0.0287066
0.0332699
0.0382692
0.0436189
9.64537e-05
0.000270744
0.00045656
0.000662056
0.00094689
0.001339
0.00182696
0.00242006
0.00313175
0.00397222
0.00495699
0.00610497
0.00743824
0.00898221
0.010766
0.0128227
0.0151906
0.017913
0.0210385
0.0246172
0.0286876
0.0332512
0.0382605
0.0436329
9.74333e-05
0.000271171
0.000457216
0.000663067
0.000949161
0.00134223
0.00183114
0.00242512
0.00313765
0.00397887
0.00496426
0.00611273
0.0074463
0.00899016
0.0107734
0.012829
0.0151949
0.0179142
0.0210353
0.0246087
0.0286745
0.0332384
0.038257
0.043652
9.8446e-05
0.00027163
0.000457939
0.00066412
0.000951648
0.00134587
0.00183585
0.00243094
0.00314449
0.00398665
0.00497291
0.00612208
0.00745619
0.00900041
0.0107835
0.0128385
0.0152031
0.01792
0.0210376
0.0246067
0.0286684
0.0332319
0.0382567
0.0436678
9.9363e-05
0.000272053
0.000458579
0.000665194
0.000954352
0.00134986
0.00184109
0.00243737
0.00315215
0.00399546
0.00498282
0.00613306
0.00746797
0.00901274
0.0107961
0.0128509
0.0152148
0.0179304
0.0210457
0.0246116
0.028671
0.0332344
0.0382624
0.0436779
0.000100325
0.000272466
0.000459226
0.000666341
0.000957374
0.00135425
0.00184688
0.00244462
0.00316079
0.00400551
0.00499416
0.00614563
0.00748163
0.00902725
0.0108113
0.0128664
0.01523
0.0179449
0.0210589
0.0246235
0.0286827
0.03325
0.0382849
0.0436951
0.000101318
0.000272913
0.000459934
0.000667542
0.000960664
0.00135915
0.00185333
0.00245273
0.00317048
0.0040168
0.00500711
0.00616008
0.00749747
0.00904431
0.0108292
0.0128849
0.0152487
0.0179632
0.0210765
0.0246406
0.0287019
0.0332782
0.0383361
0.0437973
0.000102218
0.000273335
0.000460564
0.000668782
0.000964227
0.00136446
0.0018604
0.00246157
0.00318118
0.00402938
0.00502152
0.00617629
0.00751544
0.00906382
0.01085
0.0129066
0.0152708
0.0179852
0.0210979
0.0246612
0.0287237
0.0333076
0.0383844
0.0438807
0.000103193
0.000273741
0.000461207
0.000670059
0.000968052
0.00137022
0.00186808
0.00247131
0.003193
0.00404339
0.00503772
0.00619461
0.00753583
0.00908619
0.010874
0.0129319
0.0152968
0.0180112
0.0211233
0.0246858
0.0287482
0.0333365
0.0384247
0.0439366
0.00010418
0.000274143
0.000461879
0.000671415
0.000972157
0.00137644
0.00187645
0.00248198
0.00320596
0.00405871
0.00505557
0.00621508
0.00755877
0.00911145
0.0109014
0.012961
0.0153271
0.0180421
0.0211539
0.0247155
0.0287782
0.0333712
0.0384734
0.0440117
0.000105137
0.000274511
0.000462484
0.000672805
0.000976584
0.00138312
0.00188547
0.00249345
0.00322
0.00407546
0.00507516
0.00623757
0.00758424
0.00913976
0.0109324
0.0129944