/*--------------------------------*- C++ -*----------------------------------*\
| =========                 |                                                 |
| \\      /  F ield         | OpenFOAM: The Open Source CFD Toolbox           |
|  \\    /   O peration     | Version:  2.3.0                                 |
|   \\  /    A nd           | Web:      www.OpenFOAM.org                      |
|    \\/     M anipulation  |                                                 |
\*---------------------------------------------------------------------------*/
FoamFile
{
    version     2.0;
    format      ascii;
    class       volVectorField;
    location    "4000";
    object      U;
}
// * * * * * * * * * * * * * * * * * * * * * * * * * * * * * * * * * * * * * //

dimensions      [0 1 -1 0 0 0 0];

internalField   nonuniform List<vector> 
14767
(
(21.5065 10.4186 -3.62238e-20)
(21.3103 10.8135 4.43776e-21)
(21.109 11.2123 -4.08745e-20)
(20.8947 11.6183 1.39224e-20)
(20.6651 12.0303 -8.09704e-20)
(20.4167 12.4443 1.02132e-19)
(20.1442 12.8547 -5.65422e-20)
(19.8407 13.2545 1.36757e-20)
(19.4973 13.6373 1.34793e-19)
(19.1038 13.9973 -1.59808e-19)
(18.6501 14.3304 1.03658e-19)
(18.1261 14.635 9.93647e-20)
(17.5226 14.9128 -1.485e-20)
(16.8313 15.1676 -1.0086e-19)
(16.045 15.4052 2.5542e-20)
(15.1581 15.6335 1.69526e-20)
(14.1655 15.8581 -1.11121e-19)
(13.0649 16.0849 1.14749e-19)
(11.8549 16.313 3.13191e-20)
(10.5321 16.5285 3.20101e-20)
(9.10033 16.7174 -1.60507e-20)
(7.60337 16.9258 0)
(6.11952 17.258 0)
(4.62429 17.4695 0)
(21.1536 10.2687 -1.10286e-19)
(20.9466 10.6004 1.2029e-19)
(20.732 10.9345 4.14487e-20)
(20.5024 11.2698 2.10883e-20)
(20.2558 11.6086 0)
(19.9901 11.9513 2.30085e-19)
(19.7037 12.2978 2.2777e-20)
(19.3947 12.648 -2.22224e-19)
(19.0609 13.0002 -1.53881e-20)
(18.7007 13.3518 5.92144e-20)
(18.3118 13.6989 -4.49825e-19)
(17.8924 14.0362 4.07985e-19)
(17.4403 14.3574 0)
(16.954 14.6548 0)
(16.4321 14.9196 -2.39854e-20)
(15.8738 15.1423 -9.53276e-19)
(15.2797 15.3121 1.06654e-18)
(14.6512 15.4178 8.21132e-20)
(13.9917 15.4476 -2.71216e-20)
(13.3066 15.3888 -1.91157e-18)
(12.6054 15.2282 1.86237e-18)
(11.903 14.9569 -6.64962e-20)
(11.2079 14.571 0)
(10.5093 14.071 8.05419e-20)
(20.851 10.0983 1.37822e-19)
(20.6424 10.3762 -9.15567e-20)
(20.4247 10.6543 9.8333e-20)
(20.1938 10.9293 -1.0565e-19)
(19.9478 11.2018 0)
(19.6851 11.4708 4.27115e-19)
(19.4038 11.7352 -3.62899e-19)
(19.1021 11.9939 -1.19329e-19)
(18.7776 12.2453 0)
(18.4286 12.4874 -6.64891e-19)
(18.0531 12.7181 5.1848e-19)
(17.6501 12.9346 0)
(17.2185 13.1337 0)
(16.7581 13.3116 -9.04846e-19)
(16.2695 13.4642 9.14571e-19)
(15.7544 13.5864 0)
(15.2157 13.6732 1.25588e-18)
(14.6576 13.7189 -1.3324e-18)
(14.0862 13.7179 0)
(13.5096 13.6651 5.09506e-20)
(12.9381 13.5563 0)
(12.3848 13.3889 6.40069e-20)
(11.863 13.1619 1.15125e-18)
(11.3872 12.8745 -2.31847e-18)
(20.6077 9.92459 0)
(20.402 10.1549 9.23893e-20)
(20.1891 10.3845 -2.26279e-19)
(19.966 10.6113 1.0591e-19)
(19.7312 10.8343 0)
(19.4834 11.0527 0)
(19.2218 11.2655 -6.58473e-20)
(18.9453 11.4714 7.12213e-20)
(18.6528 11.6688 0)
(18.3435 11.8562 -3.98258e-19)
(18.0167 12.0311 4.9291e-19)
(17.6716 12.1911 0)
(17.3081 12.3333 0)
(16.9261 12.4545 -5.71367e-19)
(16.5264 12.5511 4.99752e-19)
(16.1102 12.6192 -6.89402e-19)
(15.6797 12.6552 7.07447e-19)
(15.238 12.6549 0)
(14.7893 12.615 -1.09248e-19)
(14.339 12.5324 1.10018e-18)
(13.8939 12.4052 -8.6086e-19)
(13.4614 12.2333 0)
(13.0496 12.0183 -6.95999e-20)
(12.6668 11.7637 -1.53025e-19)
(20.4023 9.73884 -2.55766e-19)
(20.2061 9.9378 1.14061e-19)
(20.0026 10.1295 -1.61015e-19)
(19.7904 10.3174 2.89476e-19)
(19.5683 10.5007 3.26002e-19)
(19.3353 10.6786 -3.26159e-19)
(19.0904 10.8502 -4.64579e-19)
(18.8326 11.0147 3.70204e-19)
(18.5612 11.1707 0)
(18.2754 11.3168 1.15441e-19)
(17.9745 11.4513 4.8757e-19)
(17.6585 11.5723 -1.15065e-18)
(17.3271 11.6775 5.31188e-19)
(16.981 11.7645 -6.156e-19)
(16.6209 11.8305 7.01165e-19)
(16.2484 11.8727 -8.13805e-19)
(15.8657 11.8881 6.40158e-19)
(15.4757 11.8738 0)
(15.0821 11.8273 1.10428e-19)
(14.6895 11.7465 -1.19768e-19)
(14.3032 11.6305 -1.06018e-18)
(13.929 11.4789 1.06847e-18)
(13.5731 11.2935 7.46632e-19)
(13.2413 11.0771 -4.44968e-19)
(20.2307 9.57048 0)
(20.0475 9.73636 3.07631e-19)
(19.8567 9.89682 0)
(19.6579 10.0537 0)
(19.4508 10.2062 9.47464e-20)
(19.2346 10.3536 0)
(19.0085 10.4952 -9.75234e-21)
(18.7717 10.6299 0)
(18.5237 10.7569 0)
(18.2639 10.8746 -4.903e-19)
(17.9917 10.9816 5.03656e-19)
(17.7069 11.0762 1.33504e-19)
(17.4092 11.1565 0)
(17.0991 11.2203 1.64068e-19)
(16.7773 11.2658 0)
(16.4451 11.2904 9.09089e-20)
(16.1045 11.2918 0)
(15.7578 11.2677 0)
(15.4081 11.216 9.62166e-19)
(15.059 11.1354 -9.74765e-19)
(14.7149 11.025 -1.32591e-19)
(14.3804 10.8849 5.85179e-19)
(14.0602 10.7161 -1.35806e-18)
(13.7589 10.5212 6.22028e-19)
(20.0911 9.41255 -1.67583e-19)
(19.9196 9.55075 1.81571e-19)
(19.7417 9.68639 -1.76868e-19)
(19.5559 9.81851 0)
(19.3629 9.9469 7.81568e-21)
(19.1616 10.0708 5.3496e-19)
(18.9515 10.1895 -2.09051e-19)
(18.7319 10.3022 0)
(18.5022 10.408 0)
(18.2622 10.5056 -1.25898e-19)
(18.0114 10.5936 5.67159e-19)
(17.7493 10.6706 -5.73048e-19)
(17.4759 10.7347 0)
(17.1911 10.784 -1.6541e-19)
(16.8957 10.8169 0)
(16.5911 10.8315 0)
(16.2789 10.8257 2.101e-19)
(15.9614 10.7972 0)
(15.6409 10.7444 0)
(15.3207 10.6663 7.8186e-19)
(15.0047 10.562 -8.18028e-19)
(14.6967 10.4315 5.65253e-19)
(14.4006 10.2755 -1.52658e-19)
(14.1203 10.0961 -6.56686e-19)
(19.9783 9.26863 -9.35923e-20)
(19.8174 9.38241 1.92702e-19)
(19.6516 9.49793 -1.92297e-19)
(19.478 9.61025 -1.05357e-19)
(19.2981 9.71966 6.40089e-21)
(19.1106 9.82522 1.19861e-19)
(18.9148 9.92652 -2.22132e-19)
(18.7103 10.0224 0)
(18.4961 10.1125 0)
(18.2727 10.1953 -4.19119e-19)
(18.0395 10.2695 1.32783e-19)
(17.7967 10.3338 1.44138e-19)
(17.5442 10.3861 1.65666e-19)
(17.2808 10.425 1.81904e-19)
(17.007 10.449 -3.63651e-19)
(16.7238 10.4569 -4.09479e-19)
(16.4336 10.4467 2.04442e-19)
(16.1388 10.4157 0)
(15.8409 10.3621 -2.44244e-19)
(15.5421 10.2864 -5.18537e-19)
(15.2468 10.1872 -1.11532e-18)
(14.9581 10.0641 5.7068e-19)
(14.6797 9.91775 1.54101e-19)
(14.4147 9.74945 0)
(19.8838 9.13457 9.45534e-20)
(19.7327 9.2293 -2.06565e-19)
(19.5795 9.32934 3.11901e-19)
(19.4173 9.42603 3.80433e-21)
(19.2491 9.52057 4.95245e-21)
(19.0738 9.61151 9.66765e-21)
(18.8904 9.69919 1.50578e-20)
(18.6992 9.78159 -2.50784e-19)
(18.4977 9.85952 1.35763e-19)
(18.2878 9.93153 -1.50429e-19)
(18.0683 9.99618 1.44944e-19)
(17.8399 10.0523 4.80405e-19)
(17.6049 10.0965 -4.94089e-19)
(17.3591 10.1276 -3.23651e-21)
(17.1029 10.144 1.91529e-19)
(16.8362 10.1466 4.15103e-19)
(16.5624 10.1347 2.08345e-20)
(16.2845 10.1041 -4.49237e-19)
(16.0054 10.0493 -1.14236e-20)
(15.7218 9.97515 1.02923e-18)
(15.4421 9.88029 8.39094e-19)
(15.168 9.76361 -5.69841e-19)
(14.9036 9.62514 3.06085e-19)
(14.6506 9.46542 0)
(19.7903 9.01534 1.11308e-19)
(19.6539 9.09416 -1.13174e-19)
(19.5197 9.18124 2.27011e-19)
(19.3695 9.2638 4.42343e-21)
(19.2117 9.34662 2.37856e-19)
(19.0482 9.42499 -3.78958e-19)
(18.8751 9.50284 1.26514e-19)
(18.7006 9.57314 -1.38721e-19)
(18.5128 9.63905 -6.56384e-21)
(18.3186 9.70051 1.53143e-19)
(18.1148 9.75562 1.58765e-19)
(17.8955 9.80781 0)
(17.6677 9.85019 1.70969e-19)
(17.4286 9.87951 3.64767e-19)
(17.1865 9.88943 -7.91409e-19)
(16.9331 9.88503 -1.86641e-20)
(16.673 9.86957 8.92264e-19)
(16.4097 9.84455 -2.20736e-19)
(16.1421 9.79136 -2.31793e-19)
(15.8642 9.71852 -5.22799e-19)
(15.5974 9.62648 5.58666e-19)
(15.3356 9.515 -2.97408e-19)
(15.0817 9.38409 -6.24605e-21)
(14.8362 9.23318 3.19359e-19)
(3.09121 16.6598 -1.37932e-18)
(3.1258 15.2187 1.24523e-18)
(3.41082 13.918 0)
(3.77674 12.7959 9.08479e-20)
(4.17566 11.807 -9.51482e-19)
(4.58982 10.9203 1.2327e-18)
(5.01101 10.117 1.48638e-19)
(5.44026 9.38706 1.79279e-19)
(5.87826 8.7234 4.49696e-19)
(6.3206 8.1181 -4.47007e-19)
(6.7618 7.5652 2.98934e-19)
(7.19679 7.0597 -9.19303e-19)
(7.62171 6.59731 0)
(8.03387 6.17417 5.85449e-19)
(8.4318 5.78636 -6.19993e-19)
(8.81521 5.43029 2.85172e-19)
(9.18468 5.10222 -4.21956e-19)
(9.5414 4.79844 1.38214e-19)
(9.88694 4.51543 -7.90445e-19)
(10.2229 4.24985 8.02719e-19)
(10.5508 3.99896 9.97691e-19)
(10.8721 3.76096 -9.63689e-19)
(11.1869 3.53273 -1.83427e-18)
(11.4954 3.30492 1.72606e-18)
(9.8183 13.4737 0)
(9.27651 12.7981 9.36386e-20)
(8.89217 12.1105 0)
(8.63695 11.4366 -1.10878e-19)
(8.48403 10.7878 -2.37366e-19)
(8.413 10.1696 -6.57577e-19)
(8.40775 9.58497 4.01698e-19)
(8.4551 9.03474 5.25382e-19)
(8.54476 8.51891 -5.41806e-19)
(8.66882 8.03676 1.4149e-20)
(8.82062 7.58686 -2.58507e-19)
(8.99453 7.16726 1.0398e-21)
(9.18609 6.77545 2.70075e-19)
(9.39151 6.40864 0)
(9.60774 6.064 -5.36614e-19)
(9.83237 5.73883 -2.61511e-19)
(10.0634 5.43063 7.65277e-19)
(10.2991 5.13736 0)
(10.5383 4.85739 1.01887e-18)
(10.7799 4.58945 0)
(11.0232 4.33284 0)
(11.2676 4.08702 0)
(11.5124 3.85132 -3.50172e-18)
(11.7585 3.6223 1.68793e-18)
(10.9682 12.5268 1.16808e-18)
(10.6129 12.1192 0)
(10.3219 11.6653 -7.26792e-19)
(10.0949 11.1837 8.39426e-19)
(9.92811 10.6887 -7.01062e-19)
(9.81637 10.1913 1.23595e-18)
(9.75395 9.69949 -6.36697e-19)
(9.73497 9.21871 -2.37861e-19)
(9.75377 8.75293 0)
(9.80507 8.30471 2.43448e-19)
(9.88392 7.87548 2.4484e-19)
(9.98564 7.466 4.61889e-19)
(10.1063 7.07634 2.36594e-19)
(10.2423 6.70617 -7.02104e-19)
(10.3907 6.35484 0)
(10.5489 6.02146 4.67038e-19)
(10.7151 5.70501 -4.85155e-19)
(10.8876 5.40444 0)
(11.0655 5.11859 0)
(11.2479 4.84638 9.09503e-19)
(11.4342 4.58674 -8.93398e-19)
(11.6239 4.33852 -8.79429e-19)
(11.8163 4.10179 3.42771e-18)
(12.0134 3.87986 -2.39194e-18)
(12.317 11.4732 1.61823e-19)
(12.001 11.1481 0)
(11.7226 10.7929 0)
(11.485 10.4164 0)
(11.2893 10.0263 2.11479e-19)
(11.1343 9.6297 -1.02687e-18)
(11.0181 9.23224 4.23666e-19)
(10.9375 8.83852 2.10201e-19)
(10.8896 8.452 1.58244e-19)
(10.8708 8.07526 5.47351e-20)
(10.8779 7.71007 0)
(10.9076 7.35753 -1.27368e-19)
(10.957 7.01824 3.36046e-19)
(11.0237 6.6923 1.6179e-20)
(11.1053 6.37953 2.16908e-19)
(11.1997 6.07952 -5.677e-19)
(11.3053 5.79171 1.67885e-19)
(11.4207 5.51542 -4.9547e-19)
(11.5446 5.25001 4.37416e-19)
(11.676 4.99482 -1.75777e-18)
(11.814 4.74904 4.44656e-19)
(11.9576 4.51153 1.26567e-18)
(12.1058 4.28256 0)
(12.2598 4.06909 3.09515e-18)
(12.9359 10.8322 6.62946e-19)
(12.657 10.5594 -4.99663e-19)
(12.4072 10.2614 7.31937e-19)
(12.1892 9.94394 -7.33499e-19)
(12.0042 9.61269 1.97848e-19)
(11.8522 9.27291 2.03197e-19)
(11.7318 8.9293 2.07458e-19)
(11.6413 8.58583 -4.14191e-19)
(11.5782 8.24571 -4.19031e-19)
(11.5401 7.91144 0)
(11.5244 7.58486 -4.71088e-19)
(11.5285 7.26731 -3.80875e-19)
(11.5501 6.95967 0)
(11.5871 6.66241 1.07086e-18)
(11.6376 6.3756 -6.48104e-19)
(11.7 6.09922 0)
(11.7729 5.83295 5.34682e-20)
(11.855 5.57645 4.05704e-19)
(11.9453 5.32926 -3.69562e-20)
(12.0429 5.09087 6.4313e-19)
(12.1473 4.8606 2.08933e-19)
(12.2578 4.63731 -8.30786e-19)
(12.3747 4.42194 0)
(12.5002 4.22777 1.47578e-18)
(13.4787 10.3022 5.14622e-19)
(13.2204 10.06 -1.48141e-19)
(12.9862 9.79707 -7.13208e-19)
(12.7784 9.51767 0)
(12.5984 9.22597 1.9098e-19)
(12.4463 8.92613 0)
(12.3213 8.62184 0)
(12.2218 8.31655 2.05194e-19)
(12.1462 8.01312 2.58729e-19)
(12.0925 7.71378 -5.10871e-20)
(12.0586 7.42018 4.18475e-19)
(12.0423 7.13375 -1.04031e-19)
(12.042 6.85547 2.07138e-19)
(12.0558 6.58571 -5.22648e-19)
(12.0824 6.3247 0)
(12.1202 6.07243 4.08973e-19)
(12.168 5.82873 5.16758e-20)
(12.2248 5.59333 -6.43148e-20)
(12.2896 5.36587 -4.02099e-19)
(12.3616 5.14593 0)
(12.4403 4.93299 -4.04684e-19)
(12.5256 4.72644 1.19263e-18)
(12.6193 4.52605 -7.78579e-19)
(12.721 4.34211 -1.49583e-18)
(13.8581 9.8951 6.59882e-19)
(13.6154 9.67382 -1.74399e-19)
(13.3942 9.43463 0)
(13.1967 9.18107 0)
(13.0241 8.91654 -3.87336e-19)
(12.8767 8.64425 5.79758e-19)
(12.7533 8.36719 0)
(12.6522 8.08882 0)
(12.5723 7.81188 0)
(12.5121 7.53806 -1.27138e-20)
(12.4694 7.26885 1.2568e-20)
(12.442 7.00615 0)
(12.4293 6.75076 0)
(12.4295 6.50295 0)
(12.4415 6.26279 0)
(12.4636 6.03054 -4.0648e-19)
(12.4951 5.80609 -3.97673e-19)
(12.5348 5.58916 0)
(12.5819 5.37951 -3.95401e-19)
(12.6356 5.17671 0)
(12.6949 4.98069 0)
(12.7604 4.79239 -7.87262e-19)
(12.8345 4.61059 7.75171e-19)
(12.9126 4.42655 -2.57131e-21)
(14.1654 9.56125 3.36026e-19)
(13.9335 9.35494 1.75855e-19)
(13.7211 9.13306 0)
(13.5311 8.8987 0)
(13.3647 8.65448 3.77066e-19)
(13.222 8.40267 -7.71841e-19)
(13.1012 8.14568 3.87987e-19)
(12.9992 7.88766 9.93301e-20)
(12.9168 7.63117 -9.81488e-20)
(12.8528 7.37729 0)
(12.8042 7.12722 -4.44446e-19)
(12.7684 6.88386 -5.16603e-22)
(12.7473 6.64754 -4.43451e-19)
(12.738 6.418 9.84315e-20)
(12.7399 6.19533 0)
(12.7507 5.98018 4.92246e-20)
(12.7705 5.77247 3.46194e-19)
(12.7978 5.57182 1.2222e-20)
(12.832 5.378 3.80312e-19)
(12.8718 5.19038 0)
(12.9163 5.00908 3.82755e-19)
(12.9659 4.83588 3.79407e-19)
(13.0251 4.66701 3.78205e-19)
(13.0863 4.48682 -7.38687e-19)
(14.4111 9.28646 -6.69461e-19)
(14.1871 9.09097 3.46056e-19)
(13.9806 8.88166 0)
(13.7961 8.66275 -3.6463e-19)
(13.6352 8.43497 -3.75515e-19)
(13.4976 8.19811 3.81492e-19)
(13.3806 7.95573 -3.86123e-19)
(13.2771 7.71382 -3.35675e-19)
(13.1938 7.47263 -4.81721e-20)
(13.1292 7.23474 0)
(13.0771 6.9997 7.79645e-19)
(13.0333 6.77237 -4.88772e-20)
(13.0087 6.55232 4.39301e-19)
(12.9936 6.33737 0)
(12.989 6.12882 0)
(12.9913 5.92799 4.8147e-20)
(13.0032 5.73465 -4.7778e-20)
(13.0214 5.54796 -5.9766e-21)
(13.0465 5.36815 5.94153e-21)
(13.0765 5.194 0)
(13.1102 5.02644 -5.66463e-19)
(13.1467 4.86845 -3.77508e-19)
(13.1963 4.71452 1.87208e-19)
(13.2424 4.55294 -3.62355e-19)
(14.6026 9.06174 3.36736e-19)
(14.3851 8.87603 -1.72714e-19)
(14.1849 8.67269 3.63677e-19)
(14.0062 8.46533 -3.62509e-19)
(13.8509 8.25334 7.1794e-19)
(13.7185 8.02812 -6.37094e-19)
(13.6073 7.79694 9.47131e-20)
(13.503 7.56916 7.44866e-19)
(13.4223 7.33684 -3.41135e-19)
(13.3608 7.11352 -2.89778e-20)
(13.3085 6.88957 -3.42266e-19)
(13.2558 6.67528 -2.36969e-20)
(13.2346 6.47162 3.4014e-19)
(13.2141 6.26486 4.80803e-20)
(13.206 6.06719 3.77249e-19)
(13.2 5.87784 -4.76508e-20)
(13.2078 5.69683 4.7842e-20)
(13.2187 5.52131 3.82404e-19)
(13.2387 5.35415 0)
(13.2625 5.19108 0)
(13.2894 5.03715 3.75041e-19)
(13.3109 4.89139 1.85296e-19)
(13.3475 4.74191 1.81447e-19)
(13.3858 4.57855 0)
(-4.3945 -2.55892 4.38582e-19)
(-4.05795 -2.58322 9.83791e-19)
(-3.69838 -2.60679 -1.05269e-18)
(-3.32242 -2.62777 0)
(-2.93578 -2.6461 -2.85598e-19)
(-2.54298 -2.66162 -3.07003e-19)
(-2.14764 -2.67413 -3.20939e-19)
(-1.75268 -2.68337 1.67688e-19)
(-1.36033 -2.68917 -1.67202e-19)
(-0.972278 -2.69136 1.8392e-19)
(-0.589834 -2.68958 0)
(-0.213781 -2.6833 0)
(0.155851 -2.6719 -1.06429e-19)
(0.519573 -2.65448 0)
(0.878972 -2.62976 1.80123e-19)
(1.2374 -2.59577 -1.86935e-19)
(1.6012 -2.54979 0)
(1.98248 -2.48826 6.05079e-19)
(2.40486 -2.40743 -6.72512e-19)
(2.91596 -2.30379 7.26632e-19)
(3.60739 -2.17907 -8.15082e-19)
(4.66785 -2.04745 0)
(6.51961 -1.96527 2.00435e-18)
(10.166 -2.26847 -3.73834e-19)
(-4.32244 -2.55232 -8.65131e-19)
(-4.00351 -2.5623 0)
(-3.66632 -2.57766 5.08599e-19)
(-3.31452 -2.59161 -1.33101e-19)
(-2.95191 -2.60388 -2.08837e-19)
(-2.58127 -2.61425 3.48533e-19)
(-2.20477 -2.62235 6.77605e-21)
(-1.82383 -2.62768 -1.52718e-19)
(-1.43926 -2.62959 -3.17599e-19)
(-1.05105 -2.62728 -8.37026e-20)
(-0.6584 -2.61973 -1.69738e-19)
(-0.259941 -2.60562 1.75621e-19)
(0.146745 -2.58324 9.13939e-20)
(0.566092 -2.55057 9.56089e-20)
(1.00502 -2.5053 -9.89528e-20)
(1.47453 -2.4447 0)
(1.9912 -2.36596 1.06778e-19)
(2.58061 -2.26695 -4.51019e-19)
(3.28436 -2.14768 5.87136e-19)
(4.17184 -2.01374 -9.87916e-19)
(5.35496 -1.88478 4.73012e-19)
(7.01295 -1.81231 0)
(9.41837 -1.90861 6.60356e-20)
(12.906 -2.38647 0)
(-4.23008 -2.50406 2.16049e-19)
(-3.91982 -2.50729 2.3288e-19)
(-3.59398 -2.51468 0)
(-3.25371 -2.52036 0)
(-2.90125 -2.52389 3.25702e-19)
(-2.5383 -2.52476 -7.5608e-20)
(-2.16586 -2.5223 4.21572e-19)
(-1.78428 -2.51575 0)
(-1.39306 -2.50423 1.44963e-19)
(-0.990906 -2.48669 3.74356e-19)
(-0.575557 -2.46188 -1.54314e-19)
(-0.143638 -2.4284 7.92325e-20)
(0.309848 -2.38464 -8.04947e-20)
(0.792119 -2.32886 -8.27491e-20)
(1.31327 -2.25939 4.24084e-20)
(1.88776 -2.17484 -4.43449e-20)
(2.53697 -2.07456 9.09813e-20)
(3.29177 -1.95987 9.15129e-20)
(4.19697 -1.83631 -3.99643e-21)
(5.31801 -1.71756 -3.85002e-19)
(6.74656 -1.63312 4.79473e-19)
(8.60223 -1.63911 -1.00302e-19)
(11.0227 -1.83279 -5.30946e-20)
(14.0802 -2.35245 -4.576e-20)
(-4.12251 -2.43244 4.19287e-19)
(-3.82202 -2.42418 0)
(-3.50718 -2.42129 0)
(-3.17755 -2.41621 0)
(-2.83409 -2.40844 3.07655e-20)
(-2.47739 -2.39736 -1.56673e-19)
(-2.10759 -2.38229 -2.56778e-19)
(-1.72412 -2.36259 0)
(-1.32552 -2.3375 0)
(-0.909349 -2.30611 -2.06648e-19)
(-0.472153 -2.26738 7.04063e-20)
(-0.00912807 -2.22011 1.42466e-19)
(0.485961 -2.16302 0)
(1.02173 -2.09492 -1.39421e-19)
(1.60999 -2.01506 -9.67487e-21)
(2.26689 -1.92344 -7.80037e-20)
(3.01477 -1.82144 0)
(3.88452 -1.7132 8.44989e-20)
(4.91797 -1.60786 -2.52884e-19)
(6.17071 -1.52314 1.80302e-19)
(7.71382 -1.49057 3.37612e-19)
(9.62915 -1.56165 -2.8024e-19)
(11.9932 -1.81272 -8.23867e-20)
(14.8246 -2.3361 6.17391e-19)
(-4.00295 -2.34505 -1.41444e-21)
(-3.71171 -2.32742 0)
(-3.40612 -2.3156 2.20067e-19)
(-3.08489 -2.30121 0)
(-2.74796 -2.28396 8.62692e-20)
(-2.39516 -2.26305 1.48225e-19)
(-2.02607 -2.2377 1.21043e-19)
(-1.63969 -2.20741 0)
(-1.23405 -2.17179 1.24883e-19)
(-0.805897 -2.13029 1.2773e-19)
(-0.350808 -2.08221 1.30198e-19)
(0.136888 -2.02664 -1.67744e-19)
(0.664393 -1.96255 3.43381e-20)
(1.24106 -1.88927 1.40893e-19)
(1.8793 -1.80682 -1.59698e-19)
(2.59561 -1.71624 5.66294e-20)
(3.41221 -1.62046 -3.62655e-20)
(4.35811 -1.5255 0)
(5.47142 -1.44221 2.31047e-19)
(6.80026 -1.3894 -2.45758e-19)
(8.4015 -1.39772 7.96662e-20)
(10.3365 -1.51304 3.74758e-19)
(12.6558 -1.79732 3.17734e-20)
(15.3617 -2.31893 -2.41673e-19)
(-3.87649 -2.2536 3.92722e-19)
(-3.5944 -2.22681 -2.05856e-19)
(-3.29749 -2.20739 -2.23556e-21)
(-2.9843 -2.18532 0)
(-2.6536 -2.16073 -1.10602e-19)
(-2.30435 -2.13247 0)
(-1.93611 -2.0995 -1.27767e-19)
(-1.54763 -2.06136 1.45699e-20)
(-1.13678 -2.01794 -9.00484e-20)
(-0.700065 -1.96928 -1.53167e-19)
(-0.232129 -1.91524 -1.25115e-19)
(0.273737 -1.85518 3.15429e-20)
(0.825442 -1.78832 -4.87372e-20)
(1.43281 -1.71408 2.08579e-20)
(2.10825 -1.63293 1.33232e-19)
(2.86787 -1.54678 1.38334e-19)
(3.73306 -1.45959 7.24176e-20)
(4.73177 -1.37836 0)
(5.89877 -1.31479 -7.57651e-20)
(7.27626 -1.28741 7.70464e-20)
(8.91232 -1.32499 -1.51736e-19)
(10.8565 -1.46918 2.0133e-19)
(13.1457 -1.77315 -4.22714e-20)
(15.7721 -2.2922 -3.55828e-19)
(-3.75082 -2.15833 2.8525e-19)
(-3.47449 -2.12701 -9.91736e-20)
(-3.18536 -2.10217 -2.03465e-19)
(-2.88044 -2.07421 -5.16745e-20)
(-2.55644 -2.04451 1.567e-19)
(-2.21076 -2.01147 0)
(-1.84338 -1.97331 9.61164e-20)
(-1.45338 -1.92963 -1.38743e-20)
(-1.03878 -1.88033 2.8486e-20)
(-0.596205 -1.82614 0)
(-0.119717 -1.76799 1.47447e-19)
(0.398586 -1.70584 -3.27616e-22)
(0.968186 -1.63875 9.19659e-20)
(1.59865 -1.56585 0)
(2.30235 -1.48769 -8.05627e-21)
(3.09461 -1.40668 -9.38074e-20)
(3.99568 -1.32792 1.00938e-19)
(5.03215 -1.25941 -6.81395e-20)
(6.23778 -1.21278 1.42085e-19)
(7.65117 -1.20515 6.82025e-20)
(9.31243 -1.26361 7.25018e-20)
(11.2642 -1.42765 0)
(13.5337 -1.74473 6.55611e-20)
(16.1068 -2.26233 0)
(-3.62283 -2.06527 -9.28627e-20)
(-3.35446 -2.03446 -1.90872e-19)
(-3.07277 -2.0036 2.75101e-22)
(-2.77713 -1.97066 -9.82918e-20)
(-2.46102 -1.93721 -2.01068e-19)
(-2.11947 -1.90148 1.01654e-19)
(-1.75323 -1.86024 6.53701e-21)
(-1.36199 -1.8131 -6.68044e-21)
(-0.944485 -1.75957 0)
(-0.498572 -1.70054 -1.10994e-19)
(-0.0176801 -1.63834 -1.1502e-19)
(0.506816 -1.57496 1.29677e-19)
(1.08833 -1.50915 -2.38548e-19)
(1.73614 -1.43891 -1.54371e-20)
(2.46159 -1.36442 0)
(3.27853 -1.28805 -3.16464e-20)
(4.2054 -1.21586 -6.70956e-20)
(5.26845 -1.15791 -3.4307e-20)
(6.50182 -1.12622 0)
(7.94426 -1.1353 -1.38809e-19)
(9.62434 -1.20808 0)
(11.5803 -1.38485 -1.23665e-19)
(13.8327 -1.7094 7.14981e-20)
(16.366 -2.22346 1.14707e-19)
(-3.48829 -1.97832 0)
(-3.23144 -1.94806 0)
(-2.95699 -1.91315 4.75682e-20)
(-2.67192 -1.87765 1.43642e-19)
(-2.36394 -1.84083 9.73029e-20)
(-2.02668 -1.80371 -9.91781e-20)
(-1.66135 -1.76088 6.28123e-21)
(-1.26765 -1.71268 6.40769e-21)
(-0.84449 -1.65747 -1.20892e-19)
(-0.393046 -1.59505 1.0835e-19)
(0.0949862 -1.52798 0)
(0.62203 -1.46508 2.43075e-21)
(1.21186 -1.40227 1.22199e-19)
(1.87418 -1.33615 -7.34449e-21)
(2.6209 -1.26649 -1.24228e-19)
(3.46287 -1.19419 -1.50251e-20)
(4.41575 -1.1276 1.58814e-20)
(5.49676 -1.07979 0)
(6.74838 -1.06239 -6.1968e-20)
(8.22003 -1.08697 6.66203e-20)
(9.92683 -1.16847 0)
(11.895 -1.35493 1.30567e-19)
(14.1415 -1.68739 1.24339e-19)
(16.6535 -2.20798 -1.10268e-19)
(-3.383 -1.89112 -8.98581e-20)
(-3.13814 -1.85851 9.16669e-20)
(-2.87855 -1.81698 4.37864e-20)
(-2.6097 -1.78747 4.75375e-20)
(-2.30795 -1.74296 7.5835e-20)
(-1.97147 -1.70447 1.05129e-19)
(-1.6143 -1.65954 6.40099e-21)
(-1.23029 -1.6098 -1.99706e-20)
(-0.812407 -1.55376 1.21901e-19)
(-0.374195 -1.49161 1.02336e-19)
(0.10234 -1.40333 -1.04739e-19)
(0.622222 -1.33997 -8.16746e-21)
(1.22321 -1.27957 0)
(1.88981 -1.21754 0)
(2.63992 -1.15159 1.22977e-19)
(3.48399 -1.07948 1.6327e-20)
(4.42721 -0.997683 6.69584e-20)
(5.52376 -0.959497 -4.65557e-20)
(6.79931 -0.951424 7.68245e-20)
(8.32394 -1.01541 0)
(9.99971 -1.08444 0)
(11.9569 -1.2711 -1.43611e-20)
(14.1583 -1.58718 -1.2091e-19)
(16.6335 -2.07837 -9.1016e-20)
(17.2263 -4.10547 -5.58727e-18)
(20.7111 -5.46888 3.40488e-18)
(21.9395 -5.91303 2.19161e-18)
(22.5723 -6.09999 -1.81201e-18)
(22.9881 -6.20167 -1.17053e-18)
(23.2664 -6.25461 1.00642e-18)
(23.4485 -6.27213 2.05529e-20)
(23.5583 -6.26322 3.95469e-19)
(23.6124 -6.23385 -3.43565e-19)
(23.6242 -6.1888 1.18562e-19)
(23.6051 -6.13221 -1.15357e-19)
(23.5635 -6.06689 7.90979e-20)
(23.5057 -5.99522 -6.69761e-20)
(23.4359 -5.91864 0)
(23.3571 -5.83815 0)
(23.2716 -5.75445 4.52991e-20)
(23.1807 -5.66801 5.8527e-20)
(23.0856 -5.57902 -1.14656e-19)
(22.987 -5.48769 -4.9396e-19)
(22.8853 -5.39411 7.39637e-19)
(22.7809 -5.29846 5.86253e-19)
(22.6746 -5.19989 -5.6864e-19)
(22.5667 -5.09815 0)
(22.4518 -5.01099 0)
(17.2475 -3.55293 -9.13148e-19)
(21.0017 -4.96404 1.1215e-18)
(22.5527 -5.56322 8.37011e-19)
(23.1253 -5.74132 -2.07389e-18)
(23.4603 -5.83615 1.21469e-18)
(23.6641 -5.88967 0)
(23.7772 -5.91266 -1.98417e-20)
(23.8255 -5.91253 0)
(23.828 -5.89467 -2.71778e-19)
(23.7986 -5.86347 2.44078e-19)
(23.7478 -5.82209 0)
(23.6824 -5.773 2.63306e-21)
(23.6069 -5.71787 -1.45123e-19)
(23.5245 -5.65787 1.14516e-19)
(23.4373 -5.59385 -2.78382e-19)
(23.3464 -5.52642 2.28783e-19)
(23.2529 -5.45597 4.35113e-19)
(23.1571 -5.38275 -2.74956e-19)
(23.0595 -5.30696 0)
(22.9601 -5.22877 -1.29099e-19)
(22.859 -5.14833 0)
(22.7567 -5.06506 0)
(22.6538 -4.97943 3.10675e-19)
(22.5493 -4.90013 3.20595e-19)
(17.6153 -3.32135 0)
(21.0552 -4.57966 -4.64675e-20)
(22.8644 -5.30725 -7.42753e-20)
(23.4222 -5.49838 0)
(23.6911 -5.57692 0)
(23.8404 -5.61925 0)
(23.9101 -5.63656 2.75156e-20)
(23.9255 -5.63565 0)
(23.9043 -5.62118 1.68996e-19)
(23.8591 -5.59652 -1.6684e-19)
(23.7981 -5.56405 0)
(23.7263 -5.52536 -1.11282e-20)
(23.6474 -5.48162 -1.70851e-20)
(23.5636 -5.43358 2.36069e-20)
(23.4765 -5.38188 -2.89212e-19)
(23.3869 -5.32692 3.16805e-19)
(23.2956 -5.26904 -4.4867e-20)
(23.2029 -5.20845 3.37836e-19)
(23.1089 -5.14533 -5.41961e-20)
(23.0138 -5.07982 -3.51615e-19)
(22.9177 -5.01207 2.88401e-19)
(22.8207 -4.94184 -2.81938e-19)
(22.7237 -4.86967 -3.23191e-19)
(22.6269 -4.79799 -3.43454e-19)
(18.0194 -3.20173 -7.38926e-19)
(21.1518 -4.31968 4.47779e-19)
(23.0757 -5.10448 -4.9908e-19)
(23.6497 -5.32185 -5.46438e-20)
(23.8602 -5.38524 2.84297e-19)
(23.9618 -5.41652 -3.0025e-19)
(23.9958 -5.42717 -2.71115e-20)
(23.986 -5.4234 -1.17612e-19)
(23.9483 -5.40916 4.41396e-20)
(23.8929 -5.38708 6.1581e-20)
(23.8258 -5.35894 -1.34938e-21)
(23.7512 -5.32584 8.55008e-21)
(23.6715 -5.28865 1.2429e-19)
(23.5885 -5.24792 -8.46196e-20)
(23.5032 -5.2041 3.27134e-20)
(23.4162 -5.15749 0)
(23.328 -5.10833 -1.50011e-19)
(23.2389 -5.05681 4.09474e-19)
(23.1489 -5.00306 -3.3993e-19)
(23.0581 -4.94719 -1.55498e-19)
(22.9668 -4.88928 1.24494e-19)
(22.8753 -4.82911 1.63077e-19)
(22.7839 -4.76685 -3.02191e-19)
(22.6914 -4.70469 -5.16969e-19)
(18.3576 -3.12451 6.77821e-20)
(21.2744 -4.14395 -3.94432e-19)
(23.2151 -4.93524 5.11693e-19)
(23.8164 -5.17783 5.25768e-20)
(23.9813 -5.22886 3.4205e-19)
(24.0451 -5.2508 -2.46981e-19)
(24.0522 -5.25572 1.59948e-19)
(24.0241 -5.24923 -1.49264e-19)
(23.9744 -5.23452 5.39525e-20)
(23.9115 -5.21369 -5.67167e-20)
(23.8401 -5.18801 1.35807e-21)
(23.7635 -5.15839 0)
(23.6835 -5.12542 1.59041e-21)
(23.6014 -5.08961 0)
(23.5179 -5.05123 -6.73086e-20)
(23.4335 -5.01057 4.02095e-20)
(23.3485 -4.96782 0)
(23.2631 -4.92308 0)
(23.1773 -4.87652 -5.71182e-20)
(23.0913 -4.82825 2.64855e-19)
(23.0051 -4.77836 -4.07882e-19)
(22.9194 -4.7266 4.31548e-19)
(22.8337 -4.67341 -1.55793e-19)
(22.7453 -4.62302 1.70747e-19)
(18.6356 -3.05952 6.05173e-20)
(21.4003 -4.01039 -5.58602e-20)
(23.3095 -4.78667 0)
(23.9313 -5.04942 0)
(24.061 -5.09269 3.60028e-20)
(24.0957 -5.1079 -2.50511e-21)
(24.083 -5.10888 0)
(24.042 -5.10064 0)
(23.9844 -5.08573 5.29381e-20)
(23.9167 -5.06584 -3.43521e-20)
(23.8429 -5.04199 0)
(23.7655 -5.01485 0)
(23.6859 -4.98499 -2.05634e-20)
(23.605 -4.95277 2.93887e-20)
(23.5236 -4.91848 3.46098e-20)
(23.4419 -4.88231 -2.20358e-19)
(23.3602 -4.84444 1.74283e-19)
(23.2784 -4.80498 -1.71593e-19)
(23.1968 -4.7641 3.19846e-20)
(23.1153 -4.72197 5.09037e-19)
(23.0342 -4.67872 -2.63241e-19)
(22.9538 -4.63408 -7.51605e-21)
(22.8732 -4.58842 4.71219e-19)
(22.7896 -4.54631 0)
(18.8761 -3.00372 -1.14594e-19)
(21.5255 -3.90467 2.43926e-19)
(23.3833 -4.65811 -2.16537e-19)
(24.0122 -4.93347 -2.41158e-19)
(24.1142 -4.97257 1.14981e-19)
(24.1263 -4.98339 -2.67839e-20)
(24.099 -4.98205 0)
(24.0489 -4.97292 5.67384e-20)
(23.9858 -4.95813 -4.66975e-20)
(23.9151 -4.93909 2.75952e-21)
(23.8401 -4.91659 -9.1596e-21)
(23.7624 -4.89128 -1.72606e-20)
(23.6835 -4.8637 1.10706e-19)
(23.6041 -4.83422 -2.73685e-19)
(23.5248 -4.80301 3.32291e-19)
(23.4456 -4.77026 -1.57174e-19)
(23.3668 -4.73612 -4.88658e-20)
(23.2885 -4.70074 -5.39678e-20)
(23.2106 -4.66431 -5.9398e-20)
(23.1332 -4.6271 -6.45421e-20)
(23.0565 -4.58928 -1.45886e-19)
(22.9808 -4.55044 -7.36545e-21)
(22.9049 -4.51083 -2.42049e-19)
(22.8258 -4.47606 -1.71522e-19)
(19.0686 -2.94351 -3.46302e-20)
(21.6321 -3.80695 2.22694e-19)
(23.439 -4.53944 0)
(24.0677 -4.82546 -6.33523e-20)
(24.1495 -4.86533 1.39523e-19)
(24.1447 -4.87447 8.08323e-20)
(24.1068 -4.87217 -1.06642e-19)
(24.0503 -4.8627 -3.21418e-21)
(23.9833 -4.84816 0)
(23.9107 -4.82975 -2.7294e-21)
(23.8349 -4.80811 9.21227e-21)
(23.7573 -4.78403 1.74004e-20)
(23.679 -4.75819 0)
(23.6009 -4.73088 -3.91078e-20)
(23.5234 -4.70202 -1.32326e-20)
(23.4466 -4.67184 -1.37898e-20)
(23.3705 -4.64056 1.93287e-19)
(23.2953 -4.60832 0)
(23.2207 -4.57542 1.2132e-19)
(23.1469 -4.54226 1.31805e-19)
(23.0741 -4.5091 0)
(23.0028 -4.47514 -1.58046e-19)
(22.9312 -4.44016 2.39013e-19)
(22.8573 -4.4112 1.76585e-19)
(19.2866 -2.91279 -1.17881e-19)
(21.7535 -3.74176 -1.13175e-19)
(23.4918 -4.44627 -2.40897e-20)
(24.1061 -4.7332 -9.06624e-20)
(24.1711 -4.77301 1.0218e-19)
(24.1543 -4.78039 -2.40073e-20)
(24.1093 -4.77706 -8.44611e-20)
(24.0481 -4.767 2.57415e-20)
(23.9784 -4.75252 4.37428e-21)
(23.9051 -4.73472 2.73153e-21)
(23.8292 -4.71357 0)
(23.7512 -4.69008 0)
(23.6728 -4.66558 -2.85409e-20)
(23.5962 -4.64024 -3.34963e-20)
(23.5208 -4.61323 -8.04372e-20)
(23.4458 -4.58498 -9.85662e-20)
(23.3722 -4.55604 1.54296e-19)
(23.2993 -4.52614 -5.0108e-20)
(23.227 -4.4958 -6.18161e-20)
(23.1554 -4.46587 -6.71601e-20)
(23.0855 -4.43675 0)
(23.0186 -4.40673 0)
(22.951 -4.37548 -8.54192e-20)
(22.8841 -4.35045 1.68639e-19)
(19.2959 -2.75541 9.44227e-20)
(21.7756 -3.59323 2.78014e-19)
(23.5053 -4.32087 5.88151e-20)
(24.1188 -4.63639 -1.45867e-19)
(24.1808 -4.68956 -4.67023e-20)
(24.159 -4.69895 8.16136e-20)
(24.1093 -4.69426 0)
(24.0447 -4.68328 0)
(23.9727 -4.66954 -4.36608e-21)
(23.8989 -4.6523 0)
(23.8224 -4.63 -1.50693e-20)
(23.7438 -4.60624 0)
(23.6655 -4.58384 -1.79668e-21)
(23.5911 -4.56099 0)
(23.5175 -4.5348 -9.05729e-22)
(23.4436 -4.50778 0)
(23.3723 -4.48055 0)
(23.302 -4.45203 -5.87671e-20)
(23.2326 -4.42378 -1.35051e-19)
(23.1642 -4.39669 -1.20757e-20)
(23.0983 -4.37169 1.40958e-19)
(23.0403 -4.34688 -7.66854e-20)
(22.973 -4.31837 -8.32335e-20)
(22.92 -4.3066 -9.0656e-22)
(-0.115533 1.54038 0)
(0.570688 1.79654 0)
(1.7484 2.4448 0)
(3.03715 3.24678 5.66221e-20)
(4.38331 4.06606 -9.14949e-20)
(5.82237 4.93063 2.58034e-18)
(7.3322 5.85587 -2.22257e-18)
(8.86536 6.82404 -1.00374e-19)
(10.4066 7.79581 -8.98167e-20)
(11.9321 8.73725 0)
(13.4111 9.61835 6.41667e-20)
(14.8094 10.4097 -1.09889e-19)
(16.0959 11.0873 0)
(17.2455 11.6326 0)
(18.2418 12.032 0)
(19.0784 12.2803 -5.45518e-20)
(19.76 12.3805 2.11614e-19)
(20.3014 12.3442 0)
(20.724 12.1907 0)
(21.0533 11.9438 0)
(21.3139 11.6293 0)
(21.5274 11.2707 1.78588e-19)
(21.7101 10.8879 9.45202e-20)
(21.8799 10.4831 1.17375e-19)
(-8.49159 2.33581 0)
(-8.21658 2.26454 0)
(-7.50898 2.18787 0)
(-6.59111 2.24303 -2.04311e-19)
(-5.4722 2.4039 0)
(-4.13259 2.66035 -2.31734e-19)
(-2.52214 3.00176 0)
(-0.637699 3.432 1.62922e-19)
(1.45329 3.97207 0)
(3.69893 4.62807 0)
(6.03419 5.39397 -2.04634e-19)
(8.38238 6.25121 -2.43313e-20)
(10.6726 7.16458 -3.03981e-19)
(12.8382 8.0859 0)
(14.8211 8.96286 0)
(16.573 9.74422 1.95208e-19)
(18.0611 10.3863 -2.38368e-19)
(19.2724 10.8589 0)
(20.2154 11.1489 0)
(20.9178 11.2606 0)
(21.4213 11.2145 0)
(21.7738 11.0405 1.1016e-19)
(22.0215 10.7762 -1.50483e-19)
(22.2072 10.4313 -3.23159e-19)
(-3.68523 1.278 0)
(-4.60705 1.41262 0)
(-4.84016 1.4652 0)
(-4.78877 1.43603 -6.799e-21)
(-4.53955 1.39468 7.15269e-18)
(-4.11889 1.37508 -4.89368e-18)
(-3.52718 1.40535 0)
(-2.74474 1.51236 -2.22632e-19)
(-1.73869 1.72244 3.8477e-19)
(-0.477391 2.05763 3.37029e-19)
(1.07817 2.53205 2.79785e-19)