/*--------------------------------*- C++ -*----------------------------------*\
| =========                 |                                                 |
| \\      /  F ield         | OpenFOAM: The Open Source CFD Toolbox           |
|  \\    /   O peration     | Version:  2.3.0                                 |
|   \\  /    A nd           | Web:      www.OpenFOAM.org                      |
|    \\/     M anipulation  |                                                 |
\*---------------------------------------------------------------------------*/
FoamFile
{
    version     2.0;
    format      ascii;
    class       volScalarField;
    location    "2000";
    object      nut;
}
// * * * * * * * * * * * * * * * * * * * * * * * * * * * * * * * * * * * * * //

dimensions      [0 2 -1 0 0 0 0];

internalField   nonuniform List<scalar> 
37496
(
0.0708594
0.0692174
0.0675726
0.0659251
0.0642749
0.0626225
0.0609685
0.0593137
0.0576586
0.056004
0.0543505
0.0526989
0.05105
0.0494046
0.0477636
0.0461272
0.0444967
0.042873
0.0412567
0.0396485
0.0380493
0.0364601
0.034882
0.0333154
0.0317616
0.0302218
0.0286978
0.0271912
0.0257036
0.024238
0.022799
0.0213922
0.0200246
0.0187066
0.0174501
0.0162685
0.0151798
0.0141987
0.0132911
0.0123139
0.0111065
0.009564
0.00793241
0.0720272
0.0705744
0.0691203
0.0676647
0.0662077
0.0647492
0.0632896
0.0618289
0.0603679
0.0589066
0.0574454
0.0559849
0.0545255
0.0530679
0.0516123
0.0501592
0.0487093
0.0472634
0.0458219
0.044386
0.0429561
0.0415336
0.0401195
0.0387147
0.0373205
0.0359389
0.0345716
0.0332205
0.0318884
0.0305783
0.0292948
0.0280434
0.0268302
0.0256628
0.0245517
0.0235088
0.0225485
0.021687
0.0209429
0.0203312
0.0198665
0.0195649
0.0194423
0.0731092
0.0718169
0.0705248
0.0692322
0.067938
0.0666422
0.0653447
0.0640457
0.0627454
0.0614437
0.0601407
0.0588371
0.0575328
0.0562283
0.0549237
0.0536197
0.0523163
0.0510141
0.049714
0.0484168
0.0471234
0.0458345
0.0445516
0.0432761
0.0420098
0.040754
0.0395117
0.0382854
0.037078
0.0358936
0.0347367
0.0336132
0.0325299
0.0314949
0.0305173
0.0296077
0.0287784
0.0280426
0.0274138
0.0269048
0.026527
0.0262897
0.0261973
0.0741047
0.0729513
0.0717996
0.0706462
0.0694908
0.0683329
0.0671725
0.0660095
0.0648439
0.0636755
0.0625044
0.0613307
0.0601547
0.0589767
0.0577969
0.0566155
0.0554326
0.0542486
0.0530641
0.0518804
0.0506981
0.0495178
0.0483411
0.0471699
0.0460057
0.0448505
0.0437066
0.0425777
0.0414664
0.0403774
0.0393155
0.0382856
0.0372949
0.0363508
0.0354628
0.0346397
0.0338917
0.0332308
0.0326676
0.0322127
0.0318749
0.0316613
0.0315746
0.0750075
0.0739839
0.0729547
0.0719214
0.0708844
0.069844
0.0687998
0.0677517
0.0666995
0.0656431
0.0645822
0.0635168
0.0624474
0.0613744
0.0602977
0.0592176
0.058134
0.0570475
0.0559583
0.0548672
0.0537754
0.0526839
0.0515939
0.0505073
0.0494251
0.0483496
0.0472842
0.0462314
0.0451947
0.0441788
0.0431885
0.0422288
0.0413062
0.0404279
0.0396022
0.0388379
0.0381442
0.0375316
0.0370093
0.0365868
0.0362721
0.0360708
0.035985
0.0758454
0.0749263
0.0740014
0.0730707
0.0721351
0.0711945
0.0702489
0.0692983
0.0683421
0.0673802
0.0664122
0.0654376
0.0644571
0.0634713
0.0624803
0.0614841
0.0604828
0.0594769
0.0584666
0.0574519
0.0564342
0.0554152
0.0543964
0.0533791
0.0523641
0.0513533
0.0503503
0.0493584
0.0483808
0.0474219
0.046487
0.0455808
0.0447097
0.0438808
0.0431014
0.0423797
0.041724
0.0411448
0.04065
0.0402485
0.0399477
0.0397528
0.0396664
0.0766123
0.0757837
0.0749486
0.0741063
0.073257
0.0724017
0.0715402
0.0706724
0.0697975
0.0689159
0.0680271
0.0671295
0.0662229
0.0653092
0.0643899
0.063464
0.062531
0.0615919
0.0606476
0.0596971
0.058741
0.0577813
0.0568201
0.0558599
0.0549017
0.0539449
0.0529921
0.0520494
0.0511194
0.0502059
0.0493152
0.0484513
0.047619
0.046828
0.0460842
0.0453952
0.044768
0.0442124
0.0437368
0.0433499
0.0430586
0.0428675
0.0427801
0.0773122
0.0765619
0.0758047
0.0750394
0.0742637
0.0734817
0.0726916
0.0718947
0.0710885
0.0702738
0.0694533
0.068623
0.0677792
0.0669238
0.066064
0.0651984
0.0643229
0.0634382
0.0625493
0.0616541
0.0607504
0.0598396
0.058925
0.0580095
0.0571004
0.0561924
0.0552795
0.0543772
0.0534869
0.0526097
0.0517534
0.0509266
0.0501213
0.0493601
0.0486452
0.0479832
0.0473794
0.0468402
0.0463782
0.046002
0.0457172
0.0455284
0.0454396
0.0779555
0.0772669
0.0765741
0.0758793
0.0751671
0.0744517
0.0737172
0.0729792
0.0722326
0.0714691
0.070704
0.0699342
0.0691517
0.0683416
0.0675274
0.0667115
0.06589
0.0650468
0.0642012
0.063354
0.0624995
0.0616295
0.0607586
0.0598699
0.0589944
0.0581411
0.0572629
0.0563959
0.0555405
0.0546977
0.0538515
0.0530726
0.0522824
0.0515448
0.0508515
0.0502143
0.0496368
0.0491088
0.0486567
0.0482887
0.0480081
0.0478195
0.0477281
0.00852098
0.0105421
0.0117021
0.0127968
0.0139532
0.0151815
0.0164656
0.0177906
0.0191439
0.0205178
0.0219071
0.0233066
0.0247146
0.0261299
0.0275497
0.0289747
0.0304032
0.0318354
0.033271
0.0347095
0.0361511
0.0375954
0.0390429
0.0404926
0.0419452
0.0434004
0.0448581
0.0463182
0.0477804
0.049245
0.0507114
0.0521795
0.0536492
0.0551201
0.0565922
0.0580651
0.0595387
0.0610127
0.0624866
0.0639602
0.0654325
0.0669027
0.0683703
0.0195086
0.0197711
0.020219
0.0208352
0.0215981
0.022482
0.0234638
0.0245219
0.0256404
0.0268054
0.028005
0.0292321
0.0304801
0.0317426
0.0330177
0.0343008
0.0355908
0.0368858
0.0381842
0.0394851
0.0407882
0.0420927
0.043398
0.0447045
0.0460116
0.047319
0.0486267
0.0499349
0.0512431
0.0525514
0.0538598
0.0551681
0.0564761
0.0577842
0.0590923
0.0604002
0.0617081
0.0630159
0.0643235
0.0656308
0.0669376
0.0682439
0.0695518
0.0262487
0.0264451
0.0267889
0.0272716
0.0278802
0.0285989
0.0294116
0.0303034
0.0312607
0.0322701
0.0333211
0.034406
0.0355167
0.0366482
0.0377948
0.038953
0.0401197
0.0412928
0.04247
0.0436503
0.0448324
0.0460151
0.0471987
0.0483817
0.049564
0.0507453
0.0519259
0.0531049
0.0542823
0.0554583
0.0566328
0.0578058
0.0589773
0.0601475
0.0613163
0.062484
0.0636509
0.064817
0.0659824
0.067147
0.068311
0.0694743
0.0706383
0.0316136
0.0317781
0.0320692
0.0324808
0.0330038
0.0336263
0.0343368
0.0351235
0.0359735
0.0368757
0.0378213
0.038802
0.0398104
0.0408402
0.0418868
0.042946
0.0440141
0.0450888
0.0461677
0.047249
0.0483314
0.0494144
0.0504967
0.0515774
0.0526563
0.0537333
0.0548075
0.0558787
0.0569467
0.058012
0.0590743
0.0601339
0.0611904
0.062244
0.063295
0.0643439
0.065391
0.0664362
0.0674797
0.0685218
0.0695623
0.070601
0.0716378
0.0360146
0.0361594
0.0364176
0.0367846
0.0372534
0.0378143
0.0384573
0.0391716
0.0399465
0.0407725
0.0416408
0.0425435
0.0434735
0.044425
0.0453933
0.0463741
0.0473635
0.0483589
0.0493576
0.0503579
0.0513591
0.0523596
0.0533586
0.0543556
0.0553495
0.0563395
0.0573253
0.0583064
0.0592833
0.0602561
0.0612249
0.062189
0.0631484
0.0641036
0.0650551
0.0660033
0.0669484
0.0678904
0.0688296
0.0697663
0.0707007
0.0716323
0.0725623
0.0396892
0.0398197
0.0400554
0.0403922
0.0408235
0.041341
0.0419353
0.0425973
0.0433173
0.0440863
0.0448962
0.0457392
0.0466088
0.047499
0.0484057
0.0493239
0.0502495
0.0511803
0.0521136
0.053048
0.0539823
0.0549154
0.0558468
0.0567749
0.0576982
0.0586156
0.0595271
0.0604332
0.0613342
0.0622302
0.0631206
0.0640042
0.0648814
0.0657534
0.0666206
0.0674834
0.0683417
0.0691954
0.0700451
0.0708914
0.0717342
0.072573
0.0734074
0.042797
0.0429174
0.0431383
0.0434528
0.043856
0.0443407
0.0448983
0.0455204
0.0461988
0.046924
0.0476881
0.0484842
0.0493062
0.0501484
0.0510058
0.0518732
0.0527464
0.0536233
0.0545027
0.0553825
0.0562618
0.0571404
0.0580168
0.0588882
0.0597516
0.060607
0.061456
0.0622995
0.0631377
0.0639701
0.0647944
0.0656091
0.066416
0.0672174
0.0680134
0.0688042
0.0695884
0.070366
0.0711386
0.0719074
0.0726717
0.0734303
0.0741826
0.0454518
0.0455651
0.0457781
0.0460736
0.0464551
0.0469135
0.0474416
0.0480314
0.0486788
0.049369
0.0500961
0.0508547
0.0516395
0.0524428
0.0532599
0.0540854
0.0549139
0.0557447
0.0565799
0.0574141
0.0582483
0.0590828
0.0599164
0.0607395
0.0615494
0.0623513
0.0631476
0.0639397
0.0647273
0.0655073
0.0662747
0.0670278
0.0677744
0.0685173
0.0692538
0.0699838
0.0707039
0.0714149
0.0721213
0.0728242
0.0735217
0.0742112
0.0748906
0.0477369
0.0478412
0.0480556
0.0483268
0.048693
0.0491293
0.0496291
0.0501865
0.0508152
0.0514762
0.0521696
0.0528973
0.0536533
0.054422
0.055206
0.0559955
0.056783
0.0575763
0.0583785
0.0591716
0.0599723
0.0607732
0.0615739
0.0623466
0.0631069
0.0638654
0.0646202
0.065373
0.0661211
0.0668579
0.0675711
0.0682667
0.0689684
0.069666
0.0703505
0.0710303
0.0716913
0.0723461
0.0730002
0.0736501
0.0742939
0.0749268
0.0755429
0.0248755
0.0240837
0.0232998
0.0225236
0.0217554
0.0209956
0.0202446
0.0195028
0.0187706
0.0180483
0.017336
0.016634
0.0159423
0.0152611
0.0145903
0.0139299
0.0132799
0.0126401
0.0120103
0.0113905
0.0107804
0.0101799
0.00958864
0.00900652
0.00843333
0.00786888
0.00731315
0.00676609
0.00622783
0.00569875
0.00517941
0.0046707
0.0041739
0.00369092
0.00322407
0.00277613
0.00235032
0.00194946
0.00157539
0.00122488
0.000877089
0.000626009
0.000408105
0.0248452
0.0241075
0.0233801
0.0226605
0.0219479
0.0212422
0.0205435
0.0198519
0.0191677
0.0184909
0.0178217
0.0171602
0.0165063
0.0158602
0.0152216
0.0145907
0.0139672
0.0133511
0.0127422
0.0121403
0.0115453
0.0109569
0.0103751
0.0097996
0.00923035
0.00866717
0.00811019
0.00755942
0.00701506
0.00647762
0.00594783
0.00542655
0.00491521
0.00441536
0.00392904
0.00345855
0.00300553
0.00257105
0.00215314
0.00174614
0.00136694
0.00103734
0.000704057
0.0248142
0.0241346
0.0234624
0.0227965
0.0221363
0.0214814
0.0208316
0.0201868
0.0195471
0.0189126
0.0182832
0.0176588
0.0170397
0.0164255
0.0158164
0.0152121
0.0146125
0.0140177
0.0134273
0.0128413
0.0122596
0.0116818
0.0111081
0.0105381
0.00997198
0.00940956
0.00885103
0.00829641
0.00774603
0.00720044
0.00666031
0.00612657
0.00560039
0.00508305
0.00457602
0.00408055
0.00359669
0.0031222
0.0026497
0.00216638
0.00176294
0.00136937
0.000927275
0.0247777
0.0241575
0.0235381
0.0229217
0.022309
0.0216997
0.0210936
0.0204906
0.0198906
0.0192936
0.0186994
0.0181081
0.0175195
0.0169336
0.0163503
0.0157694
0.0151909
0.0146146
0.0140404
0.0134682
0.0128979
0.0123292
0.0117623
0.011197
0.0106331
0.0100709
0.00951044
0.00895179
0.00839541
0.00784173
0.00729142
0.00674532
0.00620431
0.00566949
0.00514161
0.00462092
0.00410592
0.00359271
0.00307576
0.00256964
0.00210737
0.00163725
0.00110315
0.0247482
0.0241778
0.0236063
0.0230352
0.0224653
0.0218969
0.0213297
0.0207639
0.0201991
0.0196352
0.0190722
0.0185099
0.0179483
0.0173872
0.0168266
0.0162662
0.0157061
0.015146
0.0145859
0.0140256
0.013465
0.0129041
0.0123429
0.0117812
0.0112191
0.0106565
0.0100937
0.00953095
0.00896855
0.00840686
0.00784656
0.00728834
0.00673299
0.00618117
0.00563295
0.00508749
0.0045416
0.00398882
0.00342056
0.00289924
0.00239583
0.00185624
0.00124553
0.0247221
0.0241962
0.0236676
0.0231375
0.0226064
0.0220747
0.0215425
0.0210096
0.020476
0.0199415
0.0194061
0.0188695
0.0183316
0.0177924
0.0172517
0.0167095
0.0161655
0.0156197
0.0150718
0.0145218
0.0139697
0.0134154
0.0128589
0.0123001
0.011739
0.0111758
0.0106106
0.0100436
0.00947522
0.00890574
0.00833584
0.0077661
0.00719708
0.00662904
0.00606142
0.00549231
0.00491697
0.00432682
0.00371222
0.00317091
0.00263447
0.00203604
0.00136191
0.0246981
0.0242126
0.0237228
0.0232297
0.0227337
0.0222352
0.0217341
0.0212305
0.0207247
0.0202164
0.0197055
0.0191916
0.0186746
0.0181547
0.0176318
0.0171057
0.0165763
0.0160432
0.0155064
0.0149654
0.0144206
0.013872
0.0133195
0.0127631
0.0122028
0.0116387
0.0110711
0.0105001
0.00992587
0.00934906
0.00877011
0.0081895
0.00760756
0.0070242
0.0064383
0.00584726
0.00524524
0.00462331
0.00397561
0.00340577
0.00283558
0.00218491
0.00145798
0.0246769
0.0242275
0.0237723
0.0233125
0.0228484
0.02238
0.021907
0.0214293
0.0209477
0.0204629
0.0199746
0.0194811
0.0189824
0.0184792
0.017972
0.0174605
0.0169445
0.0164239
0.0158975
0.015365
0.0148265
0.0142824
0.0137335
0.01318
0.0126201
0.012055
0.0114857
0.0109112
0.0103319
0.00974816
0.00916077
0.00857007
0.00797603
0.00737812
0.00677526
0.00616385
0.00553795
0.00489089
0.00423057
0.00362141
0.00301154
0.00230788
0.00153381
0.0246596
0.0242414
0.0238163
0.023386
0.0229509
0.022511
0.0220643
0.021609
0.0211468
0.0206814
0.0202162
0.0197434
0.0192599
0.0187701
0.0182761
0.017778
0.0172748
0.0167676
0.0162534
0.0157304
0.0151985
0.0146573
0.0141096
0.0135624
0.0130048
0.0124369
0.0118671
0.0112913
0.0107088
0.0101188
0.00952376
0.00892474
0.00831992
0.00770832
0.00708937
0.00645915
0.00581029
0.00514108
0.00447014
0.00383351
0.00319029
0.00244562
0.00162275
0.000373339
0.000480661
0.000674088
0.000857108
0.00103189
0.00120019
0.00136381
0.00152519
0.00168785
0.00185709
0.0020405
0.00224705
0.0024827
0.00274852
0.00304357
0.00336553
0.00371292
0.00408487
0.00448119
0.004902
0.00534752
0.00581813
0.00631459
0.00683719
0.00738676
0.0079636
0.00856844
0.00920165
0.00986404
0.0105562
0.0112792
0.0120338
0.0128208
0.0136412
0.0144958
0.0153857
0.0163119
0.0172753
0.0182768
0.0193175
0.0203984
0.0215209
0.0226884
0.000528843
0.000635695
0.000832842
0.00102536
0.0012097
0.00138802
0.00156399
0.00174269
0.00193032
0.00213405
0.00236098
0.00261761
0.00290671
0.00322301
0.00356353
0.00392686
0.00431199
0.00471857
0.0051465
0.00559572
0.00606663
0.0065596
0.00707485
0.00761267
0.00817318
0.00875691
0.00936441
0.00999601
0.0106523
0.0113339
0.0120416
0.0127759
0.0135375
0.0143273
0.0151459
0.0159943
0.0168734
0.0177839
0.0187266
0.0197023
0.0207124
0.0217585
0.0228445
0.000673489
0.000775224
0.000978432
0.00118105
0.00137673
0.00156934
0.00176498
0.00197078
0.00219377
0.00243985
0.0027135
0.00301858
0.00335448
0.00371372
0.00409378
0.00449357
0.0049125
0.00535017
0.00580651
0.00628154
0.00677528
0.00728785
0.00781956
0.0083702
0.00893986
0.00952892
0.0101378
0.0107668
0.0114163
0.0120867
0.0127788
0.0134929
0.0142295
0.0149894
0.0157731
0.0165811
0.0174143
0.0182733
0.019159
0.0200721
0.0210136
0.0219849
0.0229879
0.000799371
0.000897636
0.0011082
0.0013217
0.00153131
0.00174296
0.00196461
0.00220381
0.00246618
0.00275507
0.00307254
0.00342175
0.0037975
0.00419348
0.00460776
0.00503942
0.00548788
0.00595291
0.00643435
0.00693179
0.00744522
0.00797476
0.00851997
0.00908102
0.00965782
0.0102506
0.0108596
0.0114852
0.0121275
0.0127869
0.0134638
0.0141585
0.0148714
0.0156031
0.016354
0.0171245
0.0179152
0.0187267
0.0195596
0.0204145
0.0212924
0.0221936
0.0231189
0.000906874
0.00100496
0.00122419
0.00144999
0.0016764
0.00191119
0.00216288
0.00243776
0.00273911
0.00306784
0.00342512
0.00381336
0.00422364
0.0046517
0.00509604
0.00555578
0.00603039
0.00651938
0.00702266
0.0075397
0.00807011
0.00861367
0.00917051
0.00973998
0.0103225
0.0109179
0.0115263
0.0121479
0.012783
0.0134315
0.0140939
0.0147704
0.0154613
0.0161668
0.0168874
0.0176233
0.018375
0.0191429
0.0199274
0.0207292
0.0215486
0.0223862
0.0232442
0.000998767
0.00109988
0.00132895
0.00156864
0.0018144
0.00207504
0.00235832
0.00266839
0.00300611
0.00337101
0.00376478
0.00418657
0.0046271
0.00508358
0.00555461
0.00603929
0.00653707
0.00704739
0.00756987
0.00810394
0.00864903
0.00920492
0.0097713
0.0103479
0.0109349
0.011532
0.0121394
0.012757
0.0133849
0.0140232
0.014672
0.0153316
0.0160019
0.0166834
0.0173762
0.0180803
0.0187961
0.0195241
0.0202644
0.0210172
0.0217827
0.0225606
0.0233492
0.0010776
0.00118414
0.00142427
0.00167944
0.00194648
0.00223418
0.0025487
0.00289188
0.00326264
0.00366001
0.00408715
0.00453811
0.00500558
0.00548732
0.0059822
0.00648925
0.00700778
0.00753714
0.00807669
0.00862556
0.00918351
0.00975
0.0103249
0.0109077
0.0114983
0.0120967
0.0127025
0.013316
0.0139371
0.0145657
0.0152021
0.0158459
0.0164974
0.0171566
0.0178237
0.0184987
0.0191816
0.0198729
0.0205723
0.0212802
0.0219963
0.0227196
0.0234494
0.00114672
0.00126259
0.001514
0.00178497
0.00207325
0.00238738
0.00273162
0.00310519
0.0035056
0.00393251
0.00438927
0.00486616
0.00535801
0.00586282
0.0063792
0.00690658
0.00744394
0.00799041
0.00854517
0.00910761
0.00967747
0.010254
0.0108361
0.0114243
0.0120182
0.0126169
0.0132205
0.0138295
0.0144444
0.0150643
0.0156886
0.0163175
0.0169517
0.0175906
0.0182338
0.0188816
0.0195338
0.020191
0.0208532
0.0215203
0.0221915
0.0228653
0.0235425
0.00120326
0.00131937
0.00158507
0.00187504
0.00219012
0.00253505
0.00290758
0.00330831
0.00373692
0.00419308
0.00467713
0.00517972
0.00569579
0.00622108
0.00675599
0.00730322
0.00785949
0.00842088
0.00898904
0.0095644
0.0101489
0.0107344
0.011319
0.0119129
0.0125087
0.0131029
0.0137003
0.0143045
0.0149161
0.0155283
0.0161384
0.016752
0.0173712
0.0179921
0.0186114
0.0192321
0.0198551
0.0204799
0.0211082
0.0217395
0.0223718
0.0229991
0.0236294
0.000570374
0.00217714
0.00412369
0.00597382
0.00763706
0.0091287
0.010497
0.0117803
0.0129986
0.014168
0.0153628
0.0166973
0.0181434
0.0196631
0.0212308
0.0228315
0.0244567
0.026102
0.0277641
0.029441
0.0311304
0.0328313
0.034543
0.0362646
0.0379944
0.0397323
0.0414776
0.0432292
0.0449864
0.0467482
0.0485141
0.0502832
0.0520546
0.0538276
0.0556011
0.0573744
0.0591471
0.0609178
0.0626859
0.0644504
0.0662109
0.0679664
0.0697152
0.000420788
0.00201819
0.00362592
0.00502466
0.00634511
0.00761723
0.00884655
0.0100359
0.0111916
0.0123278
0.0134756
0.0146696
0.0159084
0.0171733
0.0185216
0.0200236
0.0216275
0.0232938
0.0250014
0.0267373
0.0284945
0.0302684
0.0320561
0.0338549
0.0356629
0.0374793
0.0393027
0.0411316
0.0429651
0.0448026
0.0466428
0.0484849
0.0503283
0.0521715
0.054014
0.0558552
0.0576937
0.0595288
0.0613598
0.0631856
0.0650055
0.0668186
0.0686236
0.000295791
0.00147812
0.00316483
0.00486179
0.00628607
0.00752293
0.00864467
0.0096994
0.0107204
0.0117329
0.0127573
0.0138087
0.0148957
0.0160231
0.0172055
0.0184538
0.0197788
0.0212807
0.022909
0.0246168
0.026376
0.0281702
0.0299897
0.031828
0.033681
0.035546
0.0374201
0.0393013
0.0411887
0.0430805
0.0449751
0.0468719
0.0487694
0.0506665
0.0525626
0.0544564
0.0563469
0.0582334
0.0601148
0.0619899
0.0638581
0.0657175
0.0675652
0.000286753
0.00135147
0.0028983
0.00467177
0.00626597
0.0076335
0.00882157
0.00987924
0.0108509
0.0117754
0.0126848
0.0136043
0.0145527
0.0155436
0.0165858
0.0176841
0.0188474
0.020096
0.021461
0.0230114
0.0246859
0.0264391
0.0282445
0.0300859
0.0319534
0.0338407
0.0357427
0.0376564
0.0395793
0.0415089
0.0434433
0.0453811
0.0473207
0.0492609
0.0512002
0.0531377
0.0550721
0.057002
0.0589267
0.0608451
0.0627558
0.0646583
0.066554
0.000248136
0.00123154
0.00263232
0.00432253
0.00604154
0.00757599
0.00890834
0.0100706
0.0110992
0.0120312
0.0129026
0.0137474
0.0145948
0.0154685
0.0163853
0.0173562
0.0183893
0.0194905
0.0206711
0.0219572
0.0234297
0.0250622
0.0267988
0.0286035
0.0304549
0.0323397
0.0342488
0.0361767
0.038119
0.0400721
0.0420333
0.0440005
0.0459717
0.0479451
0.0499191
0.0518923
0.0538629
0.0558299
0.057792
0.0597477
0.061696
0.0636358
0.065566
0.000229064
0.00116084
0.00247669
0.00407842
0.00581078
0.00743841
0.00888611
0.010159
0.0112802
0.0122764
0.0131771
0.0140136
0.0148174
0.0156182
0.0164409
0.0173053
0.0182249
0.0192085
0.0202631
0.0213983
0.0226411
0.0240539
0.0256515
0.0273722
0.0291735
0.0310303
0.0329263
0.0348515
0.0367984
0.0387619
0.0407384
0.0427245
0.0447175
0.0467153
0.0487158
0.0507172
0.0527175
0.0547153
0.0567089
0.0586969
0.0606777
0.0626493
0.0646091
0.000208437
0.00109438
0.00233236
0.00384201
0.00554002
0.00722708
0.00877003
0.010144
0.0113604
0.012439
0.013402
0.0142745
0.0150842
0.01586
0.0166303
0.0174201
0.0182499
0.0191348
0.0200851
0.0211087
0.0222154
0.0234292
0.0248112
0.0263903
0.0281024
0.0299032
0.0317653
0.033671
0.0356087
0.0375709
0.0395521
0.0415474
0.0435535
0.0455678
0.0475874
0.0496101
0.0516339
0.0536566
0.0556765
0.0576916
0.0597001
0.0616997
0.0636874
0.000193954
0.00104122
0.00221736
0.00365182
0.0052908
0.00699025
0.00859699
0.0100529
0.0113545
0.0125143
0.0135489
0.0144779
0.0153234
0.0161105
0.0168659
0.0176161
0.0183856
0.0191945
0.0200586
0.0209888
0.0219935
0.0230833
0.0242832
0.0256609
0.0272382
0.0289517
0.0307571
0.0326264
0.0345417
0.0364915
0.0384674
0.0404633
0.0424751
0.0444984
0.0465303
0.0485683
0.0506097
0.0526519
0.0546929
0.0567308
0.058763
0.0607872
0.0628005
0.000180781
0.000993088
0.00211411
0.003481
0.00505457
0.00673849
0.0083839
0.009905
0.0112804
0.0125146
0.01362
0.0146117
0.0155072
0.0163272
0.0170948
0.017835
0.0185726
0.0193307
0.020129
0.0209826
0.0219029
0.0228989
0.0239826
0.0251844
0.0265803
0.0281711
0.029895
0.0317102
0.0335896
0.0355162
0.0374779
0.0394668
0.0414766
0.0435027
0.0455411
0.0475887
0.0496423
0.0516993
0.053757
0.0558133
0.0578654
0.0599108
0.0619473
0.000168872
0.000950631
0.00202302
0.00333053
0.00484088
0.0064892
0.00814883
0.0097172
0.0111539
0.0124543
0.0136256
0.0146794
0.0156299
0.0164937
0.0172903
0.0180414
0.0187706
0.0195011
0.0202546
0.0210497
0.0219011
0.0228199
0.0238159
0.0249043
0.0261242
0.0275574
0.0291737
0.0309158
0.0327455
0.0346381
0.0365773
0.0385516
0.0405533
0.0425762
0.0446157
0.0466678
0.0487292
0.0507963
0.0528667
0.0549376
0.0570061
0.0590698
0.0611266
0.000157921
0.000912181
0.00194081
0.00319495
0.00464619
0.00624909
0.00790379
0.00950243
0.0109885
0.0123461
0.013577
0.0146897
0.0156952
0.0166072
0.0174416
0.0182173
0.0189549
0.0196768
0.0204048
0.0211591
0.0219572
0.0228129
0.0237373
0.0247419
0.025847
0.0271064
0.0285883
0.0302376
0.0320032
0.0338512
0.0357593
0.0377122
0.0396998
0.0417145
0.0437503
0.0458026
0.0478673
0.0499408
0.0520201
0.054102
0.0561837
0.0582624
0.0603358
0.000147669
0.0008771
0.00186606
0.00307185
0.00446856
0.00602271
0.00765772
0.00927136
0.0107947
0.0122007
0.0134845
0.0146513
0.0157096
0.0166704
0.0175469
0.0183549
0.0191125
0.0198399
0.0205581
0.0212876
0.0220474
0.0228535
0.0237193
0.0246562
0.0256782
0.0268139
0.0281363
0.0296714
0.0313575
0.0331499
0.0350185
0.0369436
0.0389118
0.0409134
0.0429412
0.0449896
0.0470541
0.0491304
0.0512152
0.0533051
0.0553971
0.0574881
0.0595756
0.000138159
0.000845004
0.00179769
0.00295938
0.00430598
0.00581097
0.00741683
0.00903215
0.0105816
0.0120269
0.013357
0.0145728
0.0156804
0.0166886
0.0176083
0.0184527
0.0192374
0.0199803
0.0207008
0.0214189
0.0221538
0.0229231
0.023742
0.0246231
0.0255789
0.0266276
0.0278114
0.0292128
0.030804
0.0325292
0.0343501
0.0362411
0.0381845
0.0401686
0.0421845
0.0442257
0.0462863
0.0483624
0.0504498
0.0525451
0.0546447
0.0567465
0.0588492
0.000129323
0.000815504
0.00173491
0.00285616
0.00415643
0.00561414
0.00718503
0.00879142
0.010356
0.0118325
0.0132021
0.0144617
0.0156145
0.0166676
0.0176299
0.0185123
0.0193283
0.0200933
0.020825
0.021542
0.0222635
0.0230075
0.0237902
0.024626
0.0255275
0.0265093
0.0275976
0.0288569
0.0303383
0.0319851
0.03375
0.0356001
0.037514
0.0394765
0.041477
0.0435074
0.0455616
0.0476347
0.049722
0.0518199
0.0539254
0.056036
0.0581509
0.000121092
0.000788221
0.00167684
0.00276075
0.00401834
0.00543092
0.00696428
0.00855346
0.010124
0.0116233
0.0130261
0.0143241
0.0155181
0.0166131
0.0176163
0.0185367
0.0193858
0.0201771
0.0209262
0.0216504
0.0223677
0.0230961
0.0238527
0.0246527
0.0255096
0.026437
0.0274538
0.0285997
0.0299572
0.0315141
0.0332139
0.035017
0.0368962
0.0388332
0.0408149
0.042832
0.0448771
0.0469445
0.0490295
0.0511281
0.0532371
0.0553541
0.0574789
0.000113445
0.00076285
0.00162299
0.0026724
0.00389038
0.00526047
0.00675537
0.00832154
0.00988993
0.0114049
0.0128343
0.0141656
0.0153966
0.0165303
0.017572
0.0185295
0.0194124
0.0202322
0.021003
0.0217401
0.0224605
0.0231817
0.0239207
0.0246935
0.0255144
0.026397
0.0273572
0.0284222
0.0296554
0.0311119
0.0327386
0.0344881
0.036328
0.0382357
0.0401957
0.0421966
0.0442302
0.0462899
0.0483704
0.0504674
0.0525774
0.0546971
0.0568228
0.000107914
0.000739237
0.00157303
0.00259044
0.00377165
0.00510168
0.00655835
0.00809761
0.00965757
0.0111808
0.0126311
0.013991
0.0152548
0.0164237
0.0175015
0.0184945
0.0194107
0.0202602
0.0210551
0.0218093
0.0225385
0.0232591
0.0239879
0.0247411
0.0255336
0.0263795
0.0272934
0.0282959
0.0294293
0.0307758
0.0323208
0.0340106
0.0358064
0.0376811
0.0396163
0.0415987
0.0436185
0.0456685
0.0477425
0.0498361
0.0519448
0.0540649
0.0561916
0.00010288
0.000717089
0.00152633
0.00251385
0.00366069
0.00495315
0.00637253
0.00788283
0.00942899
0.0109548
0.0124204
0.0138038
0.0150967
0.0162973
0.0174086
0.0184352
0.0193838
0.0202631
0.0210836
0.0218577
0.0225997
0.0233251
0.0240498
0.02479
0.025561
0.0263771
0.0272527
0.0282053
0.0292655
0.0305012
0.0319575
0.0335816
0.0353285
0.0371667
0.0390743
0.0410357
0.0430398
0.0450781
0.0471441
0.0492323
0.0513381
0.0534574
0.0555857
9.80995e-05
0.000696394
0.0014826
0.00244229
0.003557
0.00481417
0.00619776
0.00767781
0.00920633
0.0107295
0.0122051
0.0136078
0.0149256
0.016155
0.0172969
0.0183549
0.0193345
0.0202432
0.0210899
0.0218857
0.0226436
0.0233777
0.0241034
0.0248363
0.0255917
0.0263842
0.0272283
0.0281399
0.0291428
0.0302852
0.0316459
0.0331983
0.0348918
0.03669
0.0385672
0.0405056
0.0424919
0.044517
0.0465731
0.0486544
0.0507559
0.052873
0.0550016
9.36316e-05
0.000676933
0.00144174
0.00237519
0.00345992
0.00468398
0.00603318
0.00748271
0.00899066
0.0105068
0.011988
0.0134055
0.0147447
0.0159995
0.0171694
0.0182567
0.0192658
0.0202028
0.0210757
0.0218943
0.02267
0.023416
0.0241467
0.0248769
0.0256219
0.0263964
0.0272149
0.0280925
0.0290492
0.0301209
0.0313831
0.0328582
0.034494
0.0362487
0.038093
0.0400059
0.041973
0.043983
0.0460279
0.0481011
0.0501967
0.05231
0.0544358
8.93935e-05
0.000658779
0.00140337
0.00231223
0.00336883
0.00456165
0.00587825
0.0072974
0.00878288
0.0102885
0.0117709
0.0131994
0.0145563
0.0158336
0.0170288
0.0181431
0.0191799
0.0201443
0.0210431
0.0218847
0.0226797
0.0234398
0.0241785
0.02491
0.0256491
0.0264104
0.0272084
0.0280579
0.0289766
0.0299931
0.0311656
0.0325592
0.034133
0.0358409
0.0376495
0.0395352
0.0414811
0.0434748
0.0455073
0.0475707
0.0496595
0.0517675
0.0538897
8.54305e-05
0.000641773
0.00136733
0.00225314
0.00328319
0.00444653
0.00573216
0.00712146
0.00858334
0.0100755
0.0115556
0.0129914
0.0143629
0.0156596
0.0168776
0.0180168
0.0190795
0.0200699
0.0209937
0.0218584
0.0226734
0.0234492
0.0241984
0.0249343
0.0256713
0.0264236
0.0272056
0.0280319
0.0289192
0.0298907
0.030991
0.032299
0.0338068
0.0354647
0.0372352
0.0390916
0.0410147
0.0429909
0.0450094
0.0470624
0.049143
0.0512456
0.0533646
8.17187e-05
0.000625698
0.00133343
0.00219762
0.00320256
0.00433813
0.00559413
0.00695454
0.00839209
0.00986859
0.0113434
0.0127833
0.0141661
0.0154795
0.0167179
0.0178797
0.0189666
0.0199815
0.0209294
0.0218169
0.0226521
0.0234447
0.0242062
0.0249492
0.0256871
0.026434
0.027204
0.0280117
0.0288726
0.0298074
0.0308512
0.032075
0.0335135
0.0351184
0.0368484
0.0386736
0.0405724
0.0425295
0.0445332
0.0465747
0.048647
0.0507447
0.0528637
7.81531e-05
0.000610525
0.00130145
0.00214508
0.00312647
0.00423578
0.00546369
0.00679609
0.00820913
0.00966832
0.0111352
0.0125762
0.0139676
0.0152951
0.0165513
0.0177338
0.0188429
0.0198809
0.0208519
0.0217616
0.0226171
0.0234272
0.0242022
0.0249541
0.0256956
0.0264402
0.0272018
0.0279945
0.0288337
0.0297379
0.0307361
0.031885
0.0332512
0.0348004
0.0364876
0.0382795
0.0401527
0.0420896
0.0440776
0.0461068
0.04817
0.0502615
0.0523778
7.47984e-05
0.000596222
0.00127122
0.00209546
0.00305457
0.00413904
0.00534022
0.00664562
0.00803419
0.00947496
0.0109318
0.0123714
0.0137686
0.0151076
0.0163795
0.0175806
0.0187102
0.0197698
0.0207628
0.0216939
0.0225694
0.0233972
0.0241869
0.0249493
0.0256964
0.0264413
0.0271974
0.0279788
0.0288
0.0296785
0.0306389
0.0317266
0.0330186
0.0345091
0.0361512
0.0379085
0.0397545
0.0416701
0.0436414
0.0456576
0.0477113
0.0497966
0.0519104
7.16624e-05
0.000582699
0.00124258
0.00204851
0.00298649
0.00404747
0.00522325
0.00650261
0.00786689
0.00928855
0.0107337
0.0121694
0.0135702
0.0149184
0.0162038
0.0174216
0.01857
0.0196498
0.0206635
0.0216151
0.0225103
0.0233559
0.0241608
0.0249347
0.0256892
0.0264366
0.0271899
0.0279627
0.0287694
0.0296264
0.0305556
0.0315942
0.0328133
0.0342432
0.0358383
0.0375591
0.0393766
0.0412699
0.0432234
0.045226
0.0472691
0.0493456
0.05145
6.88954e-05
0.0005699
0.00121552
0.00200409
0.00292203
0.00396061
0.00511223
0.00636657
0.00770726
0.00910924
0.0105411
0.0119712
0.0133733
0.0147286
0.0160256
0.0172581
0.0184237
0.0195221
0.0205553
0.0215266
0.0224408
0.0233041
0.0241244
0.0249108
0.025674
0.0264256
0.0271783
0.0279452
0.0287405
0.0295796
0.0304825
0.0314806
0.0326338
0.0340013
0.0355473
0.03723
0.0390178
0.0408876
0.0428227
0.0448108
0.0468421
0.0489093
0.0510058
6.70922e-05
0.000557805
0.00118996
0.001962
0.00286096
0.0038783
0.00500683
0.00623723
0.00755476
0.00893685
0.0103545
0.0117773
0.0131787
0.014539
0.0158456
0.0170912
0.0182722
0.019388
0.0204395
0.0214295
0.022362
0.0232427
0.0240785
0.024878
0.0256509
0.0264083
0.0271622
0.0279256
0.0287119
0.0295362
0.0304169
0.0313812
0.0324785
0.033782
0.0352774
0.0369204
0.0386773
0.0405227
0.0424385
0.0444112
0.0464302
0.0484878
0.0505768
6.73959e-05
0.000546218
0.00116568
0.00192205
0.0028029
0.00380005
0.00490659
0.00611401
0.00740898
0.00877119
0.0101739
0.0115879
0.0129868
0.0143504
0.0156649
0.0169218
0.0181168
0.0192484
0.0203171
0.0213248
0.022275
0.0231726
0.0240239
0.0248367
0.0256201
0.0263845
0.0271413
0.027903
0.0286827
0.029495
0.030357
0.0312929
0.0323442
0.0335843
0.0350273
0.0366295
0.0383541
0.0401741
0.0420699
0.0440264
0.0460326
0.0480802
0.0501631
7.04778e-05
0.000535138
0.00114255
0.00188399
0.00274766
0.00372554
0.00481114
0.00599653
0.00726965
0.00861212
0.00999916
0.0114032
0.0127982
0.0141634
0.015484
0.0167507
0.0179583
0.0191045
0.020189
0.0212134
0.0221805
0.0230946
0.0239613
0.0247875
0.025582
0.0263543
0.0271154
0.0278771
0.0286522
0.0294549
0.0303012
0.0312132
0.0322264
0.0334065
0.0347961
0.0363559
0.0380472
0.039841
0.0417158
0.0436557
0.0456484
0.0476853
0.0497588
7.57095e-05
0.000524584
0.00112069
0.00184787
0.00269516
0.00365466
0.00472018
0.00588445
0.00713636
0.00845915
0.00983032
0.0112235
0.0126133
0.0139785
0.0153038
0.0165788
0.0177975
0.0189569
0.0200563
0.0210964
0.0220795
0.0230095
0.0238912
0.0247311
0.0255369
0.0263179
0.0270843
0.0278475
0.0286198
0.0294149
0.0302482
0.0311399
0.0321209
0.0332476