/*--------------------------------*- C++ -*----------------------------------*\
| =========                 |                                                 |
| \\      /  F ield         | OpenFOAM: The Open Source CFD Toolbox           |
|  \\    /   O peration     | Version:  2.3.0                                 |
|   \\  /    A nd           | Web:      www.OpenFOAM.org                      |
|    \\/     M anipulation  |                                                 |
\*---------------------------------------------------------------------------*/
FoamFile
{
    version     2.0;
    format      ascii;
    class       surfaceScalarField;
    location    "2000";
    object      phi;
}
// * * * * * * * * * * * * * * * * * * * * * * * * * * * * * * * * * * * * * //

dimensions      [0 3 -1 0 0 0 0];

internalField   nonuniform List<scalar> 
74652
(
-0.00197086
-0.00766882
0.00840413
0.00123554
-0.00265929
-0.00741641
0.00810484
-0.0033038
-0.00717122
0.00781574
-0.0039043
-0.00693617
0.00753667
-0.004465
-0.00670769
0.00726839
-0.00498599
-0.00648816
0.00700915
-0.00546962
-0.00627601
0.00675963
-0.00591487
-0.0060719
0.00651714
-0.00632643
-0.00587424
0.0062858
-0.00670307
-0.00568445
0.00606109
-0.00704631
-0.00550112
0.00584436
-0.00735924
-0.0053233
0.00563623
-0.00764209
-0.00515171
0.00543455
-0.00789658
-0.00498535
0.00523985
-0.00812301
-0.00482662
0.00505305
-0.00832319
-0.00467165
0.00487183
-0.00849964
-0.00452094
0.00469739
-0.00865106
-0.00437726
0.00452868
-0.00878079
-0.00423672
0.00436645
-0.00889102
-0.00410085
0.00421108
-0.00898128
-0.00396915
0.00405941
-0.0090531
-0.00384081
0.00391263
-0.00910971
-0.00371655
0.00377317
-0.00915246
-0.00359577
0.00363852
-0.00918293
-0.00347733
0.00350781
-0.00920323
-0.00336108
0.00338138
-0.00921284
-0.00324855
0.00325817
-0.00921458
-0.00313762
0.00313936
-0.00920976
-0.00302932
0.00302449
-0.00919865
-0.00292007
0.00290897
-0.00918098
-0.00281101
0.00279334
-0.00915588
-0.00270245
0.00267734
-0.00911939
-0.00259362
0.00255714
-0.00907435
-0.00247793
0.00243289
-0.00901126
-0.0023608
0.00229771
-0.00892943
-0.00223497
0.00215314
-0.00882032
-0.00210408
0.00199498
-0.0086837
-0.00195764
0.00182102
-0.00851474
-0.00179928
0.00163032
-0.00830513
-0.00162612
0.00141651
-0.00804984
-0.00143359
0.00117831
-0.00775052
-0.00122314
0.000923808
-0.000993876
-0.00746185
0.000705211
-0.00180696
-0.00701099
0.00114913
-0.00242326
-0.00680011
-0.00299784
-0.00659664
-0.0035348
-0.0063992
-0.0040323
-0.00621019
-0.00449416
-0.0060263
-0.0049191
-0.00585107
-0.00531148
-0.00567952
-0.00567102
-0.0055147
-0.00599834
-0.00535712
-0.0062971
-0.00520236
-0.00656485
-0.00505556
-0.00680532
-0.00491123
-0.00701743
-0.00477325
-0.00720543
-0.00463861
-0.00736848
-0.00450861
-0.00750565
-0.00438377
-0.00762197
-0.00426094
-0.00771596
-0.00414273
-0.0077893
-0.0040275
-0.00784212
-0.00391634
-0.00787642
-0.00380651
-0.00789294
-0.00370003
-0.00789319
-0.00359552
-0.00787664
-0.00349388
-0.0078455
-0.00339223
-0.00780131
-0.00329274
-0.00774514
-0.00319379
-0.00767989
-0.00309457
-0.00760312
-0.00299685
-0.00751808
-0.00289605
-0.00742535
-0.00279518
-0.00732829
-0.00269068
-0.00722002
-0.0025862
-0.00710463
-0.00247619
-0.00697774
-0.00236186
-0.00683753
-0.00224429
-0.00667558
-0.00211959
-0.00648371
-0.00199116
-0.00625156
-0.00185827
-0.00596264
-0.00172252
-0.00559999
-0.00158578
-0.00145392
-0.00513995
-0.00165194
-0.00641945
0.0010604
-0.00220338
-0.00624867
-0.00271879
-0.00608124
-0.00319681
-0.00592118
-0.00364066
-0.00576634
-0.00404938
-0.00561758
-0.0044279
-0.00547254
-0.00477402
-0.0053334
-0.00509038
-0.00519834
-0.00537761
-0.0050699
-0.00563652
-0.00494345
-0.00586969
-0.00482239
-0.00607633
-0.00470459
-0.00625783
-0.00459174
-0.00641612
-0.00448033
-0.0065509
-0.00437382
-0.00666447
-0.0042702
-0.00675623
-0.00416918
-0.00682828
-0.00407068
-0.00688137
-0.00397441
-0.00691652
-0.00388118
-0.00693278
-0.00379025
-0.00693249
-0.00370031
-0.00691615
-0.00361186
-0.00688557
-0.00352446
-0.0068378
-0.00344
-0.00677831
-0.00335223
-0.00670388
-0.00326822
-0.00661603
-0.00318242
-0.00651755
-0.00309532
-0.00640496
-0.00300864
-0.00628169
-0.00291845
-0.00614494
-0.00282742
-0.00599939
-0.00273175
-0.00584112
-0.00263447
-0.005668
-0.00253498
-0.00548376
-0.00242852
-0.00528229
-0.00232106
-0.00506462
-0.00220884
-0.00482693
-0.00209595
-0.00456891
-0.00198054
-0.00428594
-0.00186876
-0.00176092
-0.00397894
-0.00150551
-0.00588973
0.000975788
-0.00200178
-0.0057524
-0.00246139
-0.00562163
-0.00288971
-0.00549286
-0.00328542
-0.00537063
-0.00365101
-0.00525199
-0.00398616
-0.0051374
-0.00429278
-0.00502677
-0.00457126
-0.00491986
-0.00482525
-0.00481591
-0.00505241
-0.00471629
-0.00525428
-0.00462052
-0.00543338
-0.00452549
-0.0055902
-0.00443492
-0.0057244
-0.00434613
-0.00583793
-0.00426029
-0.00593178
-0.00417636
-0.00600541
-0.00409555
-0.00606085
-0.00401524
-0.00609865
-0.00393661
-0.00611958
-0.00386024
-0.00612349
-0.00378634
-0.00611292
-0.00371089
-0.00608765
-0.00363713
-0.00604671
-0.0035654
-0.00599432
-0.00349239
-0.0059263
-0.00342025
-0.00584698
-0.00334754
-0.00575524
-0.00327415
-0.00565283
-0.00319774
-0.00553883
-0.00312264
-0.00541342
-0.00304386
-0.00527702
-0.00296383
-0.00512909
-0.00287968
-0.00497101
-0.00279255
-0.00480256
-0.00270343
-0.00461996
-0.00261111
-0.00442513
-0.0025159
-0.00421742
-0.00241655
-0.00399437
-0.002319
-0.00375633
-0.00221857
-0.00350181
-0.00212328
-0.00203077
-0.00323196
-0.0013708
-0.005413
0.000894069
-0.00181536
-0.00530784
-0.00222941
-0.00520758
-0.00261137
-0.00511089
-0.00296579
-0.00501621
-0.00329135
-0.00492643
-0.00359032
-0.00483842
-0.00386303
-0.00475407
-0.00411057
-0.00467232
-0.00433334
-0.00459314
-0.00453359
-0.00451603
-0.00471271
-0.00444141
-0.00486879
-0.00436941
-0.00500438
-0.00429933
-0.00512063
-0.00422988
-0.00521676
-0.00416417
-0.00529466
-0.00409845
-0.00535616
-0.00403405
-0.00539969
-0.0039717
-0.00542597
-0.00391034
-0.00543791
-0.00384831
-0.00543635
-0.0037879
-0.00541952
-0.00372772
-0.00538855
-0.0036681
-0.00534459
-0.00360936
-0.00528799
-0.00354899
-0.00522022
-0.00348802
-0.00514029
-0.00342747
-0.00504899
-0.00336545
-0.00494619
-0.00330055
-0.00483407
-0.00323476
-0.00471119
-0.00316674
-0.00457903
-0.00309599
-0.00443639
-0.00302232
-0.00428351
-0.00294543
-0.00412005
-0.00286688
-0.00394875
-0.00278241
-0.00376651
-0.00269814
-0.0035715
-0.00261155
-0.00336808
-0.00252242
-0.00315301
-0.00243364
-0.00292855
-0.00234774
-0.00226563
-0.00269368
-0.00124736
-0.0049835
0.000817864
-0.00164685
-0.00490835
-0.00201696
-0.00483747
-0.00236115
-0.00476671
-0.00267763
-0.00469973
-0.00296833
-0.00463574
-0.00323493
-0.00457182
-0.0034784
-0.00451059
-0.00369854
-0.00445218
-0.00389736
-0.00439431
-0.00407421
-0.00433918
-0.00423153
-0.00428409
-0.00436929
-0.00423165
-0.00448846
-0.00418016
-0.0045878
-0.00413054
-0.00467179
-0.00408017
-0.0047382
-0.00403205
-0.00478845
-0.0039838
-0.00482334
-0.00393682
-0.00484359
-0.00389008
-0.00484947
-0.00384242
-0.00484156
-0.00379582
-0.0048217
-0.00374758
-0.00478868
-0.00370112
-0.00474455
-0.0036535
-0.00468849
-0.00360504
-0.00462138
-0.00355513
-0.0045445
-0.00350436
-0.00445717
-0.00345278
-0.00435944
-0.00339828
-0.00425277
-0.00334143
-0.00413628
-0.00328323
-0.00401155
-0.00322072
-0.00387639
-0.00315748
-0.00373423
-0.00308759
-0.0035827
-0.00301842
-0.00342194
-0.00294317
-0.00325302
-0.00286706
-0.00307635
-0.00278822
-0.00289021
-0.00270857
-0.00269531
-0.00262853
-0.00249301
-0.00255004
-0.00247407
-0.00228458
-0.00113264
-0.00459641
0.000745544
-0.001492
-0.00454899
-0.00182607
-0.0045034
-0.00213358
-0.0044592
-0.00241784
-0.00441547
-0.00267971
-0.00437387
-0.00291789
-0.00433364
-0.00313456
-0.00429392
-0.00333192
-0.00425482
-0.00350808
-0.00421816
-0.00366617
-0.00418109
-0.00380509
-0.00414517
-0.00392632
-0.00411042
-0.00402984
-0.00407664
-0.0041188
-0.00404158
-0.00419054
-0.00400843
-0.00424758
-0.00397501
-0.00429006
-0.00394132
-0.00431854
-0.00390834
-0.0043343
-0.00387432
-0.00433624
-0.00384049
-0.0043267
-0.00380536
-0.0043039
-0.00377037
-0.00427073
-0.00373429
-0.00422794
-0.00369628
-0.00417334
-0.00365964
-0.00410946
-0.00361901
-0.00403585
-0.00357796
-0.00395377
-0.00353486
-0.00386224
-0.00348981
-0.0037626
-0.00344106
-0.00365399
-0.00339184
-0.0035367
-0.00333801
-0.00341197
-0.0032822
-0.0032791
-0.00322047
-0.00313936
-0.00315815
-0.0029923
-0.00309024
-0.00283727
-0.00302209
-0.0026743
-0.00295119
-0.00250642
-0.00287645
-0.00233079
-0.00280416
-0.00214958
-0.00273125
-0.00266179
-0.00196185
-0.00102834
-0.00424801
0.000679947
-0.00135232
-0.00422501
-0.00165158
-0.00420413
-0.00192985
-0.00418094
-0.00218449
-0.00416082
-0.00241895
-0.00413941
-0.00263343
-0.00411917
-0.00282795
-0.00409939
-0.00300286
-0.00407992
-0.00316132
-0.00405969
-0.00330124
-0.00404116
-0.00342527
-0.00402115
-0.00353266
-0.00400303
-0.0036255
-0.0039838
-0.0037024
-0.00396468
-0.00376597
-0.00394486
-0.00381588
-0.0039251
-0.00385238
-0.00390482
-0.00387581
-0.00388491
-0.0038871
-0.00386303
-0.00388709
-0.0038405
-0.00387479
-0.00381765
-0.0038527
-0.00379247
-0.00382037
-0.00376662
-0.00377748
-0.00373917
-0.00372755
-0.00370957
-0.00366639
-0.00368018
-0.00359778
-0.00364657
-0.00352053
-0.00361211
-0.00343567
-0.00357467
-0.00334219
-0.00353455
-0.00324105
-0.00349298
-0.00313381
-0.00344525
-0.00301922
-0.00339679
-0.00289711
-0.00334257
-0.0027703
-0.00328497
-0.00263456
-0.00322597
-0.0024925
-0.00316415
-0.00234511
-0.00309857
-0.00219103
-0.00303053
-0.00203202
-0.00296317
-0.00186844
-0.00289484
-0.00282996
-0.00170027
-0.000932674
-0.00393313
0.000617793
-0.00122491
-0.00393278
-0.00149573
-0.00393331
-0.00174457
-0.0039321
-0.00197503
-0.00393036
-0.00218568
-0.00392877
-0.00237749
-0.00392735
-0.00255283
-0.00392406
-0.00271076
-0.00392199
-0.00285101
-0.00391944
-0.00297717
-0.003915
-0.00308689
-0.00391143
-0.00318298
-0.00390694
-0.0032655
-0.00390127
-0.00333406
-0.00389612
-0.00338927
-0.00388965
-0.00343315
-0.00388123
-0.00346391
-0.00387406
-0.00348367
-0.00386515
-0.00349292
-0.00385378
-0.0034908
-0.00384262
-0.00347854
-0.00382992
-0.00345775
-0.00381327
-0.00342553
-0.00379884
-0.00338477
-0.00377993
-0.00333741
-0.00375693
-0.0032805
-0.0037371
-0.00321544
-0.00371162
-0.0031457
-0.00368185
-0.00306694
-0.00365343
-0.00297964
-0.00362184
-0.00288961
-0.00358301
-0.00278815
-0.00354671
-0.00268333
-0.00350162
-0.00257326
-0.00345264
-0.00245484
-0.00340338
-0.00233067
-0.00335015
-0.00220202
-0.0032928
-0.00206764
-0.00323296
-0.00192775
-0.00317042
-0.00178501
-0.0031059
-0.00163552
-0.00304433
-0.00148298
-0.0029825
-0.00629178
-0.00084135
-0.000328723
-0.00545754
-0.000814069
-2.01667e-05
-0.00477233
-0.000819049
0.000133841
-0.0041807
-0.000839665
0.000248026
-0.00365795
-0.000868436
0.000345688
-0.00318604
-0.000905913
0.000434003
-0.00275586
-0.00094843
0.000518252
-0.00235889
-0.000996372
0.000599405
-0.00199136
-0.00104623
0.000678692
-0.00165016
-0.00109889
0.000757684
-0.00132968
-0.00115584
0.000835367
-0.00103086
-0.00121259
0.000913764
-0.000751656
-0.00127242
0.000993223
-0.000488592
-0.00133479
0.00107172
-0.000244115
-0.00139795
0.00115347
-1.43592e-05
-0.00146456
0.00123481
0.000198668
-0.00153142
0.00131839
0.000395336
-0.001601
0.00140433
0.000576708
-0.00167342
0.00149205
0.000742716
-0.001748
0.00158199
0.00089332
-0.00182488
0.00167428
0.00102772
-0.00190422
0.00176982
0.00114706
-0.00198689
0.00186755
0.00124908
-0.0020723
0.00197027
0.00133472
-0.00216064
0.002075
0.00140353
-0.00225271
0.0021839
0.00145376
-0.00234741
0.00229718
0.00148609
-0.00244678
0.00241445
0.00149928
-0.00254973
0.00253653
0.00149267
-0.00265586
0.00266248
0.00146542
-0.00276709
0.00279433
0.00141687
-0.00288236
0.00293091
0.00134666
-0.00300273
0.00307295
0.00125266
-0.00312686
0.00322086
0.00113432
-0.0032565
0.00337483
0.000990654
-0.00339141
0.00353508
0.000821286
-0.00353195
0.00370132
0.00062413
-0.00367815
0.00387531
0.000398133
-0.00383023
0.00405623
0.000142856
-0.00398858
0.00424386
-0.000143844
-0.00415361
0.00444031
-0.000462749
-0.00432522
0.00464413
-0.00450308
0.00485699
-0.000816659
-0.00462208
-0.00135921
-0.00412449
-0.00131167
-0.00366103
-0.00128251
-0.00323192
-0.00126877
-0.00283269
-0.00126766
-0.00246209
-0.00127652
-0.00211572
-0.00129479
-0.0017936
-0.00131849
-0.00149126
-0.00134857
-0.0012069
-0.00138325
-0.00094124
-0.0014215
-0.000691599
-0.00146223
-0.000455535
-0.00150849
-0.000235874
-0.00155445
-2.91527e-05
-0.00160467
0.000163246
-0.00165696
0.000343227
-0.0017114
0.000510126
-0.0017679
0.000663966
-0.00182726
0.000803913
-0.00188795
0.000930602
-0.00195157
0.00104449
-0.00201811
0.00114313
-0.00208553
0.00122762
-0.00215679
0.00129753
-0.00223055
0.00135239
-0.00230757
0.001391
-0.00238601
0.00141287
-0.00246866
0.00141802
-0.00255487
0.00140501
-0.00264285
0.00137336
-0.00273544
0.00132302
-0.00283203
0.00125176
-0.00293148
0.00115964
-0.00303474
0.00104625
-0.00314311
0.000909931
-0.00325509
0.000749704
-0.00337172
0.000564596
-0.00349305
0.000354491
-0.00362012
0.000117459
-0.00375155
-0.000148282
-0.00388787
-0.000443025
-0.00403048
-0.00417844
-0.000767673
-0.00365024
-0.00168791
-0.00331653
-0.00164537
-0.00298562
-0.00161342
-0.00266304
-0.00159135
-0.0023503
-0.0015804
-0.0020493
-0.00157752
-0.00176195
-0.00158214
-0.00148843
-0.00159201
-0.00122847
-0.00160853
-0.0009809
-0.00163082
-0.000746573
-0.00165583
-0.000524219
-0.00168459
-0.000316248
-0.00171646
-0.000118804
-0.00175189
6.63802e-05
-0.00178986
0.000239515
-0.0018301
0.000400594
-0.00187248
0.000549656
-0.00191696
0.000686625
-0.00196423
0.000811376
-0.0020127
0.000923722
-0.00206392
0.00102201
-0.0021164
0.00110888
-0.0021724
0.00118255
-0.00223046
0.00124197
-0.00228996
0.00128615
-0.00235175
0.0013173
-0.00241717
0.00133288
-0.00248424
0.00133243
-0.00255442
0.00131605
-0.00262647
0.00128301
-0.00270239
0.00123104
-0.00278006
0.00116192
-0.00286236
0.00107354
-0.00294636
0.000965414
-0.00303498
0.000836609
-0.00312629
0.00068646
-0.00322158
0.000513995
-0.00332058
0.000317995
-0.00342412
9.77116e-05
-0.00353127
-0.000147061
-0.0036431
-0.000418775
-0.00375877
-0.00388002
-0.000717186
-0.00295588
-0.001964
-0.00268045
-0.0019208
-0.00240622
-0.00188766
-0.00213813
-0.00185944
-0.00187707
-0.00184146
-0.00162503
-0.00182956
-0.00138414
-0.00182303
-0.00115133
-0.00182483
-0.00092807
-0.00183179
-0.000716766
-0.00184212
-0.000515857
-0.00185674
-0.000324849
-0.00187559
-0.000143558
-0.00189775
2.71873e-05
-0.00192264
0.000186535
-0.0019492
0.000336266
-0.00197983
0.000475457
-0.00201167
0.000604034
-0.00204554
0.000721855
-0.00208205
0.000829527
-0.00212037
0.000925315
-0.00215971
0.0010105
-0.00220159
0.00108337
-0.00224526
0.00114432
-0.00229142
0.00119308
-0.00233873
0.00122916
-0.00238782
0.00125165
-0.00243966
0.00126123
-0.00249382
0.0012554
-0.00254859
0.00123588
-0.00260695
0.00120012
-0.00266662
0.00114918
-0.00272913
0.00108097
-0.00279414
0.000996584
-0.00286197
0.000893556
-0.00293195
0.000771692
-0.00300442
0.000631176
-0.00308106
0.000470338
-0.00315974
0.000288197
-0.00324198
8.44761e-05
-0.00332754
-0.000142616
-0.00341601
-0.000393109
-0.00350827
-0.00360353
-0.000669602
-0.00245676
-0.00220092
-0.00221945
-0.0021581
-0.00198607
-0.00212104
-0.00175668
-0.00208882
-0.00153463
-0.00206351
-0.0013188
-0.00204539
-0.00110821
-0.00203363
-0.000907123
-0.00202591
-0.000714728
-0.00202419
-0.000530189
-0.00202666
-0.000353799
-0.00203313
-0.000186453
-0.00204294
-2.83268e-05
-0.00205588
0.000121521
-0.00207248
0.000262144
-0.00208983
0.000393452
-0.00211114
0.000515383
-0.0021336
0.000628556
-0.00215871
0.000732011
-0.00218551
0.00082483
-0.00221319
0.000908316
-0.00224319
0.000982201
-0.00227547
0.00104478
-0.00230784
0.00109589
-0.00234253
0.00113655
-0.00237938
0.00116568
-0.00241696
0.00118285
-0.00245683
0.00118687
-0.00249784
0.00117901
-0.00254073
0.00115629
-0.00258423
0.00112072
-0.00263105
0.00107107
-0.00267947
0.00100582
-0.0027289
0.000924258
-0.00278041
0.000827232
-0.00283493
0.000713809
-0.002891
0.000581971
-0.00294922
0.000432421
-0.00301019
0.000263793
-0.00307336
7.43416e-05
-0.00313809
-0.000134951
-0.00320672
-0.0003657
-0.00327752
-0.00335033
-0.000618903
-0.00207384
-0.00241166
-0.00186554
-0.00236641
-0.00166147
-0.00232511
-0.00146088
-0.00228941
-0.00126501
-0.00225938
-0.00107528
-0.00223512
-0.000892336
-0.00221658
-0.000714386
-0.00220386
-0.000544062
-0.00219451
-0.000381559
-0.00218916
-0.000227158
-0.00218753
-7.98553e-05
-0.00219024
6.03055e-05
-0.00219604
0.000191454
-0.00220363
0.000315291
-0.00221366
0.000431595
-0.00222744
0.000539392
-0.0022414
0.000637757
-0.00225707
0.000728125
-0.00227588
0.000810267
-0.00229533
0.000883216
-0.00231614
0.000945342
-0.0023376
0.00100008
-0.00236258
0.0010442
-0.00238665
0.00107812
-0.0024133
0.00110152
-0.00244036
0.00111389
-0.0024692
0.00111432
-0.00249827
0.00110356
-0.00252997
0.001081
-0.00256168
0.00104522
-0.00259527
0.000996471
-0.00263072
0.000933655
-0.00266608
0.000857381
-0.00270414
0.000766199
-0.00274374
0.00065951
-0.00278431
0.00053766
-0.00282737
0.00039828
-0.00287081
0.000241582
-0.00291666
6.78573e-05
-0.00296437
-0.000125381
-0.00301348
-0.0003386
-0.00306431
-0.00311801
-0.000570922
-0.00177205
-0.00260146
-0.00158716
-0.0025513
-0.00140531
-0.00250695
-0.00122729
-0.00246743
-0.00105466
-0.00243202
-0.000886248
-0.00240353
-0.000722766
-0.00238006
-0.000566786
-0.00235984
-0.000416752
-0.00234454
-0.000271779
-0.00233414
-0.000134111
-0.0023252
-3.5889e-06
-0.00232076
0.000119844
-0.00231947
0.000236929
-0.00232072
0.000346578
-0.00232331
0.000448648
-0.00232951
0.000544604
-0.00233735
0.000632663
-0.00234513
0.000711976
-0.00235519
0.000783869
-0.00236723
0.000847374
-0.00237964
0.000903071
-0.0023933
0.000949456
-0.00240896
0.000987364
-0.00242456
0.00101591
-0.00244185
0.00103478
-0.00245923
0.00104347
-0.00247789
0.00104257
-0.00249736
0.00102955
-0.00251696
0.00100686
-0.00253898
0.000972322
-0.00256074
0.000925082
-0.00258348
0.000866294
-0.00260729
0.000794718
-0.00263256
0.000709208
-0.00265823
0.000610143
-0.00268525
0.000495666
-0.0027129
0.000367119
-0.00274227
0.000222769
-0.00277231
6.13965e-05
-0.002803
-0.000116401
-0.00283568
-0.000311752
-0.00286896
-0.0029038
-0.000525955
-0.00153031
-0.00277142
-0.00136424
-0.00271737
-0.0012005
-0.00267069
-0.00104201
-0.00262592
-0.000886872
-0.00258715
-0.000737546
-0.00255285
-0.000591231
-0.00252637
-0.00045138
-0.00249969
-0.000316906
-0.00247902
-0.000188786
-0.00246226
-6.72503e-05
-0.00244673
4.90632e-05
-0.00243708
0.000159995
-0.0024304
0.000264296
-0.00242502
0.000363365
-0.00242238
0.000454553
-0.0024207
0.000538722
-0.00242152
0.000616508
-0.00242292
0.0006879
-0.00242658
0.00075109
-0.00243042
0.000807209
-0.00243576
0.00085571
-0.0024418
0.000897019
-0.00245027
0.000929835
-0.00245737
0.00095336
-0.00246537
0.000969165
-0.00247504
0.000974973
-0.0024837
0.000971278
-0.00249366
0.000958671
-0.00250435
0.000935474
-0.00251578
0.000901835
-0.0025271
0.00085793
-0.00253958
0.000802504
-0.00255186
0.000734417
-0.00256447
0.000654929
-0.00257875
0.000562795
-0.00259311
0.000457876
-0.00260798
0.00033854
-0.00262293
0.000205299
-0.00263907
5.69957e-05
-0.00265469
-0.000106732
-0.00267195
-0.000285877
-0.00268981
-0.00270777
-0.000481915
-0.00133199
-0.00292241
-0.00118068
-0.00286868
-0.0010336
-0.00281777
-0.000891038
-0.00276849
-0.000754695
-0.0027235
-0.000618554
-0.00268899
-0.000488171
-0.00265676
-0.000362805
-0.00262506
-0.000243855
-0.00259797
-0.000129701
-0.00257641
-1.93972e-05
-0.00255703
8.47245e-05
-0.0025412
0.000184319
-0.00252999
0.000278367
-0.00251907
0.000365021
-0.00250904
0.000446822
-0.0025025
0.000522463
-0.00249716
0.000591523
-0.00249198
0.000655161
-0.00249022
0.000712698
-0.00248796
0.000762059
-0.00248512
0.000805953
-0.00248569
0.000841424
-0.00248574
0.000869043
-0.00248499
0.000890301
-0.00248663
0.000902704
-0.00248744
0.000906365
-0.00248736
0.000902297
-0.0024896
0.000889355
-0.00249141
0.000866507
-0.00249294
0.000835467
-0.00249606
0.000793543
-0.00249765
0.000740938
-0.00249926
0.000678763
-0.0025023
0.000605092
-0.00250508
0.000518987
-0.00250701
0.000421807
-0.0025108
0.000312327
-0.00251345
0.000188979
-0.00251572
5.32694e-05
-0.00251898
-9.6484e-05
-0.0025222
-0.000261885
-0.00252441
-0.00252833
-0.000441321
-0.000357925
0.00491073
-0.00536501
0.000812208
5.00968e-05
0.00466606
-0.00507408
0.00041549
0.00443274
-0.00479814
0.000740131
0.00421045
-0.0045351
0.0010271
0.00399802
-0.00428499
0.001278
0.00379641
-0.0040473
0.00149587
0.0036036
-0.00382147
0.00168251
0.00342037
-0.00360701
0.00183997
0.00324574
-0.00340321
0.00197083
0.00307887
-0.00320974
0.00207635
0.00292074
-0.00302625
0.00215849
0.00276994
-0.00285208
0.00221932
0.0026261
-0.00268693
0.00226014
0.00248941
-0.00253023
0.00228289
0.00235903
-0.00238178
0.00228866
0.00223503
-0.0022408
0.00227948
0.00211677
-0.00210759
0.00225623
0.00200437
-0.00198112
0.00222042
0.00189744
-0.00186163
0.00217337
0.00179506
-0.00174801
0.00211595
0.0016979
-0.00164048
0.00204961
0.00160537
-0.00153904
0.00197506
0.00151689
-0.00144234
0.00189406
0.00143242
-0.00135143
0.00180683
0.00135212
-0.00126488
0.00171407
0.00127569
-0.00118293
0.00161766
0.00120181
-0.00110539
0.00151782
0.00113182
-0.00103198
0.00141531
0.00106475
-0.000962231
0.00131085
0.00100026
-0.000895802
0.00120589
0.000938103
-0.00083314
0.00110042
0.00087881
-0.000773345
0.000995875
0.00082104
-0.000716492
0.000892196
0.000765534
-0.000661855
0.000790788
0.000711238
-0.00060983
0.000692861
0.000657943
-0.000560017
0.000597906
0.000606209
-0.000511254
0.000507901
0.000554207
-0.000464202
0.000421628
0.000503565
-0.000417292
0.0003373
0.000455235
-0.000370907
0.000242139
0.000418992
-0.000323831
8.84972e-05
0.000438147
-0.000284506
0.000677793
-0.000307819
-0.000281476
-0.000327017
0.00450378
0.000733965
4.09194e-05
0.00429812
0.000371737
0.00410193
0.000666552
0.00391564
0.000927401
0.00373717
0.00115741
0.0035664
0.00135701
0.003404
0.00152931
0.00324808
0.00167529
0.00309976
0.00179683
0.00295733
0.00189625
0.00282133
0.00197418
0.002692
0.00203293
0.00256735
0.00207328
0.00244906
0.00209708
0.00233523
0.00210528
0.00222684
0.002099
0.00212305
0.0020802
0.00202317
0.00204927
0.00192838
0.00200765
0.00183668
0.00195631
0.00174923
0.00189632
0.00166536
0.0018285
0.00158471
0.00175345
0.00150748
0.00167287
0.0014327
0.00158748
0.00136108
0.00149733
0.00129196
0.00140376
0.00122539
0.00130755
0.00116095
0.0012095
0.0010983
0.00110995
0.00103765
0.00101024
0.000978522
0.000910647
0.000920636
0.000812116
0.000864064
0.000715214
0.000808141
0.000620552
0.000752605
0.000529016
0.000697745
0.000440173
0.00064305
0.000352543
0.000591196
0.000259256
0.000548521
0.000139085
0.000539164
-5.77296e-05
0.000634962
0.000998263
-0.0003782
-0.000298299
0.00413634
0.000665742
3.41345e-05
0.00396569
0.000332998
0.00380306
0.000600065
0.00364857
0.000837266
0.00349997
0.00104633
0.00335733
0.00122885
0.00322147
0.00138625
0.00309069
0.00152053
0.00296547
0.00163307
0.0028448
0.00172448
0.00272992
0.00179743
0.00261904
0.00185216
0.00251262
0.00189082
0.0024104
0.00191387
0.00231218
0.00192259
0.00221811
0.00191866
0.00212697
0.0019024
0.00203943
0.00187541
0.00195537
0.0018382
0.00187389
0.00179178
0.00179566
0.00173702
0.00172011
0.00167542
0.00164632
0.00160728
0.00157561
0.00153284
0.00150714
0.00145392
0.00144
0.00137091
0.00137497
0.00128419
0.00131211
0.00119502
0.00125012
0.0011036
0.00118973
0.00101097
0.00113028
0.000917773
0.00107172
0.000824267
0.00101414
0.000731764
0.000956567
0.000640343
0.000899561
0.000550954
0.000841994
0.000463631
0.000785068
0.000377375
0.000729306
0.000289005
0.000679566
0.00018936
0.000648165
5.65898e-05
0.000671934
-0.000147454
0.000839005
0.00127574
-0.000424935
-0.000272525
0.00380361
0.000605253
2.78175e-05
0.00366535
0.000297908
0.00353297
0.000540308
0.00340617
0.000755397
0.00328488
0.000945538
0.00316719
0.00111188
0.00305513
0.00125578
0.00294679
0.00137904
0.00284221
0.00148206
0.00274178
0.001567
0.00264498
0.00163467
0.00255138
0.00168629
0.002461
0.00172252
0.00237417
0.00174456
0.00229014
0.00175433
0.00220835
0.00175142
0.00212988
0.00173761
0.00205324
0.00171369
0.00197929
0.00168028
0.0019073
0.00163853
0.00183741
0.00158926
0.00176938
0.00153294
0.00170263
0.00147037
0.00163819
0.00140254
0.00157497
0.00132974
0.0015128
0.00125294
0.00145177
0.00117307
0.00139197
0.00109058
0.00133261
0.00100591
0.0012744
0.000919893
0.0012163
0.000832997
0.00115861
0.000746137
0.001101
0.000659748
0.00104296
0.000574498
0.000984811
0.000490448
0.000926044
0.000407819
0.000867697
0.000325277
0.000811848
0.000238718
0.000766124
0.000137995
0.000748889
3.26485e-06
0.000806664
-0.000192843
0.00103511
0.00152401
-0.000441111
-0.000249784
0.00350289
0.000550498
2.20275e-05
0.00339353
0.000266781
0.00328822
0.000486088
0.00318687
0.000682103
0.00308886
0.000854671
0.00299462
0.00100694
0.00290286
0.0011386
0.00281514
0.00125115
0.00272966
0.0013462
0.00264673
0.0014248
0.00256638
0.00148727
0.00248891
0.00153483
0.00241343
0.0015692
0.0023398
0.00159074
0.0022686
0.0016004
0.00219869
0.00159878
0.00213151
0.00158716
0.00206486
0.00156595
0.0020005
0.00153614
0.00193711
0.00149842
0.00187513
0.00145384
0.00181396
0.0014021
0.00175437
0.00134496
0.00169533
0.00128273
0.0016372
0.0012158
0.00157972
0.00114516
0.00152241
0.00107161
0.00146552
0.00099518
0.00140905
0.000916848
0.00135273
0.000837113
0.00129604
0.000756689
0.00123904
0.000676261
0.00118143
0.000595987
0.00112323
0.00051662
0.00106418
0.000438355
0.00100431
0.000360688
0.000945364
0.000281972
0.000890565
0.000198471
0.000849625
0.000100155
0.000847205
-3.01471e-05
0.000936966
-0.000213716
0.00121868
0.00175111
-0.000440812
-0.000228448
0.00323128
0.000500066
1.72138e-05
0.00314787
0.00023902
0.00306641
0.00043828
0.00298761
0.00061591
0.00291123
0.0007738
0.00283673
0.000911845
0.00276482
0.0010321
0.00269488
0.00113551
0.00262624
0.00122266
0.00255958
0.00129454
0.0024945
0.00135236
0.00243108
0.00139709
0.0023687
0.00142899
0.0023079
0.00144961
0.00224798
0.00145892
0.00218938
0.00145867
0.00213175
0.00144801
0.00207551
0.00142952
0.00201899
0.00140254
0.00196409
0.00136853
0.00190914
0.00132801
0.00185447
0.00128136
0.00180102
0.00122887
0.00174783
0.00117185
0.00169421
0.00111033
0.00164125
0.00104544
0.0015873
0.000977534
0.00153342
0.000907095
0.00147948
0.000835111
0.00142471
0.000761742
0.00136941
0.000687463
0.00131331
0.000612973
0.00125592
0.000538794
0.00119741
0.000465024
0.00113795
0.000392117
0.00107722
0.000319811
0.00101767
0.000245943
0.000964432
0.000166379
0.000929189
7.19965e-05
0.000941588
-5.18921e-05
0.00106085
-0.000222558
0.00138935
0.00195912
-0.000430565
-0.000209182
0.00298561
0.000454848
1.37157e-05
0.00292498
0.00021447
0.00286566
0.000395341
0.00280673
0.000556908
0.00274967
0.000700073
0.00269356
0.000826077
0.00263881
0.000936037
0.00258492
0.00103033
0.00253195
0.00111028
0.00247964
0.00117659
0.00242818
0.00123004
0.00237764
0.0012712
0.00232754
0.00130093
0.00227817
0.00132075
0.00222816
0.00133021
0.00217993
0.00132996
0.002132
0.00132161
0.00208387
0.00130447
0.00203613
0.00128081
0.00198775
0.00124994
0.00194001
0.00121283
0.00189158
0.00117039
0.00184346
0.00112336
0.00179486
0.00107072
0.00174686
0.00101431
0.00169766
0.000954401
0.00164721
0.000891759
0.00159607
0.000827496
0.00154375
0.000761299
0.00149091
0.000693864
0.00143684
0.000625413
0.00138177
0.000556694
0.00132464
0.000487932
0.00126617
0.000420145
0.00120574
0.000352511
0.00114485
0.000285313
0.00108487
0.000216635
0.00103311
0.000141735
0.00100409
5.27189e-05
0.0010306
-6.453e-05
0.0011781
-0.000224562
0.00154938
0.00215108
-0.000416529
-0.000190782
0.00276299
0.000413405
1.02566e-05
0.00272394
0.000192747
0.00268317
0.000356381
0.0026431
0.000503095
0.00260295
0.000633669
0.00256299
0.000749034
0.00252345
0.000848988
0.00248497
0.000935035
0.0024459
0.00100821
0.00240647
0.00106916
0.00236724
0.00111822
0.00232858
0.00115558
0.00229017
0.00118333
0.00225043
0.00120144
0.00221005
0.00121082
0.00217055
0.00121155
0.00213127
0.0012036
0.00209181
0.00118845
0.00205129
0.00116647
0.00200973
0.0011387
0.00196778
0.00110476
0.00192552
0.00106641
0.00188181
0.00102348
0.00183779
0.000976327
0.00179401
0.000924394
0.00174959
0.000868825
0.00170278
0.000811161
0.00165373
0.00075198
0.00160293
0.000691309
0.00155158
0.000629554
0.00149859
0.000566911
0.00144441
0.000503644
0.00138791
0.000440959
0.00132886
0.000378355
0.00126834
0.000315889
0.00120732
0.000253666
0.00114709
0.000190475
0.0010963
0.000120924
0.00107364
3.72799e-05
0.00111425
-7.29274e-05
0.00128831
-0.000222272
0.00169873
0.00232696
-0.000398155
-0.000174818
0.000375866
0.00256194
7.74e-06
0.00254138
0.000172883
0.00251803
0.000321434
0.00249455
0.000455126
0.00246926
0.000574438
0.00244368
0.000679072
0.00241881
0.000770771
0.00239327
0.00084949
0.00236718
0.000916322
0.00233963
0.000973077
0.00231048
0.00101884
0.00228281
0.0010536
0.00225541
0.00107881
0.00222522
0.00109541
0.00219345
0.00110532
0.00216063
0.00110741
0.00212918
0.0011014
0.00209782
0.00108805
0.00206464
0.00106842
0.00202936
0.00104326
0.00199294
0.00101193
0.00195685
0.000976632
0.00191711
0.000938512
0.00187591
0.000896185
0.00183634
0.000849597
0.00179618
0.000798264
0.00175411
0.000744498
0.0017075
0.000689187
0.00165824
0.000633306
0.00160746
0.000576931
0.00155497
0.00051909
0.00150225
0.000460773
0.00144622
0.000403076
0.00138655
0.000345476
0.00132594
0.000287668
0.00126512
0.000230401
0.00120436
0.000173071
0.00115363
0.000110614
0.0011361
3.46864e-05
0.00119017
-6.9427e-05
0.00139242
-0.000217533
0.00184683
-0.000385392
0.00249482
-0.000576309
0.00123611
-0.000967616
-0.000890003
0.00145504
-0.00114135
-0.00120861
0.00157317
-0.00125456
-0.00152342
0.00166142
-0.00134661
-0.00183219
0.001738
-0.00142923
-0.00213366
0.00180937
-0.00150791
-0.0024247
0.00187727
-0.00158623
-0.00270554
0.001944
-0.00166315
-0.0029748
0.00201019
-0.00174093
-0.00323106
0.00207599