/*--------------------------------*- C++ -*----------------------------------*\
| =========                 |                                                 |
| \\      /  F ield         | OpenFOAM: The Open Source CFD Toolbox           |
|  \\    /   O peration     | Version:  2.3.0                                 |
|   \\  /    A nd           | Web:      www.OpenFOAM.org                      |
|    \\/     M anipulation  |                                                 |
\*---------------------------------------------------------------------------*/
FoamFile
{
    version     2.0;
    format      ascii;
    class       volVectorField;
    location    "2000";
    object      U;
}
// * * * * * * * * * * * * * * * * * * * * * * * * * * * * * * * * * * * * * //

dimensions      [0 1 -1 0 0 0 0];

internalField   nonuniform List<vector> 
37496
(
(24.4569 7.55151 1.23296e-21)
(24.4937 7.74148 -1.67303e-21)
(24.5286 7.93666 2.36501e-21)
(24.5618 8.13731 8.61872e-21)
(24.5934 8.3436 5.00395e-21)
(24.6234 8.55586 -8.60489e-21)
(24.6519 8.77442 -1.30447e-20)
(24.6785 8.99959 5.41351e-20)
(24.7031 9.23178 -8.50621e-20)
(24.7253 9.47137 1.65624e-19)
(24.7448 9.7189 -1.0463e-19)
(24.7612 9.97491 1.17236e-19)
(24.7743 10.2401 1.20448e-20)
(24.7837 10.515 -1.28201e-19)
(24.7889 10.8008 0)
(24.7896 11.0981 -1.66141e-19)
(24.7852 11.4081 3.4671e-19)
(24.7753 11.732 -1.81034e-19)
(24.759 12.0712 0)
(24.7357 12.4272 -2.09911e-19)
(24.7046 12.802 -2.70989e-20)
(24.6644 13.1974 2.49021e-19)
(24.6142 13.616 2.62565e-19)
(24.5527 14.06 -3.061e-19)
(24.4783 14.5321 0)
(24.3891 15.0349 0)
(24.2824 15.5712 3.8424e-19)
(24.1548 16.1433 -3.77829e-19)
(24.0019 16.753 3.08724e-20)
(23.8172 17.4011 0)
(23.5911 18.0868 -2.84339e-19)
(23.3109 18.8074 -1.033e-20)
(22.9595 19.5568 3.22063e-19)
(22.5125 20.325 -3.23564e-19)
(21.9388 21.0959 3.3716e-19)
(21.1994 21.8494 2.21993e-20)
(20.2471 22.5584 -2.49344e-20)
(19.0243 23.1872 9.96739e-20)
(17.4614 23.6762 -1.28931e-19)
(15.4796 23.9495 -1.36252e-20)
(12.9927 24.0021 9.92834e-20)
(9.91136 23.889 -1.04437e-19)
(6.28812 23.1126 5.22516e-20)
(24.2531 7.5814 -1.75261e-21)
(24.2749 7.76407 7.07404e-21)
(24.2941 7.94267 1.3755e-21)
(24.3106 8.1261 -3.89722e-21)
(24.3248 8.31412 2.37583e-21)
(24.3367 8.50711 8.73058e-21)
(24.3463 8.70529 0)
(24.3534 8.90889 0)
(24.3576 9.11817 -2.86168e-20)
(24.3587 9.33344 2.02498e-20)
(24.3562 9.55501 1.00457e-20)
(24.3497 9.78322 6.19345e-21)
(24.3387 10.0185 0)
(24.3228 10.2613 -8.26859e-20)
(24.3014 10.512 1.89663e-19)
(24.2739 10.7711 -8.95492e-20)
(24.2397 11.0392 -5.30936e-21)
(24.198 11.3168 -1.21486e-19)
(24.148 11.6043 2.65707e-19)
(24.0883 11.9025 -1.45618e-19)
(24.0177 12.2119 -1.47669e-19)
(23.9346 12.5334 3.3413e-19)
(23.8369 12.8677 -1.74866e-19)
(23.7226 13.2159 -1.82963e-19)
(23.5893 13.5791 1.9294e-19)
(23.4338 13.9583 0)
(23.2529 14.3548 0)
(23.043 14.7698 -1.12133e-20)
(22.7995 15.2045 -1.08412e-20)
(22.5177 15.6594 0)
(22.1912 16.1341 -6.17577e-21)
(21.8134 16.6275 6.20556e-21)
(21.3767 17.1365 0)
(20.8728 17.6552 0)
(20.2925 18.1736 5.1998e-21)
(19.6269 18.6769 0)
(18.8678 19.1447 0)
(18.0093 19.5478 9.47334e-22)
(17.0494 19.847 0)
(15.9983 19.994 1.01678e-20)
(14.8831 19.9303 -3.35464e-21)
(13.7355 19.5753 -1.49963e-20)
(12.5774 18.832 2.43808e-19)
(24.0719 7.60901 0)
(24.0825 7.77308 -5.33408e-21)
(24.0902 7.93635 -2.22031e-21)
(24.0951 8.10394 -1.38947e-21)
(24.0975 8.27547 -2.9404e-21)
(24.0972 8.45114 1.58397e-21)
(24.0943 8.6312 -1.01499e-21)
(24.0884 8.81579 0)
(24.0794 9.00514 3.6454e-21)
(24.067 9.19951 4.51417e-21)
(24.0506 9.39906 0)
(24.0299 9.60412 -4.27347e-21)
(24.0043 9.81496 -4.30699e-20)
(23.9734 10.032 -1.37929e-20)
(23.9365 10.2555 4.60521e-20)
(23.8931 10.4859 4.75403e-20)
(23.8427 10.7237 -5.21139e-20)
(23.7845 10.9692 -8.58671e-21)
(23.7179 11.2229 0)
(23.6419 11.485 8.61524e-20)
(23.5555 11.7559 -8.02574e-20)
(23.4574 12.0357 -9.36008e-20)
(23.3458 12.3247 5.39549e-22)
(23.219 12.6229 9.65683e-20)
(23.0747 12.9302 -4.22029e-20)
(22.9104 13.2466 5.30032e-20)
(22.723 13.5716 5.49296e-20)
(22.5093 13.9045 1.05359e-20)
(22.2655 14.2445 -1.12906e-19)
(21.9873 14.5899 1.07783e-19)
(21.6699 14.9383 -1.02005e-19)
(21.3081 15.2866 5.03127e-20)
(20.8962 15.63 4.06831e-20)
(20.4282 15.9623 -4.18558e-20)
(19.8988 16.2755 3.20225e-21)
(19.3031 16.5587 -8.65577e-21)
(18.6377 16.7986 3.4262e-21)
(17.9024 16.9789 -6.27241e-21)
(17.1012 17.0809 0)
(16.245 17.085 -5.01613e-21)
(15.3533 16.972 -1.36353e-20)
(14.4577 16.7229 3.18123e-20)
(13.6092 16.3253 -2.10678e-20)
(23.9093 7.61347 -6.15037e-21)
(23.9098 7.76982 1.34239e-20)
(23.9087 7.9193 0)
(23.9048 8.07228 0)
(23.8983 8.2285 2.79274e-21)
(23.8891 8.38827 0)
(23.8769 8.55175 1.34324e-21)
(23.8618 8.71916 -7.30624e-21)
(23.8435 8.89064 7.22579e-21)
(23.8216 9.0664 2.61575e-21)
(23.7958 9.24652 -2.20252e-21)
(23.7657 9.43127 -4.13261e-21)
(23.7306 9.62078 1.60819e-21)
(23.6902 9.81536 9.64957e-21)
(23.6436 10.0152 -5.82513e-21)
(23.5904 10.2205 0)
(23.5297 10.4317 -1.16201e-20)
(23.461 10.649 1.42364e-20)
(23.3836 10.8729 -5.37711e-22)
(23.2966 11.1034 1.54253e-20)
(23.199 11.3409 -3.36496e-20)
(23.0901 11.5855 2.14656e-20)
(22.9683 11.8371 -3.21062e-21)
(22.8321 12.0956 8.47595e-22)
(22.6797 12.3607 0)
(22.509 12.6321 0)
(22.3176 12.9091 0)
(22.103 13.1907 -8.25795e-23)
(21.8625 13.4757 0)
(21.5928 13.7621 4.08604e-21)
(21.291 14.0475 0)
(20.9537 14.3288 -2.8758e-21)
(20.5779 14.6014 4.38069e-21)
(20.1607 14.8598 -6.38774e-21)
(19.6996 15.0968 -8.37391e-21)
(19.1934 15.3039 1.98107e-20)
(18.6424 15.4709 -5.10096e-20)
(18.0494 15.586 1.53577e-20)
(17.4206 15.6364 1.26917e-20)
(16.7662 15.6098 -2.2534e-20)
(16.1013 15.4951 -6.95099e-21)
(15.4462 15.2851 1.8827e-20)
(14.8261 14.9802 0)
(23.7623 7.62278 -1.28598e-20)
(23.7561 7.76045 -1.20584e-20)
(23.7486 7.89639 0)
(23.7386 8.03565 0)
(23.726 8.17791 1.23904e-20)
(23.7105 8.3233 -1.22463e-20)
(23.6922 8.472 6.54507e-21)
(23.6708 8.6242 1.53584e-20)
(23.6463 8.78004 -9.17787e-21)
(23.6184 8.93966 -1.48711e-20)
(23.5867 9.10319 1.47539e-20)
(23.5509 9.27075 0)
(23.5103 9.44242 -1.09313e-21)
(23.4646 9.6185 0)
(23.413 9.79906 0)
(23.3552 9.98425 -8.2565e-21)
(23.2901 10.1742 6.80489e-21)
(23.2171 10.3692 1.56038e-21)
(23.1354 10.5696 -9.71419e-22)
(23.0445 10.7754 4.61462e-21)
(22.9433 10.9868 -5.52056e-21)
(22.8312 11.204 0)
(22.7072 11.4267 -8.75724e-22)
(22.5698 11.6547 4.92866e-21)
(22.4177 11.8877 -1.33267e-20)
(22.2491 12.125 9.99548e-21)
(22.0616 12.3655 2.82523e-21)
(21.8532 12.6085 8.40096e-23)
(21.6218 12.8523 -2.22481e-20)
(21.3645 13.0947 -6.16025e-21)
(21.0787 13.3335 5.1811e-21)
(20.7621 13.5656 5.07966e-20)
(20.4125 13.7871 -5.13442e-20)
(20.0281 13.9933 9.83899e-21)
(19.6081 14.1781 4.85951e-20)
(19.1523 14.3348 4.59809e-20)
(18.6622 14.4554 -5.01205e-20)
(18.1411 14.5314 -4.52613e-20)
(17.5953 14.5545 2.31966e-20)
(17.0339 14.5167 1.40918e-20)
(16.4692 14.4116 -3.66677e-20)
(15.9166 14.2367 0)
(15.393 13.9941 9.83897e-20)
(23.6309 7.62161 -5.41409e-21)
(23.62 7.74561 4.06383e-21)
(23.6078 7.86933 -1.49983e-20)
(23.5933 7.99626 4.59865e-21)
(23.5763 8.12598 0)
(23.5565 8.25863 0)
(23.534 8.39428 -2.1557e-20)
(23.5083 8.53311 8.67342e-21)
(23.4797 8.6753 2.1323e-20)
(23.4478 8.82089 -5.89973e-22)
(23.4123 8.97014 -1.25819e-20)
(23.3729 9.12307 0)
(23.329 9.27965 0)
(23.28 9.44012 0)
(23.2255 9.6047 0)
(23.1653 9.7734 -1.46894e-21)
(23.0982 9.94611 -3.1845e-21)
(23.0234 10.123 1.60266e-21)
(22.94 10.3043 2.09053e-20)
(22.8476 10.4903 -1.9578e-20)
(22.7452 10.6808 -2.22581e-20)
(22.6321 10.8761 2.07376e-20)
(22.5074 11.076 0)
(22.3704 11.2804 4.012e-21)
(22.22 11.4889 -3.21608e-20)
(22.055 11.7007 5.7249e-20)
(21.8728 11.9147 -3.49019e-20)
(21.6718 12.1299 2.04939e-20)
(21.4507 12.3451 -2.78586e-20)
(21.207 12.5577 0)
(20.9383 12.7653 6.01404e-21)
(20.6428 12.9654 -7.32215e-21)
(20.3186 13.1542 -5.49738e-20)
(19.9647 13.3281 3.66203e-20)
(19.5816 13.4819 -4.88149e-20)
(19.1692 13.6095 -4.00037e-20)
(18.7294 13.7047 5.84465e-20)
(18.2654 13.7605 2.28291e-20)
(17.7825 13.7713 2.99089e-20)
(17.2889 13.7312 0)
(16.7942 13.636 3.54691e-20)
(16.3101 13.4843 4.10086e-20)
(15.8487 13.2785 0)
(23.5128 7.61302 -1.85398e-20)
(23.4994 7.72644 -5.83676e-21)
(23.4838 7.83955 1.04101e-20)
(23.466 7.95561 -5.33448e-21)
(23.446 8.07442 1.55629e-20)
(23.4233 8.19597 -1.01685e-20)
(23.3982 8.32027 -1.05703e-20)
(23.3697 8.44745 1.02322e-20)
(23.3385 8.57791 -8.00246e-21)
(23.304 8.71132 0)
(23.2659 8.84822 -4.72504e-21)
(23.2244 8.98881 0)
(23.1788 9.1328 1.60018e-20)
(23.1282 9.28018 -1.59875e-20)
(23.0721 9.43142 0)
(23.0108 9.58666 3.24857e-21)
(22.9435 9.74557 3.22645e-21)
(22.8688 9.90791 -3.23036e-21)
(22.7857 10.074 4.64906e-21)
(22.6938 10.2442 4.77525e-21)
(22.5922 10.4182 3.78083e-20)
(22.4802 10.596 -4.00657e-20)
(22.3567 10.7776 0)
(22.2212 10.9629 -1.88177e-20)
(22.0726 11.1519 3.10231e-21)
(21.9116 11.344 4.71575e-20)
(21.7351 11.5373 1.97684e-21)
(21.5405 11.7313 -3.57511e-20)
(21.3284 11.9253 6.89032e-21)
(21.0964 12.116 2.8171e-20)
(20.8417 12.3008 4.25629e-21)
(20.5631 12.478 1.78841e-20)
(20.2594 12.6441 -5.13256e-20)
(19.9278 12.7955 -1.66051e-20)
(19.5717 12.9287 1.65491e-20)
(19.191 13.0375 1.92572e-20)
(18.7877 13.1167 0)
(18.364 13.1603 -1.43214e-20)
(17.9237 13.1644 -1.92657e-20)
(17.4752 13.1249 4.17423e-21)
(17.0263 13.0382 2.69895e-21)
(16.5868 12.9034 3.92922e-21)
(16.1665 12.722 -4.68281e-20)
(23.4065 7.59992 1.89353e-20)
(23.3918 7.70509 -1.34786e-20)
(23.3742 7.8088 -6.73083e-21)
(23.3544 7.91502 -6.55872e-21)
(23.3326 8.02433 1.19552e-20)
(23.3076 8.13613 -1.84353e-22)
(23.2811 8.25089 -1.22295e-20)
(23.2506 8.36786 9.32952e-22)
(23.218 8.48835 -5.82158e-21)
(23.1823 8.61141 -2.11089e-20)
(23.1424 8.73734 2.57428e-20)
(23.0993 8.86737 -2.04895e-20)
(23.0529 9.00091 2.04401e-20)
(23.0022 9.13755 0)
(22.9452 9.27721 2.01327e-20)
(22.883 9.42113 -2.56917e-20)
(22.8159 9.56881 0)
(22.7425 9.71972 -5.66976e-21)
(22.6605 9.87345 1.66795e-20)
(22.5699 10.031 -2.64503e-20)
(22.47 10.1921 -2.29104e-20)
(22.3604 10.3562 4.60021e-20)
(22.2393 10.5233 -2.43627e-20)
(22.1072 10.6932 -5.83066e-21)
(21.9599 10.8654 0)
(21.8021 11.0418 -8.10968e-21)
(21.632 11.2199 0)
(21.4423 11.3964 5.53295e-20)
(21.2372 11.5743 3.0104e-21)
(21.0159 11.7488 -4.41064e-20)
(20.7745 11.9168 0)
(20.5089 12.0765 1.61776e-21)
(20.2242 12.2276 -4.91094e-20)
(19.9095 12.3621 5.01746e-20)
(19.5744 12.4821 -2.12686e-20)
(19.2179 12.579 1.92619e-20)
(18.8427 12.6484 -1.92199e-21)
(18.451 12.6835 -1.50839e-20)
(18.0421 12.6827 -1.76028e-20)
(17.6266 12.6446 4.63174e-20)
(17.2108 12.565 -9.64939e-21)
(16.8037 12.4437 -4.47613e-20)
(16.4128 12.2809 4.88546e-20)
(23.3084 7.57909 -7.25753e-21)
(23.2945 7.68265 6.93828e-21)
(23.2768 7.77966 6.74401e-21)
(23.256 7.8761 6.42561e-21)
(23.2338 7.97621 7.22702e-21)
(23.2063 8.07837 1.35159e-20)
(23.1797 8.18685 -2.67981e-20)
(23.1482 8.2955 7.0916e-21)
(23.115 8.40746 1.87219e-20)
(23.0802 8.52291 0)
(23.0398 8.63906 0)
(22.9952 8.75972 -6.48096e-21)
(22.9477 8.8836 -2.37553e-20)
(22.8983 9.01256 2.37888e-20)
(22.8419 9.14262 -3.03335e-20)
(22.7799 9.27705 2.96086e-20)
(22.7127 9.41427 0)
(22.6415 9.55725 -9.95066e-22)
(22.5619 9.70102 2.54317e-20)
(22.4735 9.84852 -2.56784e-20)
(22.3752 9.99899 7.2663e-21)
(22.2697 10.153 -1.18814e-21)
(22.1496 10.3083 -7.916e-21)
(22.0257 10.4683 -4.03203e-20)
(21.8817 10.626 3.25685e-20)
(21.7238 10.7863 -2.78917e-20)
(21.5599 10.9537 2.56284e-20)
(21.3733 11.1135 -2.08471e-20)
(21.172 11.2792 -1.20836e-20)
(20.9584 11.4422 1.17509e-20)
(20.7353 11.6003 -1.50332e-20)
(20.4767 11.7415 1.45566e-21)
(20.2089 11.8854 -3.3996e-20)
(19.9076 12.0039 -3.95453e-20)
(19.5916 12.1159 -2.4232e-20)
(19.2526 12.2043 -1.91991e-21)
(18.892 12.2677 -2.86293e-20)
(18.524 12.2971 2.84817e-20)
(18.1362 12.2905 3.29112e-20)
(17.745 12.2536 -3.69508e-20)
(17.3564 12.1807 2.02308e-20)
(16.9789 12.0709 6.62132e-20)
(16.6111 11.922 6.02028e-22)
(2.97256 20.4318 0)
(3.21971 17.9171 -6.38062e-19)
(3.7959 16.0772 6.23444e-19)
(4.44209 14.6575 -1.58953e-18)
(5.09336 13.522 1.59473e-18)
(5.72872 12.585 -1.71107e-18)
(6.33379 11.8004 1.74796e-18)
(6.90242 11.1367 -1.80256e-18)
(7.43185 10.5699 1.64849e-18)
(7.92229 10.0807 -1.70132e-18)
(8.37511 9.65536 1.75294e-18)
(8.79182 9.28133 -1.5606e-18)
(9.1753 8.94941 1.60494e-18)
(9.52835 8.65289 4.74655e-20)
(9.85327 8.38499 1.47165e-18)
(10.1532 8.14158 -4.33042e-18)
(10.4303 7.91859 2.75844e-18)
(10.6871 7.7129 -8.22791e-20)
(10.9258 7.52193 2.54354e-18)
(11.1484 7.34354 -5.07576e-18)
(11.3568 7.17601 2.3908e-18)
(11.5525 7.01779 -2.3155e-18)
(11.7371 6.86777 2.33343e-18)
(11.9116 6.72466 -6.84748e-20)
(12.0773 6.58775 2.09691e-18)
(12.2352 6.45629 -7.53915e-20)
(12.3859 6.32956 -2.11124e-18)
(12.5302 6.20704 -1.94728e-18)
(12.6688 6.08819 2.07375e-18)
(12.802 5.97272 0)
(12.9303 5.86022 -3.15294e-21)
(13.0542 5.75042 2.57229e-19)
(13.1739 5.6431 0)
(13.2897 5.53806 -1.27603e-19)
(13.4021 5.43512 8.98932e-19)
(13.5112 5.33413 -7.76248e-19)
(13.6173 5.23493 -2.6238e-19)
(13.7207 5.13732 -7.78213e-19)
(13.8215 5.04109 4.37372e-21)
(13.9196 4.94614 1.82936e-18)
(14.0151 4.85235 -7.82963e-19)
(14.1079 4.76043 0)
(14.1995 4.66197 3.8574e-22)
(11.4826 17.7375 -2.3056e-19)
(10.7445 16.543 -7.02408e-19)
(10.2915 15.435 7.18037e-19)
(10.0413 14.4394 -7.48569e-19)
(9.93063 13.5527 7.88926e-19)
(9.91727 12.7661 1.58597e-18)
(9.97118 12.0703 3.6324e-20)
(10.0707 11.455 -3.33873e-18)
(10.201 10.9104 -1.30038e-20)
(10.3506 10.4271 1.6144e-18)
(10.5116 9.99655 -4.8892e-20)
(10.6785 9.61158 -4.77579e-20)
(10.8474 9.26546 -9.08864e-20)
(11.0153 8.95263 -2.05545e-21)
(11.1809 8.66831 -1.40823e-18)
(11.3427 8.40827 2.76538e-18)
(11.5003 8.16909 -1.30965e-18)
(11.6533 7.9478 7.89658e-20)
(11.8015 7.74192 -1.21107e-18)
(11.9449 7.54943 2.42374e-18)
(12.0836 7.36863 -2.1405e-18)
(12.2178 7.19806 -6.50701e-20)
(12.3475 7.03647 1.01996e-18)
(12.4732 6.88285 -9.94974e-19)
(12.5949 6.73628 1.11452e-18)
(12.7129 6.59596 1.57627e-21)
(12.8273 6.46128 -6.27728e-20)
(12.9384 6.33162 0)
(13.0462 6.20648 1.24007e-19)
(13.1509 6.0855 0)
(13.2527 5.9683 -2.49578e-19)
(13.3517 5.85457 -1.26041e-19)
(13.448 5.74403 0)
(13.542 5.63647 -8.79523e-19)
(13.6337 5.53169 8.90102e-19)
(13.7235 5.42942 0)
(13.8113 5.32946 -8.97366e-19)
(13.8975 5.23155 9.06637e-19)
(13.9818 5.13547 0)
(14.0645 5.04101 0)
(14.1453 4.94806 2.57311e-19)
(14.2238 4.85701 -5.11178e-19)
(14.3009 4.75999 2.44524e-19)
(12.8761 15.793 -1.79323e-19)
(12.3056 15.1702 2.40391e-19)
(11.8825 14.5059 -6.04878e-19)
(11.5855 13.8381 1.08188e-18)
(11.3917 13.1905 3.92251e-20)
(11.2802 12.5767 3.72005e-20)
(11.2331 12.0033 6.73441e-20)
(11.2355 11.4731 -6.9955e-19)
(11.2752 10.9857 -1.36266e-18)
(11.3418 10.5392 1.37873e-18)
(11.4277 10.1309 0)
(11.5272 9.75745 8.21132e-20)
(11.6354 9.4154 -1.27287e-18)
(11.7491 9.10171 2.53363e-18)
(11.8657 8.81308 7.17087e-21)
(11.9833 8.5467 -1.22454e-18)
(12.1005 8.30005 7.34968e-20)
(12.2165 8.07085 1.15655e-18)
(12.3306 7.85708 7.09025e-20)
(12.4424 7.65702 -1.02788e-18)
(12.5516 7.46913 8.69971e-19)
(12.6582 7.29207 -1.04894e-18)
(12.7622 7.12477 0)
(12.8636 6.96613 -1.01267e-18)
(12.9623 6.81527 1.00031e-18)
(13.0586 6.67135 6.27353e-20)
(13.1524 6.53373 -9.16849e-19)
(13.2439 6.40173 -5.83407e-20)
(13.3329 6.27483 8.48351e-19)
(13.4197 6.15265 0)
(13.5044 6.03477 2.42462e-19)
(13.587 5.92082 9.69939e-19)
(13.6679 5.81051 -1.23444e-19)
(13.747 5.70358 -2.54307e-21)
(13.8246 5.59973 -8.64266e-19)
(13.9009 5.49873 1.23536e-19)
(13.9759 5.40028 -1.26165e-19)
(14.0497 5.30412 1.27072e-19)
(14.1223 5.20996 0)
(14.1936 5.11765 0)
(14.2637 5.02698 0)
(14.3325 4.93798 -2.51304e-19)
(14.4018 4.8444 2.44795e-19)
(14.2658 14.5919 1.25753e-21)
(13.7813 14.1399 0)
(13.3789 13.6482 3.21785e-20)
(13.0575 13.139 0)
(12.8106 12.6295 -6.12495e-19)
(12.6289 12.1321 1.20434e-20)
(12.5029 11.6545 -6.27606e-20)
(12.4231 11.2017 2.24215e-20)
(12.3805 10.7761 -5.37137e-20)
(12.3674 10.3785 1.26758e-18)
(12.3776 10.0087 -6.45893e-19)
(12.406 9.6654 -1.60388e-19)
(12.4483 9.34711 -7.79348e-20)
(12.5012 9.05195 -1.33162e-18)
(12.5621 8.77789 2.4402e-18)
(12.6288 8.52299 -1.18214e-18)
(12.6997 8.2854 -1.22628e-18)
(12.7733 8.0634 2.24133e-18)
(12.8488 7.85546 -1.22781e-18)
(12.9251 7.6602 -6.73839e-20)
(13.0019 7.47637 1.96192e-19)
(13.0787 7.30293 0)
(13.1552 7.13883 0)
(13.2313 6.98315 -9.89601e-19)
(13.3068 6.83504 9.77369e-19)
(13.3815 6.69375 -9.65955e-19)
(13.4551 6.55856 1.18351e-21)
(13.5276 6.42893 1.01355e-18)
(13.5987 6.30444 -9.48542e-19)
(13.6686 6.18473 1.06609e-18)
(13.7373 6.0694 -1.79624e-21)
(13.805 5.95811 1.17979e-19)
(13.8716 5.85049 1.07422e-18)
(13.9372 5.74634 -9.6156e-19)
(14.002 5.64539 -9.6655e-19)
(14.0661 5.54737 8.53585e-19)
(14.1295 5.45197 -4.91235e-19)
(14.1921 5.35888 9.91761e-19)
(14.2539 5.26793 -5.00222e-19)
(14.3148 5.17902 6.27386e-19)
(14.3747 5.09203 -1.0051e-18)
(14.4334 5.00726 6.21021e-19)
(14.4905 4.92145 -1.2314e-19)
(14.9132 13.6912 -1.26033e-19)
(14.4869 13.3383 0)
(14.1195 12.9494 0)
(13.8128 12.5389 6.69373e-20)
(13.5645 12.1198 -5.80939e-19)
(13.3697 11.7023 5.76182e-19)
(13.2222 11.294 -6.16275e-19)
(13.1152 10.8999 6.83421e-19)
(13.042 10.5237 7.96542e-20)
(12.9965 10.1674 6.30282e-19)
(12.9739 9.83192 -6.16901e-19)
(12.97 9.51729 -5.43282e-19)
(12.9812 9.22289 1.30048e-18)
(13.0047 8.94764 -5.95478e-19)
(13.038 8.69019 0)
(13.0788 8.44919 0)
(13.1253 8.22333 1.0478e-18)
(13.176 8.0113 -6.07627e-19)
(13.2299 7.81193 -3.9738e-19)
(13.2859 7.62412 -1.04121e-18)
(13.3437 7.44691 -3.24443e-21)
(13.4026 7.27941 2.00175e-18)
(13.4624 7.12076 -9.84204e-19)
(13.5228 6.97006 0)
(13.5835 6.82653 0)
(13.644 6.68941 -1.00802e-18)
(13.7039 6.55813 -5.81537e-20)
(13.7631 6.43228 9.94883e-19)
(13.8214 6.3116 0)
(13.879 6.19569 3.48349e-19)
(13.9361 6.08417 -5.83769e-19)
(13.9926 5.97657 -1.17629e-19)
(14.0484 5.87263 0)
(14.1036 5.7722 -3.54505e-19)
(14.1585 5.67504 3.57664e-19)
(14.213 5.58082 3.59913e-19)
(14.2672 5.48913 -4.84065e-19)
(14.3209 5.3997 -6.08985e-19)
(14.3737 5.31243 4.92379e-19)
(14.4259 5.22723 -1.24381e-19)
(14.4774 5.14387 0)
(14.5279 5.06223 -1.23236e-19)
(14.578 4.97871 1.20839e-19)
(15.4206 13.0237 1.11081e-19)
(15.0336 12.7276 -4.10888e-19)
(14.6925 12.3996 -1.59671e-20)
(14.3996 12.0502 4.63354e-19)
(14.1542 11.6896 -2.71151e-19)
(13.9539 11.3263 -7.13673e-20)
(13.7945 10.9665 6.00626e-19)
(13.6708 10.6151 -6.6789e-19)
(13.5768 10.2759 7.50885e-20)
(13.5083 9.95188 0)
(13.4616 9.64431 0)
(13.4337 9.35402 0)
(13.4219 9.08065 7.38255e-20)
(13.4234 8.82339 1.50444e-21)
(13.4357 8.58138 0)
(13.4564 8.35369 0)
(13.4837 8.13939 6.89046e-20)
(13.5162 7.93749 -4.67594e-19)
(13.5528 7.74713 -6.78922e-20)
(13.5925 7.56736 5.74591e-19)
(13.6348 7.39739 -6.33291e-20)
(13.6792 7.23659 0)
(13.7256 7.08416 0)
(13.7735 6.93911 -5.38989e-19)
(13.8221 6.80073 9.47169e-19)
(13.8709 6.66839 -4.67999e-19)
(13.9193 6.54164 7.6982e-22)
(13.9673 6.42032 -5.20779e-19)
(14.0149 6.30419 5.73658e-20)
(14.0626 6.19282 4.60131e-19)
(14.1104 6.08563 0)
(14.1578 5.98212 4.61093e-19)
(14.2046 5.88225 -1.04122e-18)
(14.2513 5.78602 2.32997e-19)
(14.298 5.69305 1.17817e-19)
(14.3448 5.60294 2.36348e-19)
(14.3915 5.51526 0)
(14.4375 5.42971 2.4056e-19)
(14.4829 5.34642 0)
(14.5278 5.26527 2.44232e-19)
(14.5725 5.18588 -3.66886e-19)
(14.6165 5.10813 -3.63844e-19)
(14.6603 5.02937 3.59621e-19)
(15.7738 12.4991 0)
(15.4165 12.2405 5.76487e-20)
(15.0975 11.9531 0)
(14.818 11.6445 0)
(14.5783 11.3251 0)
(14.3787 11.0011 7.06955e-20)
(14.2159 10.6768 -2.91819e-19)
(14.0839 10.3569 2.15101e-19)
(13.9772 10.0466 -1.17748e-21)
(13.8943 9.7481 0)
(13.8322 9.46346 0)
(13.7893 9.19382 0)
(13.7633 8.93844 -1.45454e-19)
(13.7509 8.69659 7.18954e-20)
(13.7495 8.46801 0)
(13.7566 8.25219 -5.48518e-19)
(13.7704 8.04854 4.67061e-19)
(13.7899 7.85622 -6.51174e-20)
(13.8144 7.67447 0)
(13.8426 7.50234 4.41805e-19)
(13.8737 7.33933 6.30112e-20)
(13.9078 7.18521 -4.26275e-19)
(13.9449 7.03874 5.968e-20)
(13.9837 6.89911 5.96385e-20)
(14.0233 6.76589 -4.68878e-19)
(14.063 6.63836 4.64528e-19)
(14.1022 6.51623 -4.02709e-19)
(14.1412 6.39971 9.15594e-19)
(14.1807 6.2884 -5.70001e-19)
(14.2209 6.18167 0)
(14.2618 6.07878 -3.9848e-19)
(14.3019 5.97923 4.56063e-19)
(14.3414 5.88348 1.71874e-19)
(14.3813 5.79153 1.15537e-19)
(14.4216 5.70277 0)
(14.4622 5.61677 -1.17186e-19)
(14.5028 5.53312 0)
(14.5425 5.45151 -1.19192e-19)
(14.5816 5.37234 0)
(14.6206 5.29534 0)
(14.6596 5.22011 1.21387e-19)
(14.6979 5.14666 1.20645e-19)
(14.7358 5.07289 -1.19892e-19)
(16.0444 12.0812 1.09141e-19)
(15.7097 11.8471 -1.09789e-19)
(15.4066 11.5875 -1.23845e-19)
(15.1386 11.3036 5.991e-20)
(14.9015 11.016 -6.62176e-20)
(14.7062 10.7227 0)
(14.5459 10.4233 0)
(14.4078 10.1265 7.14522e-20)
(14.2899 9.841 2.18028e-19)
(14.1992 9.5633 -5.7617e-19)
(14.1266 9.29795 2.85451e-19)
(14.0745 9.04595 -2.88128e-19)
(14.04 8.80534 7.06155e-19)
(14.0183 8.57553 -2.76005e-19)
(14.0063 8.35817 5.47564e-19)
(14.0029 8.15263 -1.00352e-18)
(14.0065 7.95876 5.8951e-19)
(14.0162 7.77514 5.81554e-19)
(14.0321 7.60149 -5.04814e-19)
(14.0516 7.4358 4.98039e-19)
(14.0741 7.27876 -5.49544e-19)
(14.1005 7.13115 -6.0523e-20)
(14.1313 6.98959 -5.96734e-20)
(14.1628 6.85511 0)
(14.1949 6.72707 0)
(14.2271 6.6042 5.77292e-20)
(14.2582 6.48636 0)
(14.2903 6.37485 0)
(14.3238 6.26828 5.66968e-20)
(14.3587 6.16578 -4.50612e-19)
(14.3943 6.0671 3.93799e-19)
(14.4281 5.971 4.51022e-19)
(14.4613 5.87923 -5.09411e-19)
(14.4959 5.79129 0)
(14.5311 5.7065 0)
(14.5665 5.62441 -2.30612e-19)
(14.6028 5.54517 1.41258e-22)
(14.6369 5.46739 4.69226e-19)
(14.671 5.39215 -4.73287e-19)
(14.7051 5.3191 2.38601e-19)
(14.7394 5.24763 -1.79283e-19)
(14.7728 5.17787 2.38336e-19)
(14.8067 5.10744 -1.19518e-19)
(16.248 11.7408 4.9643e-20)
(15.9167 11.5167 0)
(15.6187 11.2838 0)
(15.3622 11.0087 2.53539e-19)
(15.1234 10.7534 2.07702e-22)
(14.9379 10.4884 -2.64229e-19)
(14.7827 10.2018 4.65197e-19)
(14.6396 9.9208 6.80534e-21)
(14.5152 9.66668 5.72436e-21)
(14.4274 9.40424 -2.0569e-19)
(14.3457 9.15358 2.84059e-19)
(14.2911 8.91623 -2.78326e-19)
(14.2531 8.68691 2.06835e-19)
(14.2252 8.46507 2.07519e-19)
(14.2058 8.25815 -4.68336e-19)
(14.1955 8.06148 1.98259e-19)
(14.1931 7.87877 -2.58221e-19)
(14.1989 7.70154 6.29191e-20)
(14.2102 7.53615 0)
(14.2254 7.37414 0)
(14.2423 7.22114 0)
(14.2647 7.08105 0)
(14.2915 6.94228 5.6509e-20)
(14.3145 6.81433 5.75085e-20)
(14.3406 6.69092 0)
(14.3671 6.57213 0)
(14.3917 6.45723 5.68154e-20)
(14.4196 6.35153 0)
(14.4497 6.24869 2.27819e-19)
(14.4806 6.14954 -4.54116e-19)
(14.5118 6.05619 2.25071e-19)
(14.5397 5.96174 0)
(14.5682 5.87322 5.70214e-20)
(14.5993 5.78807 2.30288e-19)
(14.6301 5.70731 -5.1019e-19)
(14.6611 5.62967 2.28344e-19)
(14.694 5.55618 5.90136e-20)
(14.7224 5.48042 0)
(14.752 5.40779 0)
(14.7819 5.33798 5.99257e-20)
(14.8123 5.26931 1.20907e-19)
(14.8416 5.20204 -2.41494e-19)
(14.8749 5.13229 1.84355e-19)
(15.9403 -3.66521 1.44841e-18)
(15.6689 -3.65336 -5.14118e-19)
(15.3978 -3.63738 0)
(15.1263 -3.6195 0)
(14.8544 -3.60023 5.3278e-19)
(14.5822 -3.57973 5.33466e-19)
(14.3098 -3.55805 -5.29106e-19)
(14.0374 -3.53527 7.9799e-19)
(13.7651 -3.51141 0)
(13.493 -3.48651 0)
(13.2212 -3.4606 8.15435e-19)
(12.9498 -3.4337 -1.10255e-18)
(12.6787 -3.40582 5.57323e-19)
(12.408 -3.377 -2.77653e-19)
(12.1377 -3.34723 2.81982e-19)
(11.8679 -3.31656 2.98892e-19)
(11.5984 -3.28497 -5.98524e-19)
(11.3293 -3.2525 4.61493e-19)
(11.0604 -3.21913 -1.10717e-18)
(10.7917 -3.18487 1.13959e-18)
(10.5231 -3.14972 1.66885e-19)
(10.2545 -3.11365 -1.56796e-18)
(9.98566 -3.07666 5.47521e-19)
(9.71637 -3.03868 -1.88998e-19)
(9.44638 -2.99974 -9.94245e-19)
(9.17539 -2.95974 4.28159e-19)
(8.903 -2.91861 0)
(8.62874 -2.87631 4.7509e-19)
(8.35202 -2.83271 -6.35921e-19)
(8.07216 -2.7877 6.81256e-19)
(7.78826 -2.74107 -5.9409e-19)
(7.49925 -2.69262 1.61763e-19)
(7.20376 -2.64202 -4.44542e-20)
(6.9001 -2.58891 2.46661e-19)
(6.58606 -2.53258 -2.2151e-19)
(6.25878 -2.47212 0)
(5.91459 -2.40628 1.48282e-19)
(5.54877 -2.33252 -2.67847e-18)
(5.15659 -2.24682 3.59146e-18)
(4.73928 -2.14171 -2.38774e-19)
(4.34338 -2.00509 0)
(4.34355 -1.87668 -6.99906e-18)
(6.88962 -2.13323 1.992e-17)
(15.8699 -3.64876 0)
(15.62 -3.63146 0)
(15.3713 -3.61545 0)
(15.1222 -3.5995 5.51849e-19)
(14.8725 -3.58279 -5.49715e-19)
(14.6223 -3.56512 -5.32463e-19)
(14.3716 -3.54648 5.15089e-20)
(14.1204 -3.52685 -6.19383e-19)
(13.869 -3.50625 2.75967e-19)
(13.6172 -3.48467 -7.97925e-22)
(13.365 -3.46209 -2.7751e-19)
(13.1126 -3.43851 -8.39554e-19)
(12.8597 -3.4139 5.64472e-19)
(12.6064 -3.38825 0)
(12.3527 -3.36155 0)
(12.0983 -3.33377 2.96282e-19)
(11.8432 -3.3049 0)
(11.5873 -3.27495 1.5532e-19)
(11.3305 -3.24388 4.74541e-19)
(11.0725 -3.21167 -4.88745e-19)
(10.8133 -3.1783 -1.70151e-19)
(10.5525 -3.14372 0)
(10.2899 -3.10789 3.0791e-22)
(10.0253 -3.07077 -5.72193e-19)
(9.75826 -3.0323 6.01204e-19)
(9.48841 -2.99239 2.12971e-19)
(9.21534 -2.95094 -2.25654e-19)
(8.93842 -2.90781 4.77923e-19)
(8.65699 -2.86285 -3.83047e-19)
(8.37026 -2.81583 0)
(8.07725 -2.76648 0)
(7.77669 -2.71446 8.03083e-22)
(7.46714 -2.6593 4.44845e-20)
(7.14673 -2.60034 -4.91453e-20)
(6.81327 -2.53671 -4.38288e-19)
(6.46425 -2.46709 9.86248e-19)
(6.09722 -2.38948 -8.39718e-19)
(5.7122 -2.30083 -1.61865e-18)
(5.31918 -2.19612 1.14054e-18)
(4.96673 -2.07129 -4.10914e-18)
(4.85182 -1.9432 9.57366e-18)
(5.68503 -1.97964 3.7264e-19)
(9.54841 -2.66019 -4.51337e-18)
(15.8088 -3.63265 -5.2852e-19)
(15.5753 -3.61237 -2.79026e-19)
(15.3438 -3.59545 -2.83383e-19)
(15.1123 -3.57943 -5.64788e-19)
(14.8802 -3.56316 1.41367e-19)
(14.6471 -3.54622 -1.58712e-19)
(14.4132 -3.52848 1.76126e-20)
(14.1783 -3.50988 4.2218e-19)
(13.9424 -3.49036 -2.80367e-19)
(13.7056 -3.46991 1.40714e-19)
(13.4679 -3.4485 2.84546e-19)
(13.2291 -3.42609 -9.17043e-22)
(12.9894 -3.40268 2.89503e-19)
(12.7484 -3.37823 2.91958e-19)
(12.5063 -3.35271 -1.19067e-18)
(12.2628 -3.32607 -4.33515e-22)
(12.0178 -3.29832 0)
(11.7712 -3.26942 -4.75009e-19)
(11.5228 -3.23934 1.46559e-18)
(11.2724 -3.20805 -6.71856e-19)
(11.0198 -3.17549 1.74663e-19)
(10.7647 -3.14161 1.81359e-19)
(10.5068 -3.10635 1.87184e-19)
(10.2459 -3.06961 -1.97671e-19)
(9.98152 -3.03134 2.05549e-19)
(9.71321 -2.99143 4.35768e-19)
(9.44054 -2.94975 -6.93203e-19)
(9.16288 -2.90611 9.81398e-19)
(8.87953 -2.86029 2.6372e-19)
(8.58967 -2.81201 -5.63287e-19)
(8.29226 -2.76092 3.05788e-19)
(7.98605 -2.70658 -3.29574e-19)
(7.66959 -2.64844 1.57991e-19)
(7.34112 -2.5857 -7.45506e-20)
(6.99886 -2.51731 1.07953e-19)
(6.6414 -2.44171 -2.45252e-19)
(6.26949 -2.35655 0)
(5.89123 -2.25862 3.17523e-19)
(5.53754 -2.1444 0)
(5.3096 -2.01621 -3.114e-18)
(5.52113 -1.91833 3.73418e-18)
(6.98821 -2.05678 -5.86004e-19)
(11.1354 -2.90304 0)
(15.7545 -3.60876 2.74825e-19)
(15.5355 -3.59124 2.84495e-19)
(15.3186 -3.57476 0)
(15.1018 -3.55864 0)
(14.8845 -3.54245 2.91377e-19)
(14.6663 -3.52588 1.81373e-20)
(14.4468 -3.5087 -3.4482e-19)
(14.226 -3.49081 3.61943e-20)
(14.0039 -3.47215 -2.88992e-19)
(13.7804 -3.4527 2.91832e-19)
(13.5554 -3.43236 0)
(13.3289 -3.41109 0)
(13.1008 -3.38887 5.9638e-19)
(12.871 -3.36568 -1.15361e-21)
(12.6393 -3.34143 0)
(12.4057 -3.31601 3.10542e-19)
(12.1698 -3.2894 3.19443e-19)
(11.9315 -3.26158 4.90521e-19)
(11.6907 -3.23253 -8.39186e-19)
(11.447 -3.2022 1.73534e-19)
(11.2003 -3.1705 -1.78253e-19)
(10.9502 -3.13732 -5.56881e-19)
(10.6965 -3.1026 3.87331e-19)
(10.4388 -3.0662 2.01647e-19)
(10.1765 -3.02803 -2.13277e-19)
(9.9093 -2.98804 0)
(9.63661 -2.9461 0)
(9.35788 -2.902 2.52864e-19)
(9.07243 -2.85549 -5.36864e-19)
(8.77939 -2.80621 2.88475e-19)
(8.47773 -2.75377 -4.65079e-19)
(8.16622 -2.69766 -4.96775e-23)
(7.84342 -2.63724 1.60734e-19)
(7.50788 -2.57166 4.29857e-19)
(7.1584 -2.49966 -2.26588e-19)
(6.79521 -2.41956 4.99474e-19)
(6.42297 -2.32882 0)
(6.05908 -2.22454 1.91416e-18)
(5.75569 -2.10556 -2.21521e-18)
(5.65947 -1.98304 8.69633e-19)
(6.14676 -1.92511 0)
(8.02922 -2.14516 1.57014e-18)
(12.2103 -3.05634 -4.35438e-19)
(15.7018 -3.58605 2.84744e-22)
(15.4996 -3.57083 -2.93779e-19)
(15.2973 -3.55533 2.99918e-19)
(15.0947 -3.53965 0)
(14.8911 -3.52391 -2.97104e-19)
(14.6864 -3.50795 0)
(14.4803 -3.49149 2.9601e-19)
(14.2725 -3.47438 3.7148e-19)
(14.0628 -3.45661 -2.22798e-19)
(13.8513 -3.43818 -1.48303e-19)
(13.6379 -3.41894 3.00282e-19)
(13.4225 -3.39875 0)
(13.2048 -3.37763 -6.09302e-19)
(12.9847 -3.35565 -8.57972e-22)
(12.7624 -3.33268 0)
(12.5376 -3.30848 0)
(12.3099 -3.28291 -3.25725e-19)
(12.079 -3.25603 -3.34824e-19)
(11.8448 -3.22787 3.43123e-19)
(11.607 -3.19839 -1.76975e-19)
(11.3655 -3.16748 -3.67311e-19)
(11.1199 -3.13501 -1.81693e-22)
(10.8699 -3.10085 -1.86563e-22)
(10.6151 -3.06477 -1.98464e-22)
(10.3549 -3.02659 6.52916e-19)
(10.0887 -2.98632 0)
(9.81584 -2.94401 2.43346e-19)
(9.53599 -2.8995 -2.56889e-19)
(9.24853 -2.85249 -2.75511e-19)
(8.95255 -2.8025 0)
(8.64704 -2.74906 0)
(8.33075 -2.69158 -8.56531e-20)
(8.00236 -2.62936 -2.80491e-19)
(7.66072 -2.56147 -4.06211e-19)
(7.30535 -2.48654 -2.89407e-21)
(6.93825 -2.40272 -9.9741e-19)
(6.56812 -2.30754 -5.61343e-19)
(6.22113 -2.19874 -6.33701e-19)
(5.96753 -2.07758 7.29845e-19)
(5.98765 -1.96356 -8.44683e-19)
(6.68759 -1.94164 -1.92558e-18)
(8.84464 -2.22907 2.84812e-18)
(12.9974 -3.16561 -1.1808e-18)
(15.6533 -3.5666 -2.95858e-19)
(15.4668 -3.55249 3.01358e-19)
(15.2788 -3.53767 -4.58831e-19)
(15.0892 -3.52238 1.52642e-19)
(14.8981 -3.50705 -3.0517e-19)
(14.7055 -3.49169 3.13867e-19)
(14.5113 -3.47589 2.5647e-19)
(14.3151 -3.45937 3.91408e-20)
(14.1163 -3.44222 -3.04154e-19)
(13.9152 -3.42462 3.05195e-19)
(13.7119 -3.40641 -1.52399e-19)
(13.5062 -3.38711 -4.63568e-19)
(13.2974 -3.36671 3.1197e-19)
(13.0855 -3.34562 -5.92859e-22)
(12.8709 -3.32391 -3.2182e-19)
(12.6537 -3.30098 -4.91144e-19)
(12.4331 -3.2764 -1.76927e-22)
(12.2087 -3.2502 1.7074e-19)
(11.98 -3.22265 1.75686e-19)
(11.747 -3.19383 3.63252e-19)
(11.5097 -3.16356 -1.87281e-19)
(11.2676 -3.13175 -1.95559e-19)
(11.0206 -3.09832 0)
(10.7685 -3.06283 -2.12754e-19)
(10.5105 -3.02469 2.23095e-19)
(10.2452 -2.98383 0)
(9.97193 -2.94074 -4.94263e-19)
(9.69064 -2.89566 2.62294e-19)