/*--------------------------------*- C++ -*----------------------------------*\
| =========                 |                                                 |
| \\      /  F ield         | OpenFOAM: The Open Source CFD Toolbox           |
|  \\    /   O peration     | Version:  2.3.0                                 |
|   \\  /    A nd           | Web:      www.OpenFOAM.org                      |
|    \\/     M anipulation  |                                                 |
\*---------------------------------------------------------------------------*/
FoamFile
{
    version     2.0;
    format      ascii;
    class       volScalarField;
    location    "10000";
    object      nuTilda;
}
// * * * * * * * * * * * * * * * * * * * * * * * * * * * * * * * * * * * * * //

dimensions      [0 2 -1 0 0 0 0];

internalField   nonuniform List<scalar> 
122394
(
0.0400787
0.0388579
0.0376543
0.0364689
0.0353017
0.0341528
0.0330225
0.0319107
0.030817
0.029741
0.028683
0.0276422
0.0266188
0.0256125
0.0246234
0.0236514
0.0226965
0.0217579
0.0208359
0.0199301
0.0190408
0.018167
0.0173092
0.0164678
0.0156417
0.0148311
0.0140366
0.013258
0.0124951
0.0117494
0.0110207
0.0103098
0.00961703
0.00894517
0.00829658
0.00767213
0.00707503
0.00650736
0.00597006
0.00545584
0.00493582
0.00433479
0.00358067
0.0408713
0.0397718
0.038687
0.0376172
0.0365621
0.0355226
0.034498
0.0334881
0.0324926
0.0315115
0.0305446
0.0295915
0.0286521
0.0277258
0.0268128
0.0259138
0.0250274
0.0241544
0.0232945
0.0224479
0.0216147
0.0207943
0.0199875
0.0191942
0.0184143
0.0176484
0.0168981
0.0161625
0.0154427
0.0147409
0.0140579
0.0133951
0.0127551
0.0121428
0.0115609
0.0110147
0.0105102
0.0100537
0.00965448
0.00931979
0.00905609
0.00887045
0.00876461
0.0416168
0.0406243
0.0396443
0.0386757
0.0377193
0.036775
0.0358425
0.0349216
0.0340119
0.0331134
0.0322263
0.0313496
0.0304834
0.0296271
0.0287809
0.0279449
0.0271186
0.0263029
0.0254975
0.0247027
0.0239181
0.0231446
0.0223826
0.0216314
0.0208921
0.020166
0.0194536
0.0187552
0.018072
0.0174063
0.0167599
0.0161347
0.015534
0.0149614
0.0144213
0.013918
0.0134568
0.0130439
0.0126851
0.0123856
0.0121514
0.0119861
0.0118908
0.0423145
0.0414169
0.0405288
0.0396497
0.0387799
0.0379188
0.0370664
0.0362231
0.0353881
0.0345619
0.0337439
0.0329339
0.0321312
0.0313361
0.0305474
0.0297656
0.0289912
0.0282249
0.0274665
0.0267157
0.0259731
0.0252399
0.0245155
0.0238003
0.0230954
0.0224019
0.0217209
0.0210531
0.0203996
0.0197629
0.0191444
0.0185474
0.0179746
0.0174295
0.0169162
0.0164392
0.0160033
0.0156144
0.0152763
0.0149944
0.0147722
0.0146132
0.0145192
0.0429644
0.0421507
0.0413439
0.0405436
0.0397492
0.0389609
0.038179
0.0374027
0.0366325
0.0358683
0.0351104
0.0343582
0.0336111
0.0328685
0.0321301
0.0313955
0.0306655
0.0299407
0.0292216
0.0285083
0.0278017
0.0271024
0.0264093
0.025724
0.0250474
0.0243807
0.0237251
0.0230813
0.0224512
0.0218368
0.02124
0.0206637
0.0201109
0.0195845
0.0190893
0.0186292
0.0182085
0.017833
0.0175063
0.0172329
0.0170154
0.0168583
0.0167627
0.0435658
0.042827
0.0420925
0.0413613
0.0406335
0.0399098
0.0391886
0.0384706
0.037756
0.0370455
0.0363394
0.0356373
0.0349383
0.0342418
0.033547
0.0328535
0.0321616
0.0314717
0.0307854
0.0301036
0.0294273
0.0287561
0.02809
0.0274295
0.0267764
0.0261316
0.0254965
0.0248724
0.0242611
0.0236642
0.0230839
0.0225233
0.0219849
0.0214716
0.0209886
0.0205398
0.0201294
0.0197616
0.0194413
0.019172
0.0189571
0.0187996
0.0187009
0.0441219
0.0434493
0.042778
0.0421082
0.0414395
0.0407718
0.0401044
0.0394371
0.0387706
0.0381059
0.0374437
0.036784
0.036127
0.0354713
0.0348153
0.034158
0.0334989
0.0328388
0.0321796
0.031524
0.0308726
0.0302255
0.0295823
0.0289432
0.0283096
0.0276821
0.0270637
0.0264561
0.02586
0.0252772
0.0247101
0.0241614
0.0236336
0.02313
0.0226557
0.0222138
0.0218093
0.0214468
0.0211308
0.0208634
0.0206487
0.0204899
0.020388
0.044635
0.0440198
0.0434045
0.0427891
0.0421721
0.0415537
0.040934
0.0403113
0.0396873
0.0390603
0.0384349
0.0378112
0.0371909
0.0365697
0.0359482
0.0353254
0.034696
0.0340612
0.0334244
0.0327891
0.0321574
0.0315309
0.0309083
0.0302876
0.0296707
0.0290582
0.0284515
0.0278565
0.0272733
0.0267028
0.0261466
0.0256064
0.0250874
0.0245922
0.0241241
0.0236868
0.0232856
0.0229264
0.0226131
0.0223464
0.0221317
0.0219707
0.0218665
0.0451038
0.0445382
0.0439725
0.0434047
0.0428343
0.0422567
0.0416806
0.0410958
0.0405121
0.0399144
0.0393198
0.0387223
0.0381317
0.0375405
0.0369446
0.0363588
0.0357579
0.0351466
0.0345277
0.0339071
0.0332894
0.0326777
0.0320735
0.0314709
0.0308681
0.0302732
0.0296724
0.0290865
0.0285143
0.0279544
0.0274095
0.0268751
0.0263645
0.0258755
0.0254154
0.024981
0.0245823
0.0242255
0.0239169
0.02365
0.023438
0.0232724
0.0231692
0.00368632
0.00453385
0.00502164
0.00546291
0.00592869
0.00642968
0.00696391
0.00752385
0.00810635
0.00870658
0.00932205
0.00995128
0.0105919
0.0112451
0.0119087
0.0125824
0.0132675
0.0139622
0.0146666
0.0153822
0.0161069
0.0168434
0.0175891
0.0183464
0.019114
0.0198925
0.0206824
0.0214838
0.0222962
0.0231209
0.0239568
0.0248049
0.0256655
0.0265383
0.0274237
0.0283216
0.0292324
0.0301564
0.0310934
0.0320436
0.0330072
0.033984
0.0349733
0.00873853
0.00879819
0.00894123
0.00916744
0.00946483
0.00982655
0.01024
0.0106991
0.0111926
0.011718
0.012266
0.0128359
0.0134231
0.0140262
0.014642
0.0152711
0.0159111
0.0165603
0.0172204
0.0178897
0.0185683
0.0192552
0.0199513
0.0206564
0.0213694
0.022092
0.0228227
0.0235625
0.0243112
0.0250687
0.0258359
0.0266123
0.027398
0.0281934
0.0289988
0.029814
0.0306396
0.0314755
0.0323219
0.0331792
0.0340473
0.0349266
0.0358172
0.011865
0.0119072
0.0120215
0.0122034
0.0124495
0.0127536
0.0131092
0.0135083
0.013947
0.0144168
0.0149158
0.0154368
0.0159791
0.0165373
0.0171121
0.0176985
0.0182971
0.018906
0.0195246
0.0201521
0.0207875
0.0214309
0.022082
0.0227395
0.0234045
0.0240764
0.0247548
0.0254402
0.0261324
0.0268316
0.0275377
0.0282507
0.028971
0.0296989
0.030434
0.0311768
0.0319273
0.0326858
0.0334528
0.0342282
0.0350123
0.0358053
0.0366078
0.0144884
0.0145202
0.0146165
0.0147743
0.0149919
0.0152629
0.0155827
0.0159459
0.0163465
0.0167811
0.0172433
0.0177299
0.0182364
0.0187622
0.0193015
0.0198552
0.0204201
0.020995
0.0215789
0.0221704
0.02277
0.0233762
0.0239876
0.0246056
0.0252288
0.0258572
0.0264907
0.027129
0.0277725
0.0284209
0.0290743
0.0297327
0.0303962
0.0310646
0.0317386
0.0324179
0.0331029
0.0337941
0.0344912
0.0351946
0.0359045
0.0366211
0.0373452
0.0167271
0.0167509
0.0168353
0.0169788
0.0171772
0.017427
0.017724
0.0180621
0.0184383
0.0188467
0.0192828
0.019743
0.0202244
0.0207226
0.0212361
0.0217629
0.0223003
0.0228473
0.0234025
0.0239652
0.0245342
0.0251084
0.0256884
0.0262719
0.0268598
0.0274507
0.0280455
0.0286442
0.0292457
0.0298504
0.0304584
0.0310695
0.0316833
0.0323008
0.0329215
0.0335457
0.0341739
0.0348061
0.0354421
0.0360824
0.036727
0.0373756
0.0380281
0.0186603
0.0186782
0.0187542
0.0188865
0.0190718
0.0193066
0.0195866
0.0199076
0.0202648
0.0206544
0.021072
0.0215129
0.0219735
0.0224511
0.0229437
0.0234483
0.0239639
0.0244879
0.0250201
0.0255587
0.0261025
0.0266514
0.0272032
0.0277579
0.028315
0.0288748
0.029437
0.030001
0.030567
0.0311347
0.0317035
0.0322735
0.032845
0.0334178
0.0339924
0.0345688
0.0351473
0.0357281
0.036311
0.036896
0.0374833
0.0380724
0.0386629
0.0203437
0.0203569
0.0204256
0.0205491
0.0207249
0.0209478
0.0212152
0.021523
0.0218673
0.0222433
0.0226461
0.023072
0.0235161
0.0239776
0.0244527
0.0249396
0.0254364
0.0259425
0.026456
0.0269745
0.0274976
0.0280245
0.0285529
0.0290827
0.0296141
0.0301468
0.0306813
0.0312166
0.0317526
0.0322874
0.0328225
0.0333572
0.0338918
0.0344263
0.0349607
0.0354953
0.0360309
0.0365672
0.0371035
0.03764
0.0381771
0.0387144
0.0392529
0.0218186
0.0218276
0.0218908
0.0220069
0.0221759
0.0223878
0.0226451
0.0229437
0.0232781
0.0236434
0.0240365
0.0244496
0.0248792
0.0253281
0.0257887
0.0262601
0.0267421
0.0272346
0.0277323
0.0282339
0.0287396
0.0292492
0.0297562
0.0302636
0.0307729
0.0312836
0.0317945
0.0323071
0.0328162
0.0333212
0.0338286
0.0343317
0.0348349
0.0353361
0.0358347
0.0363332
0.0368323
0.0373298
0.0378251
0.0383191
0.0388121
0.039303
0.0397937
0.0231161
0.0231244
0.0231829
0.0232916
0.0234605
0.0236556
0.0239054
0.0241974
0.0245244
0.0248818
0.0252697
0.0256703
0.0260828
0.0265273
0.0269706
0.0274285
0.0279
0.0283857
0.0288666
0.0293537
0.0298448
0.0303393
0.0308214
0.031313
0.0318047
0.0322988
0.0327896
0.0332862
0.0337684
0.0342437
0.0347348
0.0352023
0.0356823
0.0361519
0.0366196
0.0370889
0.0375583
0.0380214
0.0384808
0.0389383
0.0393942
0.0398428
0.0402913
0.009046
0.00850507
0.00799319
0.00750841
0.00705036
0.00661943
0.0062168
0.00584473
0.00550572
0.00519865
0.00491907
0.00466232
0.00442468
0.00420339
0.0039963
0.00380169
0.00361811
0.00344431
0.00327915
0.00312158
0.00297072
0.00282568
0.00268566
0.00254995
0.00241784
0.00228871
0.00216194
0.00203699
0.00191335
0.00179054
0.00166808
0.00154556
0.00142262
0.0012989
0.00117415
0.00104815
0.000920889
0.000792494
0.000663397
0.000534525
0.000406999
0.000280639
0.000148261
0.00901039
0.00850948
0.00803347
0.007581
0.00715157
0.00674535
0.00636322
0.00600707
0.00567919
0.00537928
0.00510414
0.00485017
0.00461424
0.00439384
0.00418697
0.00399198
0.00380753
0.00363243
0.00346563
0.00330619
0.00315325
0.00300602
0.00286374
0.00272569
0.00259121
0.00245966
0.00233045
0.00220299
0.00207673
0.00195114
0.00182573
0.00170002
0.0015736
0.00144607
0.00131713
0.00118654
0.00105425
0.000920343
0.000785129
0.000648675
0.000508937
0.000356354
0.000229182
0.00897693
0.00851662
0.00807574
0.00765444
0.00725251
0.00687008
0.00650787
0.00616736
0.00585062
0.00555814
0.00528775
0.0050366
0.00480212
0.00458219
0.00437503
0.00417914
0.00399327
0.00381629
0.00364727
0.00348534
0.00332967
0.00317955
0.00303425
0.00289314
0.00275555
0.00262088
0.0024885
0.00235785
0.00222833
0.0020994
0.00197054
0.00184119
0.00171088
0.00157917
0.00144565
0.00131002
0.0011721
0.00103187
0.000889227
0.000743104
0.000589142
0.000423796
0.000289668
0.00894687
0.00852354
0.00811528
0.0077228
0.00734624
0.00698589
0.00664233
0.00631681
0.00601116
0.0057263
0.00546088
0.00521267
0.00497964
0.00476001
0.00455231
0.0043552
0.00416756
0.00398839
0.00381681
0.00365201
0.00349326
0.00333988
0.00319119
0.0030466
0.00290548
0.00276723
0.00263129
0.00249705
0.00236394
0.00223137
0.00209877
0.00196558
0.00183124
0.00169525
0.0015571
0.0014164
0.00127287
0.00112626
0.000975982
0.000819755
0.000651757
0.000478039
0.00033664
0.00892359
0.00853087
0.00815169
0.00778542
0.00743212
0.00709206
0.00676579
0.00645443
0.00615963
0.00588247
0.00562216
0.00537706
0.00514552
0.00492618
0.00471783
0.00451934
0.00432977
0.00414821
0.00397387
0.00380602
0.00364398
0.00348712
0.00333482
0.00318652
0.00304164
0.00289963
0.00275988
0.00262184
0.00248494
0.00234856
0.00221213
0.00207503
0.00193665
0.00179641
0.00165374
0.00150817
0.00135928
0.00120658
0.0010489
0.000882762
0.000701376
0.000521156
0.00037416
0.00890137
0.00853796
0.00818517
0.00784271
0.00751061
0.00718914
0.00687884
0.00658075
0.00629637
0.0060268
0.00577167
0.00552978
0.00529989
0.00508093
0.00487194
0.00467206
0.00448047
0.00429642
0.00411921
0.00394821
0.00378278
0.00362234
0.00346634
0.00331425
0.00316551
0.00301959
0.00287596
0.00273404
0.00259329
0.00245306
0.00231277
0.00217177
0.00202942
0.00188507
0.0017381
0.00158791
0.00143398
0.00127555
0.00111088
0.000935314
0.000741482
0.000555874
0.000404828
0.00888109
0.00854456
0.00821588
0.0078951
0.00758238
0.00727802
0.00698249
0.00669677
0.00642221
0.00615993
0.00590987
0.00567127
0.00544319
0.00522477
0.00501529
0.00481408
0.0046205
0.00443396
0.00425386
0.00407962
0.00391072
0.00374668
0.00358698
0.00343108
0.00327845
0.00312862
0.00298108
0.0028353
0.00269067
0.0025466
0.00240253
0.00225776
0.00211156
0.00196327
0.00181224
0.00165777
0.0014992
0.00133549
0.00116427
0.000979776
0.000774015
0.000584054
0.000430369
0.0088627
0.00855055
0.00824395
0.00794298
0.00764813
0.00735981
0.00707808
0.0068041
0.00653886
0.00628346
0.006038
0.0058023
0.00557621
0.00535867
0.00514905
0.00494675
0.00475145
0.00456262
0.00437974
0.00420226
0.00402959
0.00386177
0.00369844
0.00353887
0.00338244
0.00322865
0.003077
0.0029273
0.00277896
0.00263083
0.00248276
0.0023344
0.00218484
0.00203298
0.00187783
0.00171887
0.00155574
0.00138715
0.00121007
0.00101752
0.000801064
0.000607794
0.00045252
0.00884495
0.0085556
0.00826965
0.00798658
0.00770794
0.00743631
0.00716784
0.00690605
0.00665073
0.00640242
0.00616111
0.00592506
0.00570059
0.00548463
0.00527649
0.00507403
0.00487797
0.00468846
0.00450361
0.0043249
0.00414752
0.00397435
0.00380739
0.00364509
0.00348614
0.00332932
0.00317375
0.00301728
0.00286795
0.00271579
0.0025602
0.00240558
0.00225395
0.00210348
0.00195039
0.00178702
0.00161587
0.00143914
0.00125371
0.00105163
0.000824295
0.000624625
0.00046911
0.000125101
0.000209856
0.000278993
0.000348144
0.000417036
0.000488399
0.00056583
0.000653612
0.000756432
0.000875974
0.00100925
0.00115476
0.00131192
0.00148056
0.00166073
0.00185264
0.00205656
0.00227285
0.0025019
0.00274416
0.00300008
0.0032702
0.00355495
0.00385481
0.00417033
0.00450198
0.00485028
0.00521575
0.00559885
0.00600007
0.00641992
0.00685884
0.00731728
0.00779562
0.00829415
0.0088131
0.00935255
0.00991234
0.0104921
0.0110912
0.0117086
0.0123427
0.0129919
0.000194704
0.000265322
0.000338752
0.000415969
0.000496998
0.000585546
0.000685252
0.000798725
0.000927464
0.00107259
0.00123061
0.00139988
0.00158
0.00177087
0.00197255
0.00218518
0.00240896
0.00264408
0.00289087
0.00314963
0.00342064
0.0037043
0.00400095
0.00431086
0.00463445
0.00497201
0.00532392
0.00569054
0.0060722
0.00646925
0.006882
0.00731081
0.00775593
0.00821761
0.00869594
0.009191
0.00970271
0.0102308
0.0107748
0.0113341
0.0119074
0.0124931
0.0130883
0.000252023
0.000316426
0.000396942
0.000486053
0.00058392
0.000693914
0.00081805
0.00095668
0.00110967
0.00127826
0.00145921
0.00165077
0.00185259
0.00206454
0.00228659
0.00251881
0.0027613
0.00301415
0.00327753
0.00355163
0.0038366
0.00413264
0.00443996
0.00475877
0.00508929
0.0054317
0.0057862
0.00615304
0.00653238
0.00692448
0.00732951
0.00774763
0.00817898
0.00862361
0.00908153
0.00955263
0.0100367
0.0105334
0.0110423
0.0115624
0.0120929
0.0126322
0.0131788
0.000298635
0.000363109
0.000453429
0.000557391
0.000674633
0.000807017
0.000954524
0.00111602
0.00129108
0.00148154
0.00168353
0.0018956
0.0021174
0.00234874
0.00258954
0.00283969
0.0030992
0.00336811
0.00364643
0.0039342
0.00423149
0.00453839
0.00485493
0.00518126
0.00551743
0.00586351
0.00621956
0.00658574
0.00696211
0.00734875
0.00774574
0.00815309
0.00857081
0.00899884
0.00943706
0.00988527
0.0103431
0.0108103
0.0112862
0.0117701
0.012261
0.0127577
0.0132579
0.000337653
0.000406543
0.000508851
0.000629431
0.000766682
0.000920528
0.00108939
0.00127157
0.00146704
0.00167762
0.00189897
0.0021299
0.00237005
0.00261913
0.00287699
0.00314346
0.00341839
0.00370171
0.00399338
0.00429332
0.00460148
0.00491783
0.00524233
0.00557495
0.00591565
0.00626441
0.00662125
0.00698614
0.00735904
0.00773995
0.00812882
0.00852558
0.0089301
0.00934223
0.00976174
0.0101884
0.0106217
0.0110615
0.011507
0.0119577
0.0124128
0.012872
0.0133363
0.000371354
0.000447498
0.000563209
0.000701045
0.000857762
0.00103151
0.00121974
0.00142078
0.00163529
0.00186424
0.00210333
0.00235159
0.00260855
0.00287387
0.00314727
0.00342855
0.00371745
0.00401377
0.00431738
0.00462814
0.00494592
0.00527056
0.00560186
0.00593978
0.00628414
0.00663484
0.00699178
0.00735489
0.00772401
0.00809911
0.00847995
0.00886639
0.00925824
0.00965524
0.0100571
0.0104636
0.0108743
0.0112888
0.0117064
0.0121267
0.012549
0.0129723
0.0133948
0.000401636
0.00048712
0.000617034
0.000771864
0.00094668
0.00113836
0.00134402
0.00156223
0.00179448
0.00204019
0.00229558
0.00255973
0.0028321
0.00311228
0.00339991
0.00369469
0.00399629
0.00430445
0.00461892
0.00493944
0.00526577
0.00559765
0.00593488
0.00627723
0.00662448
0.00697642
0.00733289
0.00769377
0.00805891
0.00842813
0.00880114
0.0091776
0.00955731
0.00993991
0.0103252
0.0107129
0.0111028
0.0114941
0.0118863
0.0122788
0.0126709
0.0130615
0.0134488
0.000428262
0.000522747
0.000665947
0.000836751
0.00102873
0.00123769
0.00146008
0.0016944
0.00194317
0.00220459
0.00247541
0.00275463
0.00304162
0.00333591
0.00363702
0.00394451
0.00425795
0.00457712
0.00490166
0.00523104
0.00556476
0.00590282
0.00624505
0.00659097
0.00694006
0.00729216
0.00764716
0.00800518
0.00836626
0.00872969
0.00909487
0.00946165
0.00982971
0.0101981
0.0105674
0.0109383
0.0113093
0.0116795
0.0120484
0.0124156
0.0127805
0.0131421
0.0134996
0.000456261
0.000567088
0.000730043
0.000920494
0.0011299
0.0013518
0.00158395
0.00182939
0.00209581
0.00237427
0.00266123
0.00295481
0.00325564
0.00356339
0.003877
0.00419509
0.00451843
0.00484716
0.00518058
0.00551644
0.00585386
0.00619613
0.00654202
0.00688945
0.0072373
0.00758704
0.00793802
0.00829212
0.00865
0.0090075
0.00936414
0.00972145
0.0100783
0.0104303
0.0107837
0.0111419
0.0114963
0.0118469
0.0121946
0.0125393
0.0128795
0.0132152
0.0135498
0.00033017
0.00106847
0.00180147
0.00250901
0.00319972
0.00388409
0.00457071
0.00526286
0.00596387
0.0066764
0.00740185
0.00814072
0.00889356
0.00966028
0.0104424
0.0112397
0.0120519
0.0128798
0.0137231
0.0145826
0.0154582
0.016351
0.0172599
0.0181863
0.0191301
0.0200915
0.0210703
0.0220677
0.0230835
0.0241178
0.0251709
0.0262429
0.0273339
0.0284442
0.0295741
0.030723
0.031892
0.0330813
0.03429
0.0355182
0.0367665
0.0380335
0.0393197
5.88806e-05
0.000499623
0.00091789
0.00147804
0.00207871
0.00270475
0.00335137
0.0040171
0.00469996
0.00540026
0.00611895
0.00685549
0.00760919
0.00837963
0.00916819
0.00997468
0.0107983
0.0116386
0.012497
0.0133729
0.0142659
0.0151766
0.0161053
0.0170517
0.0180159
0.0189984
0.019999
0.0210185
0.0220566
0.0231132
0.024189
0.025284
0.0263979
0.0275314
0.0286845
0.0298565
0.0310489
0.0322609
0.0334918
0.0347429
0.036013
0.0373017
0.0386088
8.41948e-05
0.000441601
0.000745477
0.0011303
0.00161109
0.00214652
0.00271968
0.00332381
0.00395545
0.00461288
0.00529536
0.00600145
0.00672949
0.00747979
0.00825172
0.00904581
0.00986001
0.0106941
0.0115488
0.0124234
0.0133174
0.0142319
0.0151654
0.0161179
0.0170898
0.0180813
0.0190926
0.0201227
0.0211729
0.0222421
0.023331
0.0244395
0.0255678
0.0267163
0.0278842
0.0290717
0.0302795
0.0315065
0.0327536
0.0340201
0.0353057
0.0366101
0.0379322
8.45092e-05
0.000398779
0.000688723
0.00101508
0.00139876
0.00185546
0.00236223
0.00290756
0.00348626
0.00409603
0.00473525
0.00540183
0.00609572
0.00681558
0.00756071
0.00833067
0.00912434
0.00994108
0.0107814
0.0116441
0.0125293
0.0134365
0.0143655
0.0153152
0.0162862
0.0172791
0.0182921
0.0193262
0.0203811
0.0214567
0.0225529
0.0236694
0.0248067
0.0259648
0.0271428
0.0283413
0.0295597
0.0307987
0.0320578
0.0333367
0.0346354
0.0359526
0.0372883
7.64947e-05
0.000355623
0.00063958
0.000949517
0.00128951
0.00168549
0.00213926
0.00263582
0.00316888
0.00373539
0.00433365
0.00496256
0.00562088
0.00630784
0.00702264
0.00776495
0.00853341
0.00932817
0.0101484
0.0109939
0.0118639
0.0127581
0.0136764
0.0146174
0.0155822
0.0165696
0.01758
0.0186123
0.0196669
0.020744
0.0218425
0.022963
0.0241048
0.0252683
0.026453
0.0276587
0.0288853
0.0301329
0.031401
0.0326896
0.0339987
0.0353274
0.0366763
6.99683e-05
0.000325343
0.000594466
0.000893425
0.00121296
0.00157103
0.00198315
0.00244138
0.00293744
0.00346756
0.00403063
0.00462554
0.00525116
0.00590679
0.00659239
0.0073069
0.00804982
0.0088204
0.00961843
0.0104441
0.0112957
0.012174
0.013078
0.0140074
0.0149613
0.01594
0.0169434
0.0179702
0.0190208
0.0200951
0.0211928
0.0223133
0.0234562
0.0246219
0.0258103
0.0270205
0.0282522
0.0295059
0.0307807
0.0320768
0.0333939
0.0347319
0.0360909
6.53238e-05
0.000302804
0.000555127
0.000841934
0.00114777
0.00148304
0.0018641
0.00229176
0.0027576
0.0032577
0.00379116
0.00435689
0.0049536
0.00558132
0.00623944
0.0069277
0.00764567
0.00839286
0.00916904
0.00997345
0.0108059
0.0116668
0.0125546
0.0134693
0.0144106
0.015378
0.0163717
0.0173905
0.0184345
0.0195033
0.0205974
0.021715
0.0228563
0.0240219
0.0252111
0.0264228
0.0276574
0.0289147
0.0301944
0.0314956
0.0328188
0.0341633
0.0355287
6.22536e-05
0.000285514
0.000522385
0.000796367
0.00109028
0.00140966
0.00176774
0.00217062
0.00261182
0.00308725
0.00359558
0.00413561
0.00470728
0.00531
0.00594372
0.00660793
0.00730247
0.00802722
0.00878168
0.00956568
0.0103794
0.0112217
0.0120924
0.012992
0.0139193
0.014874
0.0158558
0.0168649
0.0179003
0.0189621
0.0200497
0.0211625
0.0223004
0.0234636
0.0246511
0.0258627
0.0270981
0.0283574
0.0296394
0.0309445
0.0322721
0.0336213
0.0349917
6.04063e-05
0.000272675
0.000495895
0.000757402
0.00104002
0.0013465
0.00168715
0.00206953
0.00249006
0.0029446
0.00343114
0.0039493
0.00449879
0.0050795
0.00569113
0.00633345
0.00700653
0.00771019
0.00844448
0.00920927
0.0100037
0.010828
0.0116818
0.0125654
0.0134782
0.0144192
0.0153887
0.0163865
0.0174121
0.0184646
0.0195445
0.0206511
0.021784
0.0229429
0.0241275
0.0253375
0.0265722
0.0278312
0.0291144
0.0304214
0.0317518
0.0331051
0.0344819
5.92468e-05
0.000262644
0.000474376
0.000724417
0.000996225
0.00129137
0.00161775
0.00198323
0.0023862
0.00282252
0.00329046
0.00378941
0.00431959
0.00488055
0.00547233
0.00609491
0.00674838
0.0074325
0.0081478
0.00889374
0.00967028
0.0104771
0.0113143
0.012182
0.0130794
0.0140066
0.0149633
0.0159494
0.0169636
0.0180067
0.019078
0.0201771
0.0213036
0.0224572
0.0236373
0.024844
0.026076
0.0273338
0.0286164
0.0299238
0.0312557
0.0326116
0.0339918
5.85166e-05
0.000254505
0.000456301
0.000696135
0.000958004
0.00124273
0.00155688
0.00190782
0.0022954
0.00271598
0.00316766
0.00365011
0.00416276
0.00470594
0.00527979
0.00588458
0.00652002
0.00718621
0.00788348
0.0086119
0.00937138
0.0101619
0.0109832
0.0118349
0.0127176
0.0136307
0.0145745
0.015548
0.016551
0.0175838
0.0186457
0.0197364
0.0208555
0.0220022
0.023177
0.0243792
0.0256078
0.0268627
0.0281438
0.0294502
0.0307823
0.0321384
0.0335184
5.79867e-05
0.000247647
0.000440973
0.000671547
0.00092422
0.00119954
0.00150299
0.00184145
0.00221552
0.0026221
0.00305926
0.00352674
0.00402402
0.00455131
0.00510904
0.00569751
0.00631635
0.00696595
0.00764672
0.00835848
0.00910176
0.00987652
0.0106822
0.0115193
0.0123875
0.0132866
0.0142172
0.0151782
0.0161696
0.0171916
0.0182436
0.0193253
0.0204359
0.0215757
0.0227443
0.0239409
0.0251648
0.0264166
0.0276947
0.0289994
0.0303298
0.031685
0.0330639
5.76347e-05
0.000242144
0.000427975
0.000650157
0.000894536
0.0011611
0.0014548
0.0017822
0.00214442
0.00253835
0.00296267
0.00341649
0.00389973
0.00441256
0.00495573
0.00552916
0.00613281
0.00676709
0.0074325
0.00812913
0.00885716
0.00961653
0.0104078
0.0112304
0.0120845
0.0129702
0.0138878
0.0148363
0.0158162
0.0168268
0.0178687
0.0189406
0.0200428
0.0211749
0.0223367
0.0235267
0.0247457
0.0259928
0.0272676
0.0285694
0.0298972
0.0312505
0.0326288
5.74283e-05
0.00023767
0.000416969
0.00063153
0.000868107
0.00112673
0.00141165
0.00172896
0.00208021
0.00246295
0.00287552
0.00331706
0.0037875
0.00428751
0.00481727
0.00537685
0.00596648
0.0065866
0.00723763
0.00791998
0.00863347
0.00937881
0.010156
0.0109647
0.0118052
0.0126781
0.0135827
0.0145192
0.0154871
0.016487
0.0175183
0.0185805
0.0196739
0.0207978
0.0219516
0.0231354
0.0243484
0.0255902
0.0268605
0.0281584
0.0294835
0.030835
0.0322119
5.73046e-05
0.000233754
0.000407179
0.000614903
0.000844382
0.00109565
0.00137245
0.00168052
0.0020219
0.0023945
0.00279645
0.00322673
0.00368562
0.0041736
0.00469094
0.00523779
0.00581438
0.00642131
0.00705904
0.0077279
0.00842822
0.00916006
0.00992368
0.0107191
0.011547
0.0124067
0.0132992
0.0142234
0.0151802
0.0161692
0.0171897
0.0182425
0.0193265
0.0204416
0.0215877
0.0227644
0.0239711
0.0252072
0.0264724
0.0277661
0.0290881
0.0304368
0.0318121
5.71531e-05
0.000230184
0.000398552
0.00060011
0.000823066
0.00106741
0.00133673
0.00163634
0.00196883
0.002332
0.00272383
0.00314409
0.00359252
0.00406944
0.00457525
0.00511015
0.00567459
0.00626939
0.00689465
0.00755101
0.00823842
0.00895764
0.00970854
0.0104916
0.0113066
0.0121544
0.0130347
0.0139474
0.014893
0.0158708
0.0168811
0.017924
0.0189987
0.020105
0.0212431
0.0224123
0.0236123
0.0248423
0.0261022
0.0273913
0.0287088
0.0300543
0.0314269
5.70526e-05
0.000227165
0.000390894
0.000586854
0.00080381
0.00104186
0.00130412
0.00159596
0.00192006
0.00227436
0.00265724
0.00306821
0.00350672
0.00397331
0.0044685
0.00499235
0.00554574
0.0061291
0.00674291
0.00738708
0.00806238
0.00876942
0.00950832
0.0102793
0.0110826
0.0119187
0.0127873
0.0136885
0.0146231
0.0155903
0.0165905
0.0176236
0.0186888
0.0197865
0.0209161
0.0220775
0.0232703
0.0244943
0.0257484
0.0270319
0.0283449
0.0296862
0.0310552
5.69695e-05
0.000224456
0.000384091
0.000574816
0.00078624
0.00101832
0.00127417
0.00155879
0.00187501
0.00222135
0.00259581
0.00299777
0.00342721
0.00388441
0.00436969
0.00488351
0.00542636
0.00599903
0.00660164
0.00723481
0.00789891
0.00859437
0.0093216
0.0100811
0.010873
0.0116977
0.0125551
0.0134457
0.0143694
0.0153259
0.0163161
0.0173393
0.0183953
0.0194841
0.0206054
0.021759
0.0229444
0.0241616
0.0254096
0.0266877
0.0279955
0.0293325
0.0306962
5.69186e-05
0.000222269
0.000378209
0.00056423
0.000770366
0.000996683
0.00124633
0.00152423
0.0018334
0.00217215
0.0025386
0.00293246
0.00335355
0.00380167
0.00427762
0.00478187
0.00531504
0.00587741
0.00646981
0.00709253
0.00774582
0.0084304
0.00914683
0.00989529
0.0106763
0.0114902
0.0123369
0.0132165
0.0141296
0.0150763
0.0160562
0.0170698
0.0181167
0.0191966
0.0203094
0.021455
0.0226331
0.0238434
0.025085
0.0263574
0.0276606
0.0289926
0.0303522
5.69458e-05
0.000220394
0.000372962
0.000554651
0.0007559
0.000977004
0.00122088
0.00149244
0.00179468
0.00212627
0.00248555
0.00287179
0.00328469
0.00372455
0.0041918
0.00468714
0.00521115
0.00576392
0.0063464
0.00695912
0.00760232
0.0082766
0.00898271
0.00972082
0.0104913
0.0112945
0.0121306
0.0130001
0.0139032
0.0148398
0.0158099
0.016814
0.0178516
0.0189226
0.0200272
0.0211651
0.0223358
0.023539
0.0247742
0.0260411
0.0273389
0.0286681
0.0300297
5.69903e-05
0.000218667
0.000368227
0.00054597
0.000742656
0.00095878
0.00119727
0.00146278
0.00175861
0.00208359
0.00243593
0.00281481
0.0032202
0.00365234
0.00411162
0.00459854
0.00511361
0.00565758
0.00623085
0.00683407
0.00746765
0.00813222
0.00882835
0.00955627
0.0103166
0.0111096
0.0119358
0.0127953
0.0136886
0.0146155
0.0155762
0.0165708
0.0175992
0.0186616
0.0197582
0.020888
0.0220509
0.0232471
0.0244758
0.0257368
0.0270294
0.0283533
0.0297075
5.70419e-05
0.000217199
0.000364008
0.000537967
0.000730496
0.000942096
0.00117536
0.00143514
0.00172479
0.00204343
0.00238932
0.00276147
0.00315971
0.00358458
0.0040362
0.00451497
0.00502183
0.0055573
0.00612183
0.0067161
0.00734052
0.00799573
0.00868221
0.00940081
0.0101514
0.0109346
0.0117511
0.012601
0.0134847
0.0144021
0.0153536
0.0163391
0.0173586
0.0184126
0.0195006
0.0206224
0.021778
0.0229671
0.024189
0.0254439
0.0267308
0.0280492
0.029399
5.70473e-05
0.000215821
0.000360153
0.000530595
0.000719214
0.000926388
0.00115476
0.00140907
0.00169298
0.0020058
0.00234564
0.00271135
0.00310297
0.00352071
0.00396499
0.00443633
0.00493535
0.00546279
0.00601899
0.00660462
0.00722025
0.00786663
0.00854406
0.00925345
0.0099949
0.0107689
0.011576
0.0124165
0.0132908
0.0141988
0.0151411
0.0161179
0.0171288
0.0181743
0.0192541
0.0203679
0.0215161
0.0226979
0.0239134
0.0251618
0.0264426
0.027755
0.0290964
5.69932e-05
0.0002145
0.000356638
0.000523981
0.000708886
0.000911799
0.0011355
0.00138471
0.00166311
0.0019702
0.00230418
0.0026639
0.00304918
0.00346043
0.00389791
0.00436206
0.0048537
0.00537319
0.0059215
0.00649897
0.00710638
0.00774405
0.00841292
0.00911338
0.00984598
0.010611
0.011409
0.0122405
0.0131057
0.014005
0.0149384
0.0159063
0.0169088
0.0179461
0.0190178
0.020124
0.0212647
0.0224394
0.023648
0.02489
0.0261649
0.0274721
0.0288125
5.70225e-05
0.000213413
0.000353401
0.000517865
0.000699303
0.000898366
0.00111774
0.00136209
0.00163515
0.00193674
0.00226506
0.00261897
0.00299829
0.00340323
0.00383412
0.00429161
0.00477606
0.00528834
0.00582911
0.00639903
0.00699837
0.00762795
0.00828832
0.00898042
0.00970435
0.0104607
0.0112499
0.0120727
0.0129293
0.01382
0.0147447
0.015704
0.0166983
0.0177274
0.0187911
0.0198896
0.0210226
0.0221903
0.0233923
0.0246278
0.0258968
0.0271983
0.0285314
5.71042e-05
0.00021255
0.000350592
0.000512315
0.000690558
0.000885916
0.00110104
0.00134062
0.00160863
0.00190496
0.00222803
0.00257653
0.00295009
0.003349
0.0037736
0.00422462
0.00470245
0.00520772
0.00574137
0.00630366
0.00689559
0.00751726
0.00816983
0.00885381
0.00956942
0.0103173
0.0110982
0.0119127
0.0127608
0.0136428
0.0145592
0.0155103
0.0164964
0.0175171
0.018573
0.019664
0.0207897
0.0219503
0.0231454
0.024375
0.0256382
0.0269354
0.028266
5.71241e-05
0.000211673
0.000348077
0.000507225
0.000682355
0.000874203
0.00108537
0.00132044
0.00158353
0.00187505
0.00219315
0.00253635
0.00290452
0.0032977
0.00371634
0.00416109
0.00463249
0.00513117
0.00565764
0.00621304
0.00679737
0.00741165
0.00805675
0.00873281
0.00944038
0.0101803
0.0109533
0.0117594
0.0125991
0.0134729
0.0143811
0.0153243
0.0163023
0.0173152
0.0183635
0.0194469
0.0205654
0.021719
0.0229078
0.0241309
0.0253887
0.0266814
0.0280089
5.71442e-05
0.000210954
0.000345742
0.000502556
0.000674854
0.000863359
0.00107079
0.00130146
0.00155982
0.00184648
0.00215967
0.00249791
0.00286083
0.00324867
0.00366162
0.00410043
0.00456563
0.00505783
0.00557797
0.0061265
0.00670381
0.00731093
0.00794863
0.00861704
0.00931697
0.0100494
0.0108143
0.0116126
0.0124443
0.0133101
0.0142104
0.0151456
0.0161156
0.017121
0.0181617
0.0192378
0.0203492
0.021496
0.0226781
0.0238952
0.0251474
0.0264341
0.027755
5.72436e-05
0.000210398
0.000343607
0.000498306
0.000667996
0.000853459
0.00105721
0.00128373
0.00153752
0.00181952
0.00212793
0.0024613
0.00281929
0.00320188
0.00360948
0.0040426
0.00450192
0.00498806
0.00550185
0.00604358
0.00661415
0.00721445
0.00784493
0.00850611
0.00919898
0.00992368
0.0106809
0.0114714
0.0122956
0.0131538
0.0140463
0.0149735