/*--------------------------------*- C++ -*----------------------------------*\
| =========                 |                                                 |
| \\      /  F ield         | OpenFOAM: The Open Source CFD Toolbox           |
|  \\    /   O peration     | Version:  2.3.0                                 |
|   \\  /    A nd           | Web:      www.OpenFOAM.org                      |
|    \\/     M anipulation  |                                                 |
\*---------------------------------------------------------------------------*/
FoamFile
{
    version     2.0;
    format      ascii;
    class       volScalarField;
    location    "10000";
    object      p;
}
// * * * * * * * * * * * * * * * * * * * * * * * * * * * * * * * * * * * * * //

dimensions      [0 2 -2 0 0 0 0];

internalField   nonuniform List<scalar> 
122394
(
0.000111075
-0.333853
-0.839972
-1.39581
-1.97711
-2.58689
-3.22772
-3.89791
-4.59931
-5.33109
-6.10154
-6.9074
-7.74837
-8.63096
-9.54856
-10.4973
-11.4924
-12.5103
-13.5676
-14.6456
-15.7467
-16.868
-17.9838
-19.1077
-20.2309
-21.3142
-22.3872
-23.4485
-24.4363
-25.436
-26.3779
-27.2849
-28.1527
-29.0017
-29.8481
-30.566
-31.2345
-31.6465
-31.2538
-29.8597
-29.4331
-30.2422
-8.83153
2.88595
2.68544
2.33559
1.9468
1.5439
1.12683
0.691006
0.237626
-0.237637
-0.729335
-1.2451
-1.7802
-2.33948
-2.93208
-3.54359
-4.18967
-4.87691
-5.59233
-6.36067
-7.16016
-8.01707
-8.91524
-9.86055
-10.8442
-11.8754
-12.9092
-13.94
-14.9668
-15.8957
-16.7192
-17.3378
-17.6943
-17.6268
-16.9864
-15.632
-13.2218
-9.55919
-4.15198
3.41448
13.7662
27.7101
47.161
73.7487
5.62456
5.53993
5.32977
5.10023
4.87043
4.64108
4.40741
4.1718
3.9305
3.696
3.45591
3.22372
2.99813
2.77169
2.56623
2.36575
2.18822
2.03064
1.90499
1.81189
1.75557
1.76251
1.8181
1.94208
2.15458
2.46125
2.89228
3.44371
4.16868
5.09595
6.25915
7.71336
9.51166
11.7731
14.5302
17.9543
22.1073
27.1914
33.3041
40.5606
49.1202
59.1252
70.4097
7.99421
8.04783
7.96065
7.85786
7.75548
7.6538
7.55648
7.46062
7.36513
7.27875
7.20044
7.12362
7.07341
7.02035
6.9866
6.96206
6.96102
6.98227
7.02788
7.10206
7.23019
7.40136
7.63833
7.94283
8.347
8.85605
9.51505
10.3176
11.3341
12.5845
14.1144
16.0077
18.2774
21.0512
24.3703
28.3255
33.035
38.5323
44.9054
52.1878
60.3428
69.2436
78.6291
10.2458
10.3409
10.3323
10.3157
10.3083
10.3066
10.313
10.3268
10.3498
10.3782
10.4341
10.4964
10.591
10.7088
10.8471
11.0132
11.2089
11.4439
11.7178
12.0324
12.4271
12.8683
13.3971
14.0141
14.7351
15.5775
16.554
17.6943
19.0267
20.586
22.3961
24.5217
26.989
29.8462
33.1924
36.9926
41.4094
46.3873
52.0268
58.2321
65.0328
72.265
79.7805
12.2318
12.3715
12.4353
12.4903
12.5562
12.631
12.7127
12.8033
12.9072
13.0175
13.1458
13.3005
13.4816
13.7049
13.9483
14.2287
14.5273
14.8655
15.2496
15.6779
16.1816
16.7493
17.4003
18.1613
19.0304
20.0232
21.1349
22.4204
23.9022
25.597
27.5537
29.7893
32.3572
35.2701
38.6256
42.377
46.6408
51.3671
56.6387
62.3396
68.4816
74.9138
81.5326
14.0826
14.2145
14.3116
14.4151
14.5368
14.6699
14.8121
14.9664
15.1309
15.3137
15.4933
15.7065
15.9525
16.2605
16.6031
16.9977
17.3951
17.8239
18.291
18.8094
19.3908
20.0647
20.8022
21.668
22.6703
23.7996
25.0369
26.4007
27.9783
29.7606
31.7981
34.0805
36.6792
39.5912
42.8662
46.502
50.5466
55.0372
59.9729
65.2553
70.9007
76.7273
82.6939
15.7283
15.8444
15.9338
16.0556
16.2168
16.3898
16.5753
16.7938
17.0017
17.2507
17.4607
17.712
17.9218
18.2845
18.6776
19.2182
19.7127
20.249
20.793
21.3531
21.958
22.6522
23.4265
24.2428
25.271
26.5955
27.9605
29.3688
30.9468
32.7479
34.8121
37.07
39.6709
42.5587
45.8145
49.339
53.1828
57.3521
62.0249
66.9913
72.3504
77.7282
83.3339
17.0948
17.189
17.3244
17.5528
17.742
17.8882
18.1219
18.3374
18.5676
18.8855
18.8073
19.0062
19.0089
19.5475
19.7557
20.1844
20.6128
21.2408
21.8728
22.4806
23.0033
23.5083
24.1866
24.9018
25.9796
27.4196
28.714
29.9548
31.2815
32.8452
34.8647
37.0064
39.4332
42.1651
45.5003
49.1562
52.9516
56.6648
61.041
65.7995
71.1382
76.3682
82.069
71.9204
102.944
118.52
129.915
139.114
146.283
151.733
155.927
159.063
161.393
163.122
164.367
165.265
165.834
166.18
166.345
166.337
166.219
166.01
165.71
165.364
164.958
164.534
164.078
163.614
163.147
162.674
162.208
161.752
161.303
160.872
160.452
160.045
159.654
159.276
158.915
158.566
158.229
157.906
157.594
157.293
157.015
156.831
101.114
121.608
135.615
145.519
152.824
158.106
161.861
164.407
166.074
167.038
167.51
167.571
167.379
166.979
166.467
165.863
165.225
164.574
163.924
163.289
162.682
162.099
161.558
161.041
160.563
160.111
159.687
159.291
158.918
158.564
158.229
157.911
157.611
157.325
157.048
156.788
156.537
156.297
156.068
155.848
155.633
155.425
155.275
82.2209
93.517
103.779
112.683
120.345
126.769
132.158
136.608
140.262
143.252
145.69
147.694
149.317
150.646
151.71
152.593
153.283
153.852
154.294
154.637
154.91
155.099
155.24
155.329
155.384
155.393
155.381
155.344
155.288
155.217
155.135
155.04
154.941
154.834
154.724
154.612
154.497
154.384
154.267
154.151
154.035
153.913
153.812
88.0684
97.1161
105.446
112.905
119.456
125.126
129.953
134.039
137.476
140.329
142.681
144.639
146.249
147.556
148.629
149.508
150.203
150.784
151.25
151.619
151.922
152.154
152.353
152.494
152.619
152.701
152.772
152.82
152.85
152.869
152.879
152.876
152.867
152.851
152.828
152.799
152.767
152.729
152.687
152.644
152.593
152.526
152.427
87.2959
94.6628
101.624
108.066
113.878
119.085
123.652
127.626
131.064
134.023
136.559
138.714
140.563
142.13
143.476
144.629
145.604
146.44
147.163
147.78
148.316
148.767
149.16
149.501
149.795
150.044
150.262
150.438
150.601
150.736
150.848
150.942
151.025
151.091
151.15
151.192
151.23
151.254
151.274
151.288
151.293
151.27
151.195
88.1424
94.6067
100.781
106.554
111.878
116.702
120.987
124.774
128.103
130.985
133.498
135.692
137.575
139.224
140.634
141.871
142.92
143.844
144.65
145.34
145.954
146.493
146.961
147.388
147.745
148.058
148.343
148.582
148.816
149.004
149.182
149.332
149.472
149.599
149.71
149.801
149.885
149.958
150.023
150.087
150.145
150.188
150.298
88.6391
94.4778
100.106
105.39
110.347
114.855
118.87
122.431
125.62
128.431
130.92
133.126
135.026
136.722
138.183
139.47
140.573
141.57
142.455
143.225
143.897
144.513
145.054
145.548
145.968
146.35
146.678
146.988
147.293
147.519
147.751
147.948
148.127
148.295
148.448
148.574
148.692
148.804
148.903
148.997
149.088
149.174
149.215
88.8009
94.2341
99.4441
104.31
108.963
113.395
117.251
120.693
123.804
126.548
129.013
131.285
133.126
134.803
136.315
137.629
138.761
139.808
140.738
141.546
142.248
142.985
143.587
144.11
144.533
144.961
145.33
145.695
146.061
146.294
146.577
146.777
146.992
147.179
147.377
147.506
147.65
147.785
147.908
148.014
148.133
148.244
148.346
87.415
92.7996
97.688
101.423
106.708
111.786
115.846
119.34
122.547
125.258
127.803
130.036
131.163
133.394
135.181
136.547
137.59
138.705
139.677
140.437
141.145
142.146
142.791
143.246
143.635
144.005
144.227
144.662
145.157
145.172
145.612
145.684
146.103
146.438
146.676
146.7
146.824
146.958
147.078
147.155
147.266
147.315
147.421
-94.9223
-94.3976
-93.8739
-93.3211
-92.7382
-92.1256
-91.4831
-90.8108
-90.1086
-89.3771
-88.6166
-87.8284
-87.0141
-86.1757
-85.316
-84.4382
-83.5466
-82.6456
-81.7403
-80.8355
-79.9374
-79.0517
-78.1842
-77.3407
-76.5273
-75.7488
-75.0107
-74.3172
-73.6724
-73.0797
-72.5415
-72.0593
-71.633
-71.2617
-70.9419
-70.6697
-70.4377
-70.2386
-70.0622
-69.9012
-69.7702
-69.5986
-69.1603
-94.3929
-93.9285
-93.4867
-93.0267
-92.5521
-92.0654
-91.5681
-91.0614
-90.5464
-90.0245
-89.4961
-88.9617
-88.4217
-87.8758
-87.3239
-86.7654
-86.1996
-85.6256
-85.0425
-84.4491
-83.8444
-83.2271
-82.5966
-81.9515
-81.2911
-80.6145
-79.9215
-79.2118
-78.4852
-77.7414
-76.9801
-76.2011
-75.405
-74.5921
-73.7635
-72.9215
-72.071
-71.2199
-70.3841
-69.5743
-68.7693
-67.8556
-67.393
-93.9502
-93.5244
-93.1248
-92.7087
-92.2802
-91.8407
-91.3903
-90.9293
-90.4577
-89.9759
-89.484
-88.982
-88.4697
-87.9465
-87.4123
-86.8666
-86.3092
-85.7396
-85.1574
-84.562
-83.9535
-83.3311
-82.6941
-82.0416
-81.3733
-80.6886
-79.9872
-79.2681
-78.531
-77.7752
-77.0011
-76.209
-75.399
-74.5721
-73.73
-72.8763
-72.0176
-71.164
-70.3326
-69.5336
-68.72
-67.6599
-66.7771
-93.5596
-93.1442
-92.7509
-92.3399
-91.915
-91.4768
-91.0247
-90.5582
-90.0772
-89.5818
-89.0724
-88.5496
-88.0133
-87.4633
-86.8993
-86.3215
-85.7303
-85.1252
-84.5066
-83.8746
-83.2289
-82.5699
-81.8983
-81.2139
-80.5161
-79.8043
-79.0785
-78.3389
-77.5853
-76.8184
-76.0391
-75.248
-74.4471
-73.6383
-72.824
-72.0079
-71.1955
-70.3974
-69.626
-68.8813
-68.1198
-67.1542
-66.2592
-93.2217
-92.8292
-92.454
-92.0615
-91.6556
-91.2376
-90.8076
-90.3642
-89.906
-89.4336
-88.9469
-88.4473
-87.9352
-87.4104
-86.8705
-86.3145
-85.743
-85.1559
-84.5531
-83.9332
-83.2963
-82.643
-81.9741
-81.2893
-80.5875
-79.8684
-79.1318
-78.3781
-77.6076
-76.8192
-76.0146
-75.1989
-74.3755
-73.5482
-72.7189
-71.8898
-71.0658
-70.2595
-69.4847
-68.7334
-67.9541
-67.0346
-66.1236
-92.9525
-92.5812
-92.2294
-91.8606
-91.4791
-91.0874
-90.6863
-90.2731
-89.8436
-89.3991
-88.9373
-88.4614
-87.9728
-87.4746
-86.9615
-86.4299
-85.883
-85.3182
-84.7382
-84.1387
-83.5174
-82.8755
-82.216
-81.5421
-80.8513
-80.1408
-79.4105
-78.6593
-77.8907
-77.1022
-76.2871
-75.4548
-74.6171
-73.7891
-72.9783
-72.1733
-71.3589
-70.5465
-69.7623
-68.9965
-68.1821
-67.2842
-66.3272
-92.7455
-92.3891
-92.0531
-91.7013
-91.3372
-90.9629
-90.5844
-90.1964
-89.7883
-89.3658
-88.9202
-88.4603
-87.9837
-87.5085
-87.016
-86.4936
-85.9589
-85.3983
-84.8332
-84.2478
-83.6357
-82.9967
-82.3367
-81.6702
-80.9858
-80.2793
-79.5495
-78.8073
-78.0494
-77.275
-76.4558
-75.6223
-74.7591
-73.8995
-73.0902
-72.3355
-71.5643
-70.7756
-70.0308
-69.2987
-68.4621
-67.5366
-66.4553
-92.5623
-92.2241
-91.9062
-91.5754
-91.2306
-90.8771
-90.5238
-90.183
-89.7994
-89.4155
-88.9817
-88.5278
-88.0311
-87.5773
-87.1593
-86.657
-86.1774
-85.6236
-85.085
-84.5527
-83.9655
-83.339
-82.6511
-81.9964
-81.3485
-80.6757
-79.9729
-79.1857
-78.4348
-77.7825
-76.9054
-76.0002
-75.0955
-74.2285
-73.5145
-72.9735
-72.275
-71.3566
-70.4889
-69.765
-68.9456
-68.0625
-66.9919
-92.5241
-92.1428
-91.7981
-91.4588
-91.0968
-90.6804
-90.3071
-89.9699
-89.5943
-89.2745
-88.8935
-88.5788
-87.9695
-87.3982
-87.0016
-86.4038
-85.9614
-85.3193
-84.7573
-84.2017
-83.7123
-83.1693
-82.3826
-81.642
-80.9284
-80.2296
-79.5688
-78.9963
-77.7499
-77.4564
-76.8484
-76.1784
-74.9333
-73.4331
-72.1166
-71.9448
-71.7821
-71.0551
-70.4856
-70.0464
-69.4191
-67.9658
-65.82
-65.6867
-61.5295
-57.9939
-54.7865
-51.9039
-49.2983
-46.9348
-44.7773
-42.7948
-40.9597
-39.2486
-37.6401
-36.119
-34.6729
-33.2907
-31.9664
-30.6919
-29.4639
-28.2781
-27.1313
-26.0215
-24.9475
-23.9077
-22.9016
-21.9287
-20.99
-20.0849
-19.2139
-18.3786
-17.5793
-16.8178
-16.095
-15.4136
-14.7737
-14.1785
-13.6294
-13.1293
-12.6803
-12.286
-11.9486
-11.6622
-11.4368
-11.4083
-65.3188
-63.1334
-60.9282
-58.4592
-55.977
-53.5341
-51.1785
-48.9303
-46.7966
-44.7772
-42.8665
-41.0584
-39.3471
-37.7249
-36.1857
-34.7243
-33.3354
-32.0145
-30.7578
-29.5619
-28.4236
-27.3405
-26.3103
-25.3316
-24.4023
-23.5213
-22.6877
-21.8998
-21.1582
-20.4615
-19.8088
-19.201
-18.6381
-18.1194
-17.6469
-17.2205
-16.8415
-16.5118
-16.2341
-16.0104
-15.8419
-15.7423
-15.7478
-64.399
-62.2936
-60.2316
-58.0721
-55.9451
-53.8334
-51.7711
-49.7734
-47.8512
-46.0112
-44.2546
-42.5819
-40.9913
-39.4797
-38.0443
-36.6811
-35.3865
-34.158
-32.9912
-31.8834
-30.8328
-29.8356
-28.8904
-27.9947
-27.1471
-26.346
-25.5912
-24.8806
-24.2139
-23.5905
-23.0102
-22.4733
-21.9803
-21.5304
-21.1254
-20.7653
-20.4521
-20.1864
-19.9709
-19.8056
-19.6924
-19.6477
-19.677
-64.1863
-62.2956
-60.3324
-58.3291
-56.3595
-54.4137
-52.5224
-50.6928
-48.9325
-47.2448
-45.6315
-44.0923
-42.6257
-41.2303
-39.9033
-38.6422
-37.4443
-36.3073
-35.2281
-34.2039
-33.2333
-32.3131
-31.4424
-30.6192
-29.8419
-29.1093
-28.4211
-27.775
-27.1712
-26.6092
-26.0884
-25.6087
-25.1709
-24.7747
-24.4208
-24.1093
-23.8419
-23.6192
-23.4435
-23.3136
-23.2331
-23.2326
-23.2915
-64.2794
-62.582
-60.7788
-58.9442
-57.11
-55.2894
-53.5125
-51.7877
-50.1248
-48.5279
-46.9995
-45.5401
-44.1489
-42.8256
-41.5672
-40.373
-39.2404
-38.1674
-37.1515
-36.1903
-35.2826
-34.4247
-33.6166
-32.8558
-32.1412
-31.4722
-30.8475
-30.2646
-29.7236
-29.2233
-28.7639
-28.3449
-27.9667
-27.6293
-27.3307
-27.0716
-26.8546
-26.6788
-26.5453
-26.452
-26.3981
-26.3688
-26.2991
-64.5545
-62.9312
-61.2174
-59.4898
-57.7526
-56.0304
-54.3469
-52.71
-51.1294
-49.61
-48.1549
-46.7659
-45.4426
-44.1849
-42.9912
-41.8606
-40.7913
-39.7809
-38.8273
-37.9289
-37.0836
-36.2876
-35.5403
-34.841
-34.1893
-33.5834
-33.0197
-32.4962
-32.0133
-31.5708
-31.169
-30.8065
-30.4836
-30.2
-29.9506
-29.7378
-29.5672
-29.4368
-29.3462
-29.2957
-29.2907
-29.34
-29.4842
-64.7068
-63.1796
-61.5577
-59.924
-58.2786
-56.6525
-55.0624
-53.5125
-52.0107
-50.5681
-49.1883
-47.8707
-46.6169
-45.4256
-44.2959
-43.229
-42.2234
-41.2744
-40.3811
-39.5446
-38.7581
-38.0165
-37.3226
-36.6785
-36.0823
-35.5344
-35.0223
-34.549
-34.1154
-33.723
-33.3711
-33.0556
-32.7791
-32.5431
-32.3307
-32.1568
-32.0291
-31.9391
-31.8852
-31.8651
-31.8909
-31.9765
-32.2014
-65.3327
-63.8113
-62.177
-60.546
-58.9045
-57.3121
-55.7782
-54.2817
-52.8314
-51.4454
-50.1218
-48.8556
-47.653
-46.5103
-45.4258
-44.4133
-43.4618
-42.5599
-41.712
-40.9301
-40.1949
-39.4921
-38.8449
-38.2609
-37.7267
-37.2475
-36.7814
-36.3569
-35.9708
-35.6296
-35.3309
-35.0623
-34.8418
-34.6737
-34.4817
-34.3395
-34.2581
-34.2037
-34.1801
-34.1787
-34.2324
-34.341
-34.5861
-64.4037
-63.5341
-62.144
-60.6487
-59.1754
-57.7517
-56.3817
-54.9878
-53.5808
-52.2821
-51.0421
-49.8444
-48.7169
-47.647
-46.6278
-45.7015
-44.8101
-43.9585
-43.1799
-42.4947
-41.8156
-41.1409
-40.5603
-40.0628
-39.5766
-39.1444
-38.6394
-38.2297
-37.8774
-37.5856
-37.3224
-37.0725
-36.9011
-36.8036
-36.4294
-36.3109
-36.2954
-36.2734
-36.2724
-36.2755
-36.3221
-36.2732
-36.3875
-427.785
-372.783
-319.924
-281.681
-248.346
-217.735
-190.509
-166.821
-146.374
-128.672
-113.395
-100.23
-88.9173
-79.1748
-70.7207
-63.4105
-57.0598
-51.5053
-46.6394
-42.3484
-38.5389
-35.138
-32.0779
-29.317
-26.8053
-24.5088
-22.4052
-20.4597
-18.662
-16.9964
-15.4404
-13.992
-12.6387
-11.369
-10.1804
-9.06818
-8.02127
-7.03723
-6.11171
-5.23971
-4.41988
-3.65867
-3.07579
-186.977
-183.161
-177.29
-170.81
-162.676
-153.481
-143.85
-134.103
-124.462
-115.094
-106.154
-97.7021
-89.8069
-82.4906
-75.7332
-69.5246
-63.8571
-58.6705
-53.9339
-49.6245
-45.6798
-42.0835
-38.7858
-35.7662
-32.9878
-30.4288
-28.0664
-25.8777
-23.8433
-21.9564
-20.1919
-18.5476
-17.0098
-15.5661
-14.2142
-12.944
-11.7464
-10.6233
-9.5643
-8.56271
-7.62101
-6.73858
-6.03755
-122.304
-122.876
-123.246
-122.933
-121.721
-119.673
-116.853
-113.328
-109.224
-104.662
-99.7866
-94.7248
-89.5698
-84.4182
-79.3334
-74.3727
-69.5965
-65.0212
-60.6528
-56.5363
-52.6411
-48.9868
-45.5593
-42.3568
-39.3608
-36.5608
-33.9486
-31.5078
-29.2252
-27.0951
-25.0983
-23.2293
-21.4776
-19.831
-18.2902
-16.8389
-15.4738
-14.1889
-12.9791
-11.8363
-10.7576
-9.74901
-8.94928
-125.268
-125.17
-124.231
-122.42
-120.138
-117.483
-114.457
-111.084
-107.411
-103.487
-99.3685
-95.1146
-90.7692
-86.3967
-82.0224
-77.6992
-73.4583
-69.3281
-65.3191
-61.4657
-57.7578
-54.2147
-50.8438
-47.6428
-44.6034
-41.7272
-39.0132
-36.4481
-34.0273
-31.7472
-29.6008
-27.5746
-25.665
-23.8635
-22.167
-20.5656
-19.058
-17.6298
-16.2843
-15.0099
-13.8027
-12.6684
-11.7806
-113.893
-113.828
-113.232
-112.012
-110.397
-108.466
-106.25
-103.774
-101.069
-98.1565
-95.0682
-91.833
-88.4762
-85.0404
-81.5417
-78.0197
-74.4922
-70.9874
-67.5235
-64.1199
-60.8016
-57.5588
-54.4281
-51.4026
-48.4879
-45.6928
-43.0148
-40.4619
-38.0209
-35.6968
-33.4859
-31.3878
-29.3919
-27.5006
-25.7045
-24.0036
-22.39
-20.8593
-19.4081
-18.0281
-16.7168
-15.4843
-14.559
-99.2863
-99.4384
-99.4269
-99.0847
-98.4605
-97.579
-96.444
-95.0635
-93.4472
-91.6089
-89.5646
-87.3387
-84.9432
-82.4068
-79.7473
-76.9982
-74.1739
-71.3055
-68.4059
-65.4992
-62.6072
-59.7354
-56.9109
-54.1354
-51.4294
-48.7876
-46.2285
-43.7569
-41.3667
-39.0719
-36.8598
-34.7484
-32.7209
-30.7832
-28.9311
-27.1672
-25.4815
-23.8777
-22.3495
-20.8918
-19.4998
-18.1882
-17.2284
-91.7703
-91.9081
-91.9677
-91.8175
-91.4698
-90.9265
-90.1902
-89.2648
-88.1496
-86.8467
-85.3628
-83.7134
-81.9058
-79.9563
-77.878
-75.6881
-73.4014
-71.0396
-68.6105
-66.1444
-63.6421
-61.1286
-58.6156
-56.1113
-53.6404
-51.1956
-48.7987
-46.4539
-44.1663
-41.9406
-39.7802
-37.6943
-35.6791
-33.7347
-31.8643
-30.0706
-28.3455
-26.6922
-25.1096
-23.5922
-22.1363
-20.7479
-19.692
-87.3322
-87.3958
-87.3901
-87.2357
-86.9356
-86.4904
-85.9
-85.1627
-84.2783
-83.2503
-82.084
-80.7822
-79.3479
-77.7889
-76.1121
-74.3296
-72.447
-70.4819
-68.4396
-66.3371
-64.181
-61.9878
-59.7716
-57.5324
-55.2978
-53.0647
-50.848
-48.654
-46.4965
-44.3726
-42.2959
-40.2696
-38.2958
-36.3772
-34.5185
-32.7209
-30.9839
-29.3074
-27.6942
-26.1367
-24.6383
-23.1946
-22.0582
-83.476
-83.4961
-83.4687
-83.3392
-83.1066
-82.7595
-82.2986
-81.7247
-81.0349
-80.2276
-79.303
-78.2632
-77.1117
-75.8512
-74.4849
-73.0198
-71.4584
-69.8107
-68.0833
-66.2845
-64.4258
-62.5143
-60.5597
-58.5686
-56.5566
-54.531
-52.4984
-50.4671
-48.4483
-46.447
-44.4703
-42.5254
-40.6147
-38.7459
-36.9191
-35.1403
-33.4112
-31.7324
-30.1071
-28.529
-27.0044
-25.5371
-24.3826
-80.2177
-80.2389
-80.2312
-80.1461
-79.9807
-79.7275
-79.3798
-78.934
-78.3919
-77.7509
-77.0111
-76.1718
-75.2341
-74.1993
-73.0699
-71.8477
-70.5392
-69.145
-67.6719
-66.1273
-64.5139
-62.8433
-61.1182
-59.3489
-57.5424
-55.7064
-53.8488
-51.9791
-50.1036
-48.2291
-46.3618
-44.5097
-42.6762
-40.8712
-39.092
-37.3502
-35.646
-33.9809
-32.3609
-30.7826
-29.2482
-27.7722
-26.621
-77.8865
-77.8927
-77.8803
-77.8036
-77.6642
-77.4544
-77.1704
-76.8078
-76.3627
-75.8331
-75.2176
-74.5177
-73.7343
-72.8656
-71.9132
-70.8763
-69.76
-68.5644
-67.2937
-65.9517
-64.542
-63.0718
-61.5426
-59.9646
-58.3413
-56.6791
-54.982
-53.2661
-51.5257
-49.777
-48.0212
-46.2674
-44.5199
-42.7878
-41.0675
-39.3751
-37.7069
-36.0685
-34.4644
-32.8938
-31.357
-29.8658
-28.6339
-76.1835
-76.1754
-76.1496
-76.0718
-75.9423
-75.7543
-75.5024
-75.1851
-74.8008
-74.3476
-73.8231
-73.2254
-72.5527
-71.8062
-70.9859
-70.0928
-69.1266
-68.0884
-66.9802
-65.8043
-64.5619
-63.259
-61.8983
-60.482
-59.0185
-57.5102
-55.9602
-54.3828
-52.7725
-51.1438
-49.4972
-47.8431
-46.1833
-44.5276
-42.8736
-41.2358
-39.6119
-38.0091
-36.431
-34.8784
-33.3547
-31.8667
-30.5556
-74.8163
-74.8002
-74.7719
-74.6987
-74.5815
-74.4169
-74.2012
-73.9278
-73.5953
-73.2017
-72.745
-72.2262
-71.6435
-70.995
-70.2793
-69.4977
-68.6502
-67.7361
-66.7579
-65.7155
-64.6112
-63.4466
-62.2253
-60.9492
-59.6236
-58.249
-56.8315
-55.3775
-53.8882
-52.3706
-50.8282
-49.2714
-47.6969
-46.117
-44.5343
-42.9558
-41.3803
-39.8196
-38.2723
-36.7467
-35.2432
-33.766
-32.3708
-73.8143
-73.7918
-73.7577
-73.686
-73.5789
-73.4282
-73.2316
-72.9886
-72.6946
-72.3472
-71.9449
-71.4856
-70.9687
-70.3933
-69.7596
-69.0665
-68.3141
-67.5009
-66.6282
-65.6962
-64.7068
-63.6572
-62.5543
-61.397
-60.1891
-58.9315
-57.6296
-56.2865
-54.9055
-53.4905
-52.0461
-50.5779
-49.0894
-47.5849
-46.0705
-44.5518
-43.0312
-41.5142
-40.0033
-38.5074
-37.0266
-35.5625
-34.0983
-73.0671
-73.048
-73.02
-72.9543
-72.8538
-72.7168
-72.5397
-72.319
-72.0534
-71.7394
-71.3771
-70.9657
-70.5032
-69.9884
-69.4197
-68.7968
-68.1197
-67.3876
-66.6001
-65.7567
-64.8596
-63.9071
-62.9032
-61.846
-60.7391
-59.5836
-58.3818
-57.1381
-55.8519
-54.531
-53.1756
-51.7908
-50.3806
-48.9523
-47.5031
-46.0438
-44.5774
-43.1071
-41.6374
-40.1726
-38.7178
-37.2729
-35.7476
-72.6508
-72.6194
-72.5742
-72.4979
-72.3949
-72.2605
-72.091
-71.8839
-71.6368
-71.3495
-71.0191
-70.6423
-70.2186
-69.7482
-69.2305
-68.6648
-68.0483
-67.3814
-66.6641
-65.8949
-65.0752
-64.2036
-63.282
-62.3101
-61.2907
-60.2212
-59.1087
-57.9502
-56.75
-55.514
-54.2374
-52.932
-51.5954
-50.2341
-48.8518
-47.4497
-46.0364
-44.6112
-43.1823
-41.752
-40.3236
-38.8954
-37.295
-72.3893
-72.3542
-72.3094
-72.2348
-72.1329
-72.0008
-71.8383
-71.6425
-71.4114
-71.1423
-70.8323
-70.483
-70.0934
-69.6605
-69.183
-68.6612
-68.0934
-67.4793
-66.818
-66.1109
-65.3546
-64.5512
-63.6988
-62.7997
-61.8528
-60.8589
-59.8223
-58.7401
-57.6157
-56.4539
-55.2502
-54.0149
-52.7473
-51.4488
-50.128
-48.7821
-47.4199
-46.0412
-44.6521
-43.2587
-41.8587
-40.4524
-38.8165
-72.2751
-72.2408
-72.1943
-72.1202
-72.0214
-71.8948
-71.7382
-71.5515
-71.3321
-71.0783
-70.7896
-70.4642
-70.0992
-69.6945
-69.2501
-68.765
-68.2378
-67.6683
-67.0547
-66.3972
-65.6939
-64.9469
-64.1541
-63.316
-62.4332
-61.5046
-60.5331
-59.5175
-58.4604
-57.3637
-56.2267
-55.0546
-53.8487
-52.6109
-51.3453
-50.0546
-48.7397
-47.4072
-46.0592
-44.7016
-43.334
-41.9574
-40.3236
-72.3971
-72.3453
-72.2807
-72.1926
-72.0845
-71.9544
-71.7992
-71.6153
-71.4011
-71.1577
-70.8816
-70.5703
-70.2251
-69.8451
-69.4279
-68.9727
-68.4777
-67.9437
-67.3678
-66.7525
-66.095
-65.3947
-64.6517
-63.8655
-63.036
-62.1632
-61.2484
-60.2912
-59.2932
-58.2545
-57.1771
-56.062
-54.9121
-53.7293
-52.5151
-51.2751
-50.0076
-48.7187
-47.4108
-46.0899
-44.7588
-43.418
-41.8071
-72.5068
-72.4637
-72.4107
-72.3318
-72.2296
-72.1018
-71.9492
-71.7722
-71.5691
-71.336
-71.0716
-70.7766
-70.4495
-70.088
-69.6925
-69.2612
-68.794
-68.2906
-67.7487
-67.1681
-66.5483
-65.8881
-65.1875
-64.446
-63.663
-62.8389
-61.974
-61.0674
-60.1196
-59.1341
-58.1081
-57.0454
-55.9459
-54.8139
-53.6473
-52.453
-51.2294
-49.982
-48.713
-47.4263
-46.1291
-44.8119
-43.1902
-72.7976
-72.7463
-72.6834
-72.5957
-72.4896
-72.3633
-72.214
-72.04
-71.8398
-71.6138
-71.3606
-71.0775
-70.7633
-70.4179
-70.0402
-69.6296
-69.1856
-68.706
-68.1909
-67.6397
-67.0519
-66.4256
-65.7614
-65.0581
-64.3159
-63.5331
-62.7106
-61.8487
-60.9461
-60.0064
-59.0262
-58.0107
-56.9574
-55.8693
-54.7474
-53.5954
-52.4129
-51.2041
-49.9695
-48.7171
-47.4477
-46.1589
-44.5434
-73.1639
-73.1096
-73.0438
-72.9559
-72.848
-72.7181
-72.5679
-72.3959
-72.2015
-71.9815
-71.7338
-71.4591
-71.1562
-70.8236
-70.4615
-70.0683
-69.6425
-69.1846
-68.6926
-68.166
-67.6046
-67.0076
-66.3739
-65.7018
-64.9942
-64.2475
-63.4624
-62.639
-61.776
-60.8765
-59.9372
-58.9626
-57.9516
-56.9031
-55.8223
-54.7097
-53.5643
-52.3928
-51.1916
-49.969
-48.7278
-47.4595
-45.8405
-73.5679
-73.5194
-73.4573
-73.372
-73.2669
-73.1414
-72.9947
-72.8258
-72.6333
-72.4167
-72.1758
-71.9094
-71.6155
-71.2947
-70.9447
-70.5651
-70.1549
-69.714
-69.2412
-68.7367
-68.1978
-67.6255
-67.0181
-66.3749
-65.6963
-64.9806
-64.228
-63.4384
-62.6111
-61.7473
-60.8445
-59.9065
-58.932
-57.9211
-56.8771
-55.7996
-54.6895
-53.551
-52.3838
-51.1914
-49.9792
-48.7423
-47.2113
-74.1114
-74.0554
-73.9827
-73.8882
-73.7762
-73.6466
-73.4976
-73.3279
-73.1379
-72.9259
-72.6894
-72.4281
-72.141
-71.8268
-71.4859
-71.118
-70.7213
-70.2959
-69.8392
-69.3519
-68.8324
-68.2812
-67.696
-67.0769
-66.4233
-65.7351
-65.0106
-64.2502
-63.4533
-62.6205
-61.7506
-60.845
-59.9034
-58.9255
-57.9151
-56.8695
-55.7931
-54.6843
-53.5484
-52.3871
-51.2013
-49.9907
-48.5862
-74.6976
-74.6357
-74.5613
-74.4652
-74.3511
-74.2169
-74.0638
-73.8921
-73.7012
-73.4893
-73.2558
-72.9989
-72.7173
-72.4114
-72.0792
-71.7201
-71.3341
-70.9195
-70.4762
-70.0033
-69.5007
-68.9672
-68.4016
-67.8034
-67.1719
-66.5071
-65.8074
-65.0732
-64.3025
-63.4975
-62.6568
-61.7799
-60.8679
-59.9201
-58.9388
-57.9231
-56.8761
-55.7962
-54.6875
-53.552
-52.3926
-51.2163
-49.9008
-75.3281
-75.2627
-75.1844
-75.0848
-74.9672
-74.8327
-74.681
-74.5098
-74.3191
-74.1085
-73.8756
-73.6207
-73.3429
-73.0415
-72.7157
-72.3643
-71.9871
-71.5832
-71.1518
-70.6921
-70.2029
-69.6847
-69.1348
-68.5546
-67.9421
-67.2977
-66.6189
-65.907
-65.1603
-64.3797
-63.5643
-62.7131
-61.8277
-60.9073
-59.9523
-58.9639
-57.943
-56.8885
-55.8042
-54.6905
-53.5486
-52.3754
-51.0316
-75.9476
-75.8904
-75.8163
-75.7202
-75.607
-75.4745
-75.3227
-75.1523
-74.9637
-74.7547
-74.5255
-74.2753
-74.002
-73.7063
-73.3866
-73.0428
-72.6739
-72.2791
-71.858
-71.4091
-70.9331
-70.4279
-69.8925
-69.3278
-68.7323
-68.1052
-67.4449
-66.7529
-66.0276
-65.2681
-64.4749
-63.6464
-62.7852
-61.8881
-60.9578
-59.9929
-58.9964
-57.9654
-56.903
-55.8109
-54.6858
-53.5095
-52.0088
-76.7193
-76.6454
-76.5559
-76.4478
-76.3231
-76.183
-76.0263
-75.8531
-75.6631
-75.4553
-75.227
-74.9778
-74.7071
-74.4143
-74.0989
-73.7599
-73.3971
-73.0097
-72.5952
-72.1554
-71.6891
-71.1947
-70.6722
-70.1212
-69.5396
-68.9278
-68.2843
-67.6092
-66.9022
-66.1618
-65.3884
-64.5808
-63.7404
-62.8645
-61.9565
-61.0137
-60.0388
-59.0306
-57.9913
-56.9239
-55.8297
-54.7076
-53.3318
-77.3942
-77.3299
-77.2534
-77.1537
-77.0348
-76.8975
-76.7436
-76.572
-76.383
-76.1757
-75.9497
-75.7033
-75.4356
-75.147
-74.8359
-74.5022
-74.1449
-73.7636
-73.358
-72.9274
-72.4706
-71.9858
-71.4738
-70.9338
-70.3639
-69.7663
-69.1369
-68.4768
-67.7855
-67.0616
-66.306
-65.5166
-64.6945
-63.8381
-62.9496
-62.0274
-61.0718
-60.0852
-59.0658
-58.0194
-56.9482
-55.8637
-54.6881
-78.135
-78.0733
-77.9947
-77.8945
-77.7783
-77.6442
-77.492
-77.3221
-77.1347
-76.9288
-76.7035
-76.4596
-76.1947
-75.9084
-75.6009
-75.2713
-74.9201
-74.5444
-74.1446
-73.7193
-73.2692
-72.7935
-72.2916
-71.7616
-71.2031
-70.6173
-70.0005
-69.3533
-68.6765
-67.9673
-67.2279
-66.4542
-65.6485
-64.8098
-63.9383
-63.0338
-62.0955
-61.1264
-60.123
-59.0903
-58.0269
-56.9391
-55.7802
-79.0257
-78.9473
-78.8519
-78.7378
-78.6071
-78.4608
-78.2999
-78.1238
-77.9326
-77.7241
-77.4977
-77.252
-76.9866
-76.7024
-76.3972
-76.0697
-75.7206
-75.3487
-74.9543
-74.5355
-74.0923
-73.623
-73.1283
-72.6067
-72.0574
-71.4811
-70.8751
-70.2405
-69.5757
-68.8793
-68.1527
-67.3943
-66.603
-65.7794
-64.9227
-64.0342
-63.1119
-62.1575
-61.1692
-60.1481
-59.0938
-57.9953
-56.7438
-79.7717
-79.7042
-79.6229
-79.5195
-79.3977
-79.2576
-79.1009
-78.9262
-78.7344
-78.5262
-78.3017
-78.0581
-77.7945
-77.5119
-77.2086
-76.8846
-76.5391
-76.1711
-75.7803
-75.366
-74.9287
-74.4658
-73.9788
-73.4652
-72.9247
-72.3566
-71.7602
-71.1352
-70.4812
-69.7965
-69.0815
-68.336
-67.558
-66.7482
-65.906
-65.0312
-64.1234
-63.1828
-62.2101
-61.2037
-60.1672
-59.0885
-57.7754
-80.6348
-80.5618
-80.4736
-80.363
-80.2357
-80.0923
-79.9325
-79.757
-79.5668
-79.3591
-79.1334
-78.8901
-78.6282
-78.346
-78.0444
-77.7218
-77.3779
-77.0138
-76.6269
-76.2172
-75.7841
-75.3258
-74.8437
-74.336
-73.8023
-73.2422
-72.6536
-72.0379
-71.3933
-70.7192
-70.0149
-69.28
-68.5143
-67.7164
-66.8871
-66.0246
-65.1312
-64.2028
-63.2438
-62.2519
-61.2266
-60.1577
-58.8135
-81.4806
-81.4133
-81.3274
-81.2193
-81.0925
-80.9494
-80.7888
-80.6117
-80.4182
-80.2088
-79.9832
-79.7392
-79.4757
-79.1944
-78.8943
-78.5733
-78.232
-77.8698
-77.4855
-77.0789
-76.6493
-76.1963
-75.7193
-75.218
-74.6907
-74.1372
-73.556
-72.9479
-72.3114
-71.6462
-70.9509
-70.2267
-69.4711
-68.6837
-67.8662
-67.0155
-66.1339
-65.2191
-64.273
-63.296
-62.2895
-61.2521
-59.9386
-82.4444
-82.3581
-82.2538
-82.1314
-81.9943
-81.841
-81.6729
-81.4912
-81.2943
-81.0818
-80.8533
-80.6077
-80.3452
-80.0638
-79.7635
-79.4431
-79.1034
-78.7427
-78.361
-77.9572
-77.5313
-77.0821
-76.6087
-76.1114
-75.5892
-75.0408
-74.466
-73.8648
-73.2358
-72.5776
-71.8912
-71.1752
-70.4286
-69.6519
-68.8439
-68.0044
-67.1325
-66.2294
-65.2948
-64.3295
-63.3335
-62.297
-60.9635
-83.2551
-83.1842
-83.0957
-82.9837
-82.8544
-82.7084
-82.545
-82.3648
-82.1688
-81.958
-81.73
-81.4852
-81.2221
-80.9412
-80.6415
-80.3229
-79.9846
-79.6251
-79.2452
-78.8435
-78.4206
-77.9743
-77.5047
-77.0118
-76.4943
-75.9511
-75.3823
-74.7867
-74.164
-73.5131
-72.8342
-72.1252
-71.387
-70.6193
-69.8199
-68.9899
-68.128
-67.2349
-66.3098
-65.3556
-64.3722
-63.3612
-62.0573
-84.1534
-84.0764
-83.9831
-83.8714
-83.7414
-83.593
-83.4297
-83.2505
-83.0556
-82.845
-82.6182
-82.374
-82.1121
-81.8319
-81.533
-81.2152
-80.8777
-80.5204
-80.1425
-79.7427
-79.322
-78.8782
-78.4117
-77.9218
-77.4079
-76.8693
-76.3044
-75.714
-75.0966
-74.4522
-73.7793
-73.0769
-72.3467
-71.5853
-70.7941
-69.9725
-69.1192
-68.2349
-67.318
-66.3716
-65.3944
-64.3809
-63.0492
-85.0727
-84.998
-84.9066
-84.7907
-84.657
-84.5079
-84.341
-84.1591
-83.9616
-83.7495
-83.5214
-83.2767
-83.0145
-82.7336
-82.4349
-82.1173
-81.7811
-81.4244
-81.0474
-80.649
-80.2304
-79.7889
-79.3254
-78.8392
-78.3277
-77.7922
-77.2317
-76.6459
-76.0334
-75.3934
-74.7263
-74.0303
-73.3061
-72.551
-71.7674
-70.9523
-70.1076
-69.2303
-68.3228
-67.3848
-66.4191
-65.424
-64.1635
-86.042
-85.9615
-85.8609
-85.739
-85.6011
-85.4467
-85.2766
-85.0911
-84.8906
-84.6748
-84.4438
-84.196
-83.9315
-83.6499
-83.35
-83.0318
-82.6952
-82.3382
-81.9624
-81.5655
-81.1472
-80.707
-80.2451
-79.7605
-79.2528
-78.7204
-78.1636
-77.5812
-76.9727
-76.3371
-75.675
-74.9844
-74.2654
-73.5166
-72.7392
-71.93
-71.0923
-70.2218
-69.3217
-68.3918
-67.4312
-66.4414
-65.2585
-86.9726
-86.8905
-86.7901
-86.6687
-86.5303
-86.3751
-86.2032
-86.0166
-85.8146
-85.5983
-85.3662
-85.1172
-84.8518
-84.5695
-84.2693
-83.9511
-83.6144
-83.2586
-82.8832
-82.487
-82.0698
-81.6318
-81.1718
-80.6895
-80.1838
-79.6534
-79.0989
-78.5198
-77.9147
-77.2834
-76.6251
-75.9391
-75.225
-74.481
-73.7092
-72.9057
-72.073
-71.2091
-70.3134
-69.3883
-68.4328
-67.4484
-66.2638
-87.9163
-87.8329
-87.7323
-87.6089
-87.4681
-87.3098
-87.1366
-86.9484
-86.7451
-86.5267
-86.2936
-86.0456
-85.7808
-85.4986
-85.198
-84.8798
-84.543
-84.1861
-83.8103
-83.4153
-82.999
-82.562
-82.1027
-81.6217
-81.1176
-80.5898
-80.0377
-79.4613
-78.8591
-78.2311
-77.5768
-76.8943
-76.1844
-75.4449
-74.6772
-73.8795
-73.051
-72.1922
-71.3007
-70.3788
-69.4259
-68.437
-67.2352
-88.823
-88.7462
-88.6496
-88.5295
-88.3924
-88.2388
-88.0678
-87.8804
-87.678
-87.4605
-87.2269
-86.9767
-86.7104
-86.4272
-86.1267
-85.8083
-85.4714
-85.1161
-84.7416
-84.3464
-83.9308
-83.4952
-83.0369
-82.5578
-82.0555
-81.5296
-80.9796
-80.4055
-79.8059
-79.1805
-78.5291
-77.8505
-77.143
-76.4085
-75.6442
-74.8513
-74.0271
-73.1724
-72.2865
-71.3698
-70.4224
-69.4395
-68.2437