/*--------------------------------*- C++ -*----------------------------------*\
| =========                 |                                                 |
| \\      /  F ield         | OpenFOAM: The Open Source CFD Toolbox           |
|  \\    /   O peration     | Version:  2.3.0                                 |
|   \\  /    A nd           | Web:      www.OpenFOAM.org                      |
|    \\/     M anipulation  |                                                 |
\*---------------------------------------------------------------------------*/
FoamFile
{
    version     2.0;
    format      ascii;
    class       volVectorField;
    location    "10000";
    object      U;
}
// * * * * * * * * * * * * * * * * * * * * * * * * * * * * * * * * * * * * * //

dimensions      [0 1 -1 0 0 0 0];

internalField   nonuniform List<vector> 
122394
(
(21.4719 9.87033 3.71575e-22)
(21.4387 9.97521 1.06864e-21)
(21.406 10.0788 -5.60211e-22)
(21.3728 10.1835 5.61996e-22)
(21.3394 10.2894 2.07715e-21)
(21.3058 10.3966 -7.27183e-22)
(21.272 10.5052 1.49997e-22)
(21.2381 10.6155 0)
(21.204 10.7276 -3.06907e-22)
(21.1697 10.8417 -1.03606e-21)
(21.1353 10.9581 0)
(21.1006 11.0769 7.67839e-22)
(21.0656 11.1985 2.25216e-21)
(21.0302 11.3232 -1.38532e-21)
(20.9943 11.4515 -3.49565e-21)
(20.9577 11.5836 -7.26817e-21)
(20.9206 11.7201 1.25882e-21)
(20.8825 11.8617 1.13567e-20)
(20.8435 12.0089 -1.52723e-20)
(20.8034 12.1625 -1.97852e-21)
(20.7616 12.3234 9.70808e-22)
(20.7182 12.4928 5.35362e-21)
(20.6727 12.6717 0)
(20.6245 12.8615 3.54147e-21)
(20.5734 13.064 -1.43969e-20)
(20.5187 13.2809 1.46405e-20)
(20.4595 13.5138 -2.86986e-21)
(20.395 13.7653 3.15809e-21)
(20.3238 14.0377 0)
(20.2442 14.3327 -4.7748e-21)
(20.1535 14.6538 7.84109e-22)
(20.0485 15.003 5.00065e-21)
(19.9247 15.3822 2.90412e-21)
(19.7742 15.7919 -1.30063e-20)
(19.5865 16.2316 3.83369e-20)
(19.3463 16.7001 -1.49515e-20)
(19.0305 17.1885 0)
(18.6048 17.6837 0)
(18.0177 18.1587 0)
(17.1959 18.569 1.37689e-20)
(16.0199 18.8894 -5.54222e-20)
(14.3006 19.1038 6.30703e-20)
(11.8981 18.8217 2.26426e-20)
(21.3574 9.84564 0)
(21.3216 9.94123 0)
(21.2859 10.0356 -8.92558e-22)
(21.2495 10.1309 -2.87969e-21)
(21.2125 10.2271 -5.65414e-23)
(21.1748 10.3244 1.12658e-22)
(21.1363 10.4229 1.14607e-21)
(21.0972 10.5228 -2.83599e-23)
(21.0574 10.6242 -4.80915e-22)
(21.0168 10.7273 -3.1658e-22)
(20.9753 10.8323 0)
(20.9328 10.9392 1.52106e-21)
(20.8891 11.0482 -1.68871e-21)
(20.844 11.1597 2.15484e-21)
(20.7974 11.2738 -7.09174e-22)
(20.749 11.3906 1.94359e-21)
(20.6987 11.5108 -1.29483e-21)
(20.6462 11.6342 1.70752e-21)
(20.5911 11.7615 9.8182e-22)
(20.533 11.8927 1.062e-21)
(20.4713 12.0282 -1.15138e-21)
(20.4055 12.1687 -2.51017e-21)
(20.3347 12.3143 2.56886e-21)
(20.2579 12.4657 -1.11386e-21)
(20.1742 12.6237 5.57344e-21)
(20.0823 12.7889 -2.52182e-21)
(19.9803 12.9617 2.76955e-21)
(19.8667 13.1435 -2.17413e-21)
(19.7392 13.335 -2.25708e-21)
(19.5948 13.5369 1.40435e-21)
(19.4304 13.75 -1.94629e-21)
(19.2423 13.9755 0)
(19.0259 14.2133 -3.38223e-21)
(18.7755 14.4623 3.31873e-21)
(18.485 14.7218 0)
(18.148 14.988 0)
(17.757 15.2553 0)
(17.3051 15.5137 1.45088e-21)
(16.787 15.7462 8.70377e-21)
(16.202 15.9297 -2.80275e-20)
(15.5577 16.0306 1.70518e-20)
(14.8746 15.9906 0)
(14.189 15.7147 -9.98694e-21)
(21.2549 9.81853 2.7764e-21)
(21.2181 9.9058 6.37326e-22)
(21.1811 9.9918 1.94768e-21)
(21.1431 10.0786 3.03261e-21)
(21.1043 10.1662 3.49758e-22)
(21.0646 10.2546 0)
(21.0239 10.3441 8.36997e-22)
(20.9821 10.4348 0)
(20.9393 10.5268 4.75624e-22)
(20.8954 10.6204 7.44264e-22)
(20.8503 10.7156 1.11749e-21)
(20.8038 10.8125 3.99986e-22)
(20.7558 10.9113 0)
(20.7059 11.0121 -6.39845e-22)
(20.6541 11.1151 2.33334e-21)
(20.6 11.2207 -2.26445e-22)
(20.5435 11.329 -5.55764e-22)
(20.4843 11.4403 9.15604e-23)
(20.4221 11.5549 -3.46755e-22)
(20.3566 11.6728 -1.58633e-22)
(20.2873 11.7946 -3.75639e-22)
(20.2137 11.9202 -1.48615e-22)
(20.135 12.0499 -4.82975e-22)
(20.0504 12.1839 1.26783e-21)
(19.959 12.3226 -5.82444e-22)
(19.8596 12.4658 0)
(19.751 12.6137 -9.57478e-22)
(19.6316 12.7666 2.52529e-22)
(19.4997 12.9242 1.26173e-21)
(19.3531 13.0859 1.11856e-21)
(19.1894 13.2511 0)
(19.0057 13.4188 0)
(18.799 13.5872 0)
(18.5655 13.7536 -3.04813e-21)
(18.3016 13.9144 -4.0132e-21)
(18.0034 14.0645 1.10159e-20)
(17.6672 14.1977 5.10911e-21)
(17.2902 14.3047 -8.88153e-21)
(16.8714 14.3749 -3.03351e-20)
(16.4122 14.3958 1.25729e-19)
(15.9191 14.353 -8.46453e-20)
(15.4055 14.2307 0)
(14.8971 14.0176 9.27423e-21)
(21.1634 9.7917 3.91547e-21)
(21.1262 9.86988 -9.60632e-21)
(21.0885 9.94779 0)
(21.0499 10.0266 0)
(21.0103 10.1061 -1.56988e-21)
(20.9696 10.1864 9.28775e-22)
(20.9277 10.2676 -2.39932e-21)
(20.8845 10.3498 0)
(20.84 10.4333 0)
(20.7942 10.518 -1.33512e-21)
(20.7469 10.6042 -1.29397e-21)
(20.6981 10.6918 0)
(20.6476 10.781 -2.12286e-21)
(20.595 10.8718 2.13448e-21)
(20.54 10.9643 -1.16907e-21)
(20.4824 11.0588 -1.67527e-21)
(20.4219 11.1554 1.6905e-21)
(20.3581 11.2543 1.71955e-21)
(20.2909 11.3558 -1.17175e-21)
(20.22 11.46 -1.811e-21)
(20.1449 11.567 5.64029e-22)
(20.0651 11.6768 3.93779e-21)
(19.98 11.7896 -3.44898e-21)
(19.8887 11.9054 -6.98243e-22)
(19.7904 12.0241 1.21622e-21)
(19.6839 12.1458 -1.25235e-21)
(19.5682 12.2703 9.52083e-22)
(19.4421 12.3975 -1.08836e-21)
(19.3043 12.5272 0)
(19.153 12.6584 -1.49384e-21)
(18.9867 12.7905 3.24657e-22)
(18.8033 12.922 3.31978e-21)
(18.6009 13.0513 0)
(18.3775 13.1758 7.58941e-21)
(18.1312 13.2924 -6.22262e-22)
(17.8605 13.3971 -1.52002e-20)
(17.5646 13.4846 2.56979e-20)
(17.2437 13.5483 -1.96536e-20)
(16.8994 13.5814 -2.68376e-20)
(16.536 13.5756 3.91771e-21)
(16.1604 13.5233 4.23833e-20)
(15.7834 13.4176 0)
(15.4198 13.2556 -8.32265e-20)
(21.0824 9.76188 0)
(21.045 9.83322 2.26565e-21)
(21.0073 9.90428 -2.52897e-21)
(20.9687 9.97602 3.78643e-21)
(20.9291 10.0484 -4.05975e-21)
(20.8883 10.1216 -2.79649e-21)
(20.8462 10.1955 6.21869e-22)
(20.8027 10.2703 2.17091e-21)
(20.7577 10.3461 2.79129e-21)
(20.7112 10.4232 0)
(20.6631 10.5017 0)
(20.6134 10.5815 -4.07844e-21)
(20.5621 10.6628 2.09991e-21)
(20.5086 10.7454 2.05337e-21)
(20.4528 10.8294 0)
(20.3941 10.9151 1.71552e-21)
(20.3324 11.0024 4.48338e-21)
(20.2672 11.0917 2.02897e-22)
(20.1983 11.1832 1.43959e-21)
(20.1257 11.277 -1.54402e-21)
(20.0489 11.373 2.85368e-21)
(19.9676 11.4714 -1.34724e-21)
(19.8813 11.5722 3.50967e-21)
(19.7893 11.6751 0)
(19.6905 11.7799 0)
(19.5839 11.8866 0)
(19.4686 11.9948 -1.28428e-21)
(19.3437 12.1044 -3.73146e-22)
(19.2079 12.2149 1.98248e-21)
(19.0601 12.3253 0)
(18.8989 12.4347 -4.30667e-21)
(18.7228 12.5416 -3.63807e-21)
(18.5303 12.6444 -5.49871e-21)
(18.32 12.7408 2.17153e-22)
(18.091 12.8278 6.25903e-21)
(17.8425 12.9023 -8.05717e-21)
(17.5747 12.9602 1.77158e-20)
(17.2886 12.9963 0)
(16.9865 13.0057 -2.49369e-20)
(16.6722 12.9832 1.27534e-20)
(16.3515 12.9246 -6.33346e-20)
(16.0327 12.8264 5.21264e-20)
(15.7256 12.6883 -3.72853e-20)
(21.0094 9.73291 3.14847e-21)
(20.9728 9.79751 0)
(20.9356 9.86226 3.26985e-21)
(20.8976 9.92775 1.52105e-21)
(20.8586 9.99386 1.26679e-21)
(20.8184 10.0606 6.84239e-21)
(20.7767 10.1281 -4.45148e-21)
(20.7336 10.1964 -2.39147e-21)
(20.6888 10.2657 -2.7748e-21)
(20.6423 10.336 -3.36186e-21)
(20.594 10.4076 0)
(20.5441 10.4807 6.25623e-21)
(20.4926 10.5551 0)
(20.4392 10.6308 -6.46948e-21)
(20.3834 10.7077 0)
(20.3247 10.7858 -6.80917e-21)
(20.2627 10.8653 -3.13648e-21)
(20.1971 10.9465 3.89667e-22)
(20.1276 11.0295 0)
(20.0541 11.1143 0)
(19.9764 11.2011 0)
(19.8942 11.2899 -1.84947e-22)
(19.8073 11.3808 -4.56784e-21)
(19.7151 11.4735 -5.01592e-21)
(19.6168 11.5674 -3.30226e-22)
(19.5112 11.6622 0)
(19.3971 11.7579 -1.63361e-21)
(19.2739 11.8542 4.80323e-21)
(19.1408 11.9505 -7.60673e-21)
(18.9968 12.046 0)
(18.841 12.1397 9.37812e-21)
(18.672 12.23 0)
(18.4889 12.3154 8.56093e-21)
(18.2906 12.3941 -1.65384e-20)
(18.0765 12.463 0)
(17.8463 12.5198 -9.05223e-21)
(17.6008 12.5612 1.02675e-21)
(17.3414 12.5836 1.24211e-21)
(17.0708 12.5827 2.44286e-21)
(16.7919 12.5547 -2.71671e-20)
(16.5096 12.4966 4.90447e-20)
(16.2297 12.4065 -5.37168e-20)
(15.9594 12.285 5.74851e-20)
(20.9446 9.70427 -6.66996e-21)
(20.9089 9.76287 -7.09842e-21)
(20.8725 9.82213 2.02054e-22)
(20.8354 9.88218 5.43747e-21)
(20.7974 9.94263 -4.57256e-21)
(20.758 10.0038 -4.15239e-21)
(20.7172 10.0657 7.47793e-21)
(20.6749 10.1285 -4.40767e-22)
(20.6308 10.1921 -2.2449e-22)
(20.5849 10.2567 3.57009e-21)
(20.5369 10.3223 0)
(20.4872 10.3895 -3.42238e-21)
(20.4358 10.458 -4.00074e-21)
(20.3829 10.528 1.61382e-21)
(20.3278 10.599 3.94835e-21)
(20.27 10.671 3.92236e-21)
(20.2085 10.7441 2.25389e-21)
(20.1434 10.8187 3.28296e-22)
(20.0744 10.8948 -2.30727e-21)
(20.0011 10.9724 -6.95587e-23)
(19.9234 11.0517 2.46152e-21)
(19.8412 11.1327 -3.8623e-22)
(19.7543 11.2155 2.57933e-21)
(19.6627 11.3002 3.05752e-21)
(19.5658 11.3858 -1.75394e-22)
(19.4622 11.4718 0)
(19.3503 11.5579 0)
(19.2295 11.6438 -3.26336e-21)
(19.0994 11.7295 1.9125e-21)
(18.9593 11.8141 1.18704e-21)
(18.8087 11.8962 -5.06005e-21)
(18.6461 11.9745 -6.26395e-21)
(18.4711 12.0479 -6.9483e-21)
(18.2826 12.1141 1.09039e-20)
(18.0805 12.1707 4.00137e-21)
(17.8641 12.2154 -1.04211e-20)
(17.6345 12.2461 2.0946e-20)
(17.3936 12.2599 -1.1868e-20)
(17.1448 12.253 0)
(16.8897 12.2224 4.52701e-20)
(16.6329 12.1658 -3.11222e-20)
(16.378 12.0816 0)
(16.1314 11.9713 -1.935e-20)
(20.8867 9.67636 3.51582e-21)
(20.852 9.72994 5.70026e-21)
(20.8166 9.78425 1.91171e-21)
(20.7809 9.83984 -3.66655e-21)
(20.7443 9.89504 7.75411e-21)
(20.706 9.95167 4.08589e-21)
(20.6664 10.0082 -3.72288e-21)
(20.6249 10.0665 0)
(20.5818 10.125 4.18104e-21)
(20.5369 10.1851 0)
(20.4894 10.2454 0)
(20.4401 10.3076 0)
(20.3889 10.3708 3.98317e-21)
(20.337 10.4357 3.32008e-21)
(20.2826 10.5021 -2.21729e-21)
(20.2261 10.5687 -3.3649e-21)
(20.1652 10.6364 1.03398e-22)
(20.1009 10.7056 1.74558e-22)
(20.0324 10.7763 -2.54843e-21)
(19.96 10.8482 0)
(19.883 10.9214 -2.89468e-21)
(19.8012 10.9958 2.81198e-21)
(19.7146 11.0717 1.59822e-21)
(19.6232 11.1498 -1.63662e-21)
(19.5284 11.2296 3.61298e-21)
(19.4274 11.3077 -3.91124e-21)
(19.3174 11.3871 0)
(19.1992 11.465 3.12846e-21)
(19.0719 11.5423 5.61886e-22)
(18.9353 11.6184 -4.69201e-21)
(18.7895 11.6921 -5.85068e-21)
(18.6324 11.7615 6.17859e-21)
(18.4646 11.8264 6.84152e-21)
(18.2841 11.8835 -3.51656e-21)
(18.0919 11.9322 -4.20904e-21)
(17.8868 11.9682 9.41533e-21)
(17.6695 11.9913 -4.45725e-22)
(17.4422 11.9995 2.3704e-20)
(17.2103 11.9899 -3.95397e-20)
(16.9724 11.9582 -3.58405e-22)
(16.7346 11.9038 1.59129e-20)
(16.4968 11.8243 0)
(16.2678 11.7224 0)
(20.8348 9.65006 0)
(20.8016 9.69993 -4.09687e-21)
(20.7674 9.7495 2.0658e-21)
(20.7332 9.80235 -3.13386e-21)
(20.6987 9.85124 -3.01588e-21)
(20.6614 9.9057 -4.61155e-21)
(20.6236 9.95581 5.32733e-22)
(20.5827 10.0119 6.74608e-23)
(20.5407 10.0644 -4.50639e-21)
(20.4972 10.1224 2.7511e-22)
(20.4514 10.1775 -5.69226e-22)
(20.4032 10.237 5.68175e-22)
(20.3523 10.297 1.16996e-21)
(20.3024 10.3558 -3.4239e-21)
(20.2487 10.42 0)
(20.1957 10.4814 0)
(20.1357 10.5453 1.28254e-21)
(20.0726 10.6095 -2.62728e-21)
(20.0044 10.6764 1.35072e-21)
(19.9331 10.7444 -1.44985e-21)
(19.8578 10.8133 4.40269e-21)
(19.778 10.8835 0)
(19.6938 10.9543 0)
(19.6014 11.0259 -3.69883e-21)
(19.5097 11.1044 -1.71942e-21)
(19.4139 11.1712 1.96496e-21)
(19.3046 11.2476 0)
(19.1902 11.3207 1.15411e-21)
(19.0676 11.3922 -1.81194e-21)
(18.9348 11.4622 -8.14835e-23)
(18.7956 11.5311 1.26374e-20)
(18.6432 11.5926 5.73262e-21)
(18.4843 11.6527 8.41151e-22)
(18.3108 11.7021 0)
(18.1269 11.7469 4.40112e-21)
(17.9299 11.776 -1.9626e-20)
(17.7218 11.7925 -1.08956e-20)
(17.5043 11.797 -7.45285e-21)
(17.2903 11.7868 5.49817e-22)
(17.0642 11.7529 0)
(16.8413 11.7011 -3.112e-20)
(16.6122 11.6235 -1.20389e-21)
(16.3961 11.5278 -1.85466e-20)
(9.30844 16.9106 0)
(8.89196 15.1813 -3.51696e-19)
(8.98659 14.0056 3.36171e-19)
(9.26917 13.1245 -3.71329e-19)
(9.6216 12.4283 3.83969e-19)
(9.99449 11.8566 0)
(10.3617 11.381 0)
(10.71 10.9789 2.52267e-20)
(11.0348 10.6368 0)
(11.3336 10.3438 0)
(11.6067 10.0895 3.4177e-19)
(11.8553 9.867 -2.97416e-19)
(12.0812 9.66993 0)
(12.2868 9.49474 2.02065e-20)
(12.4736 9.33695 -3.1056e-19)
(12.6438 9.19316 2.63309e-19)
(12.7995 9.06189 2.52185e-19)
(12.9419 8.94024 -2.74725e-19)
(13.0727 8.82666 3.07767e-20)
(13.1933 8.72052 2.79732e-20)
(13.3049 8.62002 -5.55448e-20)
(13.4086 8.52465 -2.63213e-20)
(13.5052 8.43332 0)
(13.5956 8.34587 2.02064e-19)
(13.6805 8.26139 -1.98662e-19)
(13.7605 8.17951 -1.93179e-19)
(13.8362 8.09985 1.92548e-19)
(13.9079 8.02217 -1.89713e-19)
(13.976 7.94613 4.70835e-19)
(14.0409 7.87157 -9.34137e-20)
(14.1028 7.79815 -9.32725e-20)
(14.162 7.72574 0)
(14.2188 7.65431 0)
(14.2732 7.58368 0)
(14.3254 7.51374 1.85304e-19)
(14.3756 7.44434 -2.78292e-19)
(14.424 7.37545 1.85887e-19)
(14.4706 7.30703 -3.72484e-19)
(14.5156 7.23891 1.8632e-19)
(14.5591 7.17107 9.22631e-20)
(14.6011 7.1035 0)
(14.6419 7.03626 9.18629e-20)
(14.6829 6.96776 8.82596e-20)
(13.5541 15.1684 -1.29225e-20)
(13.1165 14.493 -2.80706e-19)
(12.8354 13.8089 6.45477e-19)
(12.6704 13.1753 -3.29994e-19)
(12.5863 12.6065 -3.8062e-19)
(12.5621 12.1017 9.92944e-21)
(12.5792 11.6567 3.5737e-19)
(12.6259 11.2653 -2.1625e-20)
(12.6912 10.921 0)
(12.7697 10.6172 1.89072e-20)
(12.8549 10.3482 1.81528e-20)
(12.9444 10.1087 0)
(13.0349 9.89459 2.82411e-19)
(13.1251 9.70184 -2.70029e-19)
(13.2136 9.52728 3.21867e-20)
(13.3002 9.36815 2.46257e-19)
(13.3838 9.22205 -2.94235e-20)
(13.4645 9.08686 -2.28464e-19)
(13.5423 8.9612 -2.19552e-19)
(13.6171 8.84362 2.12298e-19)
(13.689 8.73297 2.60248e-20)
(13.7581 8.6281 2.26166e-19)
(13.8244 8.52839 -1.96714e-19)
(13.8882 8.43312 1.91999e-19)
(13.9495 8.34165 -1.89104e-19)
(14.0085 8.25362 1.13796e-21)
(14.0652 8.16845 0)
(14.1198 8.0859 -4.48874e-20)
(14.1723 8.00569 9.02379e-20)
(14.2229 7.92753 -4.5672e-20)
(14.2718 7.85121 -3.13256e-19)
(14.3188 7.7765 1.7929e-19)
(14.3643 7.70325 -1.79118e-19)
(14.4081 7.63138 1.79874e-19)
(14.4506 7.56066 4.47367e-20)
(14.4917 7.491 9.11473e-20)
(14.5315 7.42227 0)
(14.5702 7.35435 -9.07087e-20)
(14.6076 7.2871 0)
(14.6441 7.22053 -1.01033e-21)
(14.6795 7.15448 9.08489e-20)
(14.714 7.08907 -1.81441e-19)
(14.7478 7.02349 5.97338e-22)
(14.4349 13.7187 1.19437e-20)
(14.0569 13.3624 -1.56864e-21)
(13.7685 12.976 -2.98738e-20)
(13.5597 12.5832 -1.41604e-19)
(13.4178 12.1995 1.05888e-20)
(13.3302 11.834 3.82038e-19)
(13.285 11.492 -2.659e-19)
(13.2722 11.1751 2.7508e-19)
(13.2841 10.884 6.33255e-21)
(13.3134 10.6173 -3.08797e-19)
(13.3557 10.3738 1.44371e-20)
(13.4063 10.151 -2.49095e-19)
(13.4628 9.94713 2.3904e-19)
(13.5226 9.75991 2.0503e-19)
(13.5844 9.58772 -2.25075e-19)
(13.6466 9.42847 1.92542e-19)
(13.7085 9.28067 -1.84707e-19)
(13.7695 9.14298 2.55855e-20)
(13.8294 9.01418 0)
(13.8876 8.89314 -2.52051e-20)
(13.944 8.77896 -1.91996e-19)
(13.9988 8.67083 1.87773e-19)
(14.0517 8.56805 1.84487e-19)
(14.1026 8.46992 -1.81351e-19)
(14.1519 8.37607 -2.21406e-20)
(14.1994 8.28597 -1.31853e-19)
(14.2452 8.19918 1.75021e-19)
(14.2894 8.11538 4.39604e-20)
(14.332 8.03427 2.165e-19)
(14.3733 7.95563 -1.72332e-19)
(14.4132 7.87916 -1.72082e-19)
(14.4517 7.80462 1.72359e-19)
(14.489 7.73188 4.28748e-20)
(14.5252 7.66081 4.3052e-20)
(14.5604 7.59118 -4.38746e-20)
(14.5945 7.52285 0)
(14.6278 7.45567 1.32401e-19)
(14.6601 7.38947 -2.2126e-19)
(14.6916 7.32421 2.22246e-19)
(14.7223 7.25978 -4.94792e-22)
(14.7522 7.19605 -1.78704e-19)
(14.7814 7.1331 0)
(14.8098 7.07095 8.71113e-20)
(15.0847 13.0412 -9.31894e-21)
(14.7896 12.7843 5.78587e-20)
(14.5409 12.4988 1.34202e-20)
(14.3396 12.1992 -2.82781e-20)
(14.1832 11.8966 0)
(14.0664 11.5992 -3.06624e-20)
(13.9837 11.3126 1.29485e-19)
(13.929 11.0402 -1.56018e-19)
(13.897 10.7837 0)
(13.8835 10.5439 3.11295e-20)
(13.884 10.3207 -1.81403e-19)
(13.8953 10.1133 -3.02543e-20)
(13.9148 9.9208 8.58787e-20)
(13.9408 9.74213 2.8139e-20)
(13.971 9.57596 -2.65904e-20)
(14.0047 9.42124 1.32101e-19)
(14.0406 9.27669 1.03054e-19)
(14.0777 9.1413 -2.24275e-19)
(14.1157 9.01411 1.94708e-19)
(14.1539 8.89425 -3.79656e-19)
(14.1922 8.78105 1.85471e-19)
(14.2303 8.67371 1.82083e-19)
(14.2678 8.57161 -1.5651e-19)
(14.3049 8.47425 0)
(14.3412 8.38118 1.95307e-19)
(14.3768 8.29191 -1.71342e-19)
(14.4116 8.20607 4.20849e-20)
(14.4455 8.12336 0)
(14.4787 8.04347 0)
(14.5111 7.96612 -4.15215e-20)
(14.5426 7.89106 1.67182e-19)
(14.5734 7.81812 -2.5104e-19)
(14.6033 7.74714 -4.22195e-20)
(14.6326 7.67794 4.18815e-20)
(14.6612 7.61036 -4.21178e-20)
(14.6893 7.54419 -1.27657e-19)
(14.7167 7.47925 1.28961e-19)
(14.7435 7.4155 -4.33843e-20)
(14.7697 7.35275 -4.36022e-20)
(14.7954 7.29091 -4.33458e-20)
(14.8205 7.22988 0)
(14.845 7.16957 0)
(14.8686 7.11016 0)
(15.4393 12.5138 0)
(15.1805 12.3085 9.83207e-20)
(14.9547 12.0799 -2.03286e-19)
(14.7644 11.837 1.32306e-19)
(14.6088 11.5878 2.79591e-20)
(14.4856 11.3384 -5.98868e-20)
(14.3911 11.0934 -4.05845e-21)
(14.3209 10.8564 2.93629e-19)
(14.2713 10.6298 2.84413e-21)
(14.2387 10.415 -1.13772e-19)
(14.2201 10.2124 2.88944e-20)
(14.2127 10.0221 -8.33048e-20)
(14.2144 9.84381 2.63125e-20)
(14.2233 9.67678 1.85475e-19)
(14.2376 9.52033 -5.09857e-20)
(14.2565 9.37358 0)
(14.2784 9.23561 -9.86384e-20)
(14.3025 9.10572 9.5786e-20)
(14.3283 8.98318 9.40883e-20)
(14.3552 8.86735 -9.1675e-20)
(14.3829 8.75758 1.12472e-19)
(14.411 8.65329 -1.76692e-19)
(14.4392 8.55406 4.32715e-20)
(14.4674 8.45928 2.12409e-20)
(14.4954 8.36859 6.36009e-20)
(14.523 8.28158 -2.06212e-20)
(14.5502 8.19798 -1.24509e-19)
(14.5771 8.11753 0)
(14.6035 8.03987 8.19278e-20)
(14.6294 7.96471 -8.11081e-20)
(14.6547 7.89189 0)
(14.6795 7.82125 0)
(14.7037 7.75266 -4.07514e-20)
(14.7276 7.686 0)
(14.7511 7.621 1.24357e-19)
(14.7743 7.55744 -4.14115e-20)
(14.797 7.49524 -4.17131e-20)
(14.8194 7.43424 0)
(14.8412 7.3743 -4.26283e-20)
(14.8626 7.31542 3.53469e-22)
(14.8837 7.25747 8.53793e-20)
(14.9044 7.20032 4.27666e-20)
(14.9242 7.14427 -4.12703e-20)
(15.705 12.1344 0)
(15.4719 11.959 2.31602e-20)
(15.2641 11.7639 2.46081e-20)
(15.0843 11.556 -2.58727e-20)
(14.9334 11.341 5.64871e-20)
(14.81 11.1231 -2.49829e-19)
(14.7105 10.906 -3.73703e-21)
(14.6318 10.6936 8.20798e-20)
(14.5711 10.4882 0)
(14.5262 10.2918 0)
(14.4946 10.1052 -8.27238e-20)
(14.4743 9.92858 1.3249e-19)
(14.463 9.76177 2.59485e-20)
(14.4594 9.60466 2.59088e-20)
(14.462 9.45658 -2.53287e-20)
(14.4694 9.31679 9.84596e-20)
(14.4804 9.18478 -9.55492e-20)
(14.4941 9.0601 0)
(14.5102 8.94215 9.20222e-20)
(14.5279 8.83031 -8.97354e-20)
(14.5468 8.72411 -3.33013e-22)
(14.5667 8.62318 0)
(14.5872 8.52696 2.96781e-22)
(14.6079 8.43505 -1.05276e-19)
(14.6289 8.34709 1.24343e-19)
(14.6499 8.26276 2.55161e-22)
(14.6709 8.18179 0)
(14.6918 8.10391 0)
(14.7127 8.02876 0)
(14.7333 7.95603 4.02792e-20)
(14.7535 7.88568 3.9826e-20)
(14.7732 7.81761 3.98682e-20)
(14.7927 7.75178 -4.0007e-20)
(14.8121 7.6879 8.06223e-20)
(14.8315 7.62571 -4.0358e-20)
(14.8507 7.56494 0)
(14.8696 7.50553 -4.09156e-20)
(14.8881 7.44735 -3.80422e-23)
(14.9063 7.39038 8.31905e-20)
(14.9241 7.33453 -4.16312e-20)
(14.9416 7.27982 4.1766e-20)
(14.9588 7.22627 4.20452e-20)
(14.9752 7.17525 -2.76521e-22)
(15.8973 11.8359 2.2441e-20)
(15.6811 11.6796 -6.62751e-20)
(15.4857 11.5062 -7.31487e-20)
(15.3136 11.3217 4.91926e-20)
(15.1687 11.1314 2.61737e-20)
(15.0484 10.936 0)
(14.9478 10.7388 -2.66024e-20)
(14.8646 10.5443 0)
(14.7975 10.3553 -1.08142e-19)
(14.7448 10.1734 1.0491e-19)
(14.7051 9.9999 -5.24496e-20)
(14.6769 9.83446 -2.60492e-20)
(14.6569 9.67733 7.64983e-20)
(14.6453 9.52914 -1.23664e-19)
(14.6403 9.38856 0)
(14.64 9.25507 0)
(14.6431 9.12856 -9.39626e-20)
(14.6495 9.00897 6.86067e-20)
(14.6588 8.89552 0)
(14.67 8.78761 0)
(14.6825 8.68507 6.49519e-20)
(14.6965 8.58755 -1.06078e-19)
(14.7111 8.49451 2.42265e-22)
(14.7262 8.40567 0)
(14.7418 8.32066 -2.0521e-20)
(14.7579 8.23917 1.01134e-19)
(14.7741 8.16096 -7.99501e-20)
(14.7906 8.08581 -9.93508e-20)
(14.8075 8.01316 7.89893e-20)
(14.8237 7.94274 0)
(14.8395 7.87492 -3.95407e-20)
(14.8551 7.80959 -3.38338e-22)
(14.8709 7.7467 0)
(14.887 7.68575 0)
(14.9033 7.62638 3.1156e-22)
(14.9192 7.56828 -8.01326e-20)
(14.9348 7.5116 4.04191e-20)
(14.9503 7.45621 -4.04389e-20)
(14.9654 7.40202 2.89018e-22)
(14.9801 7.34903 -4.10709e-20)
(14.9948 7.29716 -4.13564e-20)
(15.009 7.24614 1.23539e-19)
(15.022 7.19638 -8.385e-20)
(16.0474 11.5974 -4.20329e-20)
(15.8438 11.4545 1.08963e-19)
(15.6576 11.2948 -4.4784e-20)
(15.4898 11.1267 -2.49843e-20)
(15.3528 10.957 -2.0698e-21)
(15.2371 10.7786 4.96941e-20)
(15.1359 10.5952 -2.61849e-20)
(15.0493 10.4137 2.51187e-20)
(14.9777 10.2368 0)
(14.9193 10.0664 0)
(14.8749 9.90339 -2.55119e-20)
(14.8415 9.74637 4.94637e-20)
(14.8142 9.59732 0)
(14.7982 9.4577 2.43189e-20)
(14.7883 9.32333 -7.13104e-20)
(14.7819 9.19471 6.95606e-20)
(14.7786 9.07304 -2.2753e-20)
(14.7799 8.95809 2.25562e-20)
(14.7843 8.84858 -6.60635e-20)
(14.7903 8.74405 8.64286e-20)
(14.7974 8.64488 -4.23732e-20)
(14.807 8.55036 2.10182e-20)
(14.8166 8.46049 1.60146e-22)
(14.8272 8.37473 2.02757e-20)
(14.8387 8.29255 0)
(14.8508 8.21363 0)
(14.8631 8.1381 0)
(14.8767 8.06555 1.96571e-20)
(14.8905 7.99492 0)
(14.9021 7.92661 0)
(14.9146 7.86129 0)
(14.9264 7.79902 -5.83931e-20)
(14.9398 7.73923 7.76601e-20)
(14.9536 7.68116 -7.79284e-20)
(14.9674 7.62437 7.84156e-20)
(14.9804 7.56873 3.93934e-20)
(14.9936 7.5146 1.64204e-23)
(15.0064 7.46183 1.19684e-19)
(15.019 7.41036 4.02827e-20)
(15.0313 7.36014 0)
(15.0437 7.31092 -4.05571e-20)
(15.0559 7.26295 -4.06003e-20)
(15.0691 7.21589 3.94577e-20)
(16.1806 11.4091 5.86044e-20)
(15.9873 11.2754 -6.47402e-20)
(15.8087 11.1233 4.37836e-20)
(15.6427 10.9675 -4.61814e-20)
(15.5156 10.8171 4.43706e-20)
(15.3974 10.6477 0)
(15.2897 10.4713 0)
(15.1981 10.299 1.35735e-22)
(15.1219 10.1306 0)
(15.0585 9.97003 -2.56532e-20)
(15.0131 9.81513 9.9196e-20)
(14.9763 9.66401 -4.93873e-20)
(14.9417 9.52467 0)
(14.9254 9.39325 -2.29266e-20)
(14.9089 9.26108 2.31545e-20)
(14.8968 9.13583 2.29194e-20)
(14.8884 9.01943 -2.20776e-20)
(14.8879 8.9086 0)
(14.8879 8.8024 2.17535e-20)
(14.8897 8.70053 0)
(14.8919 8.60443 2.06174e-20)
(14.8981 8.5119 -4.0764e-20)
(14.9016 8.42635 2.55503e-22)
(14.9105 8.34371 2.01649e-20)
(14.9196 8.26405 -3.99784e-20)
(14.9296 8.18701 0)
(14.9389 8.11465 0)
(14.9517 8.04433 -1.94655e-20)
(14.9622 7.97482 -2.00646e-20)
(14.9683 7.90893 -1.99311e-20)
(14.9796 7.84606 1.95317e-20)
(14.9868 7.78787 -3.83681e-20)
(15 7.7308 1.87849e-20)
(15.011 7.67497 -5.853e-20)
(15.0232 7.62036 5.95738e-20)
(15.0342 7.56691 -3.9661e-20)
(15.0459 7.5152 -3.95092e-20)
(15.0565 7.465 -9.98422e-20)
(15.0671 7.4162 4.02207e-20)
(15.0778 7.36862 2.02757e-20)
(15.089 7.32169 -4.05794e-20)
(15.0995 7.27689 1.05808e-22)
(15.1125 7.23171 -1.92096e-20)
(26.2597 -0.0689212 -3.3056e-20)
(26.1949 -0.0886495 0)
(26.1264 -0.110621 0)
(26.0532 -0.132741 -3.53596e-20)
(25.9749 -0.155151 -1.75343e-19)
(25.8907 -0.177853 1.76194e-19)
(25.7999 -0.200858 -3.53935e-20)
(25.7018 -0.224175 -1.7829e-20)
(25.5957 -0.247803 -1.7561e-20)
(25.4808 -0.271746 0)
(25.3567 -0.295987 0)
(25.2225 -0.320524 2.95938e-19)
(25.0776 -0.345359 -2.81025e-19)
(24.9214 -0.370482 -2.78887e-19)
(24.7532 -0.395888 2.82703e-19)
(24.5722 -0.421573 0)
(24.3779 -0.447515 0)
(24.1696 -0.473707 0)
(23.9468 -0.500116 0)
(23.7089 -0.526698 -9.42289e-21)
(23.4554 -0.55344 2.8818e-19)
(23.1857 -0.580282 6.41711e-21)
(22.8993 -0.607183 -3.13711e-19)
(22.5956 -0.634068 0)
(22.274 -0.660922 1.08698e-20)
(21.9338 -0.687621 -3.27649e-19)
(21.574 -0.714165 3.6623e-19)
(21.1938 -0.740441 -3.66415e-19)
(20.7918 -0.76641 3.80935e-19)
(20.3667 -0.791962 -4.0449e-19)
(19.9164 -0.817042 4.24833e-19)
(19.4383 -0.841569 2.36477e-19)
(18.9293 -0.865331 -2.39432e-19)
(18.3851 -0.888201 0)
(17.8 -0.90985 0)
(17.1658 -0.929836 0)
(16.4715 -0.94741 1.75776e-19)
(15.7 -0.961458 -2.15719e-19)
(14.8236 -0.970086 0)
(13.7946 -0.969741 -1.91999e-20)
(12.5297 -0.943501 2.91882e-21)
(10.9659 -0.851197 -2.03191e-20)
(10.1057 -0.368511 2.15563e-20)
(26.2368 -0.0496918 0)
(26.1768 -0.0662708 3.61495e-20)
(26.1135 -0.0851185 -7.27578e-20)
(26.0464 -0.104019 7.31561e-20)
(25.975 -0.123199 5.47238e-20)
(25.8987 -0.142647 -1.82632e-20)
(25.8171 -0.162369 0)
(25.7294 -0.182372 -1.81903e-20)
(25.6352 -0.202662 1.81736e-20)
(25.5337 -0.22324 -3.08961e-19)
(25.4243 -0.244093 -1.65157e-20)
(25.3066 -0.265218 2.93572e-19)
(25.1799 -0.286602 0)
(25.0434 -0.308243 2.94467e-19)
(24.8965 -0.330124 -2.98471e-19)
(24.7384 -0.352242 -2.80481e-19)
(24.5683 -0.374573 2.00732e-21)
(24.3857 -0.397106 2.07855e-21)
(24.1895 -0.419814 3.03707e-19)
(23.9792 -0.442665 9.73544e-21)
(23.7538 -0.465629 9.91519e-21)
(23.5125 -0.488666 -3.30445e-19)
(23.2545 -0.511732 3.41774e-19)
(22.9788 -0.534771 0)
(22.6845 -0.557733 -3.59786e-19)
(22.3703 -0.580553 7.24663e-19)
(22.0351 -0.603148 -4.0163e-19)
(21.6775 -0.625454 0)
(21.2957 -0.647363 4.1437e-19)
(20.8878 -0.668737 -4.39875e-19)
(20.4513 -0.689421 -2.33778e-19)
(19.9833 -0.709265 2.50451e-19)
(19.4799 -0.727996 2.0122e-22)
(18.9363 -0.745298 -8.94433e-21)
(18.346 -0.760765 0)
(17.7003 -0.773809 -1.06209e-20)
(16.9868 -0.783639 0)
(16.187 -0.789102 0)
(15.273 -0.787735 0)
(14.2044 -0.774066 9.02204e-21)
(12.959 -0.728766 2.76358e-21)
(11.7925 -0.64287 -1.05398e-19)
(12.9882 -0.190438 1.08199e-19)
(26.2174 -0.0316101 3.57606e-20)
(26.1616 -0.0460704 -5.60024e-20)
(26.1028 -0.0622774 1.88052e-20)
(26.0407 -0.0784541 -5.61527e-20)
(25.975 -0.0948816 5.63896e-20)
(25.905 -0.111548 -1.8751e-20)
(25.8304 -0.128444 0)
(25.7506 -0.145576 0)
(25.6649 -0.162954 -1.30649e-19)
(25.573 -0.180578 3.18439e-19)
(25.4742 -0.198441 -1.50501e-19)
(25.368 -0.216532 -1.87747e-20)
(25.2538 -0.234833 0)
(25.1308 -0.253336 0)
(24.9985 -0.272026 -3.0562e-19)
(24.856 -0.290895 2.91156e-19)
(24.7027 -0.30993 3.12029e-19)
(24.5376 -0.329111 -2.13178e-21)
(24.36 -0.348417 -3.13399e-19)
(24.169 -0.367821 0)
(23.9635 -0.387297 0)
(23.7427 -0.40679 -2.13578e-20)
(23.5054 -0.426253 0)
(23.2506 -0.445624 3.59874e-19)
(22.977 -0.464849 -3.09783e-21)
(22.6833 -0.483853 -5.66827e-19)
(22.3679 -0.502548 2.00818e-19)
(22.0291 -0.520823 2.07218e-19)
(21.6649 -0.538557 1.15252e-20)
(21.2731 -0.55559 -2.22346e-19)
(20.8509 -0.571733 2.31962e-19)
(20.3949 -0.586766 -2.56212e-19)
(19.9009 -0.600373 -8.48763e-21)
(19.3636 -0.612171 1.81467e-20)
(18.776 -0.62171 0)
(18.1285 -0.628453 6.9318e-23)
(17.4079 -0.63167 1.17697e-20)
(16.5947 -0.630281 -1.05395e-19)
(15.6617 -0.621435 2.41872e-19)
(14.5823 -0.596743 -1.24905e-19)
(13.4085 -0.528367 -2.15041e-20)
(12.6775 -0.398344 0)
(15.0305 0.0172997 2.42838e-20)
(26.2005 -0.0144685 -6.01436e-20)
(26.1484 -0.0269579 -1.43298e-20)
(26.0934 -0.0408549 7.29745e-23)
(26.0355 -0.054639 -6.68759e-23)
(25.9742 -0.0686192 1.91838e-20)
(25.9093 -0.0827871 0)
(25.8402 -0.0971298 0)
(25.7665 -0.111652 1.3358e-19)
(25.6876 -0.12637 -1.72681e-19)
(25.6031 -0.141304 1.52768e-19)
(25.5124 -0.156456 -1.34686e-19)
(25.415 -0.171822 1.92855e-20)
(25.3103 -0.187373 1.73419e-19)
(25.1978 -0.203094 -9.90348e-22)
(25.0767 -0.218977 -1.57196e-19)
(24.9463 -0.235022 0)
(24.8058 -0.251222 -1.00006e-20)
(24.6544 -0.267556 1.6155e-19)
(24.4911 -0.284004 -1.15135e-20)
(24.3151 -0.300548 -1.68222e-19)
(24.1252 -0.317168 0)
(23.9205 -0.333821 1.0972e-20)
(23.6996 -0.350463 1.78376e-19)
(23.4614 -0.36701 -1.73337e-19)
(23.2044 -0.38339 0)
(22.9271 -0.399522 0)
(22.6278 -0.415316 -1.89423e-19)
(22.3044 -0.430661 1.52133e-20)
(21.9548 -0.445425 4.26802e-19)
(21.5763 -0.459452 -2.60813e-19)
(21.166 -0.472545 -2.11037e-19)
(20.7202 -0.484446 2.57883e-19)
(20.2343 -0.494833 -1.35575e-19)
(19.7027 -0.503302 2.82361e-19)
(19.1176 -0.509353 -3.14064e-19)
(18.4687 -0.512413 1.61062e-19)
(17.7418 -0.511792 1.51243e-19)
(16.9167 -0.506322 -2.36137e-19)
(15.9683 -0.49254 1.17822e-19)
(14.8874 -0.459893 -2.07235e-19)
(13.799 -0.375221 1.04237e-19)
(13.4697 -0.202453 2.36803e-20)
(16.4823 0.179601 -2.05694e-19)
(26.186 0.000510891 1.91023e-20)
(26.1375 -0.0094976 0)
(26.0863 -0.0212545 1.97841e-20)
(26.0324 -0.0329849 -1.97452e-20)
(25.9755 -0.0449206 -1.9698e-20)
(25.9152 -0.0570373 0)
(25.8514 -0.069297 -1.95819e-20)
(25.7833 -0.0816773 1.95992e-20)
(25.7106 -0.0942074 1.36652e-19)
(25.6328 -0.106929 -1.76797e-19)
(25.5494 -0.119875 0)
(25.4599 -0.133053 0)
(25.3639 -0.146431 -1.98127e-20)
(25.2606 -0.159946 0)
(25.1495 -0.173566 1.60288e-19)
(25.0297 -0.187319 -1.62942e-19)
(24.9004 -0.201218 -1.53515e-19)
(24.7609 -0.215246 1.67203e-19)
(24.6102 -0.22937 1.05785e-20)
(24.4473 -0.243566 -1.71674e-19)
(24.2709 -0.257843 1.36135e-21)
(24.0801 -0.27219 1.80432e-19)
(23.8735 -0.286555 -1.94913e-19)
(23.6497 -0.300828 3.78292e-19)
(23.4073 -0.314913 -1.95574e-19)
(23.1443 -0.328727 0)
(22.8591 -0.3422 -1.30022e-20)
(22.5492 -0.355213 -1.3501e-20)
(22.2124 -0.367601 -2.23944e-19)
(21.8458 -0.37923 2.51117e-19)
(21.4459 -0.389995 -1.54301e-20)
(21.0089 -0.399706 0)
(20.5301 -0.407974 0)
(20.0033 -0.414301 1.64448e-19)
(19.4206 -0.418115 -1.58517e-19)
(18.7708 -0.418842 -2.67417e-23)
(18.0383 -0.415912 4.6688e-20)
(17.2023 -0.408117 2.58449e-20)
(16.2406 -0.391146 0)
(15.162 -0.352291 1.68605e-20)
(14.1582 -0.256072 0)
(14.1717 -0.0528056 -6.57197e-20)
(17.5692 0.29916 -1.86542e-20)
(26.1745 0.0148587 0)
(26.1291 0.00642823 0)
(26.0813 -0.00353138 -6.05791e-20)
(26.031 -0.0135309 4.04323e-20)
(25.978 -0.0237829 0)
(25.922 -0.034253 0)
(25.8627 -0.0448512 2.00471e-20)
(25.7997 -0.0554831 -2.00079e-20)
(25.7325 -0.0661866 2.00265e-20)
(25.6605 -0.0770356 -5.9923e-20)
(25.5833 -0.088098 2.20831e-19)
(25.5005 -0.0994558 -1.51742e-19)
(25.4116 -0.111097 0)
(25.3162 -0.122895 1.02171e-20)
(25.2135 -0.134702 0)
(25.1025 -0.146589 0)
(24.9826 -0.158614 1.055e-20)
(24.8529 -0.170762 1.59843e-19)
(24.7127 -0.182989 -1.85373e-19)
(24.5606 -0.195199 0)
(24.3956 -0.207438 -1.12979e-20)
(24.2164 -0.219795 1.83911e-19)
(24.0217 -0.232287 -1.78082e-19)
(23.8103 -0.244774 2.79338e-23)
(23.5802 -0.257052 1.98899e-19)
(23.3297 -0.269016 -2.06973e-19)
(23.0565 -0.280565 0)
(22.7586 -0.291652 1.38195e-20)