# Forces     
# CofR       : (0.000000e+00 0.000000e+00 0.000000e+00)
# Time       forces(pressure viscous porous) moment(pressure viscous porous)
5.000000e+00	((-1.799604e+02 5.191127e+02 3.923893e-18) (5.334080e-01 2.519241e-02 -2.693087e-20) (0.000000e+00 0.000000e+00 0.000000e+00)) ((-2.595564e+01 -8.998018e+00 -1.348206e+02) (-1.259621e-03 2.667040e-02 -4.440111e-02) (0.000000e+00 0.000000e+00 0.000000e+00))
1.000000e+01	((-1.069716e+02 3.307232e+02 2.389182e-18) (5.018779e-01 4.226188e-02 -3.396409e-20) (0.000000e+00 0.000000e+00 0.000000e+00)) ((-1.653616e+01 -5.348580e+00 -7.173116e+01) (-2.113094e-03 2.509389e-02 -4.840081e-02) (0.000000e+00 0.000000e+00 0.000000e+00))
1.500000e+01	((-3.616119e+01 1.214786e+02 7.272185e-19) (4.876310e-01 3.969154e-02 -1.340913e-20) (0.000000e+00 0.000000e+00 0.000000e+00)) ((-6.073930e+00 -1.808059e+00 -2.057446e+01) (-1.984577e-03 2.438155e-02 -4.580728e-02) (0.000000e+00 0.000000e+00 0.000000e+00))
2.000000e+01	((-4.588485e+00 2.001738e+01 -1.705387e-20) (4.744121e-01 3.432750e-02 1.259739e-21) (0.000000e+00 0.000000e+00 0.000000e+00)) ((-1.000869e+00 -2.294242e-01 -8.635752e-01) (-1.716375e-03 2.372061e-02 -4.297190e-02) (0.000000e+00 0.000000e+00 0.000000e+00))
2.500000e+01	((3.233811e+00 -3.613227e+00 -1.835856e-19) (4.602928e-01 3.074706e-02 4.570101e-21) (0.000000e+00 0.000000e+00 0.000000e+00)) ((1.806614e-01 1.616906e-01 4.591856e+00) (-1.537353e-03 2.301464e-02 -4.097249e-02) (0.000000e+00 0.000000e+00 0.000000e+00))
3.000000e+01	((3.109519e+00 -6.437711e-01 -1.777191e-19) (4.460412e-01 2.871268e-02 4.214046e-21) (0.000000e+00 0.000000e+00 0.000000e+00)) ((3.218856e-02 1.554759e-01 5.489738e+00) (-1.435634e-03 2.230206e-02 -3.951869e-02) (0.000000e+00 0.000000e+00 0.000000e+00))
3.500000e+01	((2.038147e+00 3.768007e+00 -1.491800e-19) (4.312372e-01 2.734406e-02 3.576711e-21) (0.000000e+00 0.000000e+00 0.000000e+00)) ((-1.884004e-01 1.019073e-01 5.188613e+00) (-1.367203e-03 2.156186e-02 -3.820024e-02) (0.000000e+00 0.000000e+00 0.000000e+00))
4.000000e+01	((1.516671e+00 5.245360e+00 -1.403912e-19) (4.178649e-01 2.619687e-02 3.548590e-21) (0.000000e+00 0.000000e+00 0.000000e+00)) ((-2.622680e-01 7.583353e-02 4.787731e+00) (-1.309844e-03 2.089325e-02 -3.706708e-02) (0.000000e+00 0.000000e+00 0.000000e+00))
4.500000e+01	((1.397293e+00 5.254560e+00 -1.381992e-19) (4.041210e-01 2.509985e-02 3.931132e-21) (0.000000e+00 0.000000e+00 0.000000e+00)) ((-2.627280e-01 6.986466e-02 4.571087e+00) (-1.254993e-03 2.020605e-02 -3.588279e-02) (0.000000e+00 0.000000e+00 0.000000e+00))
5.000000e+01	((1.419787e+00 5.132706e+00 -1.342790e-19) (3.913616e-01 2.401165e-02 4.552244e-21) (0.000000e+00 0.000000e+00 0.000000e+00)) ((-2.566353e-01 7.098933e-02 4.566315e+00) (-1.200583e-03 1.956808e-02 -3.479001e-02) (0.000000e+00 0.000000e+00 0.000000e+00))
5.500000e+01	((1.457241e+00 5.129552e+00 -1.307913e-19) (3.790717e-01 2.300007e-02 4.826705e-21) (0.000000e+00 0.000000e+00 0.000000e+00)) ((-2.564776e-01 7.286205e-02 4.634186e+00) (-1.150004e-03 1.895358e-02 -3.372794e-02) (0.000000e+00 0.000000e+00 0.000000e+00))
6.000000e+01	((1.476093e+00 5.166088e+00 -1.285469e-19) (3.672342e-01 2.200865e-02 5.354622e-21) (0.000000e+00 0.000000e+00 0.000000e+00)) ((-2.583044e-01 7.380467e-02 4.682818e+00) (-1.100432e-03 1.836171e-02 -3.270680e-02) (0.000000e+00 0.000000e+00 0.000000e+00))
6.500000e+01	((1.498764e+00 5.159530e+00 -1.274802e-19) (3.559815e-01 2.109032e-02 5.800924e-21) (0.000000e+00 0.000000e+00 0.000000e+00)) ((-2.579765e-01 7.493822e-02 4.722135e+00) (-1.054516e-03 1.779908e-02 -3.173335e-02) (0.000000e+00 0.000000e+00 0.000000e+00))
7.000000e+01	((1.528908e+00 5.131815e+00 -1.267024e-19) (3.452200e-01 2.021301e-02 6.153892e-21) (0.000000e+00 0.000000e+00 0.000000e+00)) ((-2.565908e-01 7.644541e-02 4.767202e+00) (-1.010651e-03 1.726100e-02 -3.080156e-02) (0.000000e+00 0.000000e+00 0.000000e+00))
7.500000e+01	((1.559933e+00 5.112230e+00 -1.265216e-19) (3.350170e-01 1.939371e-02 6.518498e-21) (0.000000e+00 0.000000e+00 0.000000e+00)) ((-2.556115e-01 7.799666e-02 4.816980e+00) (-9.696857e-04 1.675085e-02 -2.991293e-02) (0.000000e+00 0.000000e+00 0.000000e+00))
8.000000e+01	((1.587839e+00 5.109365e+00 -1.272114e-19) (3.252969e-01 1.862890e-02 6.696203e-21) (0.000000e+00 0.000000e+00 0.000000e+00)) ((-2.554683e-01 7.939194e-02 4.867352e+00) (-9.314448e-04 1.626484e-02 -2.906671e-02) (0.000000e+00 0.000000e+00 0.000000e+00))
8.500000e+01	((1.614534e+00 5.111968e+00 -1.285001e-19) (3.161432e-01 1.790878e-02 6.931106e-21) (0.000000e+00 0.000000e+00 0.000000e+00)) ((-2.555984e-01 8.072669e-02 4.917566e+00) (-8.954390e-04 1.580716e-02 -2.826605e-02) (0.000000e+00 0.000000e+00 0.000000e+00))
9.000000e+01	((1.638763e+00 5.118190e+00 -1.303638e-19) (3.078697e-01 1.725082e-02 7.157912e-21) (0.000000e+00 0.000000e+00 0.000000e+00)) ((-2.559095e-01 8.193816e-02 4.964608e+00) (-8.625412e-04 1.539348e-02 -2.754417e-02) (0.000000e+00 0.000000e+00 0.000000e+00))
9.500000e+01	((1.660879e+00 5.125125e+00 -1.327171e-19) (3.005773e-01 1.665147e-02 7.568851e-21) (0.000000e+00 0.000000e+00 0.000000e+00)) ((-2.562563e-01 8.304393e-02 5.008021e+00) (-8.325737e-04 1.502886e-02 -2.690647e-02) (0.000000e+00 0.000000e+00 0.000000e+00))
1.000000e+02	((1.679763e+00 5.133298e+00 -1.356797e-19) (2.939106e-01 1.610798e-02 7.790427e-21) (0.000000e+00 0.000000e+00 0.000000e+00)) ((-2.566649e-01 8.398813e-02 5.045946e+00) (-8.053988e-04 1.469553e-02 -2.632319e-02) (0.000000e+00 0.000000e+00 0.000000e+00))
1.050000e+02	((1.694293e+00 5.145899e+00 -1.389669e-19) (2.876836e-01 1.560033e-02 7.779214e-21) (0.000000e+00 0.000000e+00 0.000000e+00)) ((-2.572950e-01 8.471465e-02 5.077524e+00) (-7.800163e-04 1.438418e-02 -2.577534e-02) (0.000000e+00 0.000000e+00 0.000000e+00))
1.100000e+02	((1.705026e+00 5.158223e+00 -1.425777e-19) (2.818841e-01 1.512807e-02 7.547805e-21) (0.000000e+00 0.000000e+00 0.000000e+00)) ((-2.579111e-01 8.525129e-02 5.101993e+00) (-7.564035e-04 1.409421e-02 -2.526612e-02) (0.000000e+00 0.000000e+00 0.000000e+00))
1.150000e+02	((1.712166e+00 5.167477e+00 -1.463368e-19) (2.765975e-01 1.468456e-02 7.187328e-21) (0.000000e+00 0.000000e+00 0.000000e+00)) ((-2.583738e-01 8.560829e-02 5.118671e+00) (-7.342281e-04 1.382987e-02 -2.480007e-02) (0.000000e+00 0.000000e+00 0.000000e+00))
1.200000e+02	((1.715729e+00 5.173891e+00 -1.500897e-19) (2.717328e-01 1.427764e-02 6.759272e-21) (0.000000e+00 0.000000e+00 0.000000e+00)) ((-2.586946e-01 8.578643e-02 5.127676e+00) (-7.138819e-04 1.358664e-02 -2.437166e-02) (0.000000e+00 0.000000e+00 0.000000e+00))
1.250000e+02	((1.716718e+00 5.173147e+00 -1.539018e-19) (2.671701e-01 1.389074e-02 6.806557e-21) (0.000000e+00 0.000000e+00 0.000000e+00)) ((-2.586573e-01 8.583589e-02 5.129217e+00) (-6.945368e-04 1.335851e-02 -2.396813e-02) (0.000000e+00 0.000000e+00 0.000000e+00))
1.300000e+02	((1.714774e+00 5.167457e+00 -1.575873e-19) (2.628505e-01 1.352715e-02 6.947708e-21) (0.000000e+00 0.000000e+00 0.000000e+00)) ((-2.583728e-01 8.573868e-02 5.123472e+00) (-6.763577e-04 1.314253e-02 -2.358760e-02) (0.000000e+00 0.000000e+00 0.000000e+00))
1.350000e+02	((1.709848e+00 5.155285e+00 -1.611484e-19) (2.587824e-01 1.317637e-02 7.059916e-21) (0.000000e+00 0.000000e+00 0.000000e+00)) ((-2.577642e-01 8.549238e-02 5.109768e+00) (-6.588184e-04 1.293912e-02 -2.322870e-02) (0.000000e+00 0.000000e+00 0.000000e+00))
1.400000e+02	((1.703611e+00 5.135595e+00 -1.642893e-19) (2.549721e-01 1.284789e-02 7.148537e-21) (0.000000e+00 0.000000e+00 0.000000e+00)) ((-2.567797e-01 8.518053e-02 5.090793e+00) (-6.423947e-04 1.274860e-02 -2.289366e-02) (0.000000e+00 0.000000e+00 0.000000e+00))
1.450000e+02	((1.695752e+00 5.106949e+00 -1.673428e-19) (2.513900e-01 1.253287e-02 7.050777e-21) (0.000000e+00 0.000000e+00 0.000000e+00)) ((-2.553475e-01 8.478758e-02 5.065428e+00) (-6.266433e-04 1.256950e-02 -2.257839e-02) (0.000000e+00 0.000000e+00 0.000000e+00))
1.500000e+02	((1.686641e+00 5.072014e+00 -1.700897e-19) (2.479937e-01 1.223403e-02 6.822878e-21) (0.000000e+00 0.000000e+00 0.000000e+00)) ((-2.536007e-01 8.433207e-02 5.035368e+00) (-6.117013e-04 1.239968e-02 -2.228116e-02) (0.000000e+00 0.000000e+00 0.000000e+00))
1.550000e+02	((1.676656e+00 5.028999e+00 -1.725427e-19) (2.447680e-01 1.194449e-02 6.566276e-21) (0.000000e+00 0.000000e+00 0.000000e+00)) ((-2.514499e-01 8.383279e-02 5.000627e+00) (-5.972245e-04 1.223840e-02 -2.199950e-02) (0.000000e+00 0.000000e+00 0.000000e+00))
1.600000e+02	((1.666680e+00 4.981183e+00 -1.748354e-19) (2.416970e-01 1.166671e-02 6.030747e-21) (0.000000e+00 0.000000e+00 0.000000e+00)) ((-2.490591e-01 8.333402e-02 4.964083e+00) (-5.833353e-04 1.208485e-02 -2.173342e-02) (0.000000e+00 0.000000e+00 0.000000e+00))
1.650000e+02	((1.656406e+00 4.925200e+00 -1.767901e-19) (2.387780e-01 1.139632e-02 5.645305e-21) (0.000000e+00 0.000000e+00 0.000000e+00)) ((-2.462600e-01 8.282031e-02 4.923888e+00) (-5.698159e-04 1.193890e-02 -2.148118e-02) (0.000000e+00 0.000000e+00 0.000000e+00))
1.700000e+02	((1.646080e+00 4.868735e+00 -1.785566e-19) (2.359931e-01 1.113853e-02 5.244441e-21) (0.000000e+00 0.000000e+00 0.000000e+00)) ((-2.434367e-01 8.230400e-02 4.883413e+00) (-5.569266e-04 1.179965e-02 -2.124266e-02) (0.000000e+00 0.000000e+00 0.000000e+00))
1.750000e+02	((1.636297e+00 4.806845e+00 -1.800207e-19) (2.333261e-01 1.088549e-02 4.572405e-21) (0.000000e+00 0.000000e+00 0.000000e+00)) ((-2.403423e-01 8.181486e-02 4.841883e+00) (-5.442744e-04 1.166631e-02 -2.101511e-02) (0.000000e+00 0.000000e+00 0.000000e+00))
1.800000e+02	((1.626797e+00 4.742141e+00 -1.812721e-19) (2.307720e-01 1.064367e-02 3.855867e-21) (0.000000e+00 0.000000e+00 0.000000e+00)) ((-2.371071e-01 8.133983e-02 4.799804e+00) (-5.321836e-04 1.153860e-02 -2.079956e-02) (0.000000e+00 0.000000e+00 0.000000e+00))
1.850000e+02	((1.617537e+00 4.680069e+00 -1.822871e-19) (2.283302e-01 1.040723e-02 3.373728e-21) (0.000000e+00 0.000000e+00 0.000000e+00)) ((-2.340034e-01 8.087685e-02 4.759169e+00) (-5.203615e-04 1.141651e-02 -2.059393e-02) (0.000000e+00 0.000000e+00 0.000000e+00))
1.900000e+02	((1.609065e+00 4.617214e+00 -1.830473e-19) (2.259819e-01 1.018058e-02 3.104018e-21) (0.000000e+00 0.000000e+00 0.000000e+00)) ((-2.308607e-01 8.045324e-02 4.719688e+00) (-5.090290e-04 1.129909e-02 -2.039846e-02) (0.000000e+00 0.000000e+00 0.000000e+00))
1.950000e+02	((1.601321e+00 4.552503e+00 -1.835915e-19) (2.237254e-01 9.958810e-03 2.983376e-21) (0.000000e+00 0.000000e+00 0.000000e+00)) ((-2.276252e-01 8.006606e-02 4.680847e+00) (-4.979405e-04 1.118627e-02 -2.021140e-02) (0.000000e+00 0.000000e+00 0.000000e+00))
2.000000e+02	((1.594108e+00 4.488087e+00 -1.838654e-19) (2.215492e-01 9.746158e-03 2.888388e-21) (0.000000e+00 0.000000e+00 0.000000e+00)) ((-2.244044e-01 7.970538e-02 4.643095e+00) (-4.873079e-04 1.107746e-02 -2.003330e-02) (0.000000e+00 0.000000e+00 0.000000e+00))
2.050000e+02	((1.587554e+00 4.426176e+00 -1.840162e-19) (2.194571e-01 9.538888e-03 2.869755e-21) (0.000000e+00 0.000000e+00 0.000000e+00)) ((-2.213088e-01 7.937772e-02 4.607512e+00) (-4.769444e-04 1.097285e-02 -1.986273e-02) (0.000000e+00 0.000000e+00 0.000000e+00))
2.100000e+02	((1.581616e+00 4.366003e+00 -1.840014e-19) (2.174356e-01 9.340683e-03 2.953534e-21) (0.000000e+00 0.000000e+00 0.000000e+00)) ((-2.183002e-01 7.908079e-02 4.573722e+00) (-4.670341e-04 1.087178e-02 -1.969996e-02) (0.000000e+00 0.000000e+00 0.000000e+00))
2.150000e+02	((1.576315e+00 4.306604e+00 -1.837810e-19) (2.154881e-01 9.148127e-03 3.159030e-21) (0.000000e+00 0.000000e+00 0.000000e+00)) ((-2.153302e-01 7.881575e-02 4.541401e+00) (-4.574063e-04 1.077441e-02 -1.954372e-02) (0.000000e+00 0.000000e+00 0.000000e+00))
2.200000e+02	((1.571579e+00 4.247492e+00 -1.833721e-19) (2.136046e-01 8.964596e-03 3.299101e-21) (0.000000e+00 0.000000e+00 0.000000e+00)) ((-2.123746e-01 7.857894e-02 4.510231e+00) (-4.482298e-04 1.068023e-02 -1.939444e-02) (0.000000e+00 0.000000e+00 0.000000e+00))
2.250000e+02	((1.567369e+00 4.189699e+00 -1.828140e-19) (2.117871e-01 8.786877e-03 3.417088e-21) (0.000000e+00 0.000000e+00 0.000000e+00)) ((-2.094849e-01 7.836846e-02 4.480532e+00) (-4.393438e-04 1.058935e-02 -1.925083e-02) (0.000000e+00 0.000000e+00 0.000000e+00))
2.300000e+02	((1.563660e+00 4.135084e+00 -1.821551e-19) (2.100277e-01 8.618529e-03 3.488826e-21) (0.000000e+00 0.000000e+00 0.000000e+00)) ((-2.067542e-01 7.818301e-02 4.452963e+00) (-4.309264e-04 1.050139e-02 -1.911327e-02) (0.000000e+00 0.000000e+00 0.000000e+00))
2.350000e+02	((1.560472e+00 4.082565e+00 -1.813484e-19) (2.083269e-01 8.456294e-03 3.648422e-21) (0.000000e+00 0.000000e+00 0.000000e+00)) ((-2.041282e-01 7.802358e-02 4.427149e+00) (-4.228147e-04 1.041634e-02 -1.898051e-02) (0.000000e+00 0.000000e+00 0.000000e+00))
2.400000e+02	((1.557672e+00 4.030577e+00 -1.804061e-19) (2.066794e-01 8.303774e-03 3.775394e-21) (0.000000e+00 0.000000e+00 0.000000e+00)) ((-2.015288e-01 7.788360e-02 4.402254e+00) (-4.151887e-04 1.033397e-02 -1.885289e-02) (0.000000e+00 0.000000e+00 0.000000e+00))
2.450000e+02	((1.555300e+00 3.981715e+00 -1.794038e-19) (2.050824e-01 8.157738e-03 3.836044e-21) (0.000000e+00 0.000000e+00 0.000000e+00)) ((-1.990857e-01 7.776501e-02 4.379335e+00) (-4.078869e-04 1.025412e-02 -1.872915e-02) (0.000000e+00 0.000000e+00 0.000000e+00))
2.500000e+02	((1.553247e+00 3.936132e+00 -1.783253e-19) (2.035325e-01 8.021084e-03 3.848069e-21) (0.000000e+00 0.000000e+00 0.000000e+00)) ((-1.968066e-01 7.766233e-02 4.358246e+00) (-4.010542e-04 1.017663e-02 -1.860947e-02) (0.000000e+00 0.000000e+00 0.000000e+00))
2.550000e+02	((1.551508e+00 3.894212e+00 -1.771843e-19) (2.020265e-01 7.891666e-03 3.847752e-21) (0.000000e+00 0.000000e+00 0.000000e+00)) ((-1.947106e-01 7.757542e-02 4.339130e+00) (-3.945833e-04 1.010132e-02 -1.849287e-02) (0.000000e+00 0.000000e+00 0.000000e+00))
2.600000e+02	((1.549989e+00 3.856493e+00 -1.759797e-19) (2.005620e-01 7.771194e-03 3.901548e-21) (0.000000e+00 0.000000e+00 0.000000e+00)) ((-1.928246e-01 7.749944e-02 4.322011e+00) (-3.885597e-04 1.002810e-02 -1.837921e-02) (0.000000e+00 0.000000e+00 0.000000e+00))
2.650000e+02	((1.548664e+00 3.823427e+00 -1.746886e-19) (1.991345e-01 7.658917e-03 4.062952e-21) (0.000000e+00 0.000000e+00 0.000000e+00)) ((-1.911713e-01 7.743320e-02 4.307017e+00) (-3.829458e-04 9.956726e-03 -1.826789e-02) (0.000000e+00 0.000000e+00 0.000000e+00))
2.700000e+02	((1.547416e+00 3.795729e+00 -1.733408e-19) (1.977448e-01 7.554817e-03 4.160818e-21) (0.000000e+00 0.000000e+00 0.000000e+00)) ((-1.897865e-01 7.737081e-02 4.294204e+00) (-3.777409e-04 9.887238e-03 -1.815839e-02) (0.000000e+00 0.000000e+00 0.000000e+00))
2.750000e+02	((1.546292e+00 3.773522e+00 -1.719401e-19) (1.963855e-01 7.460036e-03 4.355511e-21) (0.000000e+00 0.000000e+00 0.000000e+00)) ((-1.886761e-01 7.731458e-02 4.283701e+00) (-3.730018e-04 9.819275e-03 -1.805069e-02) (0.000000e+00 0.000000e+00 0.000000e+00))
2.800000e+02	((1.545113e+00 3.757618e+00 -1.704496e-19) (1.950617e-01 7.372571e-03 4.461319e-21) (0.000000e+00 0.000000e+00 0.000000e+00)) ((-1.878809e-01 7.725563e-02 4.275490e+00) (-3.686286e-04 9.753085e-03 -1.794380e-02) (0.000000e+00 0.000000e+00 0.000000e+00))
2.850000e+02	((1.543946e+00 3.748026e+00 -1.689152e-19) (1.937615e-01 7.294908e-03 4.621872e-21) (0.000000e+00 0.000000e+00 0.000000e+00)) ((-1.874013e-01 7.719729e-02 4.269698e+00) (-3.647454e-04 9.688076e-03 -1.783820e-02) (0.000000e+00 0.000000e+00 0.000000e+00))
2.900000e+02	((1.542583e+00 3.745421e+00 -1.672812e-19) (1.924954e-01 7.223991e-03 4.743290e-21) (0.000000e+00 0.000000e+00 0.000000e+00)) ((-1.872711e-01 7.712915e-02 4.266196e+00) (-3.611995e-04 9.624772e-03 -1.773272e-02) (0.000000e+00 0.000000e+00 0.000000e+00))
2.950000e+02	((1.541164e+00 3.749423e+00 -1.656154e-19) (1.912498e-01 7.163112e-03 4.913463e-21) (0.000000e+00 0.000000e+00 0.000000e+00)) ((-1.874712e-01 7.705820e-02 4.265098e+00) (-3.581556e-04 9.562492e-03 -1.762823e-02) (0.000000e+00 0.000000e+00 0.000000e+00))
3.000000e+02	((1.539440e+00 3.760420e+00 -1.638532e-19) (1.900368e-01 7.108350e-03 4.991543e-21) (0.000000e+00 0.000000e+00 0.000000e+00)) ((-1.880210e-01 7.697199e-02 4.266093e+00) (-3.554175e-04 9.501838e-03 -1.752350e-02) (0.000000e+00 0.000000e+00 0.000000e+00))
3.050000e+02	((1.537558e+00 3.778369e+00 -1.620664e-19) (1.888425e-01 7.063248e-03 5.122034e-21) (0.000000e+00 0.000000e+00 0.000000e+00)) ((-1.889184e-01 7.687790e-02 4.269435e+00) (-3.531624e-04 9.442123e-03 -1.741962e-02) (0.000000e+00 0.000000e+00 0.000000e+00))
3.100000e+02	((1.535266e+00 3.802758e+00 -1.601379e-19) (1.876803e-01 7.023648e-03 5.107717e-21) (0.000000e+00 0.000000e+00 0.000000e+00)) ((-1.901379e-01 7.676332e-02 4.274467e+00) (-3.511824e-04 9.384014e-03 -1.731546e-02) (0.000000e+00 0.000000e+00 0.000000e+00))
3.150000e+02	((1.532713e+00 3.833487e+00 -1.581948e-19) (1.865372e-01 6.993154e-03 5.055487e-21) (0.000000e+00 0.000000e+00 0.000000e+00)) ((-1.916743e-01 7.663567e-02 4.281422e+00) (-3.496577e-04 9.326861e-03 -1.721228e-02) (0.000000e+00 0.000000e+00 0.000000e+00))
3.200000e+02	((1.529686e+00 3.869418e+00 -1.561367e-19) (1.854269e-01 6.967316e-03 4.975589e-21) (0.000000e+00 0.000000e+00 0.000000e+00)) ((-1.934709e-01 7.648431e-02 4.289478e+00) (-3.483658e-04 9.271346e-03 -1.710901e-02) (0.000000e+00 0.000000e+00 0.000000e+00))
3.250000e+02	((1.526302e+00 3.910962e+00 -1.540702e-19) (1.843369e-01 6.949886e-03 5.021220e-21) (0.000000e+00 0.000000e+00 0.000000e+00)) ((-1.955481e-01 7.631512e-02 4.299006e+00) (-3.474943e-04 9.216845e-03 -1.700703e-02) (0.000000e+00 0.000000e+00 0.000000e+00))
3.300000e+02	((1.522396e+00 3.955928e+00 -1.518794e-19) (1.832815e-01 6.936465e-03 5.078360e-21) (0.000000e+00 0.000000e+00 0.000000e+00)) ((-1.977964e-01 7.611978e-02 4.308869e+00) (-3.468233e-04 9.164077e-03 -1.690532e-02) (0.000000e+00 0.000000e+00 0.000000e+00))
3.350000e+02	((1.518133e+00 4.003420e+00 -1.496803e-19) (1.822479e-01 6.930789e-03 5.310338e-21) (0.000000e+00 0.000000e+00 0.000000e+00)) ((-2.001710e-01 7.590665e-02 4.319035e+00) (-3.465394e-04 9.112394e-03 -1.680525e-02) (0.000000e+00 0.000000e+00 0.000000e+00))
3.400000e+02	((1.513311e+00 4.054607e+00 -1.473858e-19) (1.812494e-01 6.928240e-03 5.496800e-21) (0.000000e+00 0.000000e+00 0.000000e+00)) ((-2.027303e-01 7.566553e-02 4.329570e+00) (-3.464120e-04 9.062469e-03 -1.670573e-02) (0.000000e+00 0.000000e+00 0.000000e+00))
3.450000e+02	((1.508080e+00 4.108571e+00 -1.450703e-19) (1.802730e-01 6.932658e-03 5.779928e-21) (0.000000e+00 0.000000e+00 0.000000e+00)) ((-2.054285e-01 7.540399e-02 4.340407e+00) (-3.466329e-04 9.013648e-03 -1.660810e-02) (0.000000e+00 0.000000e+00 0.000000e+00))
3.500000e+02	((1.502458e+00 4.160381e+00 -1.427064e-19) (1.793323e-01 6.939778e-03 6.018214e-21) (0.000000e+00 0.000000e+00 0.000000e+00)) ((-2.080191e-01 7.512291e-02 4.349706e+00) (-3.469889e-04 8.966617e-03 -1.651129e-02) (0.000000e+00 0.000000e+00 0.000000e+00))
3.550000e+02	((1.496498e+00 4.212495e+00 -1.403179e-19) (1.784140e-01 6.953353e-03 6.260721e-21) (0.000000e+00 0.000000e+00 0.000000e+00)) ((-2.106247e-01 7.482492e-02 4.358496e+00) (-3.476676e-04 8.920700e-03 -1.641661e-02) (0.000000e+00 0.000000e+00 0.000000e+00))
3.600000e+02	((1.490268e+00 4.261402e+00 -1.379014e-19) (1.775314e-01 6.968713e-03 6.443868e-21) (0.000000e+00 0.000000e+00 0.000000e+00)) ((-2.130701e-01 7.451338e-02 4.365569e+00) (-3.484357e-04 8.876571e-03 -1.632293e-02) (0.000000e+00 0.000000e+00 0.000000e+00))
3.650000e+02	((1.483790e+00 4.310049e+00 -1.354846e-19) (1.766701e-01 6.989731e-03 6.692672e-21) (0.000000e+00 0.000000e+00 0.000000e+00)) ((-2.155025e-01 7.418951e-02 4.372089e+00) (-3.494865e-04 8.833505e-03 -1.623154e-02) (0.000000e+00 0.000000e+00 0.000000e+00))
3.700000e+02	((1.477188e+00 4.354271e+00 -1.330526e-19) (1.758439e-01 7.011744e-03 6.808382e-21) (0.000000e+00 0.000000e+00 0.000000e+00)) ((-2.177136e-01 7.385939e-02 4.376698e+00) (-3.505872e-04 8.792195e-03 -1.614126e-02) (0.000000e+00 0.000000e+00 0.000000e+00))
3.750000e+02	((1.470555e+00 4.396100e+00 -1.306257e-19) (1.750384e-01 7.038744e-03 6.882397e-21) (0.000000e+00 0.000000e+00 0.000000e+00)) ((-2.198050e-01 7.352777e-02 4.380345e+00) (-3.519372e-04 8.751918e-03 -1.605346e-02) (0.000000e+00 0.000000e+00 0.000000e+00))
3.800000e+02	((1.463781e+00 4.435407e+00 -1.282108e-19) (1.742678e-01 7.065973e-03 6.793922e-21) (0.000000e+00 0.000000e+00 0.000000e+00)) ((-2.217703e-01 7.318903e-02 4.382771e+00) (-3.532986e-04 8.713391e-03 -1.596696e-02) (0.000000e+00 0.000000e+00 0.000000e+00))
3.850000e+02	((1.457215e+00 4.469133e+00 -1.258965e-19) (1.735174e-01 7.097333e-03 6.720267e-21) (0.000000e+00 0.000000e+00 0.000000e+00)) ((-2.234567e-01 7.286075e-02 4.383465e+00) (-3.548667e-04 8.675872e-03 -1.588320e-02) (0.000000e+00 0.000000e+00 0.000000e+00))
3.900000e+02	((1.450549e+00 4.501811e+00 -1.235011e-19) (1.728027e-01 7.128122e-03 6.587259e-21) (0.000000e+00 0.000000e+00 0.000000e+00)) ((-2.250905e-01 7.252746e-02 4.383576e+00) (-3.564061e-04 8.640136e-03 -1.580105e-02) (0.000000e+00 0.000000e+00 0.000000e+00))
3.950000e+02	((1.444165e+00 4.529480e+00 -1.211345e-19) (1.721081e-01 7.162207e-03 6.552583e-21) (0.000000e+00 0.000000e+00 0.000000e+00)) ((-2.264740e-01 7.220827e-02 4.382306e+00) (-3.581104e-04 8.605405e-03 -1.572200e-02) (0.000000e+00 0.000000e+00 0.000000e+00))
4.000000e+02	((1.437852e+00 4.553533e+00 -1.187876e-19) (1.714498e-01 7.194659e-03 6.412377e-21) (0.000000e+00 0.000000e+00 0.000000e+00)) ((-2.276767e-01 7.189260e-02 4.379793e+00) (-3.597329e-04 8.572492e-03 -1.564492e-02) (0.000000e+00 0.000000e+00 0.000000e+00))
4.050000e+02	((1.431819e+00 4.574474e+00 -1.164280e-19) (1.708120e-01 7.229704e-03 6.255926e-21) (0.000000e+00 0.000000e+00 0.000000e+00)) ((-2.287237e-01 7.159093e-02 4.376616e+00) (-3.614852e-04 8.540598e-03 -1.557136e-02) (0.000000e+00 0.000000e+00 0.000000e+00))
4.100000e+02	((1.425938e+00 4.591968e+00 -1.141818e-19) (1.702110e-01 7.262110e-03 6.023392e-21) (0.000000e+00 0.000000e+00 0.000000e+00)) ((-2.295984e-01 7.129691e-02 4.372412e+00) (-3.631055e-04 8.510549e-03 -1.550012e-02) (0.000000e+00 0.000000e+00 0.000000e+00))
4.150000e+02	((1.420417e+00 4.606071e+00 -1.119782e-19) (1.696297e-01 7.296175e-03 5.927821e-21) (0.000000e+00 0.000000e+00 0.000000e+00)) ((-2.303036e-01 7.102084e-02 4.367583e+00) (-3.648088e-04 8.481486e-03 -1.543272e-02) (0.000000e+00 0.000000e+00 0.000000e+00))
4.200000e+02	((1.415027e+00 4.617762e+00 -1.097820e-19) (1.690860e-01 7.327067e-03 5.775470e-21) (0.000000e+00 0.000000e+00 0.000000e+00)) ((-2.308881e-01 7.075134e-02 4.362081e+00) (-3.663534e-04 8.454298e-03 -1.536793e-02) (0.000000e+00 0.000000e+00 0.000000e+00))
4.250000e+02	((1.410057e+00 4.626419e+00 -1.076266e-19) (1.685609e-01 7.358994e-03 5.694013e-21) (0.000000e+00 0.000000e+00 0.000000e+00)) ((-2.313210e-01 7.050287e-02 4.356203e+00) (-3.679497e-04 8.428043e-03 -1.530719e-02) (0.000000e+00 0.000000e+00 0.000000e+00))
4.300000e+02	((1.405223e+00 4.633051e+00 -1.054932e-19) (1.680728e-01 7.387316e-03 5.544558e-21) (0.000000e+00 0.000000e+00 0.000000e+00)) ((-2.316525e-01 7.026115e-02 4.349806e+00) (-3.693658e-04 8.403641e-03 -1.524919e-02) (0.000000e+00 0.000000e+00 0.000000e+00))
4.350000e+02	((1.400859e+00 4.636850e+00 -1.034151e-19) (1.676018e-01 7.416328e-03 5.480728e-21) (0.000000e+00 0.000000e+00 0.000000e+00)) ((-2.318425e-01 7.004294e-02 4.343200e+00) (-3.708164e-04 8.380091e-03 -1.519527e-02) (0.000000e+00 0.000000e+00 0.000000e+00))
4.400000e+02	((1.396644e+00 4.639113e+00 -1.013695e-19) (1.671664e-01 7.441511e-03 5.359670e-21) (0.000000e+00 0.000000e+00 0.000000e+00)) ((-2.319556e-01 6.983221e-02 4.336287e+00) (-3.720756e-04 8.358320e-03 -1.514401e-02) (0.000000e+00 0.000000e+00 0.000000e+00))
4.450000e+02	((1.392862e+00 4.639086e+00 -9.938526e-20) (1.667451e-01 7.467119e-03 5.343905e-21) (0.000000e+00 0.000000e+00 0.000000e+00)) ((-2.319543e-01 6.964311e-02 4.329303e+00) (-3.733559e-04 8.337257e-03 -1.509667e-02) (0.000000e+00 0.000000e+00 0.000000e+00))
4.500000e+02	((1.389210e+00 4.638037e+00 -9.745742e-20) (1.663570e-01 7.488764e-03 5.261254e-21) (0.000000e+00 0.000000e+00 0.000000e+00)) ((-2.319018e-01 6.946050e-02 4.322170e+00) (-3.744382e-04 8.317849e-03 -1.505173e-02) (0.000000e+00 0.000000e+00 0.000000e+00))
4.550000e+02	((1.386033e+00 4.634835e+00 -9.559343e-20) (1.659804e-01 7.511039e-03 5.260765e-21) (0.000000e+00 0.000000e+00 0.000000e+00)) ((-2.317418e-01 6.930164e-02 4.315096e+00) (-3.755520e-04 8.299019e-03 -1.501043e-02) (0.000000e+00 0.000000e+00 0.000000e+00))
4.600000e+02	((1.382990e+00 4.630698e+00 -9.375155e-20) (1.656342e-01 7.529501e-03 5.201128e-21) (0.000000e+00 0.000000e+00 0.000000e+00)) ((-2.315349e-01 6.914949e-02 4.307914e+00) (-3.764751e-04 8.281708e-03 -1.497120e-02) (0.000000e+00 0.000000e+00 0.000000e+00))
4.650000e+02	((1.380385e+00 4.624820e+00 -9.197556e-20) (1.652960e-01 7.548662e-03 5.229391e-21) (0.000000e+00 0.000000e+00 0.000000e+00)) ((-2.312410e-01 6.901923e-02 4.300879e+00) (-3.774331e-04 8.264799e-03 -1.493519e-02) (0.000000e+00 0.000000e+00 0.000000e+00))
4.700000e+02	((1.377875e+00 4.618379e+00 -9.023018e-20) (1.649855e-01 7.564341e-03 5.167812e-21) (0.000000e+00 0.000000e+00 0.000000e+00)) ((-2.309189e-01 6.889373e-02 4.293806e+00) (-3.782171e-04 8.249277e-03 -1.490085e-02) (0.000000e+00 0.000000e+00 0.000000e+00))
4.750000e+02	((1.375785e+00 4.610445e+00 -8.855888e-20) (1.646803e-01 7.581078e-03 5.170444e-21) (0.000000e+00 0.000000e+00 0.000000e+00)) ((-2.305223e-01 6.878927e-02 4.286942e+00) (-3.790539e-04 8.234014e-03 -1.486934e-02) (0.000000e+00 0.000000e+00 0.000000e+00))
4.800000e+02	((1.373761e+00 4.602127e+00 -8.692125e-20) (1.643998e-01 7.594613e-03 5.093849e-21) (0.000000e+00 0.000000e+00 0.000000e+00)) ((-2.301064e-01 6.868807e-02 4.280052e+00) (-3.797307e-04 8.219990e-03 -1.483904e-02) (0.000000e+00 0.000000e+00 0.000000e+00))
4.850000e+02	((1.372130e+00 4.592541e+00 -8.536148e-20) (1.641211e-01 7.609362e-03 5.116211e-21) (0.000000e+00 0.000000e+00 0.000000e+00)) ((-2.296270e-01 6.860648e-02 4.273404e+00) (-3.804681e-04 8.206057e-03 -1.481112e-02) (0.000000e+00 0.000000e+00 0.000000e+00))
4.900000e+02	((1.370520e+00 4.582773e+00 -8.383747e-20) (1.638649e-01 7.621294e-03 5.051447e-21) (0.000000e+00 0.000000e+00 0.000000e+00)) ((-2.291387e-01 6.852602e-02 4.266730e+00) (-3.810647e-04 8.193244e-03 -1.478402e-02) (0.000000e+00 0.000000e+00 0.000000e+00))
4.950000e+02	((1.369272e+00 4.571901e+00 -8.239388e-20) (1.636079e-01 7.634744e-03 5.065887e-21) (0.000000e+00 0.000000e+00 0.000000e+00)) ((-2.285950e-01 6.846361e-02 4.260301e+00) (-3.817372e-04 8.180397e-03 -1.475891e-02) (0.000000e+00 0.000000e+00 0.000000e+00))
5.000000e+02	((1.368001e+00 4.561011e+00 -8.098926e-20) (1.633712e-01 7.645684e-03 5.010347e-21) (0.000000e+00 0.000000e+00 0.000000e+00)) ((-2.280505e-01 6.840005e-02 4.253824e+00) (-3.822842e-04 8.168562e-03 -1.473426e-02) (0.000000e+00 0.000000e+00 0.000000e+00))
5.050000e+02	((1.367059e+00 4.549108e+00 -7.966645e-20) (1.631318e-01 7.658387e-03 5.009366e-21) (0.000000e+00 0.000000e+00 0.000000e+00)) ((-2.274554e-01 6.835297e-02 4.247570e+00) (-3.829193e-04 8.156588e-03 -1.471126e-02) (0.000000e+00 0.000000e+00 0.000000e+00))
5.100000e+02	((1.366049e+00 4.537319e+00 -7.838545e-20) (1.629107e-01 7.668825e-03 4.913685e-21) (0.000000e+00 0.000000e+00 0.000000e+00)) ((-2.268660e-01 6.830244e-02 4.241232e+00) (-3.834413e-04 8.145535e-03 -1.468843e-02) (0.000000e+00 0.000000e+00 0.000000e+00))
5.150000e+02	((1.365333e+00 4.524574e+00 -7.718649e-20) (1.626856e-01 7.681289e-03 4.893798e-21) (0.000000e+00 0.000000e+00 0.000000e+00)) ((-2.262287e-01 6.826663e-02 4.235073e+00) (-3.840644e-04 8.134278e-03 -1.466699e-02) (0.000000e+00 0.000000e+00 0.000000e+00))
5.200000e+02	((1.364523e+00 4.511982e+00 -7.603293e-20) (1.624767e-01 7.691480e-03 4.803455e-21) (0.000000e+00 0.000000e+00 0.000000e+00)) ((-2.255991e-01 6.822613e-02 4.228800e+00) (-3.845740e-04 8.123837e-03 -1.464544e-02) (0.000000e+00 0.000000e+00 0.000000e+00))
5.250000e+02	((1.363972e+00 4.498467e+00 -7.496028e-20) (1.622630e-01 7.704003e-03 4.788097e-21) (0.000000e+00 0.000000e+00 0.000000e+00)) ((-2.249234e-01 6.819861e-02 4.222656e+00) (-3.852002e-04 8.113152e-03 -1.462511e-02) (0.000000e+00 0.000000e+00 0.000000e+00))
5.300000e+02	((1.363301e+00 4.485147e+00 -7.393530e-20) (1.620641e-01 7.714233e-03 4.713950e-21) (0.000000e+00 0.000000e+00 0.000000e+00)) ((-2.242573e-01 6.816507e-02 4.216363e+00) (-3.857116e-04 8.103205e-03 -1.460446e-02) (0.000000e+00 0.000000e+00 0.000000e+00))
5.350000e+02	((1.362873e+00 4.470886e+00 -7.299043e-20) (1.618594e-01 7.726892e-03 4.720668e-21) (0.000000e+00 0.000000e+00 0.000000e+00)) ((-2.235443e-01 6.814363e-02 4.210159e+00) (-3.863446e-04 8.092970e-03 -1.458486e-02) (0.000000e+00 0.000000e+00 0.000000e+00))
5.400000e+02	((1.362305e+00 4.457254e+00 -7.208257e-20) (1.616708e-01 7.735676e-03 4.634459e-21) (0.000000e+00 0.000000e+00 0.000000e+00)) ((-2.228627e-01 6.811527e-02 4.203939e+00) (-3.867838e-04 8.083541e-03 -1.456443e-02) (0.000000e+00 0.000000e+00 0.000000e+00))
5.450000e+02	((1.361910e+00 4.442713e+00 -7.129106e-20) (1.614717e-01 7.750687e-03 4.623220e-21) (0.000000e+00 0.000000e+00 0.000000e+00)) ((-2.221357e-01 6.809548e-02 4.197690e+00) (-3.875344e-04 8.073584e-03 -1.454583e-02) (0.000000e+00 0.000000e+00 0.000000e+00))
5.500000e+02	((1.361446e+00 4.427702e+00 -7.050652e-20) (1.612902e-01 7.759565e-03 4.530942e-21) (0.000000e+00 0.000000e+00 0.000000e+00)) ((-2.213851e-01 6.807228e-02 4.191137e+00) (-3.879782e-04 8.064509e-03 -1.452577e-02) (0.000000e+00 0.000000e+00 0.000000e+00))
5.550000e+02	((1.361112e+00 4.412326e+00 -6.983464e-20) (1.610976e-01 7.774888e-03 4.531006e-21) (0.000000e+00 0.000000e+00 0.000000e+00)) ((-2.206163e-01 6.805562e-02 4.184686e+00) (-3.887444e-04 8.054879e-03 -1.450754e-02) (0.000000e+00 0.000000e+00 0.000000e+00))