/*--------------------------------*- C++ -*----------------------------------*\
| =========                 |                                                 |
| \\      /  F ield         | OpenFOAM: The Open Source CFD Toolbox           |
|  \\    /   O peration     | Version:  2.3.0                                 |
|   \\  /    A nd           | Web:      www.OpenFOAM.org                      |
|    \\/     M anipulation  |                                                 |
\*---------------------------------------------------------------------------*/
FoamFile
{
    version     2.0;
    format      ascii;
    class       volScalarField;
    location    "5000";
    object      nuTilda;
}
// * * * * * * * * * * * * * * * * * * * * * * * * * * * * * * * * * * * * * //

dimensions      [0 2 -1 0 0 0 0];

internalField   nonuniform List<scalar> 
36444
(
0.0691608
0.0676455
0.0661254
0.0646023
0.0630776
0.061552
0.0600266
0.0585017
0.056978
0.0554558
0.0539357
0.052418
0.050903
0.0493913
0.0478831
0.0463785
0.0448784
0.0433833
0.0418932
0.0404087
0.0389303
0.0374582
0.0359934
0.0345354
0.0330856
0.0316442
0.0302117
0.0287891
0.0273773
0.0259779
0.0245915
0.0232214
0.02187
0.0205411
0.0192386
0.0179679
0.0167351
0.0155453
0.0143976
0.0132725
0.0121015
0.0107192
0.00900647
0.0703418
0.0690001
0.0676547
0.0663074
0.0649591
0.0636104
0.0622617
0.0609133
0.0595656
0.0582185
0.0568725
0.0555278
0.0541843
0.0528422
0.0515021
0.0501637
0.0488271
0.0474931
0.046162
0.0448345
0.0435106
0.042191
0.0408769
0.0395687
0.0382672
0.0369744
0.0356913
0.0344191
0.0331603
0.0319186
0.0306965
0.029499
0.0283316
0.0272025
0.0261211
0.0250979
0.0241484
0.0232888
0.0225382
0.0219155
0.0214379
0.0211167
0.0209606
0.0714372
0.0702421
0.0690453
0.0678474
0.0666485
0.0654488
0.0642485
0.0630478
0.0618469
0.0606455
0.059444
0.0582423
0.0570404
0.0558385
0.0546366
0.0534348
0.0522335
0.0510323
0.0498317
0.0486324
0.0474352
0.0462406
0.0450493
0.043863
0.042683
0.0415103
0.0403473
0.0391958
0.0380591
0.0369408
0.035845
0.0347767
0.033742
0.0327487
0.0318061
0.030925
0.0301168
0.0293955
0.0287737
0.0282658
0.0278839
0.0276364
0.0275287
0.0724437
0.0713772
0.070309
0.0692391
0.0681677
0.0670947
0.0660201
0.0649441
0.0638664
0.0627871
0.0617064
0.060624
0.0595399
0.0584542
0.0573669
0.0562784
0.0551884
0.054097
0.0530046
0.0519113
0.0508177
0.0497252
0.0486345
0.047547
0.0464647
0.0453894
0.0443223
0.0432665
0.042225
0.0412019
0.0402021
0.0392298
0.0382914
0.0373945
0.0365475
0.0357598
0.0350419
0.034405
0.0338599
0.0334178
0.0330877
0.0328763
0.0327876
0.0733656
0.0724124
0.0714555
0.0704958
0.0695333
0.0685683
0.0676008
0.0666304
0.0656566
0.0646797
0.0637
0.0627172
0.0617313
0.0607423
0.05975
0.058755
0.0577572
0.0567566
0.0557536
0.0547479
0.0537398
0.0527306
0.0517215
0.0507141
0.0497103
0.0487122
0.0477217
0.0467415
0.0457744
0.0448251
0.0438979
0.0429976
0.0421301
0.0413028
0.0405234
0.0398001
0.0391426
0.0385612
0.0380652
0.0376639
0.0373655
0.0371753
0.0370969
0.0742116
0.0733552
0.0724942
0.071629
0.07076
0.0698874
0.069011
0.0681307
0.067245
0.0663544
0.0654593
0.06456
0.0636564
0.062748
0.0618346
0.0609167
0.0599946
0.0590695
0.058141
0.0572083
0.0562713
0.0553309
0.0543885
0.053446
0.0525056
0.05157
0.0506409
0.0497206
0.0488125
0.0479208
0.04705
0.046205
0.0453921
0.0446167
0.0438868
0.0432105
0.0425963
0.0420538
0.0415915
0.0412179
0.0409404
0.0407643
0.0406924
0.0749856
0.0742124
0.0734341
0.0726504
0.0718617
0.0710682
0.0702689
0.0694659
0.0686562
0.0678383
0.0670143
0.0661848
0.0653502
0.0645099
0.0636627
0.0628088
0.061949
0.0610853
0.0602187
0.0593478
0.0584715
0.057589
0.0567019
0.0558125
0.054923
0.054038
0.053159
0.0522879
0.0514274
0.0505808
0.049754
0.0489529
0.0481823
0.0474477
0.0467561
0.0461152
0.045533
0.0450188
0.0445813
0.0442283
0.0439661
0.0437996
0.043732
0.0756928
0.0749907
0.074284
0.0735707
0.0728501
0.0721265
0.0713906
0.070654
0.0699126
0.0691557
0.0683914
0.0676196
0.0668429
0.0660607
0.0652699
0.0644703
0.0636626
0.0628466
0.062031
0.0612117
0.0603889
0.0595568
0.0587158
0.0578731
0.0570229
0.0561783
0.0553402
0.0545102
0.05369
0.05288
0.0520863
0.0513211
0.0505844
0.0498835
0.0492219
0.0486097
0.0480505
0.0475581
0.0471395
0.0468035
0.0465521
0.046394
0.0463279
0.0763453
0.0757
0.0750518
0.0743999
0.0737324
0.0730792
0.0723911
0.0717068
0.0710332
0.0703271
0.0696146
0.0688876
0.0681557
0.0674213
0.0666797
0.0659241
0.0651669
0.0643833
0.0636101
0.0628269
0.0620498
0.0612692
0.0604642
0.0596763
0.0588512
0.0580367
0.0572301
0.0564335
0.0556499
0.054878
0.054104
0.0533715
0.0526614
0.0519927
0.0513521
0.0507704
0.0502235
0.0497496
0.0493439
0.0490267
0.0487788
0.0486331
0.0485615
0.00939279
0.0115268
0.0127235
0.0138019
0.0149308
0.0161345
0.0174024
0.0187192
0.0200726
0.0214527
0.0228532
0.0242697
0.025699
0.0271385
0.0285864
0.0300421
0.0315048
0.0329732
0.0344472
0.0359263
0.0374101
0.0388984
0.0403911
0.0418877
0.043388
0.044892
0.0463995
0.0479102
0.0494241
0.0509405
0.0524594
0.0539803
0.0555026
0.0570259
0.0585497
0.0600733
0.0615961
0.0631173
0.0646361
0.066152
0.0676643
0.0691726
0.0706773
0.0209721
0.0211648
0.0215453
0.0221034
0.0228174
0.0236628
0.0246163
0.0256553
0.0267627
0.0279233
0.0291252
0.0303598
0.0316194
0.0328986
0.034193
0.0354997
0.0368157
0.0381391
0.0394687
0.0408025
0.0421404
0.0434814
0.0448247
0.0461699
0.0475172
0.048866
0.0502159
0.0515671
0.0529193
0.0542722
0.0556256
0.0569792
0.0583327
0.0596857
0.0610379
0.0623891
0.0637389
0.0650865
0.0664317
0.0677741
0.0691133
0.0704488
0.0717783
0.0275587
0.0277292
0.0280451
0.0285004
0.0290846
0.0297839
0.0305825
0.0314649
0.0324181
0.033429
0.0344862
0.0355807
0.036705
0.037853
0.0390196
0.0402005
0.0413925
0.0425928
0.043799
0.0450098
0.0462236
0.0474399
0.0486572
0.0498753
0.0510938
0.0523122
0.0535306
0.0547484
0.0559657
0.0571818
0.058397
0.0596108
0.0608229
0.062033
0.0632411
0.064447
0.0656504
0.066851
0.0680486
0.0692432
0.0704345
0.0716226
0.0728065
0.0328201
0.0329757
0.033256
0.0336558
0.0341689
0.0347852
0.0354921
0.0362774
0.0371302
0.0380397
0.0389957
0.0399898
0.0410138
0.0420626
0.0431305
0.0442132
0.0453066
0.0464081
0.047515
0.0486256
0.0497385
0.0508524
0.0519663
0.0530797
0.054192
0.0553032
0.0564129
0.0575206
0.058626
0.0597287
0.0608286
0.0619255
0.063019
0.0641092
0.0651959
0.0662789
0.0673582
0.0684338
0.0695055
0.0705733
0.0716376
0.0726985
0.0737558
0.0371302
0.0372757
0.037534
0.0379009
0.0383697
0.0389329
0.03958
0.0403002
0.0410841
0.0419219
0.0428051
0.0437249
0.044674
0.0456467
0.0466383
0.0476435
0.0486585
0.0496809
0.0507077
0.0517371
0.0527675
0.0537974
0.0548265
0.0558542
0.0568797
0.0579028
0.0589232
0.0599399
0.0609525
0.0619605
0.0629641
0.0639632
0.0649574
0.0659468
0.0669311
0.0679101
0.0688844
0.0698533
0.070817
0.071776
0.0727305
0.0736813
0.074629
0.0407257
0.0408641
0.0411071
0.0414514
0.04189
0.0424159
0.0430207
0.0436944
0.0444283
0.0452138
0.0460423
0.0469059
0.0477975
0.0487114
0.0496424
0.050586
0.0515384
0.0524966
0.0534583
0.0544212
0.0553839
0.056345
0.0573045
0.0582619
0.0592165
0.0601676
0.0611142
0.0620554
0.0629903
0.0639193
0.0648424
0.0657598
0.0666706
0.0675744
0.0684719
0.0693631
0.0702479
0.0711259
0.0719968
0.0728618
0.0737213
0.0745758
0.075425
0.043765
0.043898
0.0441305
0.0444581
0.0448746
0.0453727
0.0459451
0.0465839
0.0472801
0.0480257
0.0488126
0.0496326
0.050479
0.0513459
0.0522285
0.0531221
0.0540235
0.0549295
0.0558375
0.0567452
0.0576513
0.0585554
0.0594578
0.0603579
0.0612547
0.0621468
0.0630321
0.0639093
0.0647788
0.0656415
0.0664976
0.0673466
0.0681865
0.0690173
0.0698411
0.0706584
0.0714667
0.0722666
0.0730574
0.0738412
0.0746185
0.0753897
0.0761548
0.0463612
0.0464892
0.0467143
0.0470286
0.0474286
0.0479034
0.0484505
0.0490623
0.0497293
0.0504439
0.0511986
0.0519834
0.0527933
0.0536218
0.0544649
0.0553172
0.0561765
0.05704
0.0579032
0.0587632
0.0596214
0.0604788
0.0613349
0.0621887
0.0630384
0.0638823
0.0647151
0.0655369
0.0663509
0.0671587
0.0679593
0.0687514
0.0695288
0.0702966
0.0710587
0.0718154
0.0725564
0.0732903
0.0740094
0.0747242
0.0754299
0.0761288
0.0768194
0.0485978
0.0487161
0.048938
0.0492375
0.0496261
0.0500753
0.050601
0.0511903
0.0518337
0.0525241
0.0532524
0.0540037
0.0547843
0.0555798
0.0563903
0.0572077
0.0580329
0.0588615
0.0596842
0.0605009
0.0613225
0.0621449
0.062967
0.0637861
0.0645984
0.0654032
0.0661866
0.0669606
0.0677315
0.0684971
0.0692513
0.0699938
0.0707117
0.0714293
0.0721419
0.0728524
0.0735266
0.0742125
0.0748595
0.0755209
0.076163
0.0768033
0.0774355
0.0179248
0.0170572
0.0162548
0.0155181
0.0148395
0.0142087
0.0136166
0.013056
0.0125217
0.0120096
0.0115164
0.0110398
0.0105777
0.0101284
0.00969073
0.00926348
0.00884577
0.00843682
0.00803591
0.00764254
0.00725621
0.00687655
0.00650314
0.00613572
0.00577411
0.00541798
0.00506731
0.00472193
0.00438172
0.00404675
0.00371698
0.00339248
0.00307342
0.00275992
0.00245231
0.00215084
0.00185589
0.00156792
0.00128737
0.00101496
0.000751658
0.00049635
0.000260796
0.0179429
0.0171299
0.0163799
0.0156878
0.015047
0.0144489
0.0138859
0.0133519
0.012842
0.0123525
0.0118803
0.0114231
0.0109789
0.0105463
0.0101239
0.00971046
0.00930516
0.00890717
0.00851577
0.00813036
0.00775034
0.00737533
0.00700491
0.0066387
0.00627638
0.00591774
0.00556254
0.00521068
0.00486194
0.00451633
0.0041738
0.00383436
0.0034982
0.00316548
0.00283646
0.00251139
0.00219075
0.00187502
0.00156478
0.00126088
0.00096423
0.000672685
0.000390448
0.0179462
0.0172016
0.0165044
0.015856
0.0152518
0.0146854
0.0141503
0.0136413
0.0131541
0.0126854
0.0122324
0.0117929
0.011365
0.0109472
0.0105382
0.010137
0.0097425
0.00935395
0.0089706
0.00859183
0.00821707
0.00784579
0.00747755
0.00711197
0.00674871
0.00638742
0.00602783
0.00566976
0.00531299
0.00495747
0.00460308
0.00424981
0.00389767
0.00354683
0.00319749
0.0028499
0.00250452
0.00216183
0.00182257
0.00148786
0.00115851
0.000831105
0.00051614
0.017959
0.0172692
0.0166211
0.016014
0.0154443
0.0149072
0.0143977
0.0139114
0.0134446
0.0129944
0.0125583
0.0121342
0.0117204
0.0113153
0.0109179
0.0105269
0.0101414
0.00976068
0.00938395
0.00901054
0.0086399
0.00827147
0.00790477
0.00753934
0.0071748
0.00681084
0.00644711
0.00608333
0.00571927
0.00535476
0.00498965
0.00462384
0.00425736
0.00389019
0.00352255
0.00315459
0.0027867
0.00241945
0.00205375
0.00169085
0.00133143
0.000970863
0.000628639
0.0179581
0.0173293
0.0167287
0.0161603
0.0156229
0.0151131
0.014627
0.0141613
0.0137128
0.013279
0.0128576
0.0124468
0.012045
0.0116508
0.011263
0.0108806
0.0105026
0.0101283
0.00975691
0.00938775
0.00902025
0.00865383
0.00828803
0.00792237
0.00755639
0.00718972
0.00682203
0.00645293
0.00608222
0.00570957
0.00533484
0.00495783
0.00457849
0.00419674
0.00381269
0.00342651
0.00303851
0.00264934
0.00225994
0.00187167
0.00148506
0.00109459
0.000727899
0.0179697
0.0173855
0.0168274
0.0162952
0.015788
0.0153035
0.0148391
0.014392
0.0139599
0.0135406
0.0131322
0.012733
0.0123415
0.0119565
0.0115769
0.0112015
0.0108297
0.0104606
0.0100934
0.00972754
0.00936239
0.00899735
0.00863194
0.00826567
0.00789805
0.00752871
0.0071572
0.00678317
0.00640632
0.00602631
0.00564287
0.00525582
0.00486496
0.00447024
0.00407162
0.00366923
0.00326334
0.00285455
0.00244396
0.00203297
0.00162176
0.00120411
0.000815189
0.0179712
0.0174361
0.0169177
0.0164191
0.0159401
0.0154793
0.0150349
0.014605
0.0141876
0.0137812
0.0133842
0.0129951
0.0126126
0.0122355
0.0118627
0.0114933
0.0111264
0.0107614
0.0103976
0.0100343
0.00967075
0.00930653
0.00894105
0.00857389
0.00820453
0.00783247
0.00745729
0.00707865
0.00669614
0.00630944
0.0059182
0.00552207
0.00512093
0.0047146
0.00430293
0.00388608
0.00346429
0.00303818
0.00260885
0.00217769
0.00174472
0.00130306
0.000893242
0.017985
0.0174844
0.0170008
0.0165323
0.0160795
0.0156414
0.0152162
0.0148019
0.0143977
0.0140027
0.0136155
0.0132354
0.0128611
0.0124913
0.0121249
0.0117603
0.011397
0.0110351
0.0106739
0.0103127
0.00995043
0.00958664
0.00922056
0.00885203
0.00848085
0.00810645
0.00772753
0.00734382
0.0069557
0.00656292
0.00616471
0.00576063
0.0053503
0.00493353
0.00451015
0.00408009
0.00364341
0.00320082
0.00275358
0.00230347
0.00185007
0.00138541
0.000959171
0.0179862
0.017528
0.0170781
0.0166352
0.0162054
0.0157897
0.0153854
0.0149869
0.0145941
0.0142087
0.0138283
0.0134558
0.0130891
0.0127272
0.0123702
0.0120121
0.0116502
0.0112892
0.0109299
0.010571
0.010211
0.00984878
0.00948211
0.00911112
0.0087361
0.00836301
0.00798305
0.00759179
0.00719359
0.00679294
0.00638831
0.00597826
0.00556162
0.00513803
0.00470839
0.00427255
0.00382916
0.00337839
0.00291886
0.0024512
0.00197931
0.00149767
0.00103334
0.000318329
0.000513733
0.000754822
0.000987988
0.00121296
0.00142947
0.00163794
0.00183902
0.00203359
0.00222273
0.00240757
0.00258943
0.00276963
0.00294967
0.00313118
0.00331603
0.00350644
0.00370531
0.00391663
0.00414613
0.0044021
0.00469495
0.00503089
0.00540793
0.00582145
0.00626852
0.00674729
0.00725686
0.007797
0.00836784
0.00896987
0.00960365
0.01027
0.0109696
0.0117031
0.0124712
0.0132745
0.0141142
0.0149911
0.0159063
0.016861
0.0178559
0.0188926
0.000438496
0.000672885
0.000927508
0.00117411
0.00141054
0.00163643
0.00185248
0.00205984
0.00225983
0.00245395
0.00264368
0.00283074
0.00301678
0.00320377
0.00339391
0.00358981
0.0037948
0.00401316
0.00425045
0.00451376
0.00481153
0.00514858
0.00552161
0.00592647
0.00636027
0.00682133
0.00730861
0.00782182
0.00836089
0.00892612
0.00951788
0.0101368
0.0107833
0.011458
0.0121614
0.012894
0.0136565
0.0144497
0.0152744
0.0161317
0.0170224
0.0179476
0.0189092
0.000553723
0.0008105
0.00107883
0.00133831
0.00158589
0.00182107
0.00204488
0.00225893
0.002465
0.00266507
0.00286106
0.00305514
0.00324954
0.00344683
0.00365006
0.00386276
0.00408925
0.00433458
0.00460469
0.00490637
0.00524513
0.00561749
0.00601829
0.0064443
0.00689362
0.00736528
0.00785878
0.00837399
0.00891093
0.00946981
0.010051
0.0106549
0.0112818
0.0119321
0.0126061
0.0133043
0.0140273
0.0147757
0.0155502
0.0163516
0.0171808
0.018039
0.0189286
0.000657384
0.000927933
0.00120854
0.00147941
0.00173697
0.00198073
0.00221194
0.00243271
0.00264529
0.00285213
0.00305571
0.00325873
0.0034641
0.00367519
0.0038958
0.00413013
0.00438282
0.00465876
0.00496334
0.00530214
0.00567419
0.00607296
0.00649432
0.00693608
0.00739704
0.00787655
0.00837423
0.00888998
0.00942384
0.00997594
0.0105466
0.0111358
0.011744
0.0123711
0.0130176
0.0136838
0.0143701
0.0150771
0.0158053
0.0165553
0.0173276
0.0181227
0.0189387
0.000748854
0.0010289
0.00132019
0.00160102
0.00186742
0.00211891
0.0023571
0.00258456
0.00280402
0.00301844
0.0032309
0.00344475
0.00366363
0.00389157
0.00413286
0.00439178
0.00467255
0.0049794
0.00531689
0.00568772
0.00608533
0.0065042
0.00694148
0.00739552
0.00786546
0.00835073
0.00885111
0.00936643
0.00989667
0.0104419
0.0110022
0.0115775
0.0121679
0.0127735
0.0133946
0.0140313
0.0146839
0.015353
0.0160388
0.0167416
0.017462
0.0182002
0.0189567
0.000829265
0.00111648
0.00141709
0.00170662
0.00198084
0.00223936
0.0024842
0.00271829
0.00294495
0.0031677
0.00339027
0.00361668
0.00385116
0.0040982
0.00436204
0.00464652
0.00495504
0.00529109
0.00565856
0.00605492
0.0064726
0.00690747
0.00735749
0.00782132
0.00829838
0.00878808
0.00929022
0.0098045
0.0103309
0.0108693
0.0114196
0.0119818
0.0125557
0.0131413
0.0137389
0.0143485
0.0149704
0.0156048
0.0162519
0.0169119
0.0175849
0.018271
0.0189705
0.000899869
0.0011929
0.00150169
0.00179889
0.00208008
0.0023451
0.0025963
0.00283708
0.00307129
0.00330305
0.00353677
0.00377709
0.00402869
0.004296
0.00458286
0.00489232
0.00522692
0.00558972
0.00598301
0.00639971
0.00683358
0.00728163
0.00774226
0.00821432
0.0086972
0.00919038
0.00969356
0.0102064
0.0107289
0.0112607
0.0118016
0.0123514
0.0129101
0.0134774
0.0140534
0.0146382
0.0152319
0.0158346
0.0164464
0.0170671
0.017697
0.0183359
0.0189835
0.000963543
0.00126125
0.00157686
0.00188066
0.00216812
0.00243906
0.0026961
0.0029431
0.00318482
0.00342617
0.00367196
0.00392724
0.00419666
0.00448419
0.00479312
0.00512622
0.00548538
0.0058729
0.00628764
0.00672114
0.00716875
0.00762832
0.00809807
0.00857706
0.00906472
0.00956061
0.010064
0.0105752
0.0110939
0.0116195
0.0121515
0.0126907
0.0132354
0.0137851
0.0143408
0.0149027
0.0154709
0.0160449
0.0166241
0.0172088
0.0177993
0.0183954
0.0189976
0.00101217
0.00131545
0.00163871
0.00194909
0.00224231
0.00251867
0.00278126
0.0030378
0.00329097
0.00354392
0.00380295
0.00407344
0.00435915
0.00466587
0.0050006
0.00536359
0.00574731
0.00615671
0.00658756
0.00703316
0.00749225
0.00796185
0.00843756
0.00891987
0.00941025
0.00990619
0.0104068
0.0109164
0.0114334
0.0119519
0.0124757
0.0130096
0.0135393
0.0140685
0.0146042
0.0151456
0.0156914
0.0162392
0.016787
0.0173376
0.0178916
0.0184486
0.0190096
0.000868243
0.0027394
0.00455452
0.00627081
0.0079031
0.00947914
0.0110209
0.0125435
0.0140567
0.0155666
0.0170777
0.0185922
0.0201113
0.0216363
0.0231675
0.0247049
0.0262486
0.0277989
0.0293559
0.0309191
0.032489
0.034065
0.035647
0.0372349
0.0388286
0.0404277
0.0420317
0.0436407
0.0452541
0.0468713
0.0484922
0.0501162
0.0517429
0.0533718
0.0550025
0.0566344
0.0582667
0.0598992
0.0615309
0.0631611
0.0647886
0.0664127
0.0680324
0.000289122
0.00137899
0.00243126
0.00368735
0.00511224
0.00658384
0.00807307
0.00957437
0.0110864
0.0126098
0.0141447
0.0156912
0.0172494
0.0188191
0.0203998
0.021991
0.0235921
0.0252027
0.0268219
0.0284492
0.0300842
0.0317263
0.0333749
0.0350299
0.0366906
0.0383563
0.0400272
0.0417023
0.0433811
0.0450632
0.0467482
0.0484354
0.0501243
0.0518144
0.0535052
0.0551961
0.0568863
0.0585754
0.0602625
0.0619468
0.0636276
0.0653035
0.0669735
0.000270342
0.00126159
0.0020901
0.00300787
0.00402888
0.00518792
0.00648341
0.00784864
0.00925829
0.010703
0.0121779
0.01368
0.0152072
0.0167573
0.0183281
0.0199181
0.021526
0.0231499
0.0247883
0.02644
0.0281038
0.0297783
0.0314627
0.0331559
0.0348569
0.036565
0.0382794
0.0399991
0.0417235
0.0434518
0.0451832
0.0469172
0.0486529
0.0503899
0.0521272
0.0538641
0.0556001
0.0573343
0.0590659
0.0607942
0.0625185
0.0642379
0.0659531
0.000249071
0.00109455
0.001979
0.00281697
0.00367735
0.00460599
0.005638
0.00681145
0.00808397
0.00941974
0.0108042
0.0122306
0.0136945
0.0151923
0.0167213
0.0182788
0.0198625
0.02147
0.0230993
0.0247485
0.0264154
0.0280985
0.0297961
0.0315066
0.0332287
0.0349611
0.0367023
0.0384513
0.0402071
0.0419684
0.0437344
0.0455041
0.0472767
0.049051
0.0508262
0.0526016
0.0543761
0.056149
0.0579192
0.0596862
0.0614489
0.0632074
0.0649631
0.000230478
0.000941
0.00184846
0.00269404
0.00351248
0.00434489
0.00522711
0.00620118
0.00730942
0.00852406
0.00981003
0.0111517
0.0125416
0.0139747
0.0154476
0.0169572
0.0185005
0.020075
0.0216782
0.0233076
0.024961
0.0266362
0.0283311
0.0300438
0.0317724
0.0335152
0.0352705
0.0370369
0.0388126
0.0405966
0.0423874
0.0441838
0.0459845
0.0477885
0.0495946
0.0514017
0.0532088
0.0550148
0.0568187
0.0586195
0.0604162
0.0622072
0.0639891
0.000219326
0.000849262
0.00171634
0.00256331
0.00337555
0.00417445
0.00498833
0.00584924
0.00680024
0.00788151
0.00906566
0.0103224
0.0116376
0.0130039
0.0144168
0.0158727
0.0173686
0.0189019
0.0204697
0.0220696
0.0236991
0.0253557
0.0270372
0.0287412
0.0304657
0.0322086
0.033968
0.0357419
0.0375286
0.0393265
0.0411337
0.042949
0.0447709
0.0465978
0.0484284
0.0502614
0.0520957
0.0539298
0.0557627
0.0575931
0.0594198
0.0612417
0.0630575
0.000223306
0.000784974
0.00159823
0.00242749
0.00323552
0.00402272
0.00480636
0.00561014
0.00646559
0.00741804
0.00849599
0.00966837
0.0109111
0.0122124
0.013566
0.0149678
0.0164146
0.0179033
0.0194315
0.0209967
0.0225962
0.0242277
0.0258886
0.0275766
0.0292895
0.0310249
0.0327806
0.0345545
0.0363448
0.0381492
0.0399662
0.0417939
0.0436305
0.0454744
0.0473238
0.0491777
0.0510341
0.0528919
0.0547495
0.0566056
0.0584591
0.0603091
0.0621566
0.000233802
0.000736592
0.00149916
0.00229971
0.00309682
0.00387628
0.00464476
0.00541846
0.00622055
0.00708462
0.00805664
0.00914394
0.0103161
0.0115552
0.012852
0.0142014
0.0155994
0.0170434
0.0185307
0.0200588
0.0216252
0.0232277
0.0248636
0.0265308
0.0282267
0.0299491
0.0316954
0.0334637
0.0352516
0.037057
0.038878
0.0407125
0.0425585
0.0444142
0.0462778
0.0481476
0.0500219
0.0518991
0.0537775
0.0556557
0.0575321
0.0594052
0.0612723
0.00023956
0.000698544
0.00141735
0.00218616
0.00296655
0.00373641
0.00449434
0.00525009
0.00602035
0.00683009
0.00771692
0.00871903
0.00982193
0.0110013
0.0122441
0.0135433
0.0148945
0.0162947
0.0177413
0.0192318
0.0207639
0.0223354
0.0239439
0.025587
0.0272625
0.0289678
0.0307008
0.032459
0.0342401
0.036042
0.0378624
0.0396991
0.0415501
0.0434132
0.0452867
0.0471683
0.0490566
0.0509494
0.0528451
0.0547418
0.0566381
0.0585314
0.0604192
0.000241182
0.00066707
0.00134852
0.00208658
0.00284728
0.00360507
0.00435313
0.00509599
0.00584554
0.00662048
0.0074492
0.0083725
0.00940694
0.0105287
0.01172
0.0129715
0.0142782
0.0156364
0.0170434
0.0184968
0.0199945
0.0215343
0.0231141
0.0247315
0.0263842
0.02807
0.0297865
0.0315313
0.0333023
0.0350971
0.036913
0.0387482
0.0406004
0.0424673
0.0443468
0.046237
0.0481357
0.0500407
0.0519505
0.053863
0.0557763
0.0576883
0.0595971
0.000240609
0.000639808
0.00128922
0.00199886
0.002739
0.00348308
0.00422083
0.00495291
0.00568738
0.0064383
0.00722753
0.00808845
0.00905598
0.0101213
0.0112633
0.0124699
0.0137342
0.0150523
0.0164212
0.0178387
0.0193026
0.0208109
0.0223614
0.0239521
0.0255809
0.0272454
0.0289433
0.0306726
0.0324308
0.0342153
0.0360242
0.0378549
0.0397051
0.0415726
0.0434552
0.0453506
0.0472566
0.0491712
0.0510922
0.0530179
0.0549461
0.0568755
0.0588058
0.000239135
0.000616041
0.00123755
0.00192115
0.00264094
0.00337041
0.00409726
0.00481934
0.00554161
0.00627474
0.00703586
0.00785124
0.00875742
0.00976776
0.0108623
0.0120259
0.01325
0.0145301
0.0158627
0.0172455
0.0186765
0.0201536
0.0216751
0.0232389
0.024843
0.0264852
0.0281635
0.0298755
0.0316188
0.0333914
0.0351907
0.0370144
0.0388602
0.0407257
0.0426086
0.0445065
0.0464173
0.0483387
0.0502686
0.0522047
0.0541457
0.0560897
0.0580366
0.000237402
0.000595279
0.0011922
0.00185202
0.00255205
0.00326659
0.00398213
0.00469441
0.00540609
0.0061252
0.00686514
0.00764687
0.00850208
0.00945904
0.0105076
0.01163
0.012816
0.0140599
0.0153578
0.0167074
0.0181067
0.0195536
0.0210465
0.0225835
0.0241627
0.0257822
0.0274398
0.0291334
0.0308607
0.0326196
0.0344075
0.0362223
0.0380615
0.0399229
0.0418039
0.0437021
0.0456154
0.0475412
0.0494776
0.0514222
0.0533732
0.0553287
0.0572872
0.000235709
0.000577044
0.00115211
0.00179017
0.0024714
0.003171
0.00387492
0.0045775
0.00527951
0.0059868
0.00671004
0.00746619
0.00828141
0.00918825
0.0101919
0.0112747
0.0124244
0.0136338
0.0148988
0.0162168
0.0175854
0.0190032
0.0204682
0.0219788
0.0235333
0.0251298
0.0267663
0.0284407
0.0301511
0.0318949
0.0336703
0.0354746
0.0373057
0.039161
0.0410381
0.0429348
0.0448484
0.0467769
0.0487176
0.0506685
0.0526273
0.0545918
0.0565598
0.000234145
0.000560988
0.00111642
0.0017345
0.00239787
0.0030828
0.00377508
0.004468
0.00516085
0.00585769
0.00656724
0.00730323
0.00808722
0.00894977
0.00990979
0.0109544
0.0120691
0.0132457
0.0144794
0.015767
0.0171065
0.018496
0.019934
0.0214189
0.0229489
0.0245225
0.0261377
0.0277927
0.0294853
0.0312136
0.0329752
0.0347679
0.0365894
0.0384372
0.040309
0.0422023
0.0441147
0.0460437
0.047987
0.0499421
0.0519065
0.0538776
0.0558526
0.00023273
0.000546774
0.00108447
0.00168418
0.00233065
0.00300132
0.00368201
0.00436532
0.0050493
0.00573682
0.00643459
0.00715408
0.00791315
0.00873859
0.00965682
0.0106641
0.0117452
0.0128905
0.0140942
0.0153529
0.0166644
0.0180268
0.0194386
0.0208984
0.0224045
0.0239554
0.0255495
0.0271848
0.0288594
0.0305715
0.0323185
0.0340986
0.0359095
0.0377487
0.0396138
0.0415023
0.043412
0.0453401
0.0472842
0.0492416
0.0512098
0.0531852
0.0551629
0.000231473
0.000534214
0.00105579
0.00163853
0.00226907
0.00292597
0.00359522
0.00426891
0.00494437
0.00562314
0.00631058
0.0070162
0.00775502
0.00854986
0.00942908
0.0104001
0.0114489
0.012564
0.0137391
0.0149702
0.0162548
0.0175912
0.0189778
0.0204131
0.0218959
0.0234246
0.0249976
0.0266132
0.0282697
0.0299649
0.0316971
0.0334641
0.0352634
0.0370929
0.0389501
0.0408328
0.0427383
0.0446641
0.0466077
0.0485662
0.0505368
0.0525161
0.0544993
0.000230344
0.000522994
0.00102987
0.00159692
0.00221246
0.00285607
0.00351412
0.00417839
0.00484548
0.00551592
0.00619405
0.00688774
0.00760968
0.0083793
0.00922361
0.0101594
0.0111766
0.0122627
0.0134104
0.0146151
0.015874
0.0171853
0.0185476
0.0199594
0.0214194
0.0229264
0.0244785
0.0260747
0.0277128
0.0293913
0.0311082
0.0328613
0.0346484
0.0364675
0.0383161
0.0401918
0.0420921
0.0440145
0.0459563
0.0479149
0.0498875
0.0518717
0.0538666
0.000229324
0.00051294
0.00100636
0.00155887
0.00216026
0.00279114
0.00343823
0.00409321
0.00475203
0.00541466
0.00608418
0.00676739
0.0074749
0.00822349
0.00903747
0.00993927
0.0109257
0.0119839
0.0131052
0.0142845
0.0155188
0.0168061
0.0181449
0.0195339
0.0209719
0.0224574
0.0239894
0.0255661
0.0271861
0.0288477
0.030549
0.0322879
0.0340625
0.0358705
0.0377097
0.0395775
0.0414718
0.0433897
0.0453289
0.0472865
0.0492605
0.0512487
0.0532516
0.000228406
0.000503946
0.000984994
0.00152398
0.00211204
0.00273074
0.00336719
0.00401297
0.00466378
0.00531879
0.00598036
0.00665401
0.00734903
0.00807981
0.00886778
0.00973759
0.0106941
0.011725
0.0128209
0.0139758
0.0151865
0.0164508
0.0177669
0.0191339
0.0205504
0.0220152
0.0235272
0.0250849
0.0266869
0.0283316
0.0300172
0.0317417
0.0335033
0.0352998
0.0371289
0.0389884
0.0408758
0.0427884
0.0447241
0.0466799
0.0486537
0.0506428
0.0526448
0.000227575
0.000495786
0.000965463
0.00149186
0.00206735
0.00267437
0.00330052
0.00393738
0.00458029
0.00522787
0.00588189
0.00654691
0.00723093
0.00794633
0.008712
0.00955241
0.0104796
0.0114841
0.0125553
0.0136869
0.0148748
0.0161168
0.0174113
0.0187569
0.0201526
0.0215973
0.0230897
0.0246288
0.026213
0.0278408
0.0295107
0.0312208
0.0329691
0.0347537
0.0365723
0.0384228
0.0403026
0.0422094
0.0441406
0.0460938
0.048066
0.0500547
0.0520549
0.000226815
0.000488413
0.000947564
0.00146221
0.00202583
0.0026217
0.00323785
0.00386595
0.00450113
0.00514158
0.00578842
0.00644548
0.00711955
0.00782157
0.00856807
0.00938195
0.0102807
0.0112594
0.0123068
0.0134157
0.0145817
0.0158023
0.0170758
0.0184009
0.0197764
0.0212014
0.0226749
0.0241957
0.0257623
0.0273735
0.0290277
0.0307232
0.0324581
0.0342305
0.0360383
0.0378793
0.0397511
0.0416513
0.0435775
0.0455271
0.0474977
0.0494863
0.0514909
0.00022612
0.000481724
0.000931129
0.00143479
0.00198718
0.00257243
0.00317895
0.00379849
0.00442606
0.00505959
0.00569953
0.00634906
0.00701416
0.00770434
0.00843414
0.0092245
0.0100961
0.0110495
0.0120736
0.0131606
0.0143055
0.0155055
0.0167587
0.0180639
0.01942
0.020826
0.0222809
0.0237836
0.025333
0.0269278
0.0285664
0.0302473
0.0319687
0.0337288
0.0355255
0.0373566
0.03922
0.0411131
0.0430338
0.0449794
0.0469478
0.0489368
0.0509459
0.000225481
0.000475582
0.000915969
0.00140935
0.00195117
0.00252624
0.00312343
0.00373467
0.00435486
0.00498152
0.00561483
0.00625732
0.00691418
0.00759372
0.00830883
0.00907848
0.00992444
0.0108529
0.0118545
0.0129202
0.0140446
0.0152248
0.0164585
0.0177444
0.0190816
0.0204691
0.0219058
0.0233911
0.0249236
0.0265021
0.0281253
0.0297917
0.0314996
0.0332472
0.0350324
0.0368535
0.0387079
0.0405938
0.0425083
0.0444497
0.0464153
0.0484036
0.0504131
0.000224894
0.000469982
0.000901953
0.00138568
0.00191746
0.00248281
0.00307101
0.00367419
0.00428712
0.00490714
0.00553405
0.00616987
0.00681907
0.00748899
0.00819111
0.00894243
0.00976447
0.0106688
0.0116481
0.0126932
0.0137979
0.0149587
0.0161735
0.0174409
0.0187598
0.0201292
0.0215485
0.0230166
0.0245325
0.026095
0.027703
0.029355
0.0310493
0.0327843
0.0345582
0.0363689
0.0382142
0.0400922
0.0420005
0.0439368
0.0458991
0.0478854
0.049895
0.000224351
0.000464838
0.000888978
0.00136364
0.00188593
0.00244199
0.00302152
0.00361685
0.00422267
0.00483625
0.00545693
0.00608635
0.00672835
0.00738954
0.00808004
0.00881506
0.00961522
0.010496
0.0114536
0.0124785
0.013564
0.0147062
0.0159027
0.0171521
0.0184533
0.0198053
0.0212074
0.0226588
0.0241584
0.0257053
0.0272982
0.0289358
0.0306167
0.0323392
0.0341015
0.0359016
0.0377377
0.0396076
0.041509
0.0434398
0.0453978
0.0473807
0.0493847
0.000223853
0.000460128
0.000876952
0.00134309
0.00185637
0.00240355
0.00297474
0.0035624
0.00416134
0.00476857
0.00538322
0.0060065
0.00664177
0.00729483
0.00797477
0.00869533
0.00947567
0.0103337
0.01127
0.0122752
0.013342
0.0144662
0.0156451
0.0168769
0.0181609
0.019496
0.0208814
0.0223164
0.0238002
0.0253316
0.0269097
0.0285333
0.0302007
0.0319106
0.0336612
0.0354508
0.0372773
0.0391388
0.0410331
0.042958
0.0449112
0.0468906
0.0488941
0.000223385
0.000455738
0.000865741
0.00132384
0.00182857
0.00236726
0.0029304
0.00351067
0.00410287
0.00470385
0.00531265
0.00593005
0.00655894
0.00720448
0.00787485
0.00858238
0.00934474
0.0101811
0.0110965
0.0120824
0.013131
0.0142376
0.0153993
0.0166144
0.0178816
0.0192002
0.0205694
0.0219885
0.0234567
0.024973
0.0265365
0.0281461
0.0298002
0.0314976
0.0332367
0.0350155
0.0368323
0.0386852
0.0405719
0.0424904
0.0444384
0.0464134
0.0484131
0.000222936
0.000451662
0.000855273
0.0013058
0.0018024
0.00233297
0.00288836
0.00346145
0.00404704
0.00464203
0.00524505
0.00585678
0.00647955
0.0071181
0.0077797
0.00847544
0.00922158
0.0100376
0.0109324
0.0118993
0.0129302
0.0140197
0.0151647
0.0163634
0.0176145
0.018917
0.0202705
0.021674
0.023127
0.0246285
0.0261777
0.0277734
0.0294145
0.0310994
0.0328268
0.0345948
0.0364019
0.0382459
0.0401248
0.0420364
0.0439785
0.0459486
0.0479435
0.000222523
0.00044792
0.000845512
0.00128888
0.00177776
0.00230056
0.00284848
0.00341457
0.00399379
0.00458285
0.00518033
0.00578647
0.00640347
0.00703537
0.00768881
0.00837389
0.0091054
0.00990229
0.010777
0.0117253
0.0127388
0.0138117
0.0149406
0.0161233
0.0173586
0.0186456
0.0199837
0.021372
0.0228102
0.0242972
0.0258323
0.0274144
0.0290425
0.0307151
0.0324307
0.0341881
0.0359851
0.03782
0.0396909
0.0415954
0.043531
0.0454951
0.0474834
0.000222138
0.000444413
0.000836366
0.00127297
0.00175449
0.00226984