/*--------------------------------*- C++ -*----------------------------------*\
| =========                 |                                                 |
| \\      /  F ield         | OpenFOAM: The Open Source CFD Toolbox           |
|  \\    /   O peration     | Version:  2.3.0                                 |
|   \\  /    A nd           | Web:      www.OpenFOAM.org                      |
|    \\/     M anipulation  |                                                 |
\*---------------------------------------------------------------------------*/
FoamFile
{
    version     2.0;
    format      ascii;
    class       surfaceScalarField;
    location    "9000";
    object      phi;
}
// * * * * * * * * * * * * * * * * * * * * * * * * * * * * * * * * * * * * * //

dimensions      [0 3 -1 0 0 0 0];

internalField   nonuniform List<scalar> 
27882
(
-0.0109641
-0.0115204
0.0127848
0.00970023
-0.0120623
-0.0105052
0.0116033
-0.0130003
-0.00958213
0.0105201
-0.0138031
-0.00873207
0.00953486
-0.0144805
-0.0079585
0.00863594
-0.0150448
-0.00724633
0.00781059
-0.0155087
-0.00659293
0.00705687
-0.0158737
-0.00599631
0.00636123
-0.0161466
-0.00544607
0.00571905
-0.0163268
-0.00494041
0.00512052
-0.0164166
-0.00447255
0.00456237
-0.016415
-0.00404129
0.00403976
-0.0163241
-0.00364081
0.00354987
-0.0161486
-0.00326773
0.00309221
-0.0158953
-0.00291876
0.00266548
-0.015571
-0.00259398
0.00226972
-0.0151868
-0.00229098
0.00190676
-0.0147569
-0.00200346
0.00157357
-0.0142908
-0.00173749
0.00127138
-0.013803
-0.00148516
0.00099735
-0.0133008
-0.00125065
0.000748444
-0.0127998
-0.0010354
0.000534445
-0.0123311
-0.000836931
0.000368164
-0.000660004
-0.0120064
0.000335377
-0.0098008
-0.0104168
0.00869715
-0.0107394
-0.0095666
-0.0115377
-0.00878383
-0.0122009
-0.00806887
-0.0127458
-0.00741356
-0.0131819
-0.00681023
-0.0135204
-0.0062544
-0.013771
-0.00574572
-0.0139429
-0.00527416
-0.0140433
-0.00484009
-0.0140767
-0.00443908
-0.0140518
-0.00406625
-0.0139693
-0.00372327
-0.0138345
-0.00340253
-0.0136474
-0.00310587
-0.0134116
-0.00282979
-0.0131273
-0.00257531
-0.012793
-0.00233769
-0.0124109
-0.00211959
-0.0119768
-0.00191929
-0.0114891
-0.00173841
-0.010949
-0.0015754
-0.0103559
-0.00143006
-0.00130514
-0.00971079
-0.00875691
-0.00945557
0.00779573
-0.0095748
-0.00874871
-0.010261
-0.00809767
-0.0108256
-0.00750425
-0.0112838
-0.00695531
-0.0116419
-0.00645212
-0.011908
-0.00598831
-0.0120929
-0.0055609
-0.0122004
-0.00516665
-0.012241
-0.00479945
-0.0122185
-0.00446159
-0.0121366
-0.00414812
-0.0120057
-0.00385419
-0.0118247
-0.00358358
-0.0116012
-0.00332931
-0.0113372
-0.00309383
-0.0110391
-0.00287336
-0.0107063
-0.00267049
-0.010346
-0.00247994
-0.00995916
-0.00230612
-0.00954963
-0.00214794
-0.00912221
-0.00200283
-0.00867597
-0.00187629
-0.0017637
-0.00821741
-0.00783162
-0.00860883
0.00698488
-0.0085486
-0.00803173
-0.00914356
-0.00750271
-0.00963389
-0.00701392
-0.0100239
-0.00656526
-0.0103252
-0.0061509
-0.0105465
-0.00576696
-0.0106949
-0.00541255
-0.0107785
-0.00508299
-0.010798
-0.00477991
-0.0107632
-0.00449643
-0.0106804
-0.0042309
-0.010549
-0.00398565
-0.0103782
-0.0037544
-0.0101686
-0.00353891
-0.0099243
-0.00333808
-0.00965006
-0.00314759
-0.00934798
-0.00297258
-0.00901887
-0.00280905
-0.0086681
-0.00265689
-0.00829771
-0.00251832
-0.00790934
-0.0023912
-0.0075077
-0.00227794
-0.0021765
-0.0070949
-0.00701166
-0.00786353
0.00626636
-0.00763999
-0.0074034
-0.00816458
-0.00697812
-0.00859199
-0.00658651
-0.00893228
-0.00622498
-0.00919426
-0.00588892
-0.00938278
-0.00557844
-0.0095054
-0.00528993
-0.00956469
-0.00502371
-0.00957305
-0.00477155
-0.00953383
-0.00453564
-0.00944745
-0.00431728
-0.00932191
-0.00411119
-0.00915897
-0.00391734
-0.00896388
-0.003734
-0.0087401
-0.00356187
-0.00848678
-0.00340091
-0.00821144
-0.00324792
-0.00791606
-0.00310443
-0.00760005
-0.0029729
-0.00726927
-0.00284911
-0.0069244
-0.00273607
-0.00656811
-0.00263423
-0.00254195
-0.00620266
-0.00628159
-0.00719954
0.00561759
-0.00684147
-0.00684352
-0.00730377
-0.00651581
-0.00768247
-0.00620781
-0.00798254
-0.0059249
-0.0082099
-0.00566156
-0.008372
-0.00541634
-0.00847807
-0.00518385
-0.00853142
-0.00497036
-0.0085333
-0.00476967
-0.00849037
-0.00457857
-0.00841056
-0.00439709
-0.00829448
-0.00422728
-0.00814562
-0.00406619
-0.0079674
-0.00391221
-0.00776203
-0.00376724
-0.00753377
-0.00362917
-0.00728422
-0.00349747
-0.007015
-0.00337365
-0.00673079
-0.00325711
-0.00643092
-0.00314897
-0.00611956
-0.00304744
-0.00579774
-0.00295605
-0.00287283
-0.00546686
-0.00563616
-0.00660676
0.00504339
-0.00613295
-0.00634673
-0.00654881
-0.00609995
-0.00688283
-0.0058738
-0.0071483
-0.00565942
-0.00735011
-0.00545976
-0.00749533
-0.00527113
-0.00758422
-0.00509497
-0.00762855
-0.00492603
-0.00763035
-0.00476786
-0.00759158
-0.00461734
-0.0075171
-0.00447158
-0.00740959
-0.00433478
-0.00727341
-0.00420238
-0.0071111
-0.00407452
-0.00692504
-0.0039533
-0.00671827
-0.00383594
-0.00649207
-0.00372367
-0.00624941
-0.00361631
-0.00599061
-0.00351591
-0.00572063
-0.00341895
-0.00543756
-0.0033305
-0.00514634
-0.00324727
-0.00317155
-0.00484761
-0.00506258
-0.00607983
0.00453565
-0.00550936
-0.00589996
-0.00587866
-0.00573065
-0.00617828
-0.00557418
-0.00641638
-0.00542131
-0.00659719
-0.00527895
-0.00672577
-0.00514254
-0.00680707
-0.00501367
-0.00684396
-0.00488915
-0.00684133
-0.00477049
-0.00680658
-0.0046521
-0.00673679
-0.00454136
-0.00664004
-0.00443153
-0.00651615
-0.00432627
-0.00636905
-0.00422162
-0.00620132
-0.00412103
-0.00601249
-0.00402477
-0.00580776
-0.0039284
-0.00558684
-0.00383723
-0.00535409
-0.00374866
-0.00510787
-0.00366517
-0.00485217
-0.00358621
-0.00458824
-0.00351121
-0.00344416
-0.00431563
-0.00455478
-0.00560424
0.00407919
-0.0049539
-0.00550084
-0.00528389
-0.00540066
-0.00555669
-0.00530137
-0.00576832
-0.00520968
-0.00593071
-0.00511656
-0.00604388
-0.00502938
-0.00611575
-0.00494179
-0.00615083
-0.00485406
-0.00615087
-0.00477045
-0.00611495
-0.00468801
-0.00605499
-0.00460132
-0.00596489
-0.00452164
-0.00585266
-0.0044385
-0.00571856
-0.00435572
-0.00556598
-0.00427361
-0.00539696
-0.0041938
-0.00520973
-0.00411563
-0.00501042
-0.00403653
-0.00479829
-0.0039608
-0.00457543
-0.00388803
-0.00434308
-0.00381855
-0.00410194
-0.00375235
-0.00369035
-0.00385575
-0.0040997
0.00367311
-0.00517766
-0.0044607
-0.00513984
-0.00476102
-0.00510035
-0.00500354
-0.00505885
-0.00519635
-0.00501687
-0.0053407
-0.00497221
-0.00544551
-0.00492457
-0.0055097
-0.0048776
-0.00553792
-0.00482584
-0.0055366
-0.00477178
-0.00550738
-0.00471723
-0.00545092
-0.00465778
-0.00537027
-0.00460229
-0.00526678
-0.00454198
-0.00514679
-0.00447571
-0.00500934
-0.00441106
-0.00485411
-0.00434903
-0.00468508
-0.00428467
-0.00450278
-0.00421883
-0.00431012
-0.00415346
-0.00410704
-0.0040911
-0.00389492
-0.00403067
-0.00367649
-0.00397078
-0.00345208
-0.00391476
-0.010818
-0.000569893
-0.00061857
-0.00989699
-0.000589768
-0.000331229
-0.00908759
-0.000641131
-0.000168269
-0.00834594
-0.000712924
-2.87256e-05
-0.00765476
-0.000800604
0.000109418
-0.00700633
-0.00090485
0.000256414
-0.00639617
-0.00102394
0.00041378
-0.00582061
-0.00116202
0.000586454
-0.00528163
-0.00131575
0.00077677
-0.00477912
-0.00148917
0.000986659
-0.00431504
-0.00168294
0.00121886
-0.00389438
-0.00189751
0.00147684
-0.0035209
-0.00213475
0.00176127
-0.00319903
-0.00239666
0.00207479
-0.00293281
-0.00268644
0.00242022
-0.00272786
-0.00300556
0.00280061
-0.0025887
-0.00335787
0.00321871
-0.0025222
-0.00374629
0.00367978
-0.00253403
-0.00417544
0.00418728
-0.00263131
-0.00464962
0.0047469
-0.0028238
-0.00517239
0.00536488
-0.0031212
-0.0057504
0.0060478
-0.00353518
-0.00638856
0.00680254
-0.00709682
0.00763953
-0.00407789
-0.0090362
-0.00124448
-0.00837707
-0.00124889
-0.00774703
-0.00127117
-0.00714975
-0.0013102
-0.00658468
-0.00136568
-0.00605159
-0.00143793
-0.00554808
-0.00152746
-0.00507856
-0.00163153
-0.00464047
-0.00175384
-0.00423572
-0.00189392
-0.00386594
-0.00205272
-0.00353389
-0.00222956
-0.00324021
-0.00242843
-0.00298854
-0.00264832
-0.00278176
-0.00289323
-0.00262411
-0.0031632
-0.00251987
-0.00346212
-0.00247513
-0.00379102
-0.00249706
-0.00415351
-0.00259319
-0.00455349
-0.00277181
-0.00499377
-0.0030436
-0.0054786
-0.00341949
-0.00601267
-0.00660058
-0.00391573
-0.00774897
-0.00171293
-0.00727878
-0.00171908
-0.00681176
-0.0017382
-0.00635359
-0.00176837
-0.00590637
-0.0018129
-0.00547289
-0.00187142
-0.00505787
-0.00194248
-0.00466095
-0.00202846
-0.00428516
-0.00212963
-0.00393398
-0.00224509
-0.00360946
-0.00237723
-0.00331388
-0.00252514
-0.00305202
-0.0026903
-0.00282584
-0.0028745
-0.00264049
-0.00307857
-0.0025001
-0.0033036
-0.00240995
-0.00355226
-0.00237469
-0.00382629
-0.00239967
-0.00412853
-0.00249322
-0.00445994
-0.00266144
-0.00482556
-0.0029129
-0.00522714
-0.00325607
-0.00566949
-0.00615807
-0.00369858
-0.00667994
-0.00212788
-0.00626945
-0.00212957
-0.00586795
-0.0021397
-0.00547496
-0.00216136
-0.00509451
-0.00219335
-0.00472787
-0.00223806
-0.00437622
-0.00229414
-0.00404175
-0.00236292
-0.00372761
-0.00244378
-0.00343467
-0.00253804
-0.00316615
-0.00264575
-0.00292344
-0.00276785
-0.00271032
-0.00290343
-0.00252907
-0.00305574
-0.00238391
-0.00322374
-0.00227778
-0.00340972
-0.00221503
-0.00361502
-0.00220169
-0.00383962
-0.00224196
-0.00408826
-0.00234181
-0.00436009
-0.00250803
-0.00465934
-0.0027481
-0.00498707
-0.00306973
-0.00534786
-0.00574644
-0.00348135
-0.0058357
-0.00249484
-0.00547769
-0.00248758
-0.00512716
-0.00249023
-0.00478573
-0.0025028
-0.00445575
-0.00252333
-0.00413801
-0.0025558
-0.00383435
-0.00259779
-0.00354676
-0.0026505
-0.00327549
-0.00271505
-0.00302436
-0.00278917
-0.00279515
-0.00287496
-0.00258944
-0.00297356
-0.0024098
-0.00308307
-0.00225963
-0.00320591
-0.00214193
-0.00334144
-0.00205991
-0.00349174
-0.00201763
-0.00365731
-0.002019
-0.00383825
-0.00206985
-0.00403741
-0.0021741
-0.00425583
-0.00233837
-0.00449507
-0.00256794
-0.00475751
-0.00287166
-0.00504414
-0.00535797
-0.00326013
-0.00513697
-0.00282472
-0.00481506
-0.00280949
-0.00450125
-0.00280404
-0.00419822
-0.00280582
-0.00390557
-0.00281598
-0.00362557
-0.0028358
-0.00335871
-0.00286466
-0.00310586
-0.00290335
-0.0028713
-0.0029496
-0.00265307
-0.0030074
-0.00245477
-0.00307325
-0.00227958
-0.00314875
-0.00212857
-0.00323408
-0.00200435
-0.00333013
-0.00190946
-0.00343634
-0.00184744
-0.00355375
-0.00182203
-0.00368272
-0.00183597
-0.00382431
-0.00189397
-0.00397941
-0.00200054
-0.00414927
-0.00216077
-0.00433484
-0.00238114
-0.00453715
-0.00266602
-0.00475926
-0.00500089
-0.0030231
-0.00454907
-0.00312327
-0.00425774
-0.00310081
-0.00397617
-0.00308562
-0.00370509
-0.0030769
-0.00344302
-0.00307805
-0.00319354
-0.00308527
-0.00295647
-0.00310173
-0.00273383
-0.003126
-0.00252507
-0.00315836
-0.00233415
-0.00319833
-0.0021625
-0.0032449
-0.00201066
-0.00330059
-0.00188132
-0.00336342
-0.00177675
-0.0034347
-0.00169994
-0.00351315
-0.00165247
-0.00360123
-0.00163876
-0.00369642
-0.00166196
-0.00380111
-0.00172473
-0.00391664
-0.00183143
-0.00404257
-0.00198732
-0.00417896
-0.00219661
-0.00432785
-0.00246536
-0.0044905
-0.00466823
-0.00279802
-0.00404434
-0.00339456
-0.00378078
-0.00336438
-0.00352684
-0.00333955
-0.00328203
-0.00332171
-0.00304736
-0.00331273
-0.00282341
-0.00330922
-0.00261109
-0.00331405
-0.00241215
-0.00332494
-0.00222742
-0.00334309
-0.00205937
-0.00336638
-0.00190733
-0.00339693
-0.00177575
-0.00343217
-0.00166419
-0.00347499
-0.00157604
-0.00352284
-0.00151236
-0.00357683
-0.0014771
-0.00363649
-0.00147224
-0.00370129
-0.00150058
-0.00377277
-0.00156528
-0.00385193
-0.00167056
-0.00393728
-0.00182024
-0.00402928
-0.00201865
-0.00412944
-0.00227058
-0.00423857
-0.00435749
-0.00258132
-0.00360835
-0.00364196
-0.00337018
-0.00360255
-0.00314046
-0.00356927
-0.0029184
-0.00354378
-0.00270697
-0.00352415
-0.00250431
-0.00351188
-0.00231443
-0.00350392
-0.00213629
-0.00350308
-0.00197126
-0.00350812
-0.00182128
-0.00351636
-0.00168787
-0.00353034
-0.00157158
-0.00354846
-0.00147515
-0.00357142
-0.0013991
-0.0035989
-0.00134666
-0.00362927
-0.00132012
-0.00366302
-0.00132198
-0.00369943
-0.00135351
-0.00374124
-0.0014188
-0.00378664
-0.00152061
-0.00383547
-0.00166285
-0.00388704
-0.00185012
-0.00394217
-0.00208546
-0.00400323
-0.00406959
-0.00237336
-0.00322815
-0.00386588
-0.00301167
-0.00381903
-0.00280287
-0.00377807
-0.0026033
-0.00374335
-0.00241029
-0.00371716
-0.00222885
-0.00369332
-0.00205746
-0.00367531
-0.00189662
-0.00366392
-0.00174979
-0.00365495
-0.00161493
-0.00365123
-0.00149639
-0.00364888
-0.00139429
-0.00365056
-0.00130916
-0.00365656
-0.0012434
-0.00366465
-0.00119981
-0.00367287
-0.00118146
-0.00368137
-0.00118709
-0.00369379
-0.00122024
-0.0037081
-0.00128422
-0.00372266
-0.00138093
-0.00373876
-0.00151602
-0.00375195
-0.00169207
-0.00376612
-0.00191047
-0.00378483
-0.00217545
-0.00380462
0.00215784
-0.00192852
0.00209537
-0.0023247
0.00201112
-0.00177066
0.00191738
0.00188923
-0.00159671
0.0017186
0.00179553
-0.00141719
0.0015109
0.00172848
-0.00123608
0.00130313
0.00168635
-0.00105947
0.0011016
0.00166534
-0.000890325
0.000911343
0.00166192
-0.000731306
0.00073472
0.00167062
-0.000582842
0.000574148
0.00168696
-0.000445876
0.000429529
0.00170613
-0.000320959
0.000301793
0.00172358
-0.000206829
0.000189373
0.00173432
-0.000102953
9.22178e-05
0.00173378
-8.27903e-06
8.81919e-06
0.00171676
7.89611e-05
-6.19457e-05
0.00167802
0.000159936
-0.000121191
0.0016116
0.000237089
-0.000170671
0.00151006
0.000313469
-0.000211934
0.00136345
0.000393715
-0.000247098
0.00115833
0.000484196
-0.000279081
0.000874157
0.000595298
-0.000311123
0.00047975
0.000743182
-0.000348775
-7.79382e-05
0.000957392
-0.000399704
0.00129374
-0.000906998
-0.000464678
0.00195778
-0.00177015
-0.00211615
0.00181758
-0.00163047
0.00170081
-0.00147994
0.00160688
-0.00132326
0.00153689
-0.0011661
0.00148833
-0.0010109
0.00145879
-0.000860792
0.00144421
-0.000716725
0.00144071
-0.000579343
0.00144421
-0.000449379
0.00144941
-0.000326155
0.00145223
-0.000209654
0.00144717
-9.7892e-05
0.00142926
9.63423e-06
0.00139308
0.000115144
0.0013323
0.000220708
0.00123972
0.000329673
0.00110743
0.000445763
0.000925891
0.000575249
0.000684266
0.000725821
0.000370241
0.000909322
-2.89279e-05
0.00114235
-0.000514269
0.00144273
0.0018275
-0.00104803
0.00175622
-0.00161779
-0.00190858
0.00162293
-0.00149718
0.0015098
-0.0013668
0.00141806
-0.00123152
0.00134652
-0.00109456
0.00129364
-0.000958026
0.00125675
-0.000823896
0.00123233
-0.000692312
0.00121707
-0.000564078
0.00120705
-0.000439363
0.00119798
-0.000317086
0.00118546
-0.000197135
0.00116547
-7.78965e-05
0.00113284
4.22607e-05
0.00108318
0.000164808
0.0010105
0.000293385
0.000909085
0.000431087
0.000772302
0.000582546
0.000592821
0.00075473
0.000363638
0.000955005
7.7276e-05
0.00119568
-0.000266988
0.00148661
-0.000665198
0.00184094
0.00226197
-0.00109967
0.00156134
-0.00147452
-0.0017046
0.0014347
-0.00137054
0.00132616
-0.00125827
0.00123642
-0.00114178
0.001164
-0.00102213
0.00110799
-0.00090202
0.0010657
-0.000781606
0.00103479
-0.000661397
0.00101242
-0.00054171
0.000994325
-0.000421269
0.000977487
-0.000300248
0.000958035
-0.000177683
0.000932188
-5.20498e-05
0.000895797
7.86519e-05
0.000844241
0.000216364
0.000772974
0.000364652
0.000677269
0.000526792
0.000550678
0.000709137
0.000388938
0.00091647
0.000184649
0.00115929
-6.42052e-05
0.00144454
-0.000362868
0.00178528
-0.000709888
0.00218796
0.00265317
-0.00110108
0.00138025
-0.00134051
-0.00151426
0.00126103
-0.00125132
0.0011583
-0.00115554
0.00107254
-0.00105602
0.00100256
-0.000952153
0.000946618
-0.000846082
0.000903325
-0.000738313
0.000870107
-0.000628179
0.000844035
-0.000515637
0.000822688
-0.000399923
0.000802897
-0.000280458
0.000780867
-0.000155652
0.000753228
-2.44118e-05
0.000716903
0.000114977
0.000667614
0.000265653
0.000601741
0.000430525
0.000514291
0.000614242
0.000401347
0.00082208
0.000256534
0.00106128
7.70327e-05
0.00133879
-0.000143746
0.00166532
-0.000406949
0.00204848
-0.000716484
0.0024975
0.00301123
-0.00107454
0.00121408
-0.00121505
-0.00133954
0.00110424
-0.00114148
0.0010094
-0.00106069
0.000929196
-0.000975815
0.000863064
-0.00088602
0.000809614
-0.000792633
0.00076667
-0.000695369
0.000733295
-0.000594804
0.000707037
-0.00048938
0.000685341
-0.000378227
0.000664748
-0.000259864
0.000642657
-0.000133561
0.000615927
2.31785e-06
0.000581308
0.000149596
0.000535649
0.000311311
0.000475262
0.000490912
0.000396444
0.00069306
0.000294959
0.000923566
0.00016693
0.00118931
6.27668e-06
0.00149945
-0.000189698
0.00186129
-0.00042731
0.00228609
-0.000708792
0.00277898
0.00333743
-0.001035
0.00106657
-0.00110067
-0.00118095
0.000965899
-0.00104082
0.000878931
-0.000973727
0.000805073
-0.000901958
0.000744084
-0.000825031
0.00069408
-0.000742628
0.000653593
-0.000654882
0.000621005
-0.000562215
0.00059574
-0.000464116
0.000574924
-0.00035741
0.000555715
-0.000240656
0.000534753
-0.000112599
0.000509606
2.74651e-05
0.000477346
0.000181856
0.00043542
0.000353237
0.000380238
0.000546094
0.000309132
0.000764165
0.000217909
0.00101479
0.000102753
0.00130447
-4.02264e-05
0.00164243
-0.000217544
0.00203861
-0.000432368
0.00250092
-0.000686489
0.0030331
0.00363715
-0.000986208
0.000936495
-0.00099654
-0.00104062
0.000845109
-0.000949431
0.000766182
-0.000894799
0.00069894
-0.000834717
0.000642953
-0.000769045
0.000597212
-0.000696887
0.000559912
-0.000617582
0.000529271
-0.000531575
0.000504932
-0.000439776
0.000485867
-0.000338345
0.000468561
-0.00022335
0.000449602
-9.364e-05
0.000426266
5.08006e-05
0.000396686
0.000211436
0.000358213
0.000391709
0.000307336
0.000596971
0.000242431
0.00082907
0.000160289
0.00109693
5.74412e-05
0.00140732
-7.22831e-05
0.00177215
-0.000233125
0.00219945
-0.000427643
0.00269543
-0.000661767
0.00326722
0.00390917
-0.000933786
0.00082253
-0.000902926
-0.000916145
0.000739843
-0.000866743
0.000668557
-0.000823513
0.000608348
-0.000774508
0.000558186
-0.000718882
0.000516779
-0.00065548
0.000482898
-0.000583702
0.000453669
-0.000502346
0.000430618
-0.000416725
0.000413356
-0.000321082
0.000399311
-0.000209305
0.00038283
-7.71586e-05
0.000361934
7.16963e-05
0.000334578
0.000238792
0.000299963
0.000426324
0.000252981
0.000643953
0.000193486
0.000888565
0.000118959
0.00117146
2.60691e-05
0.00150021
-8.98733e-05
0.00188809
-0.000236653
0.00234623
-0.000417109
0.00287589
-0.000627745
0.00347786
0.00415741
-0.000875984
0.000722873
-0.000817676
-0.000808123
0.000648736
-0.000792606
0.000584399
-0.000759175
0.000529088
-0.000719197
0.00048327
-0.000673064
0.00044572
-0.000617931
0.000415399
-0.000553381
0.000387095
-0.000474042
0.00036489
-0.00039452
0.000346955
-0.000303148
0.000336215
-0.000198565
0.000322191
-6.3135e-05
0.00030345
9.04375e-05
0.000277053
0.000265189
0.000245377
0.000458001
0.000201389
0.000687942
0.000146875
0.000943078
7.74209e-05
0.00124091
-5.34529e-06
0.00158297
-0.000105908
0.00198866
-0.000239198
0.00247952
-0.000410158
0.00304685
-0.000607233
0.00367493
-0.000829529
0.00437971
-0.0012878
0.00191299
-0.00153219
-0.00186121
0.00251649
-0.00194308
-0.00250321
0.00290023
-0.00225823
-0.00313888
0.00318261
-0.00254695
-0.00374425
0.00344927
-0.00284389
-0.00431426
0.0037213
-0.00315129
-0.00484258
0.00400395
-0.00347564
-0.00531641
0.00429551
-0.00382168
-0.00573271
0.0046066
-0.0041903
-0.00608509
0.00493247
-0.00458009
-0.0063702
0.00528355
-0.00499844
-0.00658209
0.00565721
-0.00544533
-0.0067174
0.00606298
-0.00592766
-0.00677026
0.00649641
-0.00644355
-0.0067323
0.00696613
-0.0070041
-0.00660107
0.0074754
-0.00760663
-0.00636807
0.00802522
-0.00825822
-0.00602702
0.00862077
-0.00896182
-0.00557158
0.00926728
-0.00972272
-0.00499055
0.00996656
-0.0105476
-0.00427517
0.0107233
-0.0114387
-0.00341577
0.0115443
-0.0124037
-0.00240211
0.0124366
-0.0134503
0.0134026
-0.0145806
-0.00122417
-0.00149455
0.00235951
-0.00199427
0.0030162
-0.00257469
0.00348065
-0.0031521
0.00376002
-0.00369629
0.00399345
-0.00420248
0.00422749
-0.00466049
0.00446196
-0.00507376
0.00470878
-0.00543142
0.00496427
-0.00573456
0.00523562
-0.00597584
0.00552483
-0.00615323
0.0058346
-0.00625911
0.00616886
-0.00629347
0.00653076
-0.00624921
0.00692188
-0.00612225
0.00734844
-0.00590262
0.00780559
-0.00558608
0.00830423
-0.00516298
0.00884417
-0.00462866
0.00943225
-0.00397267
0.0100673
-0.00318516
0.0107568
-0.00225712
0.0115086
0.0123179
-0.00117237
-0.00154689
0.00280673
-0.00200208
0.0034714
-0.00251847
0.00399703
-0.00303767
0.00427923
-0.00353008
0.00448586
-0.00398123
0.00467864
-0.0043947
0.00487542
-0.00475892
0.005073
-0.00507404
0.00527939
-0.00533917
0.00550074
-0.00554998
0.00573564
-0.00570373
0.00598835
-0.0057953
0.00626043
-0.00582196
0.00655742
-0.00577711
0.00687703
-0.00565275
0.00722408
-0.00544926
0.0076021
-0.00515726
0.00801223
-0.00477054
0.00845745
-0.00427818
0.00893989
-0.00367982
0.00946897
-0.00295899
0.010036
-0.00211016
0.0106597
0.011329
-0.00112126
-0.00152418
0.00322983
-0.00195648
0.0039037
-0.00241612
0.00445667
-0.0028882
0.00475131
-0.00332698
0.00492464
-0.0037333
0.00508496
-0.00409821
0.00524032
-0.00442383
0.00539862
-0.00470607
0.00556164
-0.00494171
0.00573638
-0.00512942
0.00592335
-0.00526474
0.00612366
-0.00534396
0.00633965
-0.00536336
0.00657682
-0.00531921
0.00683289
-0.00520484
0.00710971
-0.00501701
0.00741426
-0.00474881
0.00774403
-0.00439458
0.00810321
-0.00394906
0.00849438
-0.00339907
0.00891898
-0.00274154
0.00937848
-0.00196619
0.00988438
0.0104263
-0.00106356
-0.00146822
0.00362351
-0.00187221
0.00430768
-0.00229346
0.00487792
-0.0027138
0.00517165
-0.00311337
0.00532422
-0.00347535
0.00544695
-0.00380258
0.00556755
-0.00409212
0.00568816
-0.00434427
0.00581379
-0.00455534
0.00594744
-0.00472119
0.00608921
-0.00484294
0.00624541
-0.00491407
0.00641078
-0.00492806
0.00659081
-0.00488526
0.00679009
-0.00478444
0.00700889
-0.00461242
0.00724224
-0.00436739
0.00749901
-0.00404348
0.0077793
-0.00363421
0.00808511
-0.00313323
0.00841801
-0.00253598
0.00878123
-0.0018268
0.0091752
0.00960414
-0.0010046
-0.0013977
0.00398621
-0.00177227
0.00468224
-0.00215339
0.00525904
-0.00253682
0.00555507
-0.00288992
0.00567732
-0.00321818
0.0057752
-0.00351057
0.00585994
-0.00377241
0.00595
-0.00399843
0.00603981
-0.00418871
0.00613773
-0.00433705
0.00623755
-0.00444372
0.00635208
-0.00450509
0.00647216
-0.00452139
0.0066071
-0.00448176
0.00675046
-0.00438615
0.00691327
-0.00422837
0.00708446
-0.00400684
0.00727747
-0.00371289
0.00748536
-0.00334026
0.00771247
-0.00288342
0.00796116
-0.00233779
0.0082356
-0.001693
0.0085304
0.00885312
-0.000941983
-0.00131819
0.0043182
-0.00166645
0.0050305
-0.00201311
0.00560571
-0.00235623
0.00589819
-0.00267593
0.00599702
-0.00296664
0.00606592
-0.00323204
0.00612534
-0.00346616
0.00618412
-0.00367143
0.00624508
-0.0038396
0.0063059
-0.00397549
0.00637343
-0.0040704
0.006447
-0.00412717
0.00652893
-0.00413941
0.00661934
-0.0041046
0.00671566
-0.00401454
0.00682321
-0.00387395
0.00694387
-0.00366949
0.00707301
-0.00340169
0.00721757
-0.00306448
0.00737525
-0.00265089
0.00754758
-0.00215084
0.00773555
-0.00156514
0.0079447
0.00816854
-0.000880564
-0.00123987
0.00462428
-0.00155657
0.0053472
-0.00187476
0.0059239
-0.00217982
0.00620326
-0.00246651
0.00628371
-0.00273054
0.00632995
-0.00296798
0.00636277
-0.00318119
0.00639733
-0.00336255
0.00642644
-0.00351615
0.00645949
-0.00363807
0.00649535
-0.00372647
0.0065354
-0.00377669
0.00657915
-0.00378481
0.00662746
-0.00375338
0.00668422
-0.00367549
0.00674532
-0.00354515
0.00681353
-0.00336014
0.006888
-0.00311636
0.00697379
-0.00280703
0.00706592
-0.00243129
0.00717184
-0.00197944
0.00728371
-0.00144373
0.00740899
0.00754694
-0.000822124
-0.00115434
0.00490263
-0.00144687
0.00563973
-0.00173442
0.00621144
-0.00200882
0.00647766
-0.00226902
0.00654391
-0.00250557
0.0065665
-0.00272008
0.00657728
-0.00290984
0.00658709
-0.00307654
0.00659315
-0.00321605
0.006599
-0.00332657
0.00660587
-0.00340596
0.00661478
-0.0034502
0.00662339
-0.00346153
0.00663879
-0.00343046
0.00665316
-0.00335638
0.00667124
-0.00323856
0.00669571
-0.00307299
0.00672243
-0.00285061
0.00675141
-0.0025717
0.00678701
-0.00222602
0.00682616
-0.00181578
0.00687346
-0.00133055
0.00692376
0.00697943
-0.000763049
-0.00108546
0.00515856
-0.0013565
0.00591078
-0.00160729
0.00646223
-0.00184889
0.00671926
-0.00207986
0.00677488
-0.00229357
0.00678021
-0.00248936
0.00677307
-0.00266202
0.00675974
-0.00281253
0.00674366
-0.00293872
0.0067252
-0.0030374
0.00670455
-0.00310728
0.00668466
-0.00315047
0.00666658
-0.00315801
0.00664633
-0.00313012
0.00662526
-0.00306607
0.00660718
-0.00295879
0.00658843
-0.00280601
0.00656965
-0.00260699
0.00655239
-0.00235214
0.00653215
-0.00204198
0.00651601
-0.00166605
0.00649753
-0.00122418
0.00648189
-0.000707842
0.0064631
0.00113873
-0.000803357
0.00209311
-0.000586212
0.00303262
-0.000405065
0.00399418
-0.000213121
0.00498091
1.06219e-05
0.00596625
0.00028604
0.00692587
0.000613951
0.00783397
0.000998666
0.00866357
0.00144012
0.00939528
0.00193377
0.0100112
0.00247632
0.0104994
0.00306165
0.0108556
0.00368354
0.0110791
0.00433889
0.0111794
0.00502023
0.0111715
0.00572691
0.0110752
0.00645751
0.0109127
0.00721941
0.0107047
0.0080186
0.0104731
0.0088675
0.0102286
0.00977936
0.00998048
0.0107683
0.00973603
0.0118478
0.013025
0.0094958
-0.000182291
-0.000621066
-5.86918e-05
-0.000709811
0.000250846
-0.000714601
0.000709391
-0.000671666
0.00129867
-0.000578653
0.00200885
-0.000424139
0.00282812
-0.000205324
0.00374132
8.54656e-05
0.00472435
0.000457086
0.00574012
0.000918005
0.00674673
0.00146971
0.00769943
0.00210894
0.00855514
0.00282784
0.00928052
0.00361351
0.00984994
0.00445081
0.0102532
0.00532367
0.0104902
0.00622051
0.0105816
0.00712803
0.0105504
0.00804976
0.0104292
0.0089887
0.0102474
0.00996119
0.0100307
0.010985
0.00979632
0.0120821
0.0132637
0.00955762
-2.63887e-05
-0.000594678
-5.15813e-05
-0.00068462
-4.26498e-05
-0.000723532
1.82409e-05
-0.000732557
0.000152534
-0.000712945
0.000388318
-0.000659922
0.000749433
-0.000566439
0.001255
-0.000420098
0.00191538
-0.000203299
0.00272694
0.000106451
0.00366943
0.000527216
0.00470323
0.00107514
0.00577659
0.00175448
0.00682913
0.00256097
0.00779975
0.00348019
0.00863318
0.00449024
0.00929269
0.005561
0.009755
0.00666572
0.0100264
0.0077784
0.0101288
0.00888622
0.0100977
0.00999233
0.00997032
0.0111123
0.00978999
0.0122625
0.0134838
0.00956995
-3.27945e-05
-0.000561883
-3.75985e-05
-0.000679816
-2.09153e-05
-0.000740215
2.03525e-05
-0.000773826
9.27334e-05
-0.000785326
0.000206111
-0.0007733
0.000372305
-0.000732632
0.000608242
-0.000656035
0.000935864
-0.00053092
0.00138179
-0.000339476
0.0019684
-5.93907e-05
0.00270907
0.000334465
0.0035963
0.000867257
0.00459795
0.00155933
0.00565985
0.00241828
0.00671247
0.00343763
0.00767982
0.00459365
0.00849763
0.0058479
0.00911808
0.00715795
0.00952471
0.00847959
0.00973004
0.009787
0.00977368
0.0110687
0.00969507
0.0123411
0.01364
0.00953884
-6.22164e-06
-0.000555661
-8.81057e-06
-0.000677228
-3.4674e-06
-0.000745558
1.30686e-05
-0.000790362
4.58001e-05
-0.000818057
0.000100923
-0.000828423
0.000186163
-0.000817872
0.000311145
-0.000781017
0.00049026
-0.000710035
0.000742609
-0.000591823
0.00109191
-0.000408696
0.00156451
-0.000138127
0.00218275
0.00024901
0.00295722
0.000784866
0.00387627
0.00149923
0.00490181
0.00241209
0.00597014
0.00352532
0.00699805
0.00482
0.00790488
0.00625112
0.00862241
0.00776206
0.00911751
0.0092919
0.00939217
0.010794
0.00947768
0.0122556
0.0136855
0.00943216
-1.24319e-05
-0.000543228
-1.48129e-05
-0.000674846
-9.21361e-06
-0.000751157
5.08093e-06
-0.000804656
3.06648e-05
-0.000843641
7.03549e-05
-0.000868113
0.000128762
-0.000876279
0.00021155
-0.000863805
0.000326664
-0.000825149
0.000486386
-0.000751545
0.000706762
-0.000629071
0.00100783
-0.000439196
0.00141455
-0.000157708
0.00195309
0.000246326
0.00264367
0.000808651
0.00348925
0.00156651
0.00446575
0.00254881
0.00551784
0.00376791
0.00656259
0.00520636
0.00750821
0.00681644
0.00827377
0.00852634
0.00881106
0.0102568
0.00911777
0.0119489
0.0135795
0.00922383
-5.25353e-06
-0.000537973
-5.86252e-06
-0.000674236
-1.24778e-06
-0.000755772
9.27161e-06
-0.000815175
2.69942e-05
-0.000861363
5.47063e-05
-0.000895825
9.49594e-05
-0.000916532
0.000152325
-0.000921171
0.000231519
-0.000904343
0.000340304
-0.00086033
0.000489727
-0.000778494
0.000694633
-0.000644102
0.000973744
-0.000436819
0.00135076
-0.00013069
0.00185097
0.000308439
0.00249785
0.000919643
0.00330004
0.00174662
0.00424341
0.00282454
0.00527795
0.00417183
0.00632231
0.00577208
0.00727774
0.00757091
0.00805412
0.00948037
0.00859688
0.0114061
0.0132727
0.00890368
-5.36901e-06
-0.000532602
-5.52962e-06
-0.000674073
-1.10823e-06
-0.000760193
8.17789e-06
-0.000824461
2.32622e-05
-0.000876448
4.55048e-05
-0.000918068
7.75004e-05
-0.000948528
0.000121412
-0.000965082
0.00018139
-0.000964322
0.000261961
-0.000940901
0.000370713
-0.000887246
0.000518251
-0.00079164
0.000718735
-0.000637303
0.000990103
-0.000402058
0.00135534
-5.67985e-05
0.00183947
0.00043551
0.00246686
0.00111923
0.00324899
0.0020424
0.00417508
0.00324574
0.00519715
0.00475002
0.0062316
0.00653646
0.00717455
0.00853743
0.00793525
0.0106454
0.0127535
0.00845437
-3.2846e-06
-0.000529316
-2.52594e-06
-0.000674829
1.75594e-06
-0.000764475
9.76742e-06
-0.000832471
2.2693e-05
-0.000889374
4.1141e-05
-0.000936515
6.68546e-05
-0.000974242
0.000101916
-0.00100014
0.000148841
-0.00101125
0.000211391
-0.00100345
0.000294708
-0.000970562
0.000406268
-0.0009032
0.000556806
-0.000787842
0.00076007
-0.000605321
0.00103418
-0.000330908
0.00140145
6.82416e-05
0.00188724
0.000633443
0.002515
0.00141464
0.00329669
0.00246405
0.0042203
0.00382641
0.00523642
0.00552033
0.00625583
0.00751802
0.00717082
0.0097304
0.0120363
0.00788802
-2.07039e-06
-0.000527243
-1.32416e-06
-0.000675573
2.84001e-06
-0.000768639
1.07229e-05
-0.000840353
2.20395e-05
-0.000900691
3.83498e-05
-0.000952825
6.01547e-05
-0.000996047
8.95307e-05
-0.00102952
0.000128513
-0.00105023
0.000179428
-0.00105437
0.000246132
-0.00103727
0.000334156
-0.000991224
0.000451279