/*--------------------------------*- C++ -*----------------------------------*\
| =========                 |                                                 |
| \\      /  F ield         | OpenFOAM: The Open Source CFD Toolbox           |
|  \\    /   O peration     | Version:  2.3.0                                 |
|   \\  /    A nd           | Web:      www.OpenFOAM.org                      |
|    \\/     M anipulation  |                                                 |
\*---------------------------------------------------------------------------*/
FoamFile
{
    version     2.0;
    format      ascii;
    class       volScalarField;
    location    "8000";
    object      nut;
}
// * * * * * * * * * * * * * * * * * * * * * * * * * * * * * * * * * * * * * //

dimensions      [0 2 -1 0 0 0 0];

internalField   nonuniform List<scalar> 
14757
(
0.0560969
0.0529052
0.049787
0.0467596
0.0438362
0.0410302
0.0383586
0.0358413
0.0334984
0.0313456
0.0294045
0.0276937
0.0261875
0.0247424
0.0233123
0.021909
0.0205418
0.0192118
0.0179138
0.0166353
0.0153538
0.0140433
0.0127024
0.0115766
0.0597174
0.0570726
0.0545022
0.0520145
0.0496157
0.04731
0.045102
0.0429967
0.0409985
0.0391123
0.0373437
0.035699
0.0341833
0.0327974
0.0315436
0.0304278
0.0294574
0.0286413
0.027986
0.0274958
0.0271755
0.0270244
0.0270435
0.0272288
0.0629725
0.0607667
0.0586315
0.0565715
0.0545893
0.0526887
0.0508721
0.0491427
0.0475046
0.0459603
0.0445146
0.0431712
0.0419351
0.0408109
0.0398035
0.0389185
0.0381613
0.0375373
0.0370504
0.0367025
0.0364959
0.0364289
0.0364966
0.0366913
0.0658827
0.0640347
0.0622497
0.0605293
0.0588754
0.0572894
0.0557736
0.0543305
0.052963
0.0516735
0.0504658
0.0493435
0.048311
0.0473723
0.0465325
0.045796
0.0451677
0.0446524
0.0442533
0.0439728
0.0438122
0.0437715
0.0438471
0.0440347
0.0684775
0.0669172
0.0654132
0.0639632
0.0625671
0.0612262
0.0599418
0.0587161
0.0575519
0.0564515
0.0554181
0.0544554
0.0535675
0.0527588
0.0520332
0.0513962
0.0508525
0.0504062
0.0500615
0.049821
0.0496869
0.0496598
0.0497377
0.0499182
0.0707725
0.0694521
0.0681761
0.0669418
0.0657497
0.0646004
0.0634952
0.062437
0.0614279
0.0604703
0.0595676
0.0587233
0.0579416
0.0572268
0.0565834
0.0560165
0.0555311
0.055132
0.0548234
0.0546089
0.054491
0.0544715
0.0545494
0.0547232
0.0728068
0.0716812
0.0705888
0.0695283
0.0684989
0.0675008
0.0665364
0.0656082
0.0647194
0.0638722
0.0630698
0.0623157
0.061614
0.0609697
0.0603871
0.0598721
0.0594296
0.0590641
0.0587808
0.0585839
0.0584772
0.0584621
0.0585392
0.0587074
0.0746085
0.0736425
0.0726982
0.0717782
0.0708801
0.0700039
0.0691509
0.0683247
0.0675303
0.0667701
0.0660467
0.0653628
0.0647234
0.064134
0.0635982
0.0631225
0.0627127
0.0623729
0.0621074
0.0619231
0.0618237
0.0618115
0.0618875
0.0620512
0.0762035
0.0753719
0.074545
0.073739
0.0729495
0.0721725
0.0714109
0.0706633
0.0699431
0.0692526
0.0685933
0.0679663
0.0673747
0.0668311
0.0663322
0.0658864
0.0655016
0.0651852
0.0649312
0.0647557
0.0646606
0.0646496
0.0647249
0.0648856
0.0776331
0.0769128
0.0761639
0.0754495
0.0747539
0.0740552
0.0733775
0.0726846
0.0720191
0.071382
0.0707735
0.070201
0.0696438
0.0691471
0.0686763
0.068256
0.0678813
0.0675966
0.0673483
0.0671801
0.0670861
0.0670735
0.0671474
0.0673074
0.0125595
0.014873
0.0163765
0.0178157
0.0193763
0.0211057
0.0230041
0.0250562
0.0272456
0.0295584
0.0319829
0.0345096
0.0371309
0.0398406
0.0426323
0.0454998
0.048437
0.0514375
0.0544942
0.0575994
0.0607454
0.0639237
0.0671261
0.0703592
0.0275632
0.0280584
0.0287402
0.0296125
0.0306726
0.0319128
0.0333227
0.0348898
0.0365994
0.0384385
0.0403949
0.0424564
0.0446131
0.0468559
0.0491768
0.0515688
0.0540255
0.0565409
0.059109
0.0617244
0.0643811
0.0670735
0.0697963
0.0725598
0.0370015
0.0374374
0.0380172
0.0387446
0.039618
0.0406332
0.0417855
0.0430665
0.0444668
0.0459771
0.0475891
0.0492938
0.0510827
0.0529489
0.0548852
0.0568856
0.0589451
0.0610583
0.0632204
0.0654275
0.0676746
0.0699576
0.0722736
0.0746352
0.0443266
0.0447291
0.0452527
0.0458985
0.0466655
0.0475497
0.0485468
0.0496503
0.0508524
0.052146
0.053524
0.0549788
0.056504
0.058094
0.0597428
0.0614453
0.0631972
0.0649944
0.0668331
0.0687104
0.0706229
0.0725676
0.0745419
0.0765541
0.0501963
0.0505756
0.0510616
0.0516543
0.0523518
0.0531497
0.054043
0.0550253
0.0560902
0.0572314
0.0584422
0.0597159
0.0610474
0.0624313
0.0638628
0.0653377
0.0668517
0.0684016
0.0699843
0.0715976
0.0732395
0.0749082
0.076602
0.0783276
0.0549898
0.0553509
0.0558093
0.0563638
0.0570113
0.0577473
0.0585658
0.0594605
0.0604253
0.0614542
0.0625407
0.0636793
0.0648651
0.0660932
0.0673591
0.0686587
0.0699879
0.0713438
0.0727238
0.0741262
0.0755497
0.0769934
0.0784571
0.0799484
0.0589646
0.0593111
0.0597482
0.0602737
0.0608838
0.0615731
0.062335
0.063163
0.0640512
0.0649936
0.0659847
0.0670192
0.0680926
0.0692004
0.0703381
0.0715011
0.072685
0.073887
0.0751048
0.0763374
0.0775839
0.0788436
0.0801168
0.0814105
0.0623007
0.0626354
0.063055
0.0635576
0.0641393
0.064793
0.0655109
0.0662856
0.0671121
0.0679856
0.0689017
0.0698536
0.0708381
0.0718516
0.072889
0.0739442
0.0750124
0.0760906
0.0771771
0.0782717
0.0793738
0.0804824
0.0815972
0.0827226
0.0651284
0.0654537
0.0658579
0.0663416
0.066902
0.067529
0.0682124
0.0689418
0.0697165
0.0705336
0.0713919
0.0722741
0.0731867
0.0741266
0.0750861
0.0760547
0.0770292
0.0780055
0.0789843
0.0799663
0.0809507
0.0819342
0.082918
0.0839012
0.0675417
0.0678608
0.0682488
0.0687157
0.069262
0.0698639
0.0705182
0.0712088
0.0719451
0.072716
0.0735371
0.0743464
0.0752023
0.0760885
0.0769896
0.0778846
0.0787858
0.0796737
0.080563
0.0814548
0.0823469
0.0832242
0.0841049
0.0849601
0.0691572
0.0630061
0.0573984
0.0523071
0.0476936
0.0434943
0.0396491
0.0361082
0.0328294
0.0297791
0.0269318
0.0242671
0.0217722
0.0194395
0.017262
0.015232
0.0133446
0.0116099
0.0100699
0.00881702
0.00772905
0.0066014
0.00534399
0.00384408
0.0702581
0.0647657
0.0597873
0.055287
0.0512127
0.0475056
0.044115
0.0409987
0.0381202
0.0354503
0.0329633
0.0306369
0.0284577
0.0264383
0.0246017
0.0229125
0.021287
0.0196582
0.017985
0.0162481
0.0144253
0.0124757
0.0103467
0.00796846
0.0713678
0.0665416
0.0621685
0.0582243
0.0546578
0.0514233
0.0484818
0.0458009
0.0433517
0.0411108
0.039065
0.0371865
0.0353971
0.0336339
0.0318659
0.0300726
0.0282335
0.0263229
0.0243134
0.0221743
0.0198736
0.0173775
0.0146481
0.0116494
0.0725504
0.068312
0.0644928
0.0610487
0.0579409
0.0551364
0.0526086
0.0503335
0.0482938
0.0464562
0.044718
0.0430049
0.041277
0.0395069
0.0376751
0.0357636
0.0337531
0.031623
0.0293497
0.0269039
0.0242544
0.0213662
0.0182063
0.0147432
0.0737134
0.0700395
0.0667148
0.0637115
0.0610065
0.0585792
0.0564129
0.0544952
0.0527772
0.0511387
0.0495074
0.0478421
0.046117
0.0443134
0.0424134
0.0403998
0.0382535
0.0359538
0.0334749
0.0307884
0.027863
0.0246647
0.0211585
0.0173111
0.0749203
0.0717169
0.0688129
0.066188
0.0638281
0.0617221
0.0598631
0.0582188
0.0566643
0.0551176
0.0535344
0.0518864
0.050153
0.0483161
0.0463585
0.0442621
0.0420068
0.0395698
0.0369246
0.0340421
0.0308895
0.0274316
0.0236307
0.0194531
0.0761039
0.0733124
0.0707698
0.0684673
0.0663987
0.0645616
0.0629506
0.061463
0.0599978
0.0585032
0.0569473
0.0553071
0.0535638
0.0516985
0.0496938
0.0475299
0.0451847
0.0426348
0.0398519
0.0368045
0.033459
0.0297776
0.0257212
0.0212525
0.0772614
0.0748153
0.0725797
0.0705495
0.0687253
0.0671101
0.0656648
0.0642711
0.0628633
0.0614038
0.0598664
0.0582312
0.0564787
0.0545897
0.0525456
0.0503251
0.0479056
0.0452617
0.0423624
0.0391743
0.0356627
0.0317867
0.0275044
0.0227763
0.0783642
0.0762165
0.0742422
0.0724419
0.0708236
0.0693805
0.0680381
0.0667057
0.0653386
0.0639059
0.0623836
0.0607524
0.0589928
0.0570829
0.0550046
0.0527356
0.0502531
0.0475316
0.0445364
0.0412254
0.0375715
0.0335239
0.029038
0.0240736
0.0794124
0.0775151
0.0757632
0.0741516
0.0727182
0.0713914
0.0701183
0.0688243
0.0674862
0.0660758
0.0645674
0.0629414
0.0611804
0.0592488
0.0571397
0.0548257
0.0522872
0.0495023
0.0464428
0.0430141
0.0392408
0.0350434
0.0303718
0.025182
0.00208937
0.00098461
0.00109891
0.00140141
0.00168688
0.00196865
0.0022601
0.00258127
0.0029626
0.00344643
0.00405902
0.00477823
0.00559901
0.00652386
0.00755813
0.00870898
0.00998379
0.0113897
0.0129355
0.0146312
0.0164871
0.018515
0.0207261
0.0231233
0.00525905
0.00261643
0.00153817
0.00169684
0.00199459
0.00230769
0.00265321
0.0030558
0.00353985
0.00412583
0.00482178
0.00560501
0.0064745
0.0074337
0.00848761
0.00964154
0.0109007
0.0122718
0.0137621
0.0153802
0.017135
0.0190358
0.0210913
0.0233103
0.00831438
0.00473898
0.0022952
0.00199563
0.0023025
0.00267108
0.00309485
0.00359138
0.00417145
0.00484398
0.00560776
0.00644498
0.00735617
0.00834417
0.00941261
0.0105652
0.0118061
0.0131409
0.0145756
0.0161172
0.0177731
0.0195502
0.0214561
0.0234985
0.0109132
0.00673413
0.00326012
0.0023211
0.00261375
0.00305181
0.00356031
0.00414423
0.00480539
0.00555342
0.00637376
0.00725666
0.00820271
0.00921396
0.0102924
0.0114406
0.0126622
0.0139614
0.0153429
0.0168123
0.0183751
0.0200368
0.0218018
0.0236704
0.0130652
0.00842159
0.00424115
0.00267813
0.00292981
0.0034409
0.00403034
0.00469197
0.00542417
0.00623448
0.00710325
0.00802516
0.0090007
0.0100306
0.0111159
0.0122581
0.0134602
0.0147253
0.0160571
0.0174595
0.0189363
0.0204919
0.022131
0.023864
0.0148442
0.00981106
0.00512785
0.00305136
0.00324763
0.00382883
0.00449144
0.0052206
0.00601601
0.00687807
0.00778887
0.0087449
0.0097457
0.0107908
0.0118805
0.0130161
0.0141993
0.0154324
0.0167179
0.0180584
0.0194568
0.0209169
0.0224436
0.0240453
0.0163231
0.0109528
0.00588838
0.00342083
0.00356175
0.0042066
0.00493337
0.00572085
0.00657408
0.00748103
0.00842886
0.00941457
0.0104366
0.0114941
0.0125869
0.0137156
0.0148807
0.016084
0.0173268
0.018611
0.0199386
0.0213126
0.0227381
0.0242227
0.0175611
0.0118962
0.00652765
0.0037715
0.0038689
0.00457012
0.00535335
0.00619356
0.00709612
0.00804204
0.00902236
0.010034
0.0110745
0.0121425
0.0132374
0.014359
0.0155073
0.0166831
0.017887
0.0191198
0.0203831
0.0216792
0.0230112
0.0243805
0.0185964
0.0126715
0.00706968
0.00410469
0.00415272
0.00490249
0.00573868
0.00662897
0.00757533
0.00855754
0.00956877
0.0106051
0.0116631
0.0127409
0.0138366
0.0149505
0.016083
0.0172338
0.018402
0.0195879
0.0207916
0.0220154
0.0232617
0.0245313
0.0194321
0.0132073
0.00734113
0.00431189
0.00447757
0.00530038
0.0061774
0.0071091
0.00809081
0.00910685
0.010146
0.0111982
0.0122614
0.0133315
0.0144069
0.0155029
0.0166214
0.017751
0.0188822
0.02002
0.0211582
0.0223097
0.0234802
0.0246793
0.000487372
0.00167491
0.00346552
0.00552537
0.00757537
0.00958989
0.0115664
0.0135074
0.0154143
0.0172879
0.0191283
0.020938
0.0227394
0.0245919
0.026547
0.0286104
0.0307305
0.0331504
0.0359118
0.0389329
0.0421463
0.0455074
0.0489829
0.0525409
0.000361862
0.00102759
0.00239587
0.00412832
0.00583371
0.0075079
0.00918352
0.0108849
0.0126183
0.0143804
0.0161662
0.0179716
0.0197977
0.0216578
0.023577
0.0255776
0.0276737
0.0299622
0.0324979
0.0352004
0.0383007
0.0417277
0.0453713
0.0491524
0.000192439
0.00065134
0.00155557
0.00279872
0.00440657
0.00634775
0.00823433
0.0100296
0.0117586
0.0134462
0.0151119
0.0167725
0.0184442
0.0201442
0.0218947
0.0237237
0.0256656
0.027771
0.0300916
0.0326369
0.0354895
0.0385781
0.0421098
0.0459611
0.000209983
0.000542811
0.00128555
0.00230325
0.00363075
0.00530613
0.00725905
0.00922124
0.0111278
0.0129681
0.0147385
0.0164404
0.0180835
0.0196868
0.0212799
0.0229027
0.0246054
0.0264464
0.0284884
0.0307855
0.0333853
0.0362828
0.0395393
0.0431319
0.000179057
0.000473776
0.00111869
0.00200617
0.00315927
0.00461001
0.00639507
0.00842104
0.0104618
0.0124538
0.0143829
0.0162378
0.0180066
0.0196836
0.0212764
0.0228115
0.0243379
0.0259246
0.0276565
0.0296228
0.0318988
0.0345295
0.0375439
0.0409409
0.000173768
0.000433226
0.00101786
0.00182138
0.00286255
0.00417066
0.00578146
0.00771756
0.0098116
0.0119123
0.0139729
0.0159754
0.0179019
0.019732
0.0214487
0.0230479
0.0245489
0.0260025
0.027493
0.029132
0.0310376
0.0333092
0.0360075
0.0391366
0.000163135
0.000400985
0.000940984
0.00168483
0.00264676
0.00385311
0.00533631
0.00713287
0.00921028
0.011381
0.0135458
0.0156701
0.0177342
0.0197165
0.0215912
0.0233341
0.0249327
0.0264003
0.0277892
0.0291989
0.0307672
0.0326437
0.0349506
0.0377504
0.000157808
0.000378538
0.000885924
0.00158473
0.00248724
0.0036175
0.00500566
0.00668714
0.00868463
0.0108768
0.0131168
0.0153412
0.0175225
0.0196385
0.0216628
0.0235644
0.0253139
0.0268937
0.0283149
0.029636
0.0309753
0.0325004
0.0343907
0.0367876
0.000152613
0.000360662
0.000843218
0.00150499
0.00236094
0.00343179
0.00474549
0.00633539
0.00823638
0.010409
0.0126971
0.0150029
0.0172841
0.0195159
0.0216727
0.023723
0.0256313
0.0273638
0.0289008
0.0302561
0.031502
0.0327831
0.0343023
0.0362799
0.000148799
0.000346271
0.000808832
0.00144082
0.00225926
0.00328221
0.00453594
0.00605203
0.00786656
0.00998739
0.0122946
0.0146628
0.0170289
0.0193616
0.0216352
0.0238194
0.0258775
0.0277693
0.0294579
0.0309243
0.0321929
0.0333591
0.0346062
0.0361894
0.000145567
0.000334207
0.000780094
0.00138739
0.00217485
0.0031583
0.00436262
0.00581785
0.00755913
0.00961372
0.0119148
0.0143265
0.016764
0.019185
0.021562
0.0238657
0.0260605
0.0281045
0.0299527
0.031567
0.0329346
0.0340991
0.0351951
0.0364681
0.000143153
0.000324307
0.00075592
0.0013424
0.00210379
0.00305401
0.0042168
0.00562087
0.00730009
0.00928816
0.0115625
0.0139992
0.0164946
0.0189928
0.0214616
0.0238724
0.026191
0.0283758
0.0303792
0.0321526
0.03366
0.0349027
0.0359585
0.0370239
0.000141482
0.000316593
0.00073527
0.00130396
0.00204313
0.00296508
0.00409251
0.00545299
0.00707917
0.00900647
0.0112405
0.0136852
0.0162254
0.0187905
0.0213414
0.0238483
0.0262786
0.0285925
0.0307416
0.032673
0.0343369
0.0357051
0.0368054
0.03777
0.00014065
0.000311336
0.000717562
0.00127094
0.00199102
0.00288869
0.00398572
0.0053087
0.0068892
0.0087627
0.0109503
0.0133886
0.0159608
0.0185831
0.0212071
0.0238008
0.0263324
0.0287639
0.0310481
0.0331304
0.0349538
0.0364714
0.0376729
0.0386322
0.000140566
0.000308338
0.000702314
0.00124241
0.00194605
0.00282271
0.00389341
0.00518392
0.00672484
0.00855107
0.0106916
0.0131126
0.0157052
0.0183751
0.0210644
0.0237366
0.0263603
0.0288991
0.0313076
0.0335315
0.0355103
0.0371857
0.038521
0.0395392
0.000141023
0.00030691
0.000689199
0.00121774
0.00190714
0.00276561
0.00381348
0.00507577
0.0065822
0.00836697
0.010463
0.0128591
0.015462
0.0181708
0.0209179
0.0236618
0.0263696
0.0290066
0.0315293
0.0338846
0.0360111
0.0378442
0.039329
0.0404493
0.000141842
0.000306399
0.000677949
0.00119642
0.00187346
0.00271615
0.00374415
0.0049819
0.00645826
0.00820667
0.0102618
0.012629
0.0152339
0.0179737
0.0207722
0.0235814
0.0263666
0.0290938
0.0317217
0.0341988
0.0364641
0.0384498
0.0400898
0.0413401
0.000142871
0.000306372
0.000668287
0.00117795
0.00184421
0.00267323
0.00368393
0.0049002
0.00635032
0.00806686
0.0100853
0.012422
0.0150224
0.0177863
0.0206302
0.0234994
0.0263565
0.0291672
0.0318922
0.0344822
0.0368771
0.0390081
0.0408022
0.0421966
0.000144025
0.000306649
0.000660072
0.00116209
0.00181887
0.00263585
0.00363146
0.00482895
0.00625604
0.0079446
0.0099302
0.0122366
0.0148278
0.0176098
0.0204939
0.0234187
0.0263427
0.0292315
0.032047
0.0347417
0.0372576
0.0395257
0.0414693
0.0430135
0.000145256
0.000307092
0.000653156
0.00114872
0.00179684
0.00260322
0.00358556
0.00476662
0.00617339
0.00783728
0.00979363
0.0120711
0.0146496
0.0174446
0.0203641
0.0233404
0.0263276
0.02929
0.0321902
0.034983
0.0376121
0.0400096
0.0420973
0.0437938
0.000146542
0.000307578
0.000647177
0.00113711
0.00177748
0.0025746
0.00354526
0.00471175
0.00610064
0.00774266
0.00967291
0.0119231
0.0144866
0.0172902
0.0202409
0.0232651
0.026312
0.0293441
0.0323245
0.0352096
0.0379449
0.040464
0.0426885
0.044531
0.000147862
0.000308085
0.00064202
0.00112703
0.00176058
0.00254947
0.00350985
0.00466345
0.00603639
0.00765895
0.00956579
0.0117906
0.0143376
0.017146
0.0201238
0.0231922
0.0262959
0.0293944
0.0324508
0.0354229
0.0382581
0.0408911
0.0432436
0.0452244
0.000149182
0.000308583
0.000637495
0.00111815
0.00174568
0.0025273
0.00347851
0.00462071
0.00597944
0.00758459
0.00947042
0.0116718
0.0142014
0.0170112
0.0200122
0.0231216
0.0262789
0.0294406
0.0325692
0.0356234
0.0385522
0.0412917
0.0437631
0.0458707
0.000150487
0.000309069
0.000633534
0.00111035
0.00173254
0.0025077
0.00345076
0.00458275
0.00592884
0.00751841
0.0093853
0.0115651
0.0140771
0.0168856
0.0199062
0.0230533
0.0262614
0.0294835
0.0326811
0.0358134
0.0388311
0.0416722
0.0442603
0.0465058
0.000151766
0.000309526
0.000630039
0.00110343
0.00172085
0.00249027
0.00342608
0.00454896
0.0058837
0.00745929
0.00930915
0.0114693
0.0139639
0.0167688
0.0198059
0.0229877
0.026244
0.029524
0.0327878
0.0359949
0.0390973
0.0420351
0.044734
0.0471053
0.000153024
0.000309952
0.00062697
0.00109729
0.00171044
0.00247472
0.00340406
0.00451878
0.00584334
0.00740635
0.00924082
0.0113829
0.0138608
0.0166605
0.0197114
0.0229251
0.0262272
0.0295631
0.0328906
0.0361695
0.0393529
0.0423825
0.0451859
0.0476749
0.000154231
0.000310332
0.000624213
0.00109177
0.00170106
0.00246074
0.00338425
0.00449162
0.005807
0.00735865
0.00917921
0.0113049
0.0137666
0.0165599
0.0196222
0.0228654
0.0262114
0.0296013
0.0329907
0.0363389
0.0396
0.0427174
0.0456201
0.0482213
0.000155387
0.000310662
0.000621699
0.00108675
0.00169253
0.00244801
0.00336619
0.00446687
0.00577394
0.0073153
0.00912318
0.0112338
0.0136802
0.0164661
0.0195377
0.0228083
0.0261963
0.0296389
0.0330887
0.0365045
0.039841
0.043043
0.0460414
0.0487506
0.000156477
0.000310932
0.000619379
0.0010821
0.00168464
0.00243626
0.00334955
0.00444408
0.00574348
0.00727536
0.00907162
0.0111683
0.0136001
0.0163777
0.0194566
0.0227526
0.026181
0.029675
0.0331843
0.0366665
0.040077
0.0433616
0.0464529
0.0492673
0.000157516
0.000311133
0.000617208
0.00107776
0.00167727
0.00242527
0.00333402
0.00442282
0.00571508
0.00723813
0.00902359
0.0111072
0.013525
0.0162936
0.0193777
0.0226967
0.0261638
0.029708
0.0332759
0.0368237
0.040307
0.043673
0.046856
0.0497738
0.000158491
0.000311284
0.000615159
0.00107366
0.0016703
0.00241488
0.00331935
0.00440274
0.00568825
0.00720298
0.00897823
0.0110496
0.0134538
0.0162124
0.0192995
0.0226391
0.0261427
0.0297355
0.0333608
0.0369729
0.0405274
0.0439728
0.0472447
0.0502625
0.000159376
0.000311377
0.000613163
0.00106969
0.00166357
0.00240489
0.00330523
0.0043835
0.00566262
0.00716944
0.00893496
0.0109945
0.0133855
0.0161335
0.0192214
0.0225787
0.0261164
0.0297557
0.0334364
0.037111
0.0407345
0.0442562
0.0476135
0.0507293
0.000160191
0.000311414
0.000611193
0.00106579
0.00165702
0.00239518
0.00329153
0.00436484
0.00563783
0.0071371
0.00889331
0.0109416
0.0133196
0.0160564
0.0191429
0.0225151
0.0260841
0.0297678
0.0335021
0.0372371
0.0409272
0.0445219
0.0479592
0.0511603
0.000160924
0.0003114
0.00060923
0.00106193
0.00165054
0.0023856
0.00327808
0.00434655
0.00561359
0.00710552
0.00885281
0.0108902
0.0132557
0.0159808
0.019064
0.0224485
0.0260461
0.0297719
0.0335579
0.0373515
0.0411061
0.0447712
0.0482853
0.0515705
0.000161585
0.000311341
0.000607273
0.0010581
0.00164411
0.0023761
0.00326477
0.00432849
0.00558967
0.00707446
0.00881302
0.0108399
0.0131931
0.0159063
0.0189845
0.0223787
0.0260024
0.0297681
0.0336041
0.0374549
0.0412726
0.0450066
0.0485961
0.0519647
0.000162172
0.000311244
0.000605317
0.00105427
0.00163771
0.00236665
0.00325151
0.00431051
0.0055659
0.00704362
0.00877362
0.0107902
0.0131313
0.0158323
0.0189042
0.0223055
0.0259529
0.0297565
0.0336412
0.0375482
0.0414283
0.045231
0.0488963
0.0523499
0.000162691
0.000311126
0.000603368
0.00105046
0.00163132
0.0023572
0.00323825
0.00429256
0.0055422
0.00701289
0.00873437
0.0107407
0.0130698
0.0157583
0.0188223
0.0222283
0.0258967
0.0297362
0.033668
0.0376305
0.0415727
0.0454438
0.049185
0.0527233
0.000163145
0.000310997
0.000601434
0.00104668
0.001625
0.00234783
0.00322507
0.00427468
0.00551854
0.00698223
0.00869524
0.0106913
0.0130083
0.0156839
0.0187385
0.0221465
0.0258328
0.0297056
0.0336828
0.0376996
0.0417032
0.0456425
0.0494593
0.0530815
0.000163541
0.000310869
0.000599528
0.00104295
0.00161877
0.00233859
0.00321207
0.00425701
0.00549512
0.0069518
0.00865631
0.0106422
0.0129471
0.0156093
0.0186531
0.0220602
0.025761
0.0296638
0.0336837
0.0377527
0.041816
0.045822
0.0497131
0.0534188
0.000163891
0.000310752
0.000597663
0.00103931
0.00161268
0.00232956
0.00319936
0.0042397
0.00547216
0.00692192
0.00861803
0.0105938
0.0128866
0.0155353
0.0185671
0.0219705
0.025682
0.029611
0.0336703
0.0377884
0.0419084
0.0459777
0.0499391
0.0537226
0.000164201
0.00031065
0.00059585
0.00103578
0.00160678
0.00232082
0.00318704
0.00422293
0.0054499
0.00689291
0.00858081
0.0105466
0.0128276
0.0154627
0.0184818
0.0218794
0.0255983
0.0295496
0.0336443
0.0378079
0.0419809
0.0461096
0.0501361
0.0539896
0.000164482
0.000310567
0.000594101
0.00103238
0.00160112
0.00231243
0.00317523
0.00420685
0.00542854
0.00686511
0.00854512
0.0105014
0.0127708
0.0153928
0.0183989
0.0217892
0.0255127
0.029483
0.0336096
0.0378154
0.0420381
0.0462227
0.0503107
0.0542304
0.000164738
0.000310496
0.00059242
0.00102912
0.00159571
0.00230443
0.00316399
0.00419156
0.00540825
0.00683869
0.00851123
0.0104584
0.012717
0.0153263
0.0183197
0.021702
0.0254282
0.0294149
0.0335708
0.0378161
0.0420866
0.0463262
0.050478
0.0544762
0.000164972
0.000310435
0.000590814
0.00102602
0.00159057
0.00229685
0.00315335
0.00417712
0.00538911
0.00681378
0.00847931
0.0104179
0.0126663
0.0152637
0.0182449
0.021619
0.0253468
0.029348
0.0335309
0.0378137
0.0421296
0.0464212
0.0506307
0.0546893
0.000165202
0.00031037
0.000589282
0.00102307
0.0015857
0.00228968
0.00314331
0.00416352
0.00537113
0.00679042
0.0084494
0.0103801
0.0126189
0.0152053
0.018175
0.021541
0.0252697
0.0292842
0.0334929
0.0378118
0.042172
0.046515
0.0507835
0.0549141
0.000165421
0.000310307
0.000587815
0.00102026
0.00158108
0.0022829
0.00313384
0.00415071
0.00535422
0.0067685
0.00842139
0.0103447
0.0125747
0.0151507
0.0181097
0.0214679
0.0251972
0.0292243
0.0334578
0.0378119
0.0422157
0.0466092
0.0509342
0.0551233
0.000165609
0.000310237
0.000586393
0.00101756
0.00157666
0.00227643
0.00312484
0.00413858
0.00533825
0.00674787
0.00839509
0.0103116
0.0125333
0.0150998
0.0180487
0.0213994
0.0251291
0.0291682
0.0334258
0.0378146
0.0422617
0.0467059
0.05109
0.0553508
0.000165785
0.000310144
0.000585024
0.00101496
0.00157242
0.00227024
0.00311624
0.00412703
0.00532309
0.00672832
0.00837024
0.0102803
0.0124944
0.0150519
0.0179914
0.021335
0.0250649
0.0291154
0.0333963
0.0378189
0.0423083
0.0468023
0.051244
0.0555729
0.000165979
0.000310036
0.000583725
0.00101248
0.00156835
0.00226428
0.00310796
0.00411592
0.00530854
0.00670962
0.00834653
0.0102506
0.0124575
0.0150067
0.0179373
0.0212742
0.0250041
0.0290654
0.0333689
0.0378244
0.0423546
0.0468959
0.0513908
0.0557791
0.000166156
0.000309901
0.000582461
0.00101007
0.00156439
0.00225851
0.00309993
0.00410514
0.00529443
0.00669151
0.00832363
0.010222
0.0124221
0.0149634
0.0178856
0.0212159
0.0249458
0.0290177
0.0333435
0.0378314
0.042402
0.0469896
0.0515349
0.0559752
0.000166291
0.000309761
0.000581224
0.00100773
0.00156056
0.00225289
0.0030921
0.0040946
0.00528063
0.00667379
0.00830124
0.0101941
0.0123876
0.0149213
0.0178353
0.0211593
0.0248889
0.0289712
0.0333189
0.0378393
0.0424507
0.0470855
0.0516835
0.0561817
0.000166412
0.000309589
0.000580037
0.00100547
0.00155684
0.00224741
0.00308444
0.00408428
0.00526708
0.00665635
0.00827916
0.0101665
0.0123536
0.0148797
0.0177857
0.021103
0.024832
0.0289239
0.0332934
0.0378465
0.0424991
0.0471817
0.0518333
0.0563919
0.000166553
0.000309396
0.000578935
0.00100334
0.00155328
0.00224212
0.00307701
0.00407419
0.00525377
0.00663919
0.00825732
0.0101391
0.0123197
0.0148382
0.017736
0.0210462
0.0247736
0.0288742
0.0332646
0.03785
0.0425441
0.0472751
0.0519814
0.0566012
0.000166677
0.0003092
0.000577894
0.00100134
0.00154987
0.00223701
0.00306982
0.00406438
0.00524075
0.00662231
0.00823579
0.0101119
0.0122859
0.0147968
0.017686
0.0209885
0.024713
0.0288206
0.0332305
0.0378471
0.0425824
0.0473621
0.0521237
0.0568068
0.000166754
0.000309021
0.000576893
0.000999399
0.00154663
0.00223217
0.00306295
0.00405496
0.00522816
0.00660588
0.00821472
0.0100853
0.0122526
0.0147556
0.0176359
0.0209299
0.0246501
0.0287626
0.0331897
0.0378357
0.0426102
0.0474368
0.0522506
0.0569881
0.000166802
0.000308852
0.000575928
0.000997548
0.00154356
0.00222756
0.00305636
0.00404591
0.00521609
0.00659008
0.00819434
0.0100594
0.01222
0.0147151
0.0175863
0.0208714
0.0245859
0.0287013
0.0331431
0.037816
0.0426276
0.0474992
0.0523638
0.057157
0.000166839
0.000308679
0.000575016
0.000995789
0.00154068
0.0022232
0.00305015
0.00403735
0.00520461
0.006575
0.00817486
0.0100345
0.0121886
0.014676
0.0175383
0.0208141
0.0245221
0.0286385
0.0330926
0.0377898
0.0426362
0.0475508
0.0524653
0.0573156
0.00016689
0.00030852
0.000574215
0.000994224
0.00153801
0.00221916
0.00304437
0.00402936
0.00519384
0.00656081
0.00815647
0.010011
0.0121588
0.0146387
0.0174923
0.020759
0.0244601
0.0285763
0.0330409
0.0377601
0.0426388
0.0475942
0.0525563
0.0574618
0.000166928
0.000308353
0.000573468
0.000992769
0.00153555
0.00221544
0.00303903
0.00402195
0.00518384
0.00654758
0.00813927
0.00998897
0.0121309
0.0146036
0.0174489
0.0207068
0.024401
0.0285164
0.0329901
0.0377295
0.0426386
0.0476322
0.0526379
0.0575883
0.000166942
0.000308203
0.000572769
0.000991421
0.00153329
0.00221202
0.0030341
0.00401512
0.00517464
0.00653538
0.00812336
0.0099685
0.0121049
0.0145708
0.0174083
0.0206578
0.0243453
0.0284596
0.0329416
0.0377003
0.0426389
0.0476705
0.0527224
0.0577306
0.000166939
0.000308051
0.000572124
0.00099019
0.00153123
0.0022089
0.00302958
0.00400885
0.00516616
0.00652418
0.00810876
0.00994967
0.0120809
0.0145406
0.0173706
0.0206123
0.0242932
0.0284062
0.0328959
0.0376728
0.0426395
0.0477075
0.052802
0.0578563
0.000166941
0.000307886
0.000571535
0.000989069
0.00152935
0.00220604
0.00302547
0.00400315
0.00515844
0.00651394
0.00809542
0.00993248
0.0120589
0.0145128
0.0173361
0.0205703
0.0242451
0.0283567
0.0328534
0.0376476
0.0426411
0.0477438
0.0528793
0.0579798
0.000166947
0.00030772
0.000571019
0.000988077
0.00152766
0.00220345
0.00302174
0.00399796
0.00515141
0.00650461
0.00808323
0.00991678
0.0120389
0.0144875
0.0173045
0.020532
0.0242011
0.0283115
0.0328151
0.0376259
0.0426453
0.0477814
0.0529561
0.0581002
0.000166928
0.00030755
0.000570538
0.000987163
0.00152612
0.00220111
0.00301836
0.00399324
0.005145
0.00649608
0.00807209
0.00990244
0.0120206
0.0144644
0.0172758
0.020497
0.0241612
0.0282709
0.0327816
0.037609
0.0426541
0.0478234
0.0530363
0.0582207
0.000166887
0.000307369
0.000570076
0.000986309
0.0015247
0.00219893
0.00301519
0.00398884
0.00513907
0.00648822
0.00806183
0.00988921
0.0120038
0.0144432
0.0172493
0.020465
0.0241246
0.0282341
0.0327525
0.0375971
0.0426688
0.0478727
0.0531281
0.0583671
0.000166839
0.000307171
0.000569645
0.00098552
0.00152338
0.0021969
0.00301225
0.00398474
0.00513352
0.00648089
0.00805229
0.0098769
0.0119881
0.0144234
0.0172246
0.0204351
0.0240906
0.0282001
0.0327262
0.0375882
0.0426865
0.0479245
0.0532195
0.0584997
0.000166803
0.000306971
0.000569268
0.000984814
0.00152218
0.00219501
0.00300951
0.0039809
0.00512829
0.00647394
0.00804322
0.00986525
0.0119733
0.0144047
0.0172013
0.0204069
0.0240584
0.028168
0.0327018
0.037581
0.0427056
0.0479776
0.0533115
0.0586337
0.000166749
0.000306767
0.000568912
0.000984138
0.00152102
0.00219323
0.0030069
0.00397724
0.00512329
0.00646728
0.00803453
0.00985409
0.011959
0.0143868
0.017179
0.0203798
0.0240276
0.0281372
0.0326786
0.0375751
0.0427261
0.0480321
0.0534058
0.0587715
0.000166656
0.000306558
0.000568571
0.000983505
0.00151994
0.00219154
0.00300439
0.00397369
0.00511845
0.00646078
0.00802606
0.00984318
0.0119452
0.0143693
0.0171573
0.0203534
0.0239974
0.028107
0.0326558
0.0375695
0.0427476
0.0480888
0.0535041
0.0589181
0.000166526
0.000306321
0.000568223
0.000982879
0.00151889
0.00218988
0.00300192
0.0039702
0.00511369
0.00645441
0.00801767
0.00983242
0.0119314
0.014352
0.0171358
0.0203272
0.0239672
0.0280763
0.0326322
0.0375629
0.042768
0.0481446
0.0536021
0.0590634
0.000166373
0.000306059
0.000567884
0.000982271
0.00151787
0.00218825
0.0029995
0.00396676
0.00510897
0.0064481
0.0080094
0.00982171
0.0119178
0.0143347
0.0171141
0.0203008
0.0239366
0.0280447
0.0326067
0.0375536
0.042785
0.0481966
0.0536956
0.0592037
0.000166187
0.000305811
0.000567566
0.000981701
0.00151689
0.00218667
0.00299715
0.00396339
0.00510431
0.00644183
0.00800113
0.009811
0.011904
0.0143173
0.0170924
0.0202741
0.0239053
0.0280117
0.032579
0.0375409
0.0427977
0.048243
0.0537815
0.0593316
0.000165965
0.000305506
0.000567235
0.000981118
0.0015159
0.00218512
0.00299482
0.00396006
0.0050997
0.00643561
0.00799289
0.0098003
0.0118903
0.0142998
0.0170704
0.020247
0.0238732
0.0279774
0.032549
0.0375251
0.0428065
0.0482853
0.053864
0.0594592
0.000165719
0.000305186
0.000566871
0.000980501
0.0015149
0.00218354
0.00299246
0.00395672
0.00509511
0.00642942
0.00798469
0.00978959
0.0118765
0.0142822
0.0170482
0.0202195
0.0238404
0.0279417
0.0325164
0.0375056
0.0428109
0.0483234
0.0539439
0.0595896
0.000165448
0.000304824
0.000566483
0.000979853
0.00151385
0.0021819
0.00299005
0.00395332
0.00509046
0.00642321
0.00797652
0.00977894
0.0118628
0.0142647
0.0170261
0.0201919
0.0238071
0.0279045
0.0324812
0.0374818
0.0428092
0.0483534
0.0540126
0.0596998
0.000165173
0.00030447
0.000566085
0.000979178
0.00151276
0.0021802
0.00298758
0.00394986
0.00508575
0.00641693
0.00796831
0.00976831
0.0118491
0.0142473
0.0170041
0.0201645
0.0237739
0.0278669
0.0324443
0.0374543
0.0428016
0.0483751
0.0540709
0.0597981
0.000164856
0.000304105
0.000565652
0.000978457
0.0015116
0.00217841
0.00298499
0.00394627
0.00508089
0.0064105
0.00795994
0.00975756
0.0118354
0.01423
0.0169823
0.0201374
0.0237412
0.0278297
0.0324073
0.0374257
0.0427911
0.0483923
0.0541244
0.0599021
0.000164484
0.000303684
0.000565171
0.000977658
0.00151033
0.00217651
0.00298226
0.0039425
0.00507582
0.00640385
0.00795134
0.00974658
0.0118215
0.0142125