/*--------------------------------*- C++ -*----------------------------------*\
| =========                 |                                                 |
| \\      /  F ield         | OpenFOAM: The Open Source CFD Toolbox           |
|  \\    /   O peration     | Version:  2.3.0                                 |
|   \\  /    A nd           | Web:      www.OpenFOAM.org                      |
|    \\/     M anipulation  |                                                 |
\*---------------------------------------------------------------------------*/
FoamFile
{
    version     2.0;
    format      ascii;
    class       volVectorField;
    location    "8000";
    object      U;
}
// * * * * * * * * * * * * * * * * * * * * * * * * * * * * * * * * * * * * * //

dimensions      [0 1 -1 0 0 0 0];

internalField   nonuniform List<vector> 
14757
(
(22.2157 9.24317 -7.04033e-21)
(22.0741 9.62504 3.87215e-21)
(21.9253 10.015 1.11771e-20)
(21.766 10.4172 5.18359e-21)
(21.5961 10.8346 -9.06583e-20)
(21.4157 11.2682 5.01197e-20)
(21.2236 11.7179 0)
(21.0163 12.1811 3.30918e-20)
(20.7876 12.6529 0)
(20.5285 13.126 7.85955e-20)
(20.228 13.592 -8.08062e-20)
(19.8734 14.0422 2.96233e-20)
(19.4508 14.4687 4.53558e-20)
(18.946 14.8656 -4.9406e-20)
(18.3447 15.229 3.41562e-20)
(17.6335 15.5564 -9.52068e-20)
(16.8003 15.8464 6.10035e-20)
(15.8343 16.0993 -1.48223e-20)
(14.7257 16.3146 3.13482e-19)
(13.4627 16.4803 -3.49751e-19)
(12.0358 16.5755 1.81126e-20)
(10.4646 16.6308 0)
(8.79945 16.7356 0)
(7.04883 16.7128 0)
(21.8568 9.1172 1.31042e-19)
(21.6985 9.4394 1.8948e-20)
(21.5301 9.76318 -1.44715e-19)
(21.3473 10.0884 1.32242e-19)
(21.1476 10.4165 -3.09997e-20)
(20.9295 10.7483 0)
(20.6913 11.0847 3.64734e-20)
(20.4315 11.4261 -2.63393e-19)
(20.1484 11.7728 2.69044e-19)
(19.8397 12.1237 -6.61601e-21)
(19.5029 12.4767 3.52664e-20)
(19.1352 12.8282 0)
(18.7336 13.1732 0)
(18.2952 13.5047 3.96579e-20)
(17.8176 13.814 -4.53582e-20)
(17.2993 14.0911 7.92897e-19)
(16.7401 14.324 -7.75907e-19)
(16.1413 14.4997 1.057e-18)
(15.5061 14.6044 -4.31779e-19)
(14.8401 14.6228 -1.41224e-18)
(14.1534 14.5379 -1.23752e-19)
(13.4621 14.3352 8.30123e-19)
(12.7792 14.0028 6.4023e-20)
(12.1034 13.5333 -3.55581e-20)
(21.5518 8.97265 1.34945e-19)
(21.3871 9.2453 -2.16383e-19)
(21.2117 9.51719 2.8307e-19)
(21.0238 9.78718 -2.04341e-19)
(20.8217 10.0555 -1.37459e-19)
(20.6042 10.3215 -1.95694e-19)
(20.3698 10.5844 -1.23364e-19)
(20.1166 10.8431 4.36977e-19)
(19.8428 11.0964 -4.35237e-20)
(19.5463 11.3427 0)
(19.2251 11.5799 -2.68811e-20)
(18.8773 11.8056 0)
(18.5012 12.0167 0)
(18.0956 12.2093 -3.88067e-20)
(17.6598 12.3791 -3.95267e-19)
(17.1944 12.5211 9.10113e-19)
(16.7007 12.6295 -5.6835e-19)
(16.1821 12.6983 -5.78331e-19)
(15.6436 12.7217 6.61221e-19)
(15.0925 12.694 0)
(14.5384 12.6099 -5.27704e-20)
(13.9942 12.4665 -1.10824e-21)
(13.4745 12.2622 9.2223e-19)
(12.9962 11.9973 -9.49028e-19)
(21.3019 8.82403 -7.51813e-20)
(21.1366 9.05144 1.85802e-19)
(20.9616 9.27691 0)
(20.7762 9.5004 -5.90061e-20)
(20.5787 9.72071 0)
(20.3683 9.9373 -3.16031e-19)
(20.144 10.1494 2.3462e-19)
(19.9049 10.356 7.62534e-20)
(19.6501 10.5558 0)
(19.3785 10.7474 -4.41366e-20)
(19.0895 10.9289 0)
(18.782 11.0981 -3.52766e-19)
(18.4557 11.2521 3.51856e-19)
(18.1102 11.3881 -4.88014e-19)
(17.7458 11.5023 4.93523e-19)
(17.3633 11.591 5.9225e-19)
(16.9645 11.6499 -5.27815e-19)
(16.5521 11.6747 0)
(16.13 11.6615 -4.39567e-20)
(15.7033 11.6067 0)
(15.2786 11.5078 -8.81158e-19)
(14.8634 11.3637 9.97948e-19)
(14.4661 11.1755 0)
(14.0956 10.9464 0)
(21.0927 8.66399 0)
(20.9325 8.86088 1.37419e-20)
(20.7636 9.04982 -3.73014e-19)
(20.5859 9.23619 6.50126e-19)
(20.3982 9.41846 -3.41341e-19)
(20.1996 9.59624 6.69378e-20)
(19.9892 9.7688 7.13899e-20)
(19.7662 9.93523 -1.6421e-19)
(19.5298 10.0944 -3.65586e-19)
(19.2793 10.2452 4.11553e-19)
(19.0139 10.3859 0)
(18.7331 10.5149 -5.19742e-20)
(18.4369 10.6299 1.18677e-19)
(18.1252 10.7286 0)
(17.7986 10.8084 -5.82394e-19)
(17.4582 10.8664 6.68995e-19)
(17.1057 10.8994 0)
(16.7436 10.9046 0)
(16.3755 10.879 0)
(16.0055 10.8205 0)
(15.639 10.7274 4.72604e-19)
(15.2817 10.5994 -6.00525e-19)
(14.9399 10.4377 0)
(14.6197 10.2448 -6.40233e-19)
(20.9159 8.51527 -6.28423e-20)
(20.7656 8.68277 1.39726e-19)
(20.6059 8.84134 -1.39636e-19)
(20.4383 8.99789 -7.04625e-20)
(20.2621 9.15049 3.98463e-19)
(20.0765 9.29878 -6.65502e-19)
(19.8809 9.44215 -1.94701e-20)
(19.6748 9.57973 6.70962e-20)
(19.4574 9.71058 3.84086e-19)
(19.2282 9.83351 0)
(18.9865 9.94716 0)
(18.7321 10.05 6.21204e-20)
(18.4648 10.1402 -6.26433e-20)
(18.1849 10.2158 5.78336e-19)
(17.8927 10.2745 -5.865e-19)
(17.5893 10.314 -7.96088e-20)
(17.2762 10.332 8.93828e-20)
(16.9555 10.3259 -4.90132e-19)
(16.63 10.2935 8.24606e-19)
(16.3031 10.2334 -3.19651e-19)
(15.979 10.1443 -4.89423e-19)
(15.6622 10.026 6.21657e-19)
(15.3575 9.87956 0)
(15.0695 9.70697 7.15189e-20)
(20.7696 8.37324 0)
(20.629 8.51823 1.56782e-19)
(20.4798 8.65242 -1.56422e-19)
(20.3229 8.78507 -8.67192e-20)
(20.1583 8.9143 0)
(19.9853 9.03972 0)
(19.8033 9.1608 -1.96696e-19)
(19.6119 9.2767 1.97063e-19)
(19.4105 9.38663 0)
(19.1987 9.48946 0)
(18.9758 9.58387 0)
(18.7416 9.66866 -3.27088e-19)
(18.4959 9.74223 -1.53359e-20)
(18.2391 9.80279 5.82934e-20)
(17.9715 9.84829 7.14341e-19)
(17.694 9.87661 -3.31256e-19)
(17.408 9.88588 -9.05777e-20)
(17.1153 9.87412 9.76682e-20)
(16.8186 9.83928 0)
(16.5203 9.78009 -2.26733e-19)
(16.2242 9.69561 -1.21297e-19)
(15.9341 9.58564 0)
(15.6539 9.45087 1.36476e-19)
(15.3874 9.29289 -2.94908e-19)
(20.6479 8.24366 1.24037e-21)
(20.5174 8.36904 -2.3319e-21)
(20.3789 8.48322 8.05863e-20)
(20.2322 8.59634 8.71852e-20)
(20.0787 8.70704 -1.91969e-19)
(19.9173 8.81449 1.91629e-19)
(19.7475 8.91847 0)
(19.5691 9.01792 0)
(19.3811 9.11238 -5.77413e-20)
(19.1841 9.20059 0)
(18.9769 9.28098 -1.95664e-19)
(18.7596 9.35258 2.6291e-19)
(18.5322 9.4142 0)
(18.2943 9.46441 -1.52912e-19)
(18.0468 9.50103 1.72805e-19)
(17.7898 9.52193 -7.90382e-19)
(17.5247 9.52564 4.60707e-19)
(17.2536 9.51056 0)
(16.9793 9.47431 0)
(16.7023 9.41636 -3.56617e-19)
(16.4271 9.33601 9.89773e-20)
(16.1565 9.23263 5.08294e-19)
(15.8945 9.10666 -2.74976e-19)
(15.6439 8.95922 2.95233e-19)
(20.5488 8.13141 4.57051e-21)
(20.4256 8.23313 -1.75604e-19)
(20.2976 8.33172 9.03519e-20)
(20.1601 8.42909 0)
(20.0165 8.52519 2.03052e-19)
(19.8656 8.61821 -2.02673e-19)
(19.7063 8.70872 2.74761e-19)
(19.5398 8.79495 -2.20469e-19)
(19.363 8.87728 5.79509e-20)
(19.1784 8.95486 2.54277e-19)
(18.9841 9.02556 -3.21185e-19)
(18.7798 9.08818 -2.15057e-19)
(18.5671 9.14098 5.90774e-19)
(18.3436 9.18373 -1.49886e-19)
(18.1122 9.21401 -1.19998e-21)
(17.8719 9.22954 8.85577e-20)
(17.6233 9.22966 2.95534e-19)
(17.3671 9.21417 -8.12835e-19)
(17.1116 9.17676 4.22982e-19)
(16.85 9.11916 2.3603e-19)
(16.5904 9.04223 -1.11558e-19)
(16.3345 8.94462 -2.53639e-19)
(16.0866 8.82612 1.37002e-19)
(15.8486 8.68687 -2.92711e-19)
(20.4494 8.02693 0)
(20.3401 8.10729 -1.52696e-19)
(20.2289 8.19689 9.99441e-20)
(20.1017 8.28094 0)
(19.967 8.36577 0)
(19.8269 8.44678 2.23437e-19)
(19.676 8.52744 -2.79944e-19)
(19.5245 8.60301 -2.44216e-19)
(19.3601 8.67365 2.48866e-19)
(19.1895 8.74152 -2.7005e-19)
(19.0103 8.80391 3.37298e-19)
(18.8152 8.86105 -1.40122e-19)
(18.6084 8.90855 0)
(18.3898 8.94701 1.6911e-19)
(18.1721 8.97382 -2.48313e-19)
(17.9457 8.98477 -9.01578e-20)
(17.7136 8.97883 0)
(17.4652 8.96752 0)
(17.2205 8.9323 -1.05141e-19)
(16.966 8.87379 -2.36255e-19)
(16.7192 8.79902 2.43516e-19)
(16.4753 8.70629 0)
(16.2378 8.59499 1.37308e-19)
(16.008 8.46419 1.46808e-19)
(5.28619 15.8086 -4.16001e-20)
(5.08523 14.3864 4.33187e-20)
(5.23416 13.1437 0)
(5.51063 12.0562 -2.67221e-20)
(5.85243 11.0892 6.61758e-20)
(6.24258 10.2229 0)
(6.66579 9.44129 2.27712e-19)
(7.10933 8.73464 1.40828e-19)
(7.56284 8.09554 0)
(8.01776 7.5169 -1.27271e-18)
(8.46711 6.99316 9.59823e-19)
(8.90539 6.51892 -3.12202e-19)
(9.32862 6.08937 -3.03904e-19)
(9.73445 5.70021 2.9589e-19)
(10.1217 5.34721 0)
(10.4906 5.0261 0)
(10.842 4.73285 0)
(11.1777 4.46357 1.03164e-18)
(11.4995 4.21431 0)
(11.8093 3.98157 9.82101e-19)
(12.1089 3.76268 9.38238e-19)
(12.3999 3.55656 0)
(12.6831 3.35859 1.65121e-18)
(12.9564 3.13847 7.55994e-19)
(11.4468 12.9449 3.94416e-20)
(10.9309 12.2708 0)
(10.5611 11.5782 4.28359e-19)
(10.3139 10.8969 -9.4522e-19)
(10.1634 10.2406 2.86272e-19)
(10.0903 9.61634 2.4283e-19)
(10.0804 9.02855 -1.09633e-19)
(10.1222 8.47946 -2.59321e-19)
(10.2057 7.96961 1.18952e-19)
(10.323 7.49812 -1.12344e-19)
(10.4671 7.06315 -1.02012e-18)
(10.6324 6.66203 1.01759e-18)
(10.8141 6.29172 0)
(11.0084 5.94886 2.39933e-19)
(11.2122 5.63006 0)
(11.423 5.33211 0)
(11.6389 5.05217 -1.42664e-18)
(11.8582 4.78777 -9.34041e-19)
(12.0795 4.53693 9.32599e-19)
(12.3017 4.29818 0)
(12.524 4.07062 1.72637e-18)
(12.7459 3.85449 -8.31966e-19)
(12.9668 3.64725 -8.13626e-19)
(13.1848 3.42726 -1.54091e-20)
(12.5727 11.6729 -3.86109e-20)
(12.2116 11.2906 -7.67113e-20)
(11.9144 10.8636 -2.52668e-19)
(11.6807 10.4094 3.39839e-19)
(11.5072 9.94213 -9.37875e-20)
(11.3891 9.47242 9.23961e-20)
(11.3209 9.00807 2.06874e-19)
(11.297 8.55484 3.03994e-19)
(11.3112 8.11686 -9.51254e-19)
(11.3579 7.69678 6.50628e-19)
(11.4321 7.29621 6.56095e-19)
(11.5287 6.91575 -1.08221e-18)
(11.6436 6.55554 2.15485e-19)
(11.773 6.21507 -4.44841e-19)
(11.9138 5.89359 0)
(12.0634 5.59005 4.32433e-19)
(12.2197 5.30339 4.49728e-19)
(12.3812 5.03232 4.45222e-19)
(12.5466 4.7757 8.53925e-19)
(12.7151 4.53232 -4.25472e-19)
(12.886 4.30112 -8.1482e-19)
(13.059 4.08184 7.66596e-19)
(13.2334 3.87182 -1.53701e-18)
(13.4079 3.6505 -7.42692e-19)
(13.7561 10.6805 0)
(13.4489 10.3792 -2.45913e-19)
(13.1777 10.0475 1.62951e-19)
(12.946 9.69402 0)
(12.7548 9.3267 0)
(12.6032 8.95269 -9.53734e-20)
(12.4894 8.57772 0)
(12.4105 8.20661 5.94003e-19)
(12.3632 7.84311 2.02804e-19)
(12.3441 7.48989 -4.04923e-19)
(12.35 7.1488 -2.03947e-19)
(12.3775 6.82096 -5.42978e-21)
(12.424 6.50693 6.1564e-19)
(12.4868 6.20675 4.14464e-19)
(12.5637 5.92011 0)
(12.6525 5.6465 -1.25055e-18)
(12.7514 5.38525 4.13898e-19)
(12.8591 5.13561 4.11742e-19)
(12.974 4.89694 -4.14268e-19)
(13.0953 4.6685 3.98284e-19)
(13.2219 4.4497 -8.04512e-19)
(13.3532 4.24049 7.67902e-19)
(13.4882 4.0392 2.64651e-18)
(13.626 3.83014 -3.60448e-19)
(14.3239 10.0234 5.75078e-19)
(14.053 9.77423 4.72388e-19)
(13.8095 9.50017 -5.69688e-19)
(13.5966 9.20682 3.34752e-19)
(13.4155 8.89965 1.74724e-19)
(13.2663 8.58408 0)
(13.1479 8.26468 3.71665e-19)
(13.0584 7.94551 -3.77172e-19)
(12.9954 7.62986 -1.97606e-19)
(12.9567 7.32035 -5.81375e-19)
(12.9397 7.01885 1.87879e-19)
(12.9419 6.72672 -3.4139e-21)
(12.9613 6.44471 -1.93957e-19)
(12.9956 6.17317 -5.96103e-19)
(13.043 5.91214 3.93599e-19)
(13.1016 5.66139 3.88964e-19)
(13.1698 5.42063 3.88503e-19)
(13.2463 5.18952 3.92421e-19)
(13.3299 4.96769 -3.90535e-19)
(13.4197 4.75471 -3.92094e-19)
(13.5153 4.55008 0)
(13.6158 4.35366 -3.87676e-19)
(13.7205 4.16451 -1.10789e-18)
(13.8283 3.97102 3.52585e-19)
(14.8008 9.51036 0)
(14.5523 9.29089 -1.58734e-19)
(14.3264 9.05095 1.63171e-19)
(14.1256 8.79465 8.66826e-20)
(13.9513 8.52618 -2.19735e-19)
(13.8039 8.24955 -2.67929e-19)
(13.6824 7.96848 4.0799e-20)
(13.5853 7.68639 1.88452e-19)
(13.5109 7.40629 -1.90425e-19)
(13.4574 7.13057 1.91788e-19)
(13.4231 6.86106 -1.9265e-19)
(13.406 6.59898 1.93114e-19)
(13.4046 6.34509 1.93278e-19)
(13.4173 6.09971 -3.8234e-19)
(13.4423 5.86293 5.68128e-19)
(13.478 5.63458 -7.66244e-19)
(13.5228 5.41454 -5.18199e-21)
(13.5755 5.2027 0)
(13.635 4.99889 3.72812e-19)
(13.7009 4.80275 9.35491e-20)
(13.7726 4.6138 -9.27484e-20)
(13.8493 4.43182 -3.69082e-19)
(13.9301 4.25626 0)
(14.0139 4.07789 3.39995e-19)
(15.1372 9.11355 2.96997e-19)
(14.9047 8.91432 1.57313e-19)
(14.6922 8.69751 -3.3297e-19)
(14.502 8.46659 2.53119e-19)
(14.3356 8.22493 4.27312e-20)
(14.1932 7.97556 2.23709e-19)
(14.0738 7.72127 -1.82784e-19)
(13.9752 7.46544 -3.38667e-21)
(13.8965 7.21095 1.82656e-19)
(13.8359 6.96021 0)
(13.7925 6.71487 0)
(13.7648 6.47593 -1.83928e-19)
(13.7517 6.24418 3.72781e-19)
(13.7517 6.0198 -3.69559e-19)
(13.7633 5.80277 -1.87202e-19)
(13.7847 5.59295 1.87149e-19)
(13.8142 5.3905 -5.50179e-19)
(13.8506 5.19551 -5.47582e-19)
(13.8934 5.00791 -5.49102e-19)
(13.9422 4.82736 9.09611e-20)
(13.9966 4.65311 2.45151e-19)
(14.0557 4.48472 3.76464e-19)
(14.1187 4.32193 -3.51442e-19)
(14.1861 4.1559 -2.55855e-21)
(15.4071 8.7921 -2.97208e-19)
(15.1859 8.6072 -1.58636e-19)
(14.9828 8.40693 -1.6586e-19)
(14.8002 8.19462 2.50841e-19)
(14.6404 7.97298 -1.09234e-19)
(14.5035 7.74375 2.16477e-20)
(14.3874 7.50895 0)
(14.2881 7.27246 -9.07077e-20)
(14.2065 7.03723 -4.51308e-19)
(14.1406 6.80598 1.80246e-19)
(14.0911 6.57964 0)
(14.0563 6.35928 3.30661e-21)
(14.0353 6.14568 -1.84436e-19)
(14.0271 5.93856 3.60861e-19)
(14.0297 5.7378 3.62099e-19)
(14.0412 5.54349 -3.56122e-19)
(14.0594 5.356 1.81147e-19)
(14.0837 5.17586 3.61002e-19)
(14.114 5.00292 3.59602e-19)
(14.1502 4.83676 3.52204e-19)
(14.1921 4.67614 3.44782e-19)
(14.2377 4.52069 -3.52283e-19)
(14.2865 4.37152 0)
(14.3394 4.22179 0)
(15.6222 8.52845 4.44327e-19)
(15.4094 8.35405 -1.5836e-19)
(15.2129 8.1656 7.67537e-20)
(15.0353 7.96807 8.15071e-20)
(14.8811 7.76279 -3.16983e-19)
(14.7502 7.54846 -2.12493e-20)
(14.6394 7.32794 1.73656e-19)
(14.5393 7.10518 -1.75018e-19)
(14.456 6.88418 5.38155e-23)
(14.3856 6.66959 3.52736e-19)
(14.3335 6.45787 1.76493e-19)
(14.2942 6.25323 1.8125e-19)
(14.2684 6.05456 -5.3135e-19)
(14.2556 5.86124 0)
(14.2522 5.67334 0)
(14.2568 5.49188 5.28049e-19)
(14.2664 5.31685 -1.74958e-19)
(14.2816 5.14992 3.48662e-19)
(14.3026 4.99 8.62572e-20)
(14.3297 4.83683 -4.36416e-19)
(14.3627 4.6879 -6.8512e-19)
(14.398 4.5433 -1.07253e-20)
(14.4345 4.40505 1.67482e-19)
(14.4786 4.26391 5.03646e-19)
(15.7897 8.31213 -3.00135e-19)
(15.5842 8.14674 -3.16521e-19)
(15.3946 7.96442 4.04594e-19)
(15.2198 7.77843 -1.2335e-19)
(15.0698 7.58891 4.31903e-20)
(14.9443 7.38736 0)
(14.842 7.18015 -3.44266e-19)
(14.7418 6.96332 8.69011e-20)
(14.6604 6.74876 3.50819e-19)
(14.5879 6.55142 -2.58022e-19)
(14.5366 6.34865 -3.4689e-19)
(14.4921 6.16007 1.76851e-19)
(14.4635 5.97269 1.77164e-19)
(14.4475 5.78966 -1.74641e-19)
(14.4391 5.61113 1.71917e-19)
(14.439 5.44153 -3.4955e-19)
(14.4405 5.27581 -6.75763e-22)
(14.4489 5.122 -8.91236e-20)
(14.4627 4.97321 -8.87994e-20)
(14.4831 4.832 4.33129e-20)
(14.5106 4.69174 -4.24433e-20)
(14.5389 4.55698 0)
(14.5653 4.42843 -3.33613e-19)
(14.607 4.29534 -3.62337e-21)
(-2.72744 -2.49187 -2.38166e-20)
(-2.87769 -2.48981 1.63597e-20)
(-2.96115 -2.49232 1.32232e-20)
(-2.98201 -2.49627 0)
(-2.94499 -2.49981 0)
(-2.85544 -2.50187 0)
(-2.71892 -2.50165 -5.47205e-20)
(-2.54098 -2.49846 5.7087e-20)
(-2.32689 -2.49175 6.59044e-20)
(-2.08144 -2.48099 -5.29009e-20)
(-1.80887 -2.46564 1.55396e-20)
(-1.51257 -2.44507 0)
(-1.19492 -2.41838 1.95587e-20)
(-0.857129 -2.38424 1.19351e-19)
(-0.498725 -2.34073 -1.06495e-19)
(-0.116646 -2.2848 3.779e-20)
(0.296064 -2.21273 -5.26122e-20)
(0.753161 -2.11968 0)
(1.28079 -1.99967 -1.28885e-20)
(1.92406 -1.84673 6.33909e-20)
(2.76419 -1.65653 -5.80512e-20)
(3.96285 -1.42522 0)
(5.85717 -1.16349 -4.14531e-20)
(9.21153 -1.07372 4.97148e-20)
(-2.75486 -2.49171 0)
(-2.89039 -2.49044 3.51066e-20)
(-2.96484 -2.48709 -4.01084e-20)
(-2.98424 -2.4813 0)
(-2.95263 -2.47294 -3.26154e-20)
(-2.8736 -2.46145 -2.10934e-20)
(-2.75048 -2.44626 1.65309e-20)
(-2.5864 -2.42674 4.38317e-20)
(-2.38405 -2.40221 7.21624e-20)
(-2.14549 -2.37174 -6.4815e-20)
(-1.87196 -2.33422 0)
(-1.56345 -2.28821 0)
(-1.21841 -2.2319 -1.70893e-20)
(-0.833084 -2.16303 4.76514e-20)
(-0.400981 -2.07882 -4.30557e-20)
(0.0876446 -1.97652 9.2274e-21)
(0.647648 -1.85285 -1.57673e-20)
(1.30311 -1.70469 1.64325e-20)
(2.09186 -1.53049 5.45205e-21)
(3.073 -1.33235 0)
(4.33808 -1.12177 1.50929e-22)
(6.0254 -0.930899 -3.26003e-20)
(8.33179 -0.8301 5.23881e-20)
(11.4703 -0.954247 0)
(-2.77902 -2.47775 0)
(-2.88878 -2.46633 -9.93893e-21)
(-2.94682 -2.45135 -1.36469e-20)
(-2.95528 -2.4332 8.74291e-21)
(-2.91635 -2.41127 1.44645e-20)
(-2.8321 -2.3847 0)
(-2.70437 -2.35255 -1.82916e-20)
(-2.53472 -2.31385 -2.00829e-20)
(-2.32417 -2.26762 2.43059e-20)
(-2.07298 -2.21279 -3.12438e-20)
(-1.78044 -2.14822 0)
(-1.44465 -2.07264 0)
(-1.06193 -1.98456 0)
(-0.626279 -1.88248 0)
(-0.128532 -1.76468 -3.83827e-20)
(0.444515 -1.62976 2.52904e-20)
(1.11243 -1.4767 -8.86721e-21)
(1.90278 -1.30586 0)
(2.85433 -1.12059 -4.86599e-21)
(4.02046 -0.930312 1.64019e-22)
(5.47305 -0.755346 -7.21788e-22)
(7.30171 -0.634528 -6.28829e-20)
(9.59867 -0.634676 1.79864e-19)
(12.4011 -0.850287 -1.40926e-19)
(-2.77414 -2.45106 -7.53368e-22)
(-2.8635 -2.42022 1.1834e-20)
(-2.90669 -2.3922 1.12683e-20)
(-2.9044 -2.36056 -8.51586e-21)
(-2.85793 -2.3241 2.89079e-21)
(-2.76808 -2.28197 -9.39715e-21)
(-2.6354 -2.23325 0)
(-2.46009 -2.17703 0)
(-2.24193 -2.11246 4.84339e-21)
(-1.97995 -2.03874 -3.19922e-20)
(-1.67219 -1.95506 3.25265e-20)
(-1.31519 -1.86047 0)
(-0.903601 -1.75393 -1.72256e-20)
(-0.42961 -1.63435 2.48408e-20)
(0.117393 -1.50093 0)
(0.752068 -1.35339 7.92524e-21)
(1.49457 -1.1926 -5.74632e-21)
(2.37179 -1.02152 0)
(3.41945 -0.846696 0)
(4.6835 -0.680975 2.67221e-21)
(6.21986 -0.546998 0)
(8.09041 -0.481237 -7.35685e-21)
(10.3476 -0.537357 -2.55579e-21)
(12.9991 -0.780585 -1.98019e-19)
(-2.75427 -2.39592 -3.53583e-21)
(-2.82185 -2.35751 -1.82197e-21)
(-2.84925 -2.3201 -4.16755e-22)
(-2.83534 -2.27772 -1.00555e-21)
(-2.78015 -2.22982 9.22274e-21)
(-2.68341 -2.17582 0)
(-2.54457 -2.11493 0)
(-2.36295 -2.04631 0)
(-2.1375 -1.9693 1.84409e-21)
(-1.86648 -1.88334 1.367e-20)
(-1.54674 -1.78773 0)
(-1.17364 -1.68179 4.2091e-21)
(-0.740763 -1.56473 0)
(-0.239528 -1.43587 -1.07533e-20)
(0.34143 -1.29509 0)
(1.01718 -1.1431 2.4933e-21)
(1.80759 -0.98209 3.23005e-21)
(2.73838 -0.816636 3.36679e-22)
(3.84252 -0.655051 -1.62405e-21)
(5.1603 -0.511368 -1.85946e-21)
(6.73815 -0.407716 2.70537e-20)
(8.62444 -0.376976 -2.4273e-20)
(10.8563 -0.463869 1.52289e-20)
(13.4331 -0.718647 2.05039e-19)
(-2.71826 -2.33501 3.60852e-21)
(-2.76746 -2.28924 -2.05526e-21)
(-2.78045 -2.24342 4.40365e-22)
(-2.75579 -2.19254 2.81767e-21)
(-2.69274 -2.13601 -2.14692e-21)
(-2.59015 -2.07341 0)
(-2.44651 -2.00416 5.30624e-22)
(-2.26038 -1.92742 -4.05693e-21)
(-2.02998 -1.84251 -6.85567e-22)
(-1.75275 -1.74883 1.16468e-21)
(-1.42491 -1.64601 -4.02005e-21)
(-1.04083 -1.53361 -3.92115e-21)
(-0.593218 -1.41115 5.71999e-21)
(-0.0727767 -1.27814 3.80479e-21)
(0.532277 -1.13463 0)
(1.23664 -0.981854 -1.07152e-21)
(2.05967 -0.822879 2.80337e-21)
(3.02608 -0.663306 -1.23812e-21)
(4.16645 -0.512433 1.31355e-21)
(5.51761 -0.384816 -1.59073e-20)
(7.1212 -0.30173 -2.33848e-20)
(9.01797 -0.293098 8.32332e-20)
(11.237 -0.398035 -2.60852e-20)
(13.7716 -0.659378 -5.05102e-20)
(-2.67092 -2.26636 8.1652e-21)
(-2.70442 -2.21723 7.75846e-21)
(-2.7048 -2.16637 6.89883e-21)
(-2.67068 -2.1097 -1.73861e-21)
(-2.60097 -2.04716 -9.46258e-22)
(-2.49401 -1.97872 0)
(-2.34716 -1.90411 -5.17784e-22)
(-2.15814 -1.82245 0)
(-1.92444 -1.7328 9.63025e-22)
(-1.64317 -1.63443 7.47229e-22)
(-1.3102 -1.52716 -1.54564e-21)
(-0.919343 -1.41115 6.06452e-22)
(-0.462015 -1.28624 -6.27613e-22)
(0.0719067 -1.15202 0)
(0.694419 -1.00836 1.60486e-21)
(1.41982 -0.856418 -7.96443e-22)
(2.26633 -0.699856 -2.58422e-21)
(3.25738 -0.54484 -2.00696e-21)
(4.42195 -0.401406 2.12876e-21)
(5.79445 -0.285141 4.55445e-21)
(7.41525 -0.216509 9.24838e-21)
(9.31996 -0.222505 0)
(11.5324 -0.338755 -7.76955e-20)
(14.0393 -0.603756 -1.14472e-19)
(-2.61861 -2.20175 -2.87847e-20)
(-2.63716 -2.14779 -1.58943e-20)
(-2.62631 -2.09301 -8.96088e-21)
(-2.58406 -2.0323 0)
(-2.50886 -1.96556 0)
(-2.39914 -1.89299 0)
(-2.25069 -1.815 0)
(-2.06031 -1.73053 0)
(-1.8246 -1.63841 -4.47678e-21)
(-1.54053 -1.53734 2.87243e-21)
(-1.20453 -1.42709 -2.65896e-21)
(-0.810349 -1.30867 -1.92332e-21)
(-0.347495 -1.18287 4.35585e-21)
(0.195345 -1.04937 -2.44201e-21)
(0.831323 -0.907455 0)
(1.57327 -0.757319 5.9393e-21)
(2.43855 -0.602926 0)
(3.44903 -0.451095 1.03424e-20)
(4.63284 -0.312347 0)
(6.0203 -0.20417 8.90684e-21)
(7.65699 -0.146975 -1.61759e-20)
(9.57152 -0.16396 2.86769e-20)
(11.785 -0.287087 1.72449e-19)
(14.2776 -0.553493 -4.64825e-20)
(-2.5614 -2.14011 2.30638e-20)
(-2.56732 -2.08235 2.28987e-20)
(-2.5472 -2.02484 -1.17783e-20)
(-2.49811 -1.96147 8.7463e-22)
(-2.41861 -1.8923 1.90133e-21)
(-2.30743 -1.81655 7.47407e-21)
(-2.15916 -1.73617 -3.94719e-21)
(-1.96891 -1.65001 4.00573e-21)
(-1.73187 -1.55699 0)
(-1.44472 -1.45494 3.44695e-21)
(-1.1053 -1.34289 -9.24618e-22)
(-0.710404 -1.22257 -3.95776e-21)
(-0.246941 -1.09619 4.10447e-21)
(0.299943 -0.963842 0)
(0.946763 -0.824971 6.15692e-21)
(1.70364 -0.677422 -8.44115e-21)
(2.5838 -0.525852 5.66766e-21)
(3.60593 -0.378244 -2.28496e-20)
(4.79413 -0.242705 -2.06831e-21)
(6.17584 -0.141767 -5.1437e-20)
(7.81824 -0.09116 -2.47705e-21)
(9.74079 -0.116867 5.07665e-20)
(11.9552 -0.244384 -7.92467e-20)
(14.4205 -0.505709 0)
(-2.50286 -2.08224 0)
(-2.49735 -2.02108 -1.29289e-20)
(-2.46983 -1.96236 1.21177e-20)
(-2.41663 -1.89609 -1.53051e-21)
(-2.33252 -1.82778 -3.72299e-21)
(-2.22026 -1.74931 -4.93843e-21)
(-2.07058 -1.66724 0)
(-1.88457 -1.57959 0)
(-1.6525 -1.48581 0)
(-1.36734 -1.38358 0)
(-1.02622 -1.26959 0)
(-0.623742 -1.14721 5.66329e-21)
(-0.153119 -1.02248 -1.22236e-20)
(0.391339 -0.890865 1.4691e-20)
(1.0425 -0.755983 -7.38e-21)
(1.8086 -0.608496 9.46714e-21)
(2.70911 -0.454837 -9.5141e-21)
(3.76649 -0.306702 1.23335e-20)
(5.02303 -0.18532 0)
(6.41502 -0.119126 2.33728e-20)
(8.11079 -0.0755939 2.58823e-20)
(10.0157 -0.111969 -4.24996e-20)
(12.2554 -0.244561 -4.87315e-20)
(14.7491 -0.513174 5.66479e-20)
(15.3623 -1.99872 0)
(19.0248 -3.02969 9.50139e-19)
(20.4317 -3.42537 1.40049e-19)
(21.1187 -3.56355 -2.69012e-18)
(21.5905 -3.63978 1.63031e-18)
(21.9284 -3.68364 -3.0064e-20)
(22.1707 -3.70403 0)
(22.3394 -3.70654 0)
(22.4487 -3.69488 1.5736e-18)
(22.5091 -3.67188 8.3183e-20)
(22.5302 -3.63985 -1.51657e-18)
(22.5212 -3.60095 -9.24251e-20)
(22.4894 -3.55684 0)
(22.4404 -3.50891 1.37888e-18)
(22.3785 -3.45816 -1.48715e-18)
(22.3069 -3.40528 1.26323e-18)
(22.2277 -3.35079 -1.38506e-18)
(22.1428 -3.29501 -1.44023e-18)
(22.0535 -3.23817 1.39333e-18)
(21.9606 -3.18045 1.08526e-18)
(21.8649 -3.12209 -2.85463e-18)
(21.7674 -3.06257 2.50959e-18)
(21.6684 -3.00101 -2.14444e-18)
(21.5654 -2.95223 6.9541e-19)
(15.264 -1.56675 -6.20295e-19)
(18.977 -2.55271 1.55002e-18)
(20.914 -3.11105 -8.55304e-19)
(21.6259 -3.26887 -2.65431e-20)
(22.0335 -3.34279 0)
(22.3064 -3.38871 0)
(22.485 -3.41478 5.14027e-20)
(22.5929 -3.42519 0)
(22.6467 -3.42293 -1.47863e-18)
(22.6598 -3.41058 1.46555e-18)
(22.6429 -3.39028 9.36664e-20)
(22.6047 -3.36384 9.25354e-20)
(22.5512 -3.3327 0)
(22.4868 -3.29793 9.10098e-20)
(22.4145 -3.2603 0)
(22.3364 -3.22045 0)
(22.2541 -3.17877 0)
(22.1686 -3.13555 -1.81846e-19)
(22.0806 -3.09103 1.82471e-19)
(21.9907 -3.04539 1.48905e-18)
(21.8991 -2.99885 -1.449e-18)
(21.8063 -2.951 3.72585e-19)
(21.7129 -2.90181 3.85955e-19)
(21.619 -2.85863 -7.15183e-19)
(15.6106 -1.38123 5.82952e-19)
(18.9376 -2.21676 -6.80041e-19)
(21.1374 -2.8609 9.34027e-19)
(21.9266 -3.06494 -9.04477e-19)
(22.279 -3.1319 5.74561e-20)
(22.4969 -3.17087 0)
(22.6276 -3.19317 8.63789e-19)
(22.6949 -3.20291 -6.91292e-19)
(22.7162 -3.20286 -1.50458e-19)
(22.7047 -3.19514 -1.60809e-18)
(22.6704 -3.18155 1.50942e-18)
(22.6204 -3.16328 -9.63901e-20)
(22.5594 -3.14135 0)
(22.4907 -3.11639 0)
(22.4166 -3.08896 9.37846e-20)
(22.3386 -3.0594 1.32999e-18)
(22.2579 -3.02805 -1.46359e-18)
(22.1752 -2.99509 1.86423e-19)
(22.091 -2.96072 0)
(22.0056 -2.92509 0)
(21.9193 -2.88835 -1.89355e-19)
(21.8322 -2.85035 0)
(21.745 -2.81128 -3.93731e-19)
(21.6584 -2.77346 3.75695e-19)
(15.9819 -1.26704 1.91685e-19)
(19.0362 -1.99582 -4.11157e-19)
(21.2866 -2.65197 1.3008e-18)
(22.1527 -2.89965 -8.37516e-19)
(22.4584 -2.9638 -5.58352e-20)
(22.626 -2.99798 0)
(22.715 -3.01761 -5.27869e-20)
(22.7495 -3.02682 8.64299e-19)
(22.7465 -3.02814 -5.98402e-19)
(22.7182 -3.02342 -8.25846e-19)
(22.673 -3.01409 7.78392e-19)
(22.6164 -3.00108 9.72279e-20)
(22.552 -2.98509 -6.93371e-19)
(22.4822 -2.96658 8.52956e-19)
(22.4087 -2.94594 -9.54348e-20)
(22.3327 -2.92347 1.90629e-19)
(22.2549 -2.89936 5.84974e-19)
(22.1758 -2.87379 -7.53958e-19)
(22.0957 -2.8469 1.92651e-19)
(22.015 -2.8188 0)
(21.9337 -2.78956 6.68524e-22)
(21.8522 -2.75901 0)
(21.7709 -2.72715 4.02456e-19)
(21.6896 -2.69579 7.31564e-21)
(16.29 -1.18181 -1.98079e-19)
(19.1779 -1.84684 4.14021e-20)
(21.394 -2.4838 4.33224e-19)
(22.3105 -2.7592 -2.8715e-20)
(22.5817 -2.82303 -4.46867e-19)
(22.7087 -2.85391 0)
(22.7654 -2.87194 0)
(22.7755 -2.88116 2.8645e-21)
(22.7553 -2.88379 7.57122e-19)
(22.7154 -2.88143 -1.65704e-18)
(22.6627 -2.87523 9.03261e-19)
(22.6018 -2.86597 -8.21603e-19)
(22.5354 -2.85415 6.84561e-19)
(22.4654 -2.8402 7.07368e-19)
(22.3931 -2.82443 -8.74063e-19)
(22.3193 -2.80705 -1.97597e-19)
(22.2445 -2.78825 -1.37466e-21)
(22.1691 -2.76818 0)
(22.0933 -2.74693 -1.00061e-18)
(22.0173 -2.72461 -2.19604e-20)
(21.9413 -2.70128 1.79789e-19)
(21.8655 -2.67678 5.98135e-19)
(21.7902 -2.65135 -2.04466e-19)
(21.7138 -2.62832 -4.09606e-19)
(16.5491 -1.10985 -3.4455e-19)
(19.325 -1.73588 7.52575e-19)
(21.4811 -2.34808 -8.25698e-19)
(22.4159 -2.63805 3.29924e-19)
(22.6589 -2.70317 -1.18688e-19)
(22.7536 -2.73178 0)
(22.786 -2.74894 -1.13794e-19)
(22.7788 -2.75841 9.02586e-19)
(22.7469 -2.7622 -7.32094e-20)
(22.6995 -2.76173 -8.34877e-19)
(22.6424 -2.75795 -1.04031e-19)
(22.5792 -2.7515 9.50014e-19)
(22.5122 -2.74284 -8.08053e-19)
(22.4428 -2.73232 0)
(22.3721 -2.72021 -7.23462e-19)
(22.3007 -2.70669 9.99058e-19)
(22.229 -2.69195 2.01647e-19)
(22.1572 -2.67611 -8.22391e-19)
(22.0856 -2.65925 8.04269e-19)
(22.0143 -2.64145 0)
(21.9433 -2.62285 2.0727e-19)
(21.8729 -2.60332 6.32675e-19)
(21.8029 -2.5831 -6.34071e-19)
(21.7315 -2.56573 6.36697e-19)
(16.7618 -1.045 2.54184e-19)
(19.4544 -1.64367 -8.2722e-20)
(21.549 -2.23252 0)
(22.4834 -2.52979 -2.45141e-19)
(22.7051 -2.5988 6.98497e-19)
(22.7751 -2.62707 4.77506e-19)
(22.7894 -2.64426 -8.03402e-19)
(22.77 -2.65432 3.29915e-19)
(22.7301 -2.65922 1.09715e-19)
(22.6778 -2.66032 0)
(22.6179 -2.65846 4.39392e-19)
(22.5536 -2.65418 -5.25491e-19)
(22.4866 -2.64792 0)
(22.4182 -2.64001 0)
(22.3493 -2.63066 0)
(22.2803 -2.62009 1.04694e-19)
(22.2115 -2.60847 -1.04591e-19)
(22.1431 -2.59589 0)
(22.0754 -2.58241 0)
(22.0083 -2.56811 6.39101e-19)
(21.9418 -2.5532 -6.34665e-19)
(21.8761 -2.53757 2.15672e-19)
(21.8108 -2.52144 0)
(21.744 -2.50899 4.45982e-19)
(16.9647 -0.989189 2.30086e-21)
(19.5912 -1.57172 8.65083e-20)
(21.6221 -2.14576 -4.3347e-19)
(22.5349 -2.44498 3.42048e-19)
(22.7337 -2.51377 3.20528e-21)
(22.7834 -2.53957 0)
(22.7838 -2.55584 1.17993e-19)
(22.7551 -2.56588 0)
(22.7092 -2.57145 -4.61929e-19)
(22.6533 -2.57369 4.39288e-19)
(22.5917 -2.57323 1.11501e-19)
(22.5269 -2.57053 0)
(22.4603 -2.56613 4.40339e-19)
(22.3932 -2.56031 -4.24449e-19)
(22.3262 -2.55316 0)
(22.2593 -2.54489 -1.06439e-19)
(22.1933 -2.53575 -3.26496e-19)
(22.1281 -2.52571 9.72192e-20)
(22.0641 -2.51488 2.09805e-19)
(22.0008 -2.50322 -2.16743e-19)
(21.9383 -2.49122 0)
(21.8768 -2.47876 -4.44073e-19)
(21.8158 -2.46572 2.2493e-19)
(21.7538 -2.45692 -2.29549e-19)
(17.068 -0.925253 -6.62904e-20)
(19.6294 -1.47968 -8.39565e-20)
(21.6205 -2.04048 -1.1027e-19)
(22.542 -2.3522 1.21557e-19)
(22.7439 -2.43302 3.75505e-19)
(22.7828 -2.4615 -8.3734e-19)
(22.7738 -2.47829 -1.3658e-19)
(22.7388 -2.48889 -1.82507e-20)
(22.6888 -2.4954 5.68951e-19)
(22.6307 -2.49897 0)
(22.5683 -2.49995 -1.11879e-19)
(22.5032 -2.49859 -1.12355e-19)
(22.4366 -2.49578 -4.49715e-19)
(22.3702 -2.49176 4.34369e-19)
(22.3046 -2.4861 -5.54551e-19)
(22.2389 -2.47943 7.65529e-19)
(22.1756 -2.47232 1.0449e-20)
(22.1129 -2.46435 -5.43602e-19)
(22.0523 -2.45559 2.20256e-19)
(21.992 -2.44573 3.38303e-19)
(21.9322 -2.43599 -5.58467e-19)
(21.874 -2.42593 -4.117e-22)
(21.8168 -2.41535 2.25474e-21)
(21.7606 -2.40882 -4.57803e-19)
(17.431 -0.947501 0)
(19.9331 -1.50977 -1.12569e-19)
(21.795 -2.0705 9.97641e-20)
(22.6235 -2.3545 2.4244e-19)
(22.7673 -2.39604 2.5084e-19)
(22.7834 -2.40483 -3.58409e-19)
(22.7626 -2.41596 3.65233e-19)
(22.7195 -2.42489 -2.32792e-19)
(22.6642 -2.43124 -1.16278e-19)
(22.603 -2.43559 0)
(22.5397 -2.43702 0)
(22.4741 -2.43575 -2.34249e-19)
(22.4077 -2.43389 5.59355e-19)
(22.3433 -2.43138 0)
(22.2822 -2.42663 1.12377e-19)
(22.2171 -2.42101 5.66362e-19)
(22.1587 -2.41634 -7.85577e-19)
(22.096 -2.40932 4.47361e-19)
(22.0416 -2.40266 1.1451e-19)
(21.9827 -2.39364 3.52177e-19)
(21.9273 -2.38636 -3.50645e-19)
(21.8745 -2.37906 3.53524e-19)
(21.8217 -2.37136 -2.40209e-19)
(21.7736 -2.37357 4.62323e-19)
(0.391351 2.06398 0)
(2.04577 2.38163 0)
(4.17034 3.25528 0)
(6.32486 4.39664 5.74408e-20)
(8.35934 5.54706 -3.00167e-18)
(10.2473 6.69405 2.56937e-18)
(12.0234 7.81915 -2.6726e-20)
(13.6899 8.8854 0)
(15.2292 9.85131 3.95134e-20)
(16.6215 10.6866 0)
(17.8497 11.3706 -2.84758e-20)
(18.9014 11.8882 0)
(19.7726 12.2329 4.86445e-20)
(20.4687 12.4072 3.92781e-19)
(21.0042 12.422 -3.88301e-19)
(21.4023 12.2979 -1.16269e-19)
(21.6913 12.0605 5.70815e-20)
(21.9009 11.7391 0)
(22.0587 11.3626 0)
(22.1864 10.9563 -7.02388e-20)
(22.2989 10.5389 5.92055e-20)
(22.4037 10.1225 -8.13415e-20)
(22.504 9.71341 0)
(22.6031 9.3086 0)
(-11.1295 1.97331 3.78095e-19)
(-9.88278 1.93001 0)
(-8.12353 1.96699 0)
(-6.16816 2.21332 -2.83585e-20)
(-3.90029 2.61288 0)
(-1.30806 3.14892 -1.11237e-19)
(1.4739 3.82311 1.93669e-21)
(4.35745 4.62405 0)
(7.22518 5.53251 0)
(9.97707 6.51352 0)
(12.536 7.51754 0)
(14.8411 8.48638 0)
(16.8484 9.36322 -1.07104e-19)
(18.5312 10.0998 2.07916e-19)
(19.8813 10.6603 2.74975e-20)
(20.9115 11.0266 1.26573e-19)
(21.6546 11.1987 4.8056e-20)
(22.1584 11.1944 0)
(22.4798 11.0443 0)
(22.6756 10.7861 -6.75531e-20)
(22.7946 10.457 -3.52502e-19)
(22.8728 10.0883 3.2165e-19)
(22.9327 9.70305 0)
(22.9867 9.30669 0)
(-5.72879 1.27683 -5.16183e-19)
(-6.18835 1.22116 0)
(-5.89055 1.16962 0)
(-5.23529 1.10387 -2.52502e-19)
(-4.32645 1.09849 0)
(-3.18964 1.19772 0)