/*--------------------------------*- C++ -*----------------------------------*\
| =========                 |                                                 |
| \\      /  F ield         | OpenFOAM: The Open Source CFD Toolbox           |
|  \\    /   O peration     | Version:  2.3.0                                 |
|   \\  /    A nd           | Web:      www.OpenFOAM.org                      |
|    \\/     M anipulation  |                                                 |
\*---------------------------------------------------------------------------*/
FoamFile
{
    version     2.0;
    format      ascii;
    class       volScalarField;
    location    "3000";
    object      nut;
}
// * * * * * * * * * * * * * * * * * * * * * * * * * * * * * * * * * * * * * //

dimensions      [0 2 -1 0 0 0 0];

internalField   nonuniform List<scalar> 
6692
(
0.0544144
0.0489895
0.0443171
0.0405703
0.037697
0.0349962
0.0323103
0.0297207
0.0272239
0.0247795
0.0224049
0.0205207
0.0621205
0.0581308
0.0546084
0.0515943
0.0491122
0.0471568
0.0456988
0.0446972
0.0440944
0.0438354
0.0438682
0.0441425
0.0687179
0.0658548
0.0633949
0.061343
0.0596888
0.0584106
0.0574805
0.0568633
0.0565215
0.0564166
0.056513
0.0567752
0.0742617
0.0721831
0.0704174
0.0689585
0.0677902
0.0668913
0.0662394
0.0658104
0.0655812
0.0655285
0.0656308
0.0658677
0.078897
0.0773536
0.0760438
0.0749603
0.0740897
0.0734167
0.0729262
0.0726041
0.0724359
0.072409
0.0725105
0.0727281
0.0827717
0.0815958
0.0805929
0.0797565
0.0790782
0.0785488
0.0781599
0.077903
0.0777713
0.0777573
0.0778545
0.0780554
0.0860196
0.0851009
0.0843098
0.0836424
0.0830936
0.0826604
0.0823392
0.0821264
0.0820182
0.0820117
0.0821041
0.0822913
0.0887515
0.0880214
0.0873804
0.0868333
0.0863755
0.0860079
0.0857343
0.0855533
0.0854626
0.0854604
0.0855476
0.0857235
0.0910643
0.0904793
0.0899419
0.0894856
0.0890969
0.0887717
0.0885312
0.0883749
0.0883001
0.0883005
0.0883811
0.0885468
0.0930437
0.0925747
0.0920951
0.091711
0.0913887
0.0910811
0.0908623
0.0907228
0.0906687
0.0906703
0.0907399
0.0908961
0.0220923
0.0258348
0.028269
0.0307942
0.0338289
0.0374838
0.0417506
0.0465785
0.0519012
0.0576439
0.0637238
0.0700971
0.0445809
0.0452305
0.0462114
0.047579
0.0493815
0.0516553
0.0544187
0.0576711
0.06139
0.0655351
0.070055
0.0749297
0.0571658
0.0577138
0.0584832
0.0595045
0.0608083
0.0624236
0.0643742
0.0666767
0.0693377
0.0723523
0.0757062
0.0794082
0.0662193
0.0667022
0.067352
0.0681862
0.0692223
0.0704783
0.0719711
0.0737146
0.0757196
0.0779925
0.0805355
0.0833719
0.0730497
0.0734859
0.0740564
0.0747714
0.07564
0.076672
0.0778767
0.0792634
0.08084
0.0826141
0.0845929
0.0868026
0.0783527
0.0787523
0.0792658
0.0798977
0.0806522
0.0815333
0.082545
0.0836912
0.0849762
0.0864044
0.0879826
0.0897414
0.0825688
0.0829397
0.0834099
0.0839806
0.0846526
0.0854259
0.0863006
0.0872766
0.0883546
0.0895355
0.0908217
0.0922316
0.0859846
0.0863322
0.0867684
0.087292
0.0879018
0.0885952
0.0893688
0.0902189
0.091145
0.092144
0.0932175
0.0943759
0.0887942
0.0891227
0.089531
0.0900171
0.090579
0.0912114
0.091908
0.0926603
0.0934725
0.0943324
0.0952462
0.0962188
0.0911299
0.0914426
0.0918286
0.0922843
0.0928067
0.0933857
0.094021
0.0946903
0.0954178
0.0961689
0.096961
0.0977899
0.0785281
0.0674981
0.057593
0.0486566
0.0406288
0.0335561
0.0275226
0.0227716
0.0193309
0.0161335
0.0128193
0.00913438
0.086782
0.0781645
0.0706076
0.0638335
0.0576565
0.0518756
0.0463324
0.0409424
0.0356529
0.0303428
0.024866
0.0190858
0.0961068
0.0898849
0.0837966
0.0777938
0.0718708
0.0659915
0.0600926
0.0540948
0.0479178
0.0414867
0.034731
0.0275904
0.104627
0.0992193
0.0936778
0.0880043
0.082206
0.0762617
0.0701268
0.063739
0.0570286
0.0499247
0.0423622
0.0342848
0.111349
0.106357
0.101127
0.0956662
0.0899677
0.0840049
0.0777325
0.0710908
0.0640126
0.0564265
0.0482616
0.0394513
0.116607
0.111889
0.106883
0.101586
0.0959768
0.0900186
0.0836598
0.0768388
0.0694839
0.0615182
0.0528624
0.04344
0.120761
0.116262
0.111439
0.106278
0.100746
0.094798
0.0883766
0.0814142
0.0738337
0.0655511
0.056478
0.0465296
0.124118
0.1198
0.115132
0.110086
0.104619
0.0986796
0.0922016
0.0851139
0.0773356
0.0687751
0.0593362
0.0489266
0.126886
0.122731
0.118202
0.113257
0.107839
0.101904
0.0953676
0.088159
0.0801951
0.0713781
0.0616038
0.050774
0.129242
0.125217
0.120814
0.115974
0.11058
0.10465
0.0980513
0.090724
0.0825794
0.0735148
0.0634148
0.0521624
0.00494323
0.00183222
0.00185656
0.00250037
0.00331781
0.00452214
0.00622118
0.00837952
0.0110694
0.0143733
0.0183747
0.0231715
0.0126722
0.0059137
0.00269109
0.00317806
0.00422761
0.00561808
0.00742664
0.009626
0.0122784
0.0154487
0.0192113
0.0236555
0.0197819
0.0110501
0.00449802
0.00398241
0.0052335
0.00679054
0.0086947
0.0109261
0.0135332
0.0165685
0.0200986
0.0242082
0.0254451
0.0155393
0.00685036
0.00491915
0.00626672
0.00796485
0.00994953
0.0122046
0.0147652
0.0176744
0.0209852
0.024747
0.0297819
0.0190248
0.00912961
0.00595893
0.00728804
0.0091076
0.0111598
0.0134309
0.0159454
0.0187367
0.0218461
0.0253301
0.0330707
0.0216371
0.011043
0.00702564
0.00827766
0.0102018
0.0123105
0.0145913
0.017061
0.0197445
0.0226753
0.0259008
0.0355587
0.0235661
0.0125462
0.00805213
0.00923051
0.0112378
0.0133936
0.0156799
0.0181073
0.0206934
0.0234619
0.0264413
0.0374309
0.0249756
0.0137018
0.00900323
0.0101405
0.0122131
0.0144072
0.0166958
0.0190834
0.0215801
0.0241986
0.0269527
0.0388101
0.0259799
0.0145928
0.00986073
0.0109784
0.0131075
0.0153415
0.0176349
0.0199877
0.0224036
0.024885
0.0274326
0.0396836
0.0264032
0.0150371
0.0106038
0.0119073
0.0141282
0.0163496
0.0186135
0.0209164
0.0232523
0.0256084
0.0279909
0.000972915
0.00333685
0.00718098
0.0115311
0.0160113
0.0205168
0.0249717
0.0292769
0.0334206
0.0377191
0.042377
0.047658
0.000709955
0.0020757
0.00521435
0.00871001
0.0123395
0.0161841
0.0202874
0.0245819
0.0289699
0.0334464
0.0381269
0.0432457
0.000415248
0.00129955
0.00329829
0.00634894
0.0106751
0.0149005
0.0189811
0.0230203
0.027079
0.031212
0.0355347
0.0402616
0.00043645
0.00105368
0.00268602
0.00520311
0.00891627
0.0135348
0.0181349
0.0225665
0.0267459
0.0306797
0.0345284
0.0386301
0.000390686
0.00091762
0.00232952
0.00449443
0.00766723
0.0121517
0.0171276
0.0220319
0.0266969
0.030934
0.0346908
0.038265
0.000377807
0.000823358
0.00208318
0.00402127
0.00686298
0.010905
0.0160491
0.0213213
0.0264658
0.0312372
0.0353552
0.0387858
0.000360517
0.000754054
0.00190129
0.00367123
0.00626242
0.00994275
0.0149829
0.0205216
0.0260512
0.0313304
0.0360062
0.0397214
0.000349237
0.000699849
0.00175923
0.00339918
0.00580071
0.00921475
0.0139644
0.0196546
0.0254914
0.0311979
0.03643
0.0406999
0.000339965
0.000658258
0.0016484
0.00318395
0.00542976
0.00862091
0.0130701
0.0187819
0.0248511
0.0309051
0.0366316
0.0415481
0.00033408
0.000628413
0.00156745
0.00302479
0.00515132
0.00816782
0.0123707
0.0179871
0.0242242
0.0305645
0.0367112
0.0422256
0.000330597
0.000607853
0.00151047
0.00291199
0.00495219
0.00784034
0.0118587
0.0173236
0.0236813
0.0302649
0.0367673
0.0428045
0.000328815
0.000593852
0.00147084
0.00283257
0.00481139
0.00760705
0.0114898
0.0168015
0.0232509
0.0300488
0.0368462
0.0432928
0.000327912
0.000583688
0.00144275
0.00277437
0.00470902
0.00743781
0.0112214
0.0164041
0.0229362
0.0299478
0.037025
0.0438567
0.000326996
0.000574621
0.00141905
0.00272508
0.00462415
0.00730001
0.011005
0.0160762
0.0226688
0.0298974
0.0372347
0.0443339
0.000325203
0.000565052
0.00139431
0.00267499
0.00454004
0.0071675
0.0108034
0.0157761
0.0223838
0.0298419
0.0374741
0.0449314
0.000322169
0.000554261
0.00136579
0.00261778
0.004444
0.00701725
0.0105781
0.0154466
0.0219923
0.0296542
0.0375743
0.0453327
0.000318093
0.000542342
0.00133423
0.00255409
0.00433589
0.00684665
0.0103211
0.0150708
0.0214856
0.0292874
0.0374813
0.0455767
0.000313438
0.000530023
0.00130158
0.00248784
0.00422212
0.00666446
0.0100423
0.0146574
0.0208974
0.0287329
0.0371353
0.0455275
0.000308684
0.000518219
0.00127047
0.00242496
0.00411417
0.00649084
0.00977459
0.0142568
0.0203162
0.028103
0.036658
0.0452924
0.000304108
0.000507261
0.00124164
0.00236707
0.00401556
0.00633332
0.00953281
0.0138956
0.0197889
0.0274725
0.0361354
0.0450144
0.00029991
0.000497282
0.00121508
0.00231408
0.00392616
0.00619191
0.00931807
0.0135786
0.0193319
0.0268984
0.0356251
0.0446907
0.000296245
0.000488721
0.00119117
0.00226628
0.00384567
0.00606524
0.00912728
0.0133003
0.0189365
0.0263957
0.0351723
0.044416
0.000293124
0.000481643
0.00116956
0.00222287
0.0037724
0.00594969
0.00895304
0.013046
0.0185752
0.025924
0.0347275
0.0440985
0.000290612
0.000476389
0.0011507
0.00218441
0.00370689
0.00584548
0.00879475
0.0128137
0.018244
0.0254847
0.034309
0.0438382
0.000288671
0.000472845
0.00113443
0.00215071
0.00364896
0.00575248
0.00865182
0.0126012
0.0179367
0.0250647
0.0338821
0.0435186
0.000287244
0.000470899
0.00112101
0.0021223
0.00359922
0.00567181
0.00852642
0.0124122
0.0176587
0.0246741
0.0334635
0.0431916
0.00028626
0.000470107
0.00111002
0.00209887
0.00355718
0.00560336
0.00841935
0.0122494
0.017417
0.0243284
0.0330789
0.0428953
0.00028572
0.000470347
0.00110132
0.0020803
0.0035225
0.00554648
0.00832991
0.0121126
0.0172121
0.0240329
0.0327423
0.0426419
0.000285553
0.000471339
0.00109429
0.00206516
0.00349404
0.00549993
0.00825646
0.0119994
0.0170414
0.0237834
0.0324511
0.0424301
0.000285728
0.000473039
0.00108889
0.00205323
0.00347117
0.00546223
0.00819673
0.0119072
0.0169012
0.0235761
0.0321995
0.0422306
0.000286202
0.000475239
0.00108471
0.00204384
0.00345293
0.00543204
0.00814873
0.0118328
0.0167884
0.0234085
0.0319924
0.0420566
0.000286937
0.000478023
0.00108198
0.00203724
0.00343945
0.00540917
0.00811163
0.0117746
0.0167002
0.0232817
0.0318539
0.0420158
0.000287899
0.000481136
0.00108038
0.00203305
0.00343025
0.005393
0.00808424
0.0117292
0.016627
0.0231704
0.031729
0.0419832
0.00028918
0.000484382
0.00108027
0.00203154
0.00342563
0.00538417
0.00806827
0.0117006
0.0165758
0.0230784
0.0315881
0.041844
0.000290713
0.0004878
0.00108145
0.00203247
0.00342514
0.00538188
0.00806266
0.0116893
0.0165546
0.023041
0.0315429
0.041858
0.000292522
0.000491251
0.00108442
0.00203656
0.00342947
0.00538602
0.00806546
0.0116897
0.0165521
0.0230377
0.0315623
0.0419562
0.000294541
0.000494847
0.00108909
0.00204394
0.00343912
0.00539751
0.00807724
0.0116994
0.0165578
0.0230419
0.0316055
0.042181
0.000296771
0.0004985
0.00109568
0.00205501
0.00345492
0.00541812
0.00810141
0.0117237
0.0165756
0.023041
0.0315802
0.0422038
0.000299182
0.000502359
0.00110392
0.00206936
0.00347648
0.00544786
0.0081395
0.0117686
0.0166224
0.0230791
0.0316013
0.0422949
0.000301825
0.000506142
0.00111403
0.00208732
0.00350409
0.00548713
0.00819192
0.0118349
0.0167017
0.0231681
0.0317023
0.0424683
0.000304621
0.00050989
0.00112587
0.00210869
0.00353758
0.00553538
0.00825758
0.0119202
0.0168083
0.0232976
0.0318659
0.042769
0.000307553
0.000513529
0.00113954
0.00213359
0.00357696
0.00559259
0.0083361
0.0120233
0.0169384
0.023456
0.03206
0.0430961
0.000310535
0.000517067
0.00115471
0.00216161
0.00362185
0.00565858
0.00842782
0.012145
0.0170935
0.0236454
0.0322859
0.0434298
0.000313561
0.000520371
0.00117155
0.00219284
0.00367219
0.00573321
0.00853292
0.0122869
0.0172775
0.0238746
0.0325616
0.0438216
0.00031661
0.000523454
0.00118994
0.0022269
0.0037272
0.00581512
0.00864922
0.012446
0.0174881
0.0241435
0.0328906
0.044242
0.000319684
0.000526343
0.00121006
0.00226397
0.00378685
0.00590388
0.00877523
0.0126191
0.0177201
0.0244491
0.0332876
0.0447843
0.000322786
0.00052943
0.00123183
0.00230397
0.00385107
0.00599904
0.0089097
0.0128028
0.017965
0.0247709
0.0337129
0.0454117
0.000325982
0.000533378
0.00125541
0.00234716
0.00392014
0.00610104
0.00905304
0.0129971
0.0182204
0.0250967
0.034113
0.045878
0.000329342
0.000539172
0.0012807
0.0023935
0.00399425
0.00621045
0.00920674
0.013205
0.0184935
0.0254461
0.0345512
0.0464357
0.000333007
0.000547442
0.00130774
0.00244305
0.00407369
0.00632779
0.00937166
0.013428
0.0187855
0.0258175
0.0350108
0.0469998
0.00033685
0.000558063
0.00133684
0.00249614
0.0041585
0.00645311
0.00954797
0.0136668
0.0190982
0.0262147
0.0354982
0.0475709
0.000340671
0.000570215
0.00136794
0.00255275
0.00424891
0.00658695
0.00973631
0.013922
0.0194334
0.0266429
0.0360311
0.0482193
0.000344255
0.000583344
0.00140095
0.00261272
0.00434466
0.00672884
0.00993615
0.0141931
0.0197897
0.0270978
0.0365988
0.0489317
0.000347506
0.000597323
0.00143589
0.00267607
0.00444567
0.00687842
0.010147
0.0144792
0.0201661
0.027577
0.0371815
0.0495643
0.000350341
0.000612328
0.00147276
0.00274311
0.00455232
0.00703577
0.0103685
0.0147799
0.020563
0.0280903
0.0378376
0.050417
0.000352633
0.000628241
0.00151151
0.00281389
0.0046649
0.00720133
0.0106006
0.0150936
0.0209739
0.0286157
0.0384977
0.0512464
0.000354391
0.000645333
0.00155279
0.00288873
0.0047834
0.00737555
0.010844
0.0154203
0.0213983
0.0291493
0.0391464
0.0519984
0.000355562
0.000663499
0.00159654
0.0029679
0.00490861
0.00755946
0.0111004
0.0157644
0.0218444
0.0297088
0.039822
0.0527716
0.000356004
0.000682778
0.00164279
0.00305135
0.00504031
0.00775293
0.0113703
0.0161265
0.0223139
0.0302988
0.0405434
0.0536338
0.000355561
0.000703209
0.00169159
0.00313916
0.00517864
0.00795575
0.011653
0.0165047
0.0228036
0.030914
0.0412905
0.0545001
0.000354086
0.000724862
0.00174308
0.00323179
0.00532394
0.0081678
0.0119475
0.0168978
0.0233112
0.0315508
0.0420682
0.055431
0.000351436
0.00074799
0.0017977
0.00332944
0.0054765
0.00838949
0.0122538
0.0173045
0.0238326
0.0321984
0.0428474
0.0563346
0.000347311
0.000772856
0.00185595
0.00343294
0.00563735
0.00862242
0.0125737
0.017726
0.024368
0.0328554
0.0436289
0.0572522
0.00034119
0.000799633
0.00191834
0.0035433
0.00580797
0.00886837
0.0129097
0.0181659
0.0249223
0.0335262
0.0443997
0.0580456
0.000332074
0.000828546
0.0019857
0.00366199
0.00599053
0.0091293
0.0132644
0.0186276
0.0255003
0.0342247
0.0452225
0.0590287
0.000318093
0.000859666
0.00205894
0.00379096
0.00618844
0.0094086
0.0136415
0.0191139
0.0261017
0.0349357
0.0460142
0.059814
0.000296366
0.000893423
0.00213954
0.00393296
0.00640532
0.0097122
0.0140473
0.0196333
0.0267397
0.0356873
0.0468628
0.0607458
0.000263571
0.000930327
0.00222972
0.0040922
0.00664866
0.0100518
0.0144916
0.0201938
0.0274175
0.0364696
0.0477162
0.0616075
0.000229922
0.000974523
0.00233386
0.00427494
0.00692728
0.0104407
0.0149979
0.0208184
0.0281582
0.0373072
0.0486084
0.0624856
0.000215612
0.00103351
0.00245725
0.00448946
0.00725472
0.010899
0.0155966
0.0215526
0.0290073
0.0382439
0.049579
0.0634052
0.000208324
0.00111191
0.00260806
0.00474893
0.00765056
0.0114542
0.0163246
0.0224505
0.0300454
0.0393581
0.0507016
0.0644266
0.000217873
0.00119785
0.00279822
0.00507796
0.0081509
0.0121537
0.0172402
0.0235803
0.0313586
0.0407828
0.052112
0.0656925
0.000237756
0.00130847
0.00305132
0.00552039
0.00882416
0.0130904
0.018458
0.0250721
0.0330828
0.0426517
0.0539861
0.0673899
0.000267476
0.0014534
0.00341392
0.00617994
0.0098415
0.0145024
0.0202688
0.0272499
0.0355503
0.045269
0.0565369
0.0695954
0.000340109
0.00207449
0.00464658
0.00802865
0.0122618
0.0174646
0.0237349
0.031129
0.0396862
0.0494461
0.0604784
0.0729703
0.00104965
0.00426855
0.00835259
0.0130752
0.0183486
0.0241166
0.03032
0.0368981
0.0437917
0.0509315
0.0582562
0.0657357
1.12277e-05
0.00198647
0.00481784
0.00856176
0.0131487
0.01852
0.0246096
0.0313165
0.0385331
0.0461408
0.0540202
0.0620675
0.000542873
0.00174619
0.00404443
0.00713851
0.0110643
0.0158283
0.0214197
0.027791
0.0348583
0.0425027
0.0505805
0.0589554
0.000627171
0.00155044
0.003543
0.00624827
0.00972998
0.0140366
0.0191993
0.0252156
0.0320391
0.0395746
0.0476812
0.0561897
0.000636041
0.00135582
0.00312698
0.00555617
0.00871802
0.0126791
0.0174948
0.0231932
0.0297602
0.037129
0.0451735
0.0537124
0.000643967
0.00121109
0.00281523
0.00503341
0.00794626
0.0116288
0.0161516
0.0215636
0.0278773
0.0350536
0.0429899
0.0515275
0.000647618
0.00110501
0.00257816
0.00462832
0.00733957
0.0107909
0.0150624
0.0202184
0.0262919
0.0332675
0.0410665
0.0495437
0.000649868
0.00102264
0.00238852
0.00430032
0.00684426
0.0101002
0.0141546
0.0190829
0.0249342
0.0317142
0.0393698
0.047792
0.000651996
0.000956433
0.00223252
0.00402781
0.00642999
0.00951841
0.0133836
0.0181091
0.0237567
0.0303504
0.0378594
0.0461904
0.000653993
0.000901988
0.00210168
0.00379731
0.00607782
0.00902076
0.0127194
0.0172632
0.022724
0.0291402
0.0364983
0.0447138
0.000655616
0.000856306
0.00198994
0.0035991
0.00577382
0.00858906
0.0121399
0.0165199
0.0218087
0.0280565
0.0352642
0.0433639
0.00065704
0.000817541
0.00189357
0.00342762
0.00550802
0.00820998
0.0116285
0.01586
0.0209905
0.0270798
0.0341427
0.0421334
0.00065838
0.00078432
0.00180963
0.00327734
0.00527321
0.00787382
0.011173
0.0152696
0.0202543
0.0261955
0.0331223
0.0410136
0.000659692
0.000756402
0.00173572
0.00314413
0.00506388
0.00757325
0.0107644
0.0147376
0.0195877
0.0253902
0.0321846
0.039955
0.000661897
0.000740273
0.00167002
0.00302498
0.00487584
0.00730252
0.0103952
0.0142553
0.0189805
0.0246524
0.0313187
0.0389732
0.000665747
0.000738514
0.0016112
0.00291766
0.00470579
0.00705717
0.0100598
0.0138158
0.0184257
0.0239769
0.0305297
0.0381118
0.000670583
0.000743573
0.00155832
0.00282044
0.00455111
0.00683359
0.00975351
0.0134133
0.0179158
0.0233523
0.0297858
0.0372118
0.000675479
0.000749791
0.00151057
0.00273182
0.00440954
0.00662874
0.00947234
0.013043
0.0174452
0.0227738
0.0290998
0.0364589
0.00067998
0.000755191
0.00146734
0.0026509
0.0042802
0.00644033
0.0092132
0.0127008
0.0170088
0.0222343
0.0284491
0.0356634
0.000684002
0.000759464
0.00142808
0.00257681
0.00416154
0.00626631
0.00897334
0.0123833
0.0166024
0.0217295
0.0278404
0.0349704
0.000687597
0.00076277
0.00139233
0.00250877
0.00405214
0.006105
0.0087505
0.0120877
0.0162229
0.0212574
0.0272734
0.0343229
0.000690824
0.000765267
0.00135978
0.002446
0.00395074
0.00595492
0.00854279
0.0118115
0.0158681
0.0208163
0.026746
0.033726
0.000693763
0.000767348
0.0013315
0.00238791
0.0038564
0.00581487
0.00834869
0.0115532
0.015536
0.0204035
0.026251
0.0331479
0.000696594
0.000769987
0.00131278
0.00233414
0.00376839
0.00568379
0.00816684
0.0113111
0.0152245
0.0200156
0.0257825
0.0325922
0.000699497
0.000774482
0.00130704
0.00228459
0.00368609
0.00556088
0.00799618
0.0110837
0.0149316
0.0196497
0.0253372
0.0320594
0.000702632
0.000780953
0.00131011
0.00223898
0.00360895
0.00544536
0.00783567
0.0108695
0.0146551
0.0193027
0.0249111
0.0315422
0.000705944
0.000788534
0.00131657
0.00219695
0.00353656
0.00533651
0.00768436
0.0106674
0.0143937
0.0189737
0.0245091
0.0310815
0.000709253
0.000796245
0.00132322
0.00215805
0.00346865
0.00523446
0.00754158
0.0104765
0.0141461
0.0186622
0.0241293
0.0306332
0.00071243
0.00080343
0.00132877
0.00212187
0.00340488
0.00513855
0.00740664
0.0102957
0.0139117
0.0183668
0.0237668
0.0301926
0.000715439
0.000809912
0.00133291
0.00208817
0.00334503
0.00504809
0.00727879
0.0101243
0.013689
0.018085
0.0234174
0.0297611
0.000718298
0.000815629
0.00133571
0.00205664
0.00328869
0.00496272
0.00715764
0.00996136
0.013477
0.0178165
0.0230875
0.0293862
0.000721086
0.000820786
0.00133738
0.00202707
0.00323546
0.00488178
0.00704247
0.00980638
0.013275
0.0175606
0.0227725
0.0290019
0.000723776
0.000825249
0.00133801
0.00199923
0.00318515
0.00480495
0.00693293
0.00965884
0.0130826
0.0173165
0.0224699
0.028628
0.000726258
0.000829178
0.00133779
0.00197303
0.0031375
0.00473197
0.00682865
0.00951821
0.0128987
0.0170818
0.0221732
0.0282435
0.000728618
0.000832656
0.00133689
0.00194853
0.00309227
0.00466252
0.00672921
0.00938394
0.0127231
0.016858
0.0218998
0.0279677
0.000730885
0.000835827
0.00133563
0.00192656
0.00304942
0.00459635
0.00663425
0.00925564
0.012555
0.0166435
0.0216314
0.0276033
0.000733114
0.000838806
0.00133462
0.00190907
0.00300892
0.00453343
0.00654366
0.00913301
0.0123945
0.0164397
0.0213858
0.0273735
0.000735418
0.000841961
0.00133483
0.00189847
0.00297076
0.00447339
0.00645709
0.00901584
0.0122413
0.0162458
0.0211477
0.0270517
0.000737802
0.00084533
0.00133699
0.00189508
0.00293512
0.00441624
0.00637482
0.00890398
0.012095
0.0160604
0.0209184
0.0267811
0.000740178
0.000849147
0.0013413
0.00189705
0.00290198
0.00436196
0.00629663
0.00879717
0.0119552
0.0158828
0.0206968
0.0265009
0.000742639
0.000853436
0.00134739
0.00190202
0.00287117
0.00431042
0.00622214
0.00869514
0.0118217
0.0157119
0.0204799
0.0262199
0.000745192
0.000858139
0.00135468
0.00190825
0.00284256
0.00426153
0.00615121
0.00859789
0.0116941
0.0155492
0.0202839
0.0260501
0.000747848
0.000863063
0.00136254
0.00191467
0.0028159
0.0042152
0.00608359
0.00850481
0.0115723
0.0153954
0.0201004
0.0258282
0.000750651
0.000868185
0.00137057
0.00192075
0.00279084
0.00417103
0.00601893
0.00841574
0.011456
0.015249
0.019921
0.0255891
0.000753531
0.000873142
0.00137833
0.00192613
0.0027672
0.00412899
0.00595742
0.00833088
0.0113449
0.0151085
0.0197446
0.0253539
0.00075629
0.000877834
0.00138564
0.0019308
0.00274486
0.00408892
0.00589856
0.00824965
0.0112385
0.0149728
0.0195691
0.0251134
0.000759044
0.00088252
0.00139264
0.00193479
0.00272373
0.00405096
0.00584255
0.00817199
0.0111367
0.0148414
0.0194004
0.0249134
0.000761883
0.000886825
0.00139892
0.00193805
0.00270383
0.00401485
0.00578901
0.00809791
0.0110389
0.0147148
0.0192382
0.0247084
0.000764832
0.00089105
0.00140473
0.00194074
0.00268506
0.00398055
0.00573802
0.00802694
0.0109453
0.0145929
0.0190815
0.024507
0.000767818
0.000895039
0.0014101
0.0019429
0.00266733
0.00394792
0.00568935
0.007959
0.0108552
0.0144756
0.0189295
0.0243084
0.000770774
0.000898854
0.00141506
0.00194461
0.00265072
0.00391697
0.00564322
0.00789426
0.0107687
0.0143624
0.0187834
0.0241307
0.000773734
0.000902437
0.00141959
0.00194596
0.0026354
0.00388759
0.00559915
0.00783238
0.0106859
0.0142539
0.0186445
0.0239627
0.000776726
0.000905966
0.00142395
0.00194728
0.00262183
0.00385996
0.00555739
0.00777347
0.0106066
0.0141503
0.0185126
0.023801
0.00077988
0.000909459
0.00142805
0.00194859
0.00261071
0.00383405
0.00551778
0.0077177
0.0105312
0.0140515
0.0183871
0.0236458
0.000783205
0.00091297
0.00143211
0.00195042
0.00260263
0.00380971
0.00548026
0.00766475
0.0104595
0.0139577
0.0182679
0.0234965
0.000786646
0.000916439
0.00143625
0.00195302
0.00259807
0.00378715
0.00544492
0.00761465
0.0103915
0.0138689
0.0181541
0.0233497
0.000790148
0.000919973
0.00144067
0.00195668
0.00259699
0.00376647
0.005412
0.00756772
0.0103272
0.0137849
0.0180471
0.0232251
0.000793757
0.000923534
0.00144543
0.00196147
0.0025989
0.00374763
0.00538114
0.00752361
0.0102669
0.0137061
0.0179476
0.0231064
0.000797514
0.000927317
0.00145078
0.00196752
0.0026031
0.00373083
0.00535263
0.0074824
0.0102105
0.0136324
0.0178545
0.0229868
0.000801561
0.000931334
0.00145656
0.00197442
0.00260892
0.00371585
0.00532632
0.00744443
0.0101584
0.013564
0.0177666
0.0228754
0.000805917
0.000935607
0.00146282
0.00198219
0.00261586
0.00370273
0.00530243
0.00740955
0.0101105
0.0135016
0.0176909
0.0228137
0.000810535
0.000940027
0.0014695
0.00199056
0.00262339
0.00369139
0.00528098
0.00737801
0.0100671
0.0134452
0.0176192
0.0226961
0.000815366
0.000944626
0.00147653
0.00199932
0.00263131
0.00368193
0.00526239
0.00735033
0.0100285
0.0133956
0.0175626
0.022685
0.000820467
0.0009493
0.00148375
0.00200829
0.00263947
0.00367432
0.00524647
0.00732643
0.00999542
0.0133535
0.0175107
0.0225736
0.000825895
0.000954197
0.00149128
0.00201752
0.00264781
0.00366884
0.00523369
0.00730668
0.00996796
0.0133183
0.0174664
0.0225354
0.000831827
0.000959295
0.00149887
0.00202672
0.00265642
0.00366559
0.00522422
0.00729173
0.00994681
0.0132907
0.0174305
0.0224769
0.000838327
0.000964615
0.00150661
0.00203608
0.00266525
0.00366466
0.00521845
0.00728189
0.0099326
0.0132716
0.017404
0.0224395
0.000845415
0.000970085
0.00151446
0.0020455
0.00267442
0.00366649
0.00521705
0.00727805
0.00992596
0.0132618
0.0173878
0.022408
0.000853095
0.000975669
0.00152242
0.00205504
0.00268406
0.00367159
0.0052209
0.00728122
0.0099281
0.0132625
0.0173849
0.0224135
0.000861628
0.000981599
0.00153062
0.00206483
0.00269443
0.00368069
0.0052308
0.00729264
0.00994083
0.013276
0.0173993
0.0224311
0.000871366
0.000987763
0.00153906
0.00207496
0.00270573
0.00369477
0.00524827
0.00731401
0.00996619
0.013305
0.0174308
0.0224547
0.000882876
0.000995659
0.00154911
0.00208642
0.00271916
0.00371701
0.00527706
0.00734981
0.0100087
0.0133538
0.0174869
0.0225358
0.0008949
0.000997913
0.00155481
0.00209507
0.00273148
0.0037415
0.00531244
0.00739677
0.0100675
0.0134237
0.0175644
0.0225755
0.000939555
0.00103862
0.00158595
0.00212597
0.00276802
0.00381592
0.00540435
0.00750189
0.0101824
0.013544
0.0176866
0.022739
0.000525216
0.000871914
0.00152454
0.00206258
0.00269683
0.00374636
0.00534532
0.00746106
0.0101688
0.0135683
0.017757
0.0228022
0.184688
0.136142
0.125063
0.15757
0.0492039
0.0966259
0.136748
0.135262
0.046596
0.047753
0.154475
0.139122
0.11674
0.137047
0.121375
0.0533734
0.106373
0.142445
0.142845
0.0833742
0.139295
0.136854
0.119643
0.0888985
0.0960438
0.0373165
0.0667382
0.162586
0.148533
0.115334
0.120826
0.153055
0.0552068
0.078915
0.12595
0.138887
0.129384
0.193242
0.0566665
0.108925
0.11409
0.159261
0.0753096
0.0581968
0.135079
0.0961566
0.13597
0.13669
0.137971
0.143858
0.13298
0.0933877
0.222114
0.0761661
0.137153
0.130014
0.175268
0.140022
0.133746
0.192218
0.129167
0.115873
0.107585
0.115367
0.182524
0.0721184
0.112525
0.180921
0.211796
0.113495
0.146315
0.11517
0.137845
0.138818
0.0449392
0.120085
0.125702
0.11239
0.0818665
0.131131
0.0645391
0.110507
0.139377
0.145915
0.0669496
0.138684
0.135475
0.136611
0.133156
0.0984005
0.0738322
0.134492
0.136241
0.138128
0.106025
0.137887
0.067808
0.0625018
0.137736
0.114294
0.104982
0.137738
0.0383856
0.130781
0.0824356
0.126042
0.107258
0.0751064
0.108778
0.105236
0.13531
0.116597
0.127579
0.134856
0.14882
0.130073
0.140014
0.137441
0.131934
0.0466987
0.122605
0.134484
0.125068
0.134212
0.161705
0.0600863
0.160262
0.0757308
0.137692
0.069231
0.105251
0.0831007
0.0817106
0.137737
0.0922975
0.16173
0.0733138
0.138349
0.131499
0.125078
0.139737
0.191431
0.132017
0.120525
0.115917
0.102139
0.0711959
0.0762402
0.0960757
0.110735
0.106576
0.139961
0.113746
0.154437
0.185832
0.0348133
0.0853594
0.12674
0.100841
0.136299
0.132577
0.0967734
0.136647
0.137474
0.0890027
0.149707
0.0370293
0.139836
0.131897
0.184053
0.138947
0.139328
0.131897
0.138643
0.136549
0.13178
0.1334
0.138085
0.130259
0.120756
0.13937
0.0524317
0.12016
0.054459
0.108135
0.180256
0.0940324
0.135451
0.0811948
0.129894
0.139077
0.0538117
0.356568
0.0999792
0.0280983
0.140056
0.12913
0.128233
0.135085
0.0805641
0.103921
0.0637684
0.13539
0.0829924
0.0942578
0.12707
0.11237
0.0897189
0.0967165
0.290304
0.122923
0.14003
0.2028
0.139152
0.130749
0.0843327
0.0560596
0.0496901
0.11296
0.12417
0.0871994
0.140064
0.0440385
0.0783631
0.117308
0.138697
0.138816
0.0700488
0.132979
0.111654
0.0569839
0.101342
0.0933915
0.0545576
0.138782
0.134123
0.139033
0.0186913
0.0794331
0.164915
0.0680922
0.127573
0.0930971
0.132471
0.115856
0.136528
0.0778468
0.121708
0.0508187
0.0509531
0.111744
0.0707684
0.0491402
0.103099
0.139262
0.0618386
0.0607693
0.122858
0.135912
0.138508
0.133619
0.243711
0.131545
0.137627
0.136357
0.0434636
0.123603
0.125793
0.123395
0.124941
0.131437
0.114853
0.0607239
0.0644874
0.0289228
0.0884714
0.135649
0.133482
0.101362
0.13637
0.134545
0.0504288
0.139344
0.11401
0.139386
0.115925
0.139386
0.0924922
0.120875
0.0825351
0.363134
0.139957
0.139663
0.0984171
0.14872
0.0915938
0.139984
0.0420079
0.111156
0.109133
0.138958
0.0825256
0.0913155
0.068675
0.0909579
0.133929
0.125966
0.134755
0.119128
0.139775
0.389141
0.13357
0.0414751
0.131826
0.128934
0.192935
0.121331
0.213305
0.136005
0.131999
0.232865
0.120361
0.0858566
0.137979
0.0940379
0.131888
0.12121
0.0948422
0.128834
0.125591
0.136541
0.152003
0.108561
0.137591
0.121543
0.148335
0.0635347
0.138047
0.18834
0.0797159
0.129528
0.0987902
0.0577087
0.0537402
0.094538
0.21737
0.137008
0.137267
0.0558654
0.112367
0.110846
0.0820548
0.11574
0.329658
0.0771098
0.13958
0.0988689
0.103462
0.140003
0.140026
0.0330889
0.0552431
0.139958
0.102479
0.0899828
0.140007
0.12401
0.13818
0.130253
0.0835354
0.13919
0.133127
0.111417
0.138882
0.131785
0.114439
0.13719
0.172108
0.145756
0.0896577
0.134538
0.106493
0.06672
0.092051
0.133966
0.122775
0.124044
0.0771273
0.135556
0.1359
0.106194
0.0589403
0.0352821
0.0531754
0.138606
0.0595171
0.138177
0.152186
0.139978
0.0475677
0.0833418
0.0627501
0.137933
0.125416
0.135623
0.163212
0.128569
0.0658675
0.0920159
0.139022
0.124733
0.123522
0.112101
0.127185
0.11872
0.0375216
0.126687
0.0768365
0.0354677
0.205896
0.0682854
0.123728
0.110137
0.139735
0.119405
0.136483
0.114413
0.0934192
0.0438559
0.0951809
0.0404727
0.139479
0.130735
0.12086
0.128055
0.112073
0.141077
0.123546
0.104317
0.140332
0.134404
0.154607
0.130409
0.13728
0.100034
0.132254
0.0461265
0.175995
0.0425401
0.101665
0.207355
0.194813
0.0797739
0.0434902
0.137083
0.133839
0.133081
0.0761607
0.114708
0.0503918
0.139
0.0869966
0.13965
0.128118
0.0988871
0.116532
0.130485
0.100424
0.126803
0.0817744
0.13765
0.140035
0.140045
0.0918253
0.117688
0.080993
0.0592282
0.128016
0.132508
0.0722303
0.206671
0.132081
0.139864
0.180516
0.11295
0.0768905
0.0641628
0.139066
0.0540556
0.0975641
0.116126
0.0874203
0.220376
0.136146
0.132047
0.131631
0.138698
0.0563094
0.104371
0.135357
0.118654
0.07826
0.135959
0.139371
0.138257
0.0665527
0.136862
0.0469438
0.0598174
0.0524031
0.139605
0.0280447
0.0326637
0.129025
0.0716168
0.259114
0.0323276
0.118838
0.191748
0.0296128
0.154543
0.104608
0.137575
0.130439
0.0718455
0.208639
0.0317184
0.0420428
0.136806
0.110438
0.140065
0.136716
0.0831532
0.0669818
0.0733907
0.104791
0.0367792
0.158565
0.0279255
0.14454
0.134094
0.136578
0.0280722
0.136181
0.08852
0.13096
0.16272
0.136624
0.100675
0.15043
0.140041
0.0521641
0.126778
0.10334
0.170992
0.139506
0.137126
0.1212
0.110831
0.12591
0.13279
0.119049
0.228304
0.165033
0.181607
0.137529
0.132507
0.0857125
0.1398
0.11757
0.109783
0.113358
0.043283
0.11728
0.137372
0.134963
0.130847
0.20644