/*--------------------------------*- C++ -*----------------------------------*\
| =========                 |                                                 |
| \\      /  F ield         | OpenFOAM: The Open Source CFD Toolbox           |
|  \\    /   O peration     | Version:  2.3.0                                 |
|   \\  /    A nd           | Web:      www.OpenFOAM.org                      |
|    \\/     M anipulation  |                                                 |
\*---------------------------------------------------------------------------*/
FoamFile
{
    version     2.0;
    format      ascii;
    class       surfaceScalarField;
    location    "3000";
    object      phi;
}
// * * * * * * * * * * * * * * * * * * * * * * * * * * * * * * * * * * * * * //

dimensions      [0 3 -1 0 0 0 0];

internalField   nonuniform List<scalar> 
13269
(
-0.0225078
-0.0212205
0.0241697
0.0196179
-0.0247813
-0.0174171
0.0196908
-0.0264406
-0.0142678
0.0159273
-0.0274877
-0.0116555
0.0127026
-0.0279553
-0.00947966
0.00994739
-0.0279166
-0.0076645
0.00762594
-0.0274682
-0.00616016
0.00571172
-0.0267203
-0.004915
0.00416745
-0.0257733
-0.00389291
0.00294573
-0.0246985
-0.00306674
0.00199241
-0.0235988
-0.00240703
0.00130714
-0.00188062
-0.0227052
0.000987283
-0.0193557
-0.0190186
0.0171535
-0.0209428
-0.0158301
-0.0220135
-0.0131971
-0.0226463
-0.0110227
-0.0228972
-0.0092287
-0.0228062
-0.00775553
-0.0224199
-0.00654646
-0.0217769
-0.00555786
-0.020913
-0.00475694
-0.0198709
-0.00410869
-0.0186896
-0.0035884
-0.00317333
-0.0173968
-0.0168884
-0.0172174
0.0150869
-0.0181114
-0.0146072
-0.0188546
-0.0124539
-0.0192028
-0.0106746
-0.0192252
-0.00920634
-0.018989
-0.00799172
-0.0185447
-0.00699087
-0.0179355
-0.00616701
-0.0172016
-0.00549098
-0.016373
-0.00493723
-0.0154764
-0.0044851
-0.00411959
-0.0145301
-0.014812
-0.0156939
0.0132884
-0.0158294
-0.0135899
-0.0164353
-0.0118481
-0.0167031
-0.0104069
-0.0166973
-0.0092122
-0.0164689
-0.00822008
-0.0160617
-0.00739811
-0.0155135
-0.00671523
-0.0148561
-0.00614839
-0.0141128
-0.00568058
-0.0133048
-0.00529307
-0.00497526
-0.0124491
-0.0130445
-0.0143814
0.011732
-0.013915
-0.0127194
-0.0144252
-0.0113379
-0.0146413
-0.0101909
-0.0146208
-0.00923272
-0.0144089
-0.00843203
-0.0140453
-0.00776173
-0.013559
-0.00720158
-0.0129748
-0.00673256
-0.0123176
-0.00633786
-0.0116018
-0.0060089
-0.00573452
-0.0108425
-0.0115444
-0.0132269
0.0103899
-0.0123127
-0.0119512
-0.0127599
-0.0108908
-0.0129512
-0.00999961
-0.0129311
-0.00925282
-0.0127423
-0.00862084
-0.012417
-0.00808701
-0.0119823
-0.00763634
-0.0114611
-0.00725378
-0.0108699
-0.006929
-0.0102243
-0.00665457
-0.00642222
-0.00953658
-0.0102631
-0.0121969
0.00923304
-0.0109429
-0.0112715
-0.0113435
-0.0104901
-0.0115145
-0.00982864
-0.0115027
-0.00926467
-0.0113343
-0.00878922
-0.0110447
-0.00837661
-0.0106556
-0.0080255
-0.0101866
-0.0077228
-0.00965348
-0.00746207
-0.00907034
-0.00723772
-0.00704611
-0.00844645
-0.00915531
-0.0112787
0.00823706
-0.00976714
-0.0106596
-0.0101303
-0.010127
-0.0102866
-0.0096723
-0.010274
-0.00927728
-0.0101292
-0.00893409
-0.0098697
-0.00863608
-0.0095203
-0.00837491
-0.00909696
-0.00814615
-0.00861483
-0.00794421
-0.00808617
-0.00776639
-0.00761275
-0.00751953
-0.00818793
-0.0104488
0.00735809
-0.0087438
-0.0101038
-0.00907233
-0.00979849
-0.00921758
-0.00952706
-0.00920956
-0.00928531
-0.00907759
-0.00906608
-0.00884619
-0.00886749
-0.00853415
-0.00868695
-0.00815317
-0.00852715
-0.00771671
-0.00838069
-0.00723463
-0.00824846
-0.00812735
-0.00672004
-0.00734265
-0.00969629
0.00659011
-0.00784868
-0.00959773
-0.00814818
-0.00949899
-0.0082825
-0.00939273
-0.00827678
-0.00929104
-0.00816017
-0.00918268
-0.00795294
-0.00907473
-0.00766832
-0.00897159
-0.00732559
-0.0088699
-0.00692982
-0.00877646
-0.00649257
-0.00868572
-0.0060247
-0.00859521
-0.0203019
-0.00171114
-0.000692449
-0.0182662
-0.00189292
-0.000142681
-0.0163653
-0.0021796
0.000278394
-0.0145536
-0.0025759
0.00076419
-0.0128405
-0.00309798
0.00138477
-0.0112621
-0.00377675
0.00219836
-0.00987955
-0.00464284
0.00326021
-0.00876714
-0.00574029
0.00462783
-0.0080032
-0.00712137
0.00635743
-0.00766375
-0.00885233
0.00851287
-0.00782503
-0.0110151
0.0111763
-0.0137182
0.0144546
-0.00856143
-0.0160402
-0.00306782
-0.0146869
-0.00324615
-0.0133732
-0.00349336
-0.012124
-0.00382509
-0.0109642
-0.00425783
-0.00992225
-0.00481867
-0.00903038
-0.00553474
-0.00832563
-0.00644504
-0.00785298
-0.00759401
-0.00767133
-0.00903399
-0.00785561
-0.0108308
-0.0130739
-0.00849988
-0.0135657
-0.00403231
-0.0126064
-0.00420536
-0.0116647
-0.00443509
-0.0107545
-0.00473517
-0.00989266
-0.00511973
-0.00910401
-0.00560728
-0.00841729
-0.00622144
-0.00787063
-0.00699168
-0.00751445
-0.00795018
-0.00740627
-0.00914215
-0.00761696
-0.0106201
-0.0124579
-0.008233
-0.0115881
-0.00489335
-0.0107561
-0.00503736
-0.00996296
-0.00522826
-0.00921851
-0.00547959
-0.00853695
-0.00580129
-0.00793448
-0.00620971
-0.00743471
-0.0067212
-0.00706604
-0.00736033
-0.00686405
-0.00815215
-0.00687552
-0.0091307
-0.00715895
-0.0103367
-0.0118282
-0.0077886
-0.0100803
-0.00565551
-0.00935425
-0.00576342
-0.00866987
-0.00591264
-0.00803919
-0.00611025
-0.00747234
-0.00636813
-0.00698553
-0.00669651
-0.00659651
-0.00711021
-0.00633214
-0.00762469
-0.006223
-0.00826128
-0.00630907
-0.00904462
-0.00663899
-0.0100067
-0.0111902
-0.00727694
-0.00884748
-0.00634462
-0.00819751
-0.00641338
-0.00759311
-0.00651705
-0.00704237
-0.00666097
-0.00655716
-0.00685334
-0.00615089
-0.00710277
-0.00584184
-0.00741925
-0.0056506
-0.00781591
-0.0056051
-0.00830678
-0.00574003
-0.00890969
-0.00609855
-0.00964823
-0.0105542
-0.00673459
-0.00782339
-0.00696769
-0.00723826
-0.00699851
-0.00669755
-0.00705776
-0.0062106
-0.00714791
-0.00578769
-0.00727625
-0.00544156
-0.00744888
-0.00518724
-0.00767357
-0.00504619
-0.00795696
-0.00504182
-0.00831115
-0.00520611
-0.0087454
-0.00557541
-0.00927893
-0.0099297
-0.00619992
-0.00695352
-0.00753371
-0.00642379
-0.00752824
-0.00593852
-0.00754304
-0.00550405
-0.00758239
-0.00513091
-0.00764939
-0.00483121
-0.00774858
-0.0046193
-0.00788548
-0.00451308
-0.00806316
-0.00453537
-0.00828886
-0.0047144
-0.00856636
-0.00508519
-0.00890815
-0.00932588
-0.00568903
-0.00620606
-0.00804767
-0.00572602
-0.00800829
-0.00528723
-0.00798182
-0.00489807
-0.00797157
-0.00456697
-0.00798048
-0.00430486
-0.0080107
-0.00412382
-0.00806651
-0.00404407
-0.00814293
-0.00408208
-0.00825083
-0.00426782
-0.00838064
-0.0046287
-0.00854728
-0.00875013
-0.00520446
-0.00555725
-0.00851513
-0.00512263
-0.00844289
-0.00472583
-0.00837864
-0.00437507
-0.00832231
-0.00407861
-0.00827694
-0.00384899
-0.00824031
-0.00369308
-0.00822244
-0.00363223
-0.00820376
-0.00367966
-0.0082034
-0.00386457
-0.00819572
-0.00421165
-0.00820021
-0.00475415
-0.00820764
0.00459097
-0.00378915
0.0042669
-0.00506881
0.00427779
-0.00254028
0.00285337
0.00407081
-0.0015066
0.00171356
0.00391128
-0.000689952
0.000849369
0.00374188
-5.86697e-05
0.000228083
0.0035096
0.000428671
-0.000196574
0.00316949
0.000815052
-0.000474906
0.00267841
0.00114305
-0.00065219
0.00198906
0.00145623
-0.000766859
0.00103929
0.00180051
-0.000850999
-0.000266384
0.00223474
-0.000929049
0.00283871
-0.00210605
-0.00099929
0.0039593
-0.00330231
-0.0044462
0.0035947
-0.00217573
0.00331552
-0.00122744
0.00306892
-0.000443424
0.00280446
0.00020578
0.00247593
0.000757107
0.00204434
0.00124663
0.00147497
0.0017123
0.000742177
0.00218904
-0.000174015
0.00271658
-0.00126085
0.00332162
0.0040117
-0.00243395
0.00326099
-0.00279341
-0.00376995
0.00287053
-0.00178532
0.00255536
-0.000912294
0.00227079
-0.0001589
0.00197457
0.000501983
0.00163115
0.00110048
0.00121005
0.00166773
0.000687136
0.00223516
4.46541e-05
0.00283154
-0.000721918
0.00348308
-0.0016037
0.00420343
0.00498112
-0.00257323
0.00261722
-0.00230203
-0.00310867
0.00223664
-0.00140477
0.00192893
-0.00060462
0.00165508
0.000114929
0.00137909
0.000777952
0.00107004
0.00140951
0.000701111
0.00203665
0.000251636
0.00268461
-0.000295439
0.00337862
-0.000950166
0.00413776
-0.00171786
0.00497113
0.00586863
-0.00260546
0.0020709
-0.00185006
-0.00252292
0.00172271
-0.0010566
0.00144432
-0.00032626
0.00120074
0.000358492
0.000959996
0.00101868
0.000693749
0.00167574
0.000377526
0.00235286
-9.35459e-06
0.00307146
-0.000484136
0.0038534
-0.00106148
0.00471506
-0.00175483
0.00566449
0.00668577
-0.00257204
0.00162172
-0.00144522
-0.00202659
0.00131507
-0.000749975
0.00107333
-8.45492e-05
0.000864064
0.000567743
0.000658595
0.00122413
0.000429841
0.00190448
0.000156793
0.0026259
-0.000180877
0.00340912
-0.000600973
0.0042735
-0.00111991
0.00523396
-0.00175236
0.00629694
0.00744119
-0.00250782
0.00125701
-0.00109323
-0.00160905
0.000993843
-0.000486826
0.000788287
0.000120987
0.000611215
0.000744799
0.00043695
0.00139838
0.000240444
0.00210097
1.07422e-06
0.00286526
-0.000298563
0.00370874
-0.000675354
0.00465028
-0.00114649
0.00570508
-0.00172561
0.00687605
0.00813677
-0.00242121
0.000962373
-0.000795397
-0.00126026
0.000740701
-0.000265165
0.000568377
0.000293291
0.000419427
0.000893733
0.000272918
0.00154487
0.000101821
0.00227205
-0.000112084
0.00307915
-0.00038172
0.00397837
-0.000721187
0.00498974
-0.00115073
0.00613461
-0.00168113
0.00740645
0.00877945
-0.00232383
0.000726815
-0.000542577
-0.00097968
0.000540966
-7.93558e-05
0.000397862
0.000436371
0.000272655
0.00101891
0.000151877
0.00166562
2.97115e-06
0.00242095
-0.000190693
0.00327281
-0.000436028
0.0042237
-0.000743228
0.00529694
-0.00113368
0.00652507
-0.00162073
0.0078935
0.00937127
-0.00221256
0.000542258
-0.000352826
-0.0007321
0.0003855
7.73486e-05
0.000265041
0.000556762
0.000162781
0.00112113
7.14691e-05
0.00175693
-6.11315e-05
0.00255353
-0.000247134
0.00345882
-0.00046884
0.00444538
-0.000740932
0.00556901
-0.00110038
0.0068845
-0.00154976
0.00834287
-0.00209064
0.00991215
-0.00292146
0.00410328
-0.00328787
-0.00410182
0.00572343
-0.00454327
-0.00535079
0.00701982
-0.00577082
-0.00643732
0.00819328
-0.00710691
-0.00730438
0.00950055
-0.00863351
-0.0079001
0.0109944
-0.0103989
-0.00817602
0.012734
-0.0124582
-0.00808982
0.0147858
-0.0148721
-0.00757285
0.0172088
-0.0177259
-0.00655324
0.0200802
-0.0210999
-0.00494253
0.0234826
-0.0250934
0.0275227
-0.0298187
-0.0026466
-0.00343074
0.00510015
-0.0044582
0.00675076
-0.00557325
0.00813494
-0.00654078
0.00916067
-0.00728514
0.0102449
-0.00777426
0.0114834
-0.00797655
0.0129363
-0.00784321
0.0146524
-0.0073203
0.0166858
-0.00633917
0.019099
-0.00482154
0.021965
0.0253669
-0.00266589
-0.00357901
0.00610595
-0.00453309
0.00770469
-0.00550116
0.009103
-0.00636449
0.0100239
-0.00702124
0.0109016
-0.00745158
0.0119137
-0.00761618
0.0131008
-0.00747583
0.0145119
-0.00697455
0.0161845
-0.00605855
0.018183
-0.00464629
0.0205527
0.0233738
-0.00265321
-0.00356142
0.00706192
-0.00447479
0.00861794
-0.00534047
0.00996867
-0.00610392
0.0107872
-0.00668563
0.0114833
-0.00706073
0.0122887
-0.0071983
0.0132383
-0.00705685
0.0143704
-0.00659083
0.0157184
-0.00574036
0.0173325
-0.00443863
0.0192509
0.0215432
-0.00260812
-0.00346849
0.00795838
-0.00432908
0.00947844
-0.0051111
0.0107507
-0.0057922
0.0114682
-0.00630958
0.0120007
-0.00664094
0.01262
-0.00675725
0.0133546
-0.00662034
0.0142335
-0.00618717
0.0152852
-0.00540374
0.016549
-0.00421187
0.0180591
0.0198629
-0.00253153
-0.00333572
0.00878627
-0.00413331
0.010276
-0.00484737
0.0114647
-0.00545337
0.0120741
-0.00591739
0.0124647
-0.00621046
0.012913
-0.00630964
0.0134538
-0.00617805
0.0141019
-0.0057789
0.0148861
-0.00505989
0.01583
-0.00396518
0.0169644
0.0183257
-0.00242797
-0.00318442
0.00954946
-0.00392172
0.0110132
-0.00456653
0.0121095
-0.00510696
0.0126145
-0.00551895
0.0128766
-0.00577972
0.0131738
-0.00586324
0.0135373
-0.00574177
0.0139804
-0.00537463
0.0145189
-0.00471856
0.015174
-0.00371873
0.0159646
0.0169206
-0.00231367
-0.0030239
0.0102495
-0.00368902
0.0116783
-0.00427322
0.0126937
-0.004756
0.0130973
-0.00512431
0.0132449
-0.00535817
0.0134076
-0.00543329
0.0136124
-0.00531812
0.0138652
-0.00498246
0.0141832
-0.0043815
0.014573
-0.00346946
0.0150526
0.0156409
-0.0021897
-0.00285607
0.010893
-0.00346218
0.0122844
-0.00398878
0.0132203
-0.00441811
0.0135266
-0.00474769
0.0135745
-0.00495528
0.0136152
-0.00501738
0.0136745
-0.00491247
0.0137603
-0.00460437
0.0138751
-0.00405943
0.0140281
-0.00323127
0.0142244
0.014474
-0.00206439
-0.00266676
0.0114692
-0.0031939
0.0128116
-0.00367222
0.0136986
-0.00407347
0.0139278
-0.00437525
0.0138763
-0.00456736
0.0138072
-0.00462382
0.0137309
-0.00452443
0.0136608
-0.00424771
0.0135984
-0.00375014
0.0135305
-0.00299687
0.0134712
-0.00193804
0.0134152
0.00247843
-0.00149172
0.00480893
-0.00102348
0.0072802
-0.000478923
0.00992332
0.000302704
0.0126159
0.00147494
0.015176
0.00315176
0.0173965
0.00540545
0.0190856
0.00825841
0.0201
0.0116885
0.0203939
0.0156335
0.0200598
0.0200249
0.0249184
0.019311
-0.000207025
-0.00128521
0.000258258
-0.00148848
0.00126261
-0.00148374
0.00279893
-0.00123335
0.00487867
-0.000605054
0.00748386
0.000546753
0.0104554
0.00243388
0.013473
0.00524088
0.0161262
0.00903542
0.0180322
0.0137276
0.0189788
0.0190782
0.0248754
0.0190217
-0.000120278
-0.00116522
-0.000205061
-0.00140342
-0.000141496
-0.00154756
0.000203409
-0.00157793
0.00101411
-0.00141587
0.00248201
-0.000920876
0.0047378
0.00017812
0.00772328
0.00225551
0.0110991
0.00565971
0.0142963
0.0105304
0.0167049
0.0166696
0.0236129
0.0179673
-2.98856e-05
-0.00113522
-2.06082e-05
-0.00141227
3.88415e-05
-0.00160707
0.000192414
-0.00173116
0.00051289
-0.00173641
0.00112486
-0.00153252
0.00224304
-0.000939936
0.00413081
0.00036794
0.00690665
0.00288406
0.0103049
0.00713225
0.0136428
0.0133317
0.0210866
0.0161692
-2.7964e-05
-0.00110737
-4.46245e-05
-0.00139523
-3.22106e-05
-0.00161969
3.35746e-05
-0.00179658
0.000193134
-0.00189599
0.000513794
-0.00185284
0.00112029
-0.00154627
0.00222852
-0.000740011
0.00412222
0.000990653
0.00695692
0.00429774
0.0104441
0.00984472
0.0177264
0.0138043
-2.31764e-05
-0.00108403
-3.18422e-05
-0.00138607
-2.00507e-05
-0.00163149
2.55572e-05
-0.00184178
0.000127621
-0.00199804
0.00032608
-0.00205094
0.000692558
-0.00191258
0.00136293
-0.00141005
0.00256751
-0.000213587
0.00461412
0.00225145
0.00762979
0.00682902
0.0141885
0.0111678
-1.75498e-05
-0.00106638
-2.65061e-05
-0.00137667
-2.16475e-05
-0.00163646
6.58013e-06
-0.00186963
7.32081e-05
-0.00206466
0.000205493
-0.00218288
0.000448596
-0.00215551
0.000890502
-0.00185166
0.00169068
-0.0010134
0.0031108
0.000831504
0.00545483
0.00448507
0.0109644
0.00867901
-1.3988e-05
-0.0010521
-2.00365e-05
-0.00137013
-1.45972e-05
-0.00164185
8.2537e-06
-0.00189211
5.88503e-05
-0.00211521
0.000156277
-0.00227999
0.000330619
-0.00232969
0.00064111
-0.00216187
0.00120029
-0.00157227
0.00220419
-0.000172225
0.00396142
0.00272806
0.00822933
0.00669654
-9.38061e-06
-0.00104247
-1.17901e-05
-0.00136725
-5.03508e-06
-0.00164861
1.62648e-05
-0.00191308
5.90449e-05
-0.00215797
0.000137752
-0.00235841
0.000274416
-0.00246622
0.000510426
-0.00239763
0.000927186
-0.00198879
0.00167485
-0.000919629
0.00301299
0.00138992
0.005962
0.00528048
-4.74729e-06
-0.00103745
-3.26126e-06
-0.00136829
6.34682e-06
-0.00165817
2.82491e-05
-0.00193465
6.81589e-05
-0.00219782
0.000137526
-0.0024275
0.000252984
-0.00258153
0.000444304
-0.00258873
0.00077061
-0.00231486
0.00134602
-0.00149486
0.00237331
0.000362873
0.00414919
0.00418592
-9.34534e-07
-0.00103628
3.83951e-06
-0.00137258
1.57405e-05
-0.00167005
3.84555e-05
-0.00195701
7.73949e-05
-0.00223674
0.000141532
-0.00249135
0.000244049
-0.0026839
0.000407439
-0.00275191
0.000674633
-0.00258178
0.00112999
-0.00194984
0.00192683
-0.000434031
0.00275416
0.00332216
1.63117e-06
-0.00103776
8.40743e-06
-0.0013789
2.11825e-05
-0.00168287
4.42133e-05
-0.00197968
8.15584e-05
-0.00227408
0.00014158
-0.00255106
0.000235711
-0.00277789
0.000382221
-0.00289817
0.000614128
-0.0028133
0.000995291
-0.00233085
0.00164573
-0.00108416
0.00158149
0.00281855
2.98936e-06
-0.00104051
9.133e-06
-0.00138454
2.09951e-05
-0.00169474
4.17939e-05
-0.0020001
7.52886e-05
-0.00230758
0.000129121
-0.00260461
0.000213125
-0.00286177
0.00034317
-0.00302798
0.000545034
-0.00301493
0.000868705
-0.00265422
0.00140307
-0.0016185
0.000747075
0.00223774
1.73768e-06
-0.00104214
5.86255e-06
-0.00138826
1.48088e-05
-0.00170373
3.14383e-05
-0.00201642
5.89961e-05
-0.00233512
0.000104152
-0.00264952
0.000176263
-0.00293376
0.000289768
-0.00314132
0.000468289
-0.00319321
0.00075419
-0.00294008
0.00122614
-0.00209028
-0.000121787
0.00209515
-1.50704e-06
-0.00104034
-8.54581e-07
-0.0013884
3.2617e-06
-0.00170782
1.36424e-05
-0.00202643
3.24471e-05
-0.00235391
6.53939e-05
-0.00268219
0.000120188
-0.00298842
0.000209291
-0.00323022
0.000351971
-0.00333573
0.00058351
-0.00317151
0.000965641
-0.00247254
-0.000688986
0.00153277
-5.18027e-06
-0.00103508
-8.82186e-06
-0.00138435
-9.7622e-06
-0.00170693
-6.06994e-06
-0.00202981
4.09675e-06
-0.00236404
2.51155e-05
-0.00270297
6.32019e-05
-0.00302641
0.000129159
-0.00329601
0.000239769
-0.00344619
0.000425527
-0.00335727
0.000745845
-0.00279304
-0.0013301
0.00138698
-8.45799e-06
-0.00102622
-1.59447e-05
-0.00137632
-2.1636e-05
-0.00170116
-2.38375e-05
-0.00202727
-2.1557e-05
-0.0023663
-1.15051e-05
-0.0027128
1.04588e-05
-0.00304825
5.19673e-05
-0.00333738
0.000125089
-0.00351917
0.000251994
-0.0034842
0.000476063
-0.0030171
-0.00169297
0.000838768
-1.03032e-05
-0.00101588
-1.98716e-05
-0.00136639
-2.80089e-05
-0.0016931
-3.31335e-05
-0.00202184
-3.47449e-05
-0.00236464
-3.03137e-05
-0.002717
-1.6384e-05
-0.00306209
1.33625e-05
-0.00336698
6.92566e-05
-0.00357494
0.000171017
-0.00358589
0.00035657
-0.00320274
-0.00200678
0.000670529
-1.0706e-05
-0.00100474
-2.09893e-05
-0.00135554
-2.99331e-05
-0.001684
-3.63217e-05
-0.00201511
-3.96581e-05
-0.00236126
-3.75253e-05
-0.00271892
-2.71431e-05
-0.00307237
-2.67885e-06
-0.00339129
4.57426e-05
-0.00362321
0.000137376
-0.00367753
0.000315867
-0.00338102
-0.00240968
0.00071831
-1.05833e-05
-0.000994081
-2.06973e-05
-0.00134509
-2.95297e-05
-0.00167524
-3.57841e-05
-0.00200858
-3.91449e-05
-0.00235787
-3.76827e-05
-0.00272016
-2.89166e-05
-0.00308103
-8.10627e-06
-0.00341193
3.25628e-05
-0.0036637
0.00010823
-0.00375301
0.000251681
-0.00352475
-0.00267638
0.000518562
-9.45235e-06
-0.000984105
-1.85606e-05
-0.00133537
-2.63095e-05
-0.00166733
-3.15315e-05
-0.00200297
-3.38386e-05
-0.0023555
-3.12166e-05
-0.00272254
-2.13397e-05
-0.00309075
4.54669e-07
-0.00343353
4.16008e-05
-0.00370462
0.000115622
-0.00382701
0.000250883
-0.00365979
-0.0029365
0.000510575
-8.61755e-06
-0.000975474
-1.67606e-05
-0.00132689
-2.34713e-05
-0.00166068
-2.74721e-05
-0.00199868
-2.85249e-05
-0.00235438
-2.47718e-05
-0.00272602
-1.4112e-05
-0.00310127
7.80768e-06
-0.00345522
4.77205e-05
-0.00374431
0.000117542
-0.00389658
0.000239882
-0.00378228
-0.00315101
0.000454388
-7.31937e-06
-0.000967591
-1.42749e-05
-0.00131934
-1.96965e-05
-0.00165508
-2.24877e-05
-0.0019955
-2.2361e-05
-0.00235443
-1.75204e-05
-0.0027306
-5.9165e-06
-0.00311269
1.62825e-05
-0.00347721
5.56786e-05
-0.00378346
0.000122769
-0.00396362
0.000238209
-0.00389748
-0.00335764
0.000444619
-6.46534e-06
-0.000961091
-1.23418e-05
-0.00131315
-1.67862e-05
-0.00165067
-1.83496e-05
-0.00199368
-1.70124e-05
-0.00235569
-1.11256e-05
-0.00273624
1.02283e-06
-0.00312471
2.30812e-05
-0.00349903
6.05959e-05
-0.00382076
0.000123417
-0.00402619
0.000229751
-0.00400394
-0.00354011
0.000412328
-5.12439e-06
-0.000955279
-1.00178e-05
-0.00130765
-1.31302e-05
-0.0016473
-1.3702e-05
-0.00199274
-1.1286e-05
-0.002358
-4.4573e-06
-0.00274283
8.37934e-06
-0.00313736
3.03108e-05
-0.00352077
6.6372e-05
-0.0038566
0.000124945
-0.00408473
0.000221989
-0.00410079
-0.00370527
0.000387176
-4.60033e-06
-0.000950642
-8.39836e-06
-0.00130357
-1.04414e-05
-0.00164529
-9.6451e-06
-0.00199331
-5.86868e-06
-0.0023617
2.15845e-06
-0.00275063
1.59369e-05
-0.00315102
3.82978e-05
-0.00354294
7.35921e-05
-0.00389173
0.000129483
-0.00414045
0.000220522
-0.00419194
-0.00386302
0.000378557
-3.36341e-06
-0.000946635
-5.99967e-06
-0.0013004
-6.89357e-06
-0.00164416
-4.86166e-06
-0.00199502
-9.86641e-08
-0.00236637
9.10689e-06
-0.00275966
2.40488e-05
-0.00316583
4.70556e-05
-0.00356582
8.20843e-05
-0.00392665
0.000135702
-0.00419412
0.000220836
-0.00427671
-0.00400461
0.000361945
-2.67347e-06
-0.000943994
-4.35684e-06
-0.00129853
-3.97444e-06
-0.0016446
-1.03589e-06
-0.00199782
5.46734e-06
-0.00237283
1.61128e-05
-0.00277018
3.21872e-05
-0.00318189
5.63107e-05
-0.00358988
9.19317e-05
-0.00396222
0.000145198
-0.00424722
0.000227103
-0.004359
-0.00413945
0.000362084
-1.54364e-06
-0.000941793
-2.11743e-06
-0.00129748
-6.34124e-07
-0.00164583
3.64038e-06
-0.00200186
1.09869e-05
-0.00238014
2.25574e-05
-0.00278168
3.98468e-05
-0.00319915
6.46324e-05
-0.00361466
0.000100662
-0.00399822
0.000153089
-0.00429981
0.000232479
-0.00443797
-0.00427233
0.000364405
-1.27926e-06
-0.000940637
-7.85917e-07
-0.0012979
1.67691e-06
-0.0016484
7.06914e-06
-0.00200721
1.56805e-05
-0.00238877
2.85389e-05
-0.00279452
4.66852e-05
-0.00321738
7.26939e-05
-0.00364069
0.000108565
-0.00403415
0.000158791
-0.00434995
0.000229377
-0.00450896
-0.00436385
0.000320591
-2.13316e-07
-0.000939949
1.26405e-06
-0.00129908
4.87706e-06
-0.00165183
1.14022e-05
-0.00201365
2.10847e-05
-0.00239849
3.5187e-05
-0.00280866
5.48924e-05
-0.00323715
8.23524e-05
-0.00366825
0.000120412
-0.00407223
0.000172778
-0.00440253
0.000247794
-0.00458379
-0.00449221
0.00037565
-9.4189e-08
-0.000940061
2.45609e-06
-0.00130178
7.31363e-06
-0.00165689
1.48717e-05
-0.00202132
2.57271e-05
-0.00240944
4.08691e-05
-0.00282388
6.1797e-05
-0.00325818
9.02201e-05
-0.00369672
0.000128777
-0.00411086
0.000181163
-0.0044548
0.000252477
-0.00465541
-0.00457805
0.0003385
1.17682e-06
-0.000940921
4.89378e-06
-0.00130534
1.0691e-05
-0.00166253
1.91751e-05
-0.00202978
3.08765e-05
-0.00242115
4.71894e-05
-0.00284022
6.95394e-05
-0.00328056
9.95404e-05
-0.00372674
0.000139802
-0.00415109
0.000193905
-0.004509
0.000267815
-0.00472914
-0.00469139
0.000381088
1.87162e-06
-0.000943101
6.44243e-06
-0.00131012
1.33593e-05
-0.0016696
2.2719e-05
-0.00203922
3.59596e-05
-0.00243442
5.3553e-05
-0.00285782
7.69269e-05
-0.00330395
0.000108016
-0.00375778
0.000149464
-0.00419256
0.000203876
-0.0045633
0.000275358
-0.0048008
-0.00478653
0.000370469
3.1364e-06
-0.000946017
8.95519e-06
-0.00131586
1.69049e-05
-0.00167742
2.75778e-05
-0.00204989
4.16974e-05
-0.0024485
6.03224e-05
-0.00287645
8.52809e-05
-0.00332888
0.000118317
-0.00379086
0.000162176
-0.00423642
0.000220073
-0.00462131
0.000295374
-0.00487622
-0.00488849
0.000397205
3.82949e-06
-0.000950181
1.06041e-05
-0.00132288
1.96052e-05
-0.00168658
3.12922e-05
-0.00206168
4.64844e-05
-0.00246372
6.62927e-05
-0.00289631
9.2262e-05
-0.00335488
0.000127158
-0.0038258
0.00017315
-0.00428249
0.000234086
-0.00468231
0.000314521
-0.00495685
-0.00498372
0.000409715
5.04718e-06
-0.000954986
1.25831e-05
-0.00133033
2.26191e-05
-0.00169647
3.51317e-05
-0.00207422
5.09984e-05
-0.00247959
7.15968e-05
-0.00291696
9.86127e-05
-0.00338193
0.00013437
-0.00386162
0.000182289
-0.00433046
0.000246784
-0.00474688
0.000334769
-0.00504502
-0.00512148
0.000472723
5.23016e-06
-0.00096058
1.40132e-05
-0.00133937
2.44977e-05
-0.0017072
3.76709e-05
-0.00208749
5.39046e-05
-0.0024959
7.48399e-05
-0.00293796
0.000102294
-0.00340941
0.000137936
-0.00389732
0.000184736
-0.0043773
0.000245967
-0.00480832
0.000327664
-0.0051265
-0.00523027
0.000436653
6.33077e-06
-0.000966905
1.58032e-05
-0.00134882
2.71601e-05
-0.00171851
4.05941e-05
-0.00210096
5.76813e-05
-0.00251304
7.91918e-05
-0.0029595
0.000106985
-0.00343726
0.000143331
-0.00393369
0.000190617
-0.00442464
0.000252024
-0.00486971
0.000329956
-0.00520455
-0.00532222
0.000422196
7.09082e-06
-0.000974452
1.71525e-05
-0.00135921
2.90795e-05
-0.00173075
4.32545e-05
-0.00211527
6.07013e-05
-0.00253062
8.28508e-05
-0.00298174
0.000111367
-0.00346585
0.000148434
-0.00397082
0.00019761
-0.00447389
0.000261729
-0.00493404
0.000345545
-0.00528796
-0.00543421
0.000456888
8.04439e-06
-0.000982497
1.8882e-05
-0.00137009
3.12686e-05
-0.0017431
4.57624e-05
-0.00212986
6.33646e-05
-0.00254832
8.55163e-05
-0.00300398
0.000114206
-0.00349467
0.000151845
-0.00400856
0.000201383
-0.00452354
0.000267229
-0.00499986
0.000354018
-0.0053752
-0.00555457
0.000474737
8.42001e-06
-0.000991366
1.96155e-05
-0.00138166
3.22606e-05
-0.00175604
4.69127e-05
-0.00214469
6.46145e-05
-0.00256617
8.68327e-05
-0.00302634
0.000115286
-0.00352324
0.000152945
-0.00404635
0.000202026
-0.00457273
0.000266015
-0.00506409
0.000349432
-0.0054585
-0.00565708
0.000451796
8.9809e-06
-0.00100045
2.05626e-05
-0.00139337
3.35189e-05
-0.00176899
4.81636e-05
-0.00215948
6.56762e-05
-0.00258379
8.77516e-05
-0.00304853
0.000116211
-0.00355182
0.000153598
-0.00408385
0.000203138
-0.00462239
0.000268701
-0.00512966
0.000354096
-0.00554428
-0.00576969
0.000466889
9.41796e-06
-0.00101035
2.12429e-05
-0.0014056
3.38322e-05
-0.00178187
4.81747e-05
-0.00217402
6.50992e-05
-0.00260086
8.65454e-05
-0.00307012
0.00011466
-0.00358005
0.000151502
-0.00412081
0.000200588
-0.00467156
0.000265585
-0.00519484
0.000351677
-0.00563036
-0.00588625
0.000467991
1.00646e-05
-0.0010205
2.17959e-05
-0.00141747
3.41531e-05
-0.00179422
4.75144e-05
-0.00218752
6.40103e-05
-0.00261745
8.4577e-05
-0.00309079
0.000111441
-0.00360703
0.000147286
-0.00415675
0.000195149
-0.00471953
0.000259291
-0.00525893
0.000343393
-0.00571474
-0.00599036
0.000447471
1.02673e-05
-0.00103123
2.1474e-05
-0.00142907
3.30689e-05
-0.00180608
4.56977e-05
-0.00220034
6.09281e-05
-0.00263281
8.03186e-05
-0.00311031
0.000105815
-0.00363262
0.000139875
-0.00419091
0.000186553
-0.00476626
0.000250141
-0.00532268
0.000336042
-0.00580051
-0.00610911
0.00045461
1.06222e-05
-0.00104197
2.12396e-05
-0.00143986
3.15387e-05
-0.00181637
4.28822e-05
-0.00221183
5.64508e-05
-0.00264645
7.3731e-05
-0.00312768
9.68755e-05
-0.00365585
0.000128445
-0.00422254
0.000171851
-0.00480974
0.000231364
-0.00538218
0.000312881
-0.00588216
-0.00622341
0.000427112
1.0068e-05
-0.00105246
1.95272e-05
-0.00144971
2.94382e-05
-0.00182651
3.87055e-05
-0.00222129
5.03196e-05
-0.00265817
6.53543e-05
-0.00314282
8.55639e-05
-0.00367614
0.000114026
-0.00425108
0.000153128
-0.00484892
0.000206862
-0.00543604
0.000279272
-0.00595461
-0.00630821
0.000363918
9.9414e-06
-0.00106243
1.83282e-05
-0.00145827
2.52485e-05
-0.00183336
3.37243e-05
-0.0022299
4.31607e-05
-0.00266763
5.56988e-05
-0.00315546
7.31649e-05
-0.0036937
9.80257e-05
-0.00427604
0.000133738
-0.00488472
0.000184276
-0.00548669
0.000255077
-0.00602554
-0.00641023
0.000356968
9.53634e-06
-0.00107229
1.63256e-05
-0.00146544
2.19741e-05
-0.00183915
2.7532e-05
-0.00223568
3.40842e-05
-0.00267428
4.35899e-05
-0.00316511
5.7801e-05
-0.00370802
7.8702e-05
-0.00429704
0.000109637
-0.00491577
0.000154873
-0.00553201
0.000220074
-0.00609086
-0.0065051
0.00031492
8.92219e-06
-0.00108128
1.39122e-05
-0.00147068
1.74876e-05
-0.00184272
2.03062e-05
-0.00223868
2.4464e-05
-0.00267851
3.03622e-05
-0.00317114
4.05541e-05
-0.00371831
5.70459e-05
-0.00431363
8.27828e-05
-0.00494159
0.000121852
-0.00557118
0.000178951
-0.006148
-0.00658202
0.000255819
7.71184e-06
-0.0010894
1.05824e-05
-0.00147393
1.1654e-05
-0.00184398
1.19034e-05
-0.00223913
1.25873e-05
-0.00267929
1.49144e-05
-0.00317359
2.04519e-05
-0.00372394
3.20147e-05
-0.00432528
5.26344e-05
-0.00496229
8.64824e-05
-0.00560509
0.000139163
-0.00620072
-0.0066632
0.000220456
6.09374e-06
-0.00109565
6.69593e-06
-0.00147478
5.13321e-06
-0.00184244
1.37499e-06
-0.00223554
-1.14329e-06
-0.00267684
-3.37034e-06
-0.00317148
-3.01523e-06
-0.00372437
2.5996e-06
-0.00433097
1.61233e-05
-0.00497588
4.1383e-05
-0.00563039
8.36392e-05
-0.00624294
-0.00673616
0.000156602
3.63419e-06
-0.00109972
2.33712e-06
-0.00147389
-2.60066e-06
-0.00183772
-9.13015e-06
-0.00222924
-1.73852e-05
-0.00266871
-2.39214e-05
-0.00316508
-2.91287e-05
-0.00371928
-3.05164e-05
-0.00432968
-2.42193e-05
-0.00498227
-7.80136e-06
-0.00564684
2.20481e-05
-0.00627289
-0.00676387
4.97643e-05
9.72103e-07
-0.00110097
-4.10602e-06
-0.00146915
-1.19462e-05
-0.00182998
-2.21069e-05
-0.00221931
-3.44938e-05
-0.00265645
-4.79782e-05
-0.00315175
-5.8753e-05
-0.00370863
-6.65104e-05
-0.00432204
-6.72479e-05
-0.00498165
-5.6121e-05
-0.00565807
-2.59796e-05
-0.00630313
-0.00683848
4.84929e-05
-1.86904e-06
-0.00109954
-9.426e-06
-0.00146203
-2.16049e-05
-0.001818
-3.75575e-05
-0.00220362
-5.56874e-05
-0.00263846
-7.52019e-05
-0.00313241
-9.43286e-05
-0.00368964
-0.000111319
-0.0043052
-0.00012308
-0.00497002
-0.000125208
-0.0056561
-0.000112372
-0.00631608
-0.00686796
-8.3056e-05
-4.743e-06
-0.0010951
-1.60824e-05
-0.00145106
-3.2861e-05
-0.00180134
-5.40972e-05
-0.00218262
-7.86147e-05
-0.00261406
-0.000105544
-0.00310565
-0.000134046
-0.00366128
-0.000160267
-0.00427912
-0.000182764
-0.00494764
-0.000197704
-0.00564128
-0.000200175
-0.00631369
-0.00688356
-0.000184677
-7.97236e-06
-0.00108754
-2.36715e-05
-0.00143577
-4.56962e-05
-0.0017795
-7.30234e-05
-0.00215553
-0.000104662
-0.00258257
-0.000139805
-0.00307066
-0.000177074
-0.00362415
-0.000214433
-0.00424188
-0.00024908
-0.00491312
-0.000276781
-0.00561369
-0.000291624
-0.00629893
-0.00688692
-0.000288382
-1.17693e-05
-0.00107613
-3.22618e-05
-0.00141565
-6.00355e-05
-0.00175187
-9.48177e-05
-0.00212097
-0.000133722
-0.0025438
-0.000178049
-0.00302648
-0.000225997
-0.00357633
-0.000274996
-0.004193
-0.000322997
-0.00486523
-0.000363565
-0.00557322
-0.000392057
-0.00627055
-0.00688079
-0.000398338
-1.62288e-05
-0.00106029
-4.23118e-05
-0.00138994
-7.67303e-05
-0.00171763
-0.000117894
-0.00208002
-0.000167147
-0.00249469
-0.000221223
-0.00297253
-0.000280766
-0.00351691
-0.000344184
-0.0041297
-0.000405697
-0.00480381
-0.00046222
-0.00551681
-0.000507144
-0.00622575
-0.00685359
-0.000534426
-2.11115e-05
-0.00103957
-5.32875e-05
-0.00135812
-9.49625e-05
-0.00167611
-0.000145168
-0.00203001
-0.000203767
-0.00243621
-0.000270824
-0.00290559
-0.000343522
-0.00344432
-0.000421264