/*--------------------------------*- C++ -*----------------------------------*\
| =========                 |                                                 |
| \\      /  F ield         | OpenFOAM: The Open Source CFD Toolbox           |
|  \\    /   O peration     | Version:  2.3.0                                 |
|   \\  /    A nd           | Web:      www.OpenFOAM.org                      |
|    \\/     M anipulation  |                                                 |
\*---------------------------------------------------------------------------*/
FoamFile
{
    version     2.0;
    format      ascii;
    class       volVectorField;
    location    "3000";
    object      U;
}
// * * * * * * * * * * * * * * * * * * * * * * * * * * * * * * * * * * * * * //

dimensions      [0 1 -1 0 0 0 0];

internalField   nonuniform List<vector> 
6692
(
(21.263 9.06033 2.23807e-19)
(21.0207 9.90928 -9.39742e-20)
(20.7198 10.7678 -3.93431e-22)
(20.2772 11.5818 1.23242e-19)
(19.6343 12.3101 2.9348e-20)
(18.7617 12.9358 -2.66705e-19)
(17.6593 13.4592 5.01543e-19)
(16.3433 13.8771 1.25551e-19)
(14.8439 14.1818 -1.47268e-19)
(13.2249 14.4063 0)
(11.5733 14.6237 0)
(9.90747 14.6659 -8.94777e-20)
(20.4961 8.60163 0)
(20.0869 9.15419 9.76716e-20)
(19.6317 9.69896 0)
(19.1275 10.2177 0)
(18.5733 10.6847 -1.73862e-18)
(17.969 11.0713 1.53661e-18)
(17.32 11.3534 9.431e-20)
(16.6365 11.5121 -1.51797e-18)
(15.9366 11.5349 1.85376e-18)
(15.2446 11.4185 2.12525e-18)
(14.5773 11.1676 -4.44042e-18)
(13.9362 10.7931 2.53194e-18)
(20.0582 8.19715 5.37721e-19)
(19.6569 8.56839 0)
(19.2169 8.90038 4.65059e-19)
(18.7364 9.18524 0)
(18.2215 9.41777 0)
(17.6809 9.59189 -6.47382e-20)
(17.1255 9.70274 -1.51493e-18)
(16.5681 9.74727 -5.75557e-19)
(16.0227 9.72498 3.05152e-18)
(15.5037 9.63833 -1.8088e-18)
(15.0245 9.49163 0)
(14.5968 9.29057 -1.46678e-19)
(19.7315 7.81439 0)
(19.3618 8.07546 -9.70469e-19)
(18.9777 8.30184 5.14536e-19)
(18.5782 8.48464 0)
(18.1677 8.62185 -3.45515e-19)
(17.7507 8.71065 1.9023e-18)
(17.3329 8.74966 -4.82454e-20)
(16.9203 8.73881 3.7269e-19)
(16.52 8.67942 -1.62839e-18)
(16.1386 8.57453 2.58775e-19)
(15.7825 8.42862 2.29631e-18)
(15.4573 8.2475 -2.58484e-18)
(19.5073 7.458 -5.0994e-19)
(19.1745 7.63816 0)
(18.8362 7.79071 -1.25422e-18)
(18.4897 7.90714 9.18809e-19)
(18.1384 7.98851 7.19763e-19)
(17.7855 8.03371 1.64562e-18)
(17.4348 8.04253 -3.21957e-18)
(17.0906 8.01523 2.01893e-18)
(16.7572 7.95296 0)
(16.4392 7.8576 -1.54451e-21)
(16.1408 7.73214 0)
(15.8657 7.5803 3.05118e-19)
(19.3504 7.14845 -5.77821e-19)
(19.058 7.27316 -6.2499e-19)
(18.7657 7.37889 9.74012e-19)
(18.4689 7.4552 -3.39805e-19)
(18.1701 7.50421 -7.66589e-19)
(17.871 7.52503 -4.20469e-19)
(17.5737 7.51745 -4.76265e-19)
(17.2808 7.48158 1.68942e-18)
(16.9953 7.418 -7.44211e-19)
(16.7205 7.328 -2.75156e-19)
(16.4596 7.21342 9.08552e-19)
(16.2154 7.07684 -2.47928e-18)
(19.241 6.88317 5.79876e-19)
(18.9846 6.96735 -6.71355e-19)
(18.7287 7.04138 2.91366e-19)
(18.4687 7.09197 1.87838e-18)
(18.2071 7.12147 -7.87992e-19)
(17.9446 7.12878 4.26164e-19)
(17.6831 7.11334 -4.58548e-19)
(17.4243 7.07465 -5.21392e-19)
(17.1703 7.01283 2.10988e-18)
(16.9237 6.92852 5.6115e-20)
(16.6874 6.82291 3.54976e-19)
(16.4639 6.6978 -2.20964e-18)
(19.1715 6.65772 6.65536e-19)
(18.9441 6.7117 -6.66283e-19)
(18.7174 6.76325 0)
(18.4862 6.79682 -3.83371e-19)
(18.2529 6.81374 4.09959e-19)
(18.0176 6.8127 -4.44014e-19)
(17.7825 6.79312 -4.72485e-19)
(17.5491 6.75369 1.29191e-21)
(17.3185 6.69398 -2.67665e-19)
(17.0927 6.61417 -1.16339e-18)
(16.874 6.51524 5.62825e-19)
(16.6653 6.39856 9.52354e-19)
(19.1205 6.45791 -3.57771e-19)
(18.918 6.49567 7.40296e-19)
(18.7171 6.53227 -7.39363e-19)
(18.5085 6.55501 0)
(18.2969 6.56386 -4.27785e-19)
(18.0818 6.55691 4.47279e-19)
(17.8655 6.53555 1.45503e-18)
(17.651 6.49734 -2.00502e-18)
(17.4381 6.44065 5.39e-19)
(17.2284 6.36433 5.70884e-19)
(17.023 6.26974 0)
(16.8254 6.15955 6.34188e-19)
(19.0701 6.29284 3.63135e-21)
(18.8958 6.32024 3.89516e-19)
(18.7182 6.3449 1.84186e-20)
(18.5272 6.35802 -4.08952e-19)
(18.3338 6.3625 -1.35496e-20)
(18.1373 6.34954 4.50313e-19)
(17.9345 6.32538 0)
(17.733 6.28892 5.15835e-19)
(17.5312 6.23806 -1.62934e-18)
(17.3339 6.16716 -5.72309e-19)
(17.1399 6.07421 -1.76427e-20)
(16.9511 5.96902 -6.47776e-19)
(8.20423 13.9411 2.99419e-18)
(7.82338 12.5879 -3.01147e-18)
(7.81481 11.2787 0)
(8.01819 10.0286 0)
(8.37904 8.84049 0)
(8.85733 7.71354 6.82768e-19)
(9.41878 6.66571 -2.09555e-18)
(10.0295 5.71612 2.98324e-18)
(10.6579 4.88076 -4.64685e-18)
(11.2799 4.16664 0)
(11.8794 3.55338 -2.48045e-18)
(12.4467 2.98652 8.93686e-18)
(13.3224 10.3177 -7.81658e-20)
(12.8127 9.737 -1.639e-18)
(12.4183 9.08875 1.75036e-18)
(12.1341 8.4072 4.59388e-19)
(11.952 7.71516 5.04571e-19)
(11.8677 7.02971 -5.9873e-19)
(11.8771 6.36402 -1.1517e-18)
(11.9748 5.72628 1.19145e-18)
(12.1525 5.12116 1.305e-18)
(12.399 4.55118 -2.35432e-18)
(12.6981 4.0067 6.97739e-18)
(13.037 3.46135 -4.1854e-18)
(14.2205 9.03709 1.49497e-19)
(13.8879 8.72101 1.64317e-19)
(13.6009 8.34084 0)
(13.3671 7.90808 -8.38199e-19)
(13.1917 7.43334 -4.66523e-20)
(13.0776 6.92705 0)
(13.0257 6.40009 1.07605e-18)
(13.0342 5.86349 -1.11427e-18)
(13.0994 5.32863 0)
(13.2163 4.80629 2.23882e-18)
(13.378 4.29803 0)
(13.5824 3.79433 0)
(15.1605 8.0345 -1.56712e-19)
(14.8853 7.78509 -1.70458e-19)
(14.6333 7.49708 0)
(14.4107 7.17504 4.00824e-19)
(14.2223 6.82379 4.26806e-19)
(14.072 6.4485 -4.44249e-19)
(13.9628 6.05437 0)
(13.8966 5.64663 3.3157e-20)
(13.8741 5.23063 -1.71741e-20)
(13.8952 4.81172 2.95971e-18)
(13.9581 4.38988 -3.84247e-18)
(14.065 3.9572 -1.79743e-18)
(15.6123 7.40394 0)
(15.3763 7.19993 -1.38787e-18)
(15.1588 6.96679 6.79547e-19)
(14.964 6.7071 7.52085e-19)
(14.7952 6.4239 0)
(14.655 6.12041 -4.34182e-19)
(14.5452 5.79997 8.63492e-19)
(14.4667 5.46594 9.30132e-19)
(14.4198 5.12197 -9.47723e-19)
(14.4045 4.77192 -9.29139e-19)
(14.4203 4.41664 9.6426e-19)
(14.4701 4.05336 3.87646e-20)
(15.9877 6.91972 1.28291e-18)
(15.7744 6.74069 -7.05074e-19)
(15.5766 6.53936 7.14802e-19)
(15.3975 6.31787 -3.98152e-19)
(15.2397 6.0785 -2.33181e-20)
(15.1051 5.82365 4.17431e-19)
(14.9947 5.55551 -4.47114e-19)
(14.9089 5.27643 0)
(14.8475 4.98861 -8.8966e-19)
(14.8101 4.69473 1.78644e-18)
(14.7969 4.39479 -8.85934e-19)
(14.811 4.08359 -8.32778e-19)
(16.2539 6.55446 1.30303e-18)
(16.0567 6.39253 -7.09917e-19)
(15.8738 6.21247 3.54992e-19)
(15.7078 6.01638 -3.8353e-19)
(15.5609 5.80638 -7.75438e-19)
(15.4347 5.58449 -3.87486e-19)
(15.3296 5.35225 3.86458e-19)
(15.2448 5.11166 8.3148e-19)
(15.1799 4.8642 1.27143e-18)
(15.1331 4.61225 -4.25507e-19)
(15.1052 4.35592 0)
(15.0984 4.09005 8.77833e-19)
(16.4678 6.2652 -1.33689e-18)
(16.2819 6.11547 3.38959e-19)
(16.1092 5.95052 -3.71414e-19)
(15.9524 5.77259 3.59368e-19)
(15.8134 5.58376 1.93004e-18)
(15.694 5.38592 1.57676e-20)
(15.5944 5.18018 -8.17584e-19)
(15.5118 4.96827 -8.30624e-19)
(15.4468 4.75164 -4.22082e-19)
(15.3949 4.53247 4.10777e-19)
(15.3588 4.31249 -8.35625e-19)
(15.3372 4.08808 1.66287e-18)
(16.6376 6.0339 6.6408e-19)
(16.4605 5.89345 -3.42116e-19)
(16.2957 5.7398 0)
(16.1457 5.5755 0)
(16.0123 5.40268 -3.96697e-19)
(15.8976 5.22231 1.16953e-18)
(15.804 5.03733 5.86117e-19)
(15.7235 4.84602 9.94765e-19)
(15.6622 4.65398 0)
(15.6073 4.45877 -8.23221e-19)
(15.5684 4.26759 0)
(15.5378 4.07048 -1.65407e-18)
(16.7722 5.84946 9.16551e-21)
(16.6041 5.7162 1.41869e-20)
(16.447 5.57048 0)
(16.3029 5.41504 0)
(16.1733 5.25512 -5.57637e-19)
(16.0605 5.08776 -1.8897e-19)
(15.9773 4.9227 -7.88466e-19)
(15.8975 4.7438 -6.02061e-19)
(15.8463 4.57521 -1.99918e-19)
(15.7873 4.39391 -7.97617e-19)
(15.7501 4.22856 4.06507e-19)
(15.7166 4.04995 -4.16103e-19)
(-4.08498 -2.62024 0)
(-3.41687 -2.65816 2.09676e-18)
(-2.65207 -2.68401 0)
(-1.84041 -2.68805 -2.62476e-18)
(-1.01005 -2.66328 2.92022e-18)
(-0.165067 -2.60184 -1.16641e-18)
(0.717858 -2.49862 0)
(1.69597 -2.3499 0)
(2.87368 -2.16088 2.04295e-19)
(4.44752 -1.9496 0)
(6.79973 -1.76556 -3.55585e-18)
(10.6831 -1.92826 6.59182e-19)
(-3.93186 -2.5195 1.67265e-18)
(-3.23072 -2.48686 0)
(-2.42547 -2.44684 0)
(-1.53811 -2.37893 -5.60036e-19)
(-0.571364 -2.27891 1.1522e-18)
(0.491737 -2.1459 -1.44263e-18)
(1.68938 -1.98125 5.77609e-19)
(3.08822 -1.79522 0)
(4.79016 -1.61484 -1.44235e-19)
(6.93956 -1.49756 0)
(9.71088 -1.54571 1.94644e-19)
(13.2153 -1.91624 6.77249e-20)
(-3.66396 -2.30949 -8.38605e-19)
(-2.89485 -2.22221 2.67547e-18)
(-2.01643 -2.12607 -1.41961e-18)
(-1.03466 -2.00504 1.47722e-18)
(0.0571607 -1.85973 -9.9629e-19)
(1.28151 -1.69562 -4.74885e-19)
(2.6772 -1.52322 4.83104e-19)
(4.29881 -1.36219 -8.94145e-19)
(6.21483 -1.24706 1.80606e-18)
(8.49916 -1.23332 -9.13461e-19)
(11.204 -1.40133 7.39557e-19)
(14.2878 -1.83884 5.62926e-19)
(-3.3131 -2.06032 0)
(-2.49631 -1.93848 -2.43468e-20)
(-1.56394 -1.81256 0)
(-0.516167 -1.67061 4.38663e-19)
(0.657358 -1.51662 -1.22842e-20)
(1.97836 -1.35867 -4.24488e-19)
(3.47928 -1.21036 -4.14146e-19)
(5.2012 -1.09368 2.70235e-20)
(7.19073 -1.04169 1.40627e-18)
(9.48951 -1.10057 -1.56358e-18)
(12.1125 -1.32776 1.82825e-19)
(15.0125 -1.77669 7.60056e-19)
(-2.92682 -1.8111 -6.98471e-19)
(-2.07595 -1.67709 -3.94815e-19)
(-1.11068 -1.53988 -7.52423e-21)
(-0.0257807 -1.3951 8.03537e-19)
(1.1913 -1.24793 -8.21419e-19)
(2.56106 -1.10717 4.09393e-19)
(4.11113 -0.986687 0)
(5.87511 -0.90765 1.86757e-19)
(7.88808 -0.899673 -5.96486e-19)
(10.1786 -1.00149 7.05831e-19)
(12.7513 -1.2577 -9.33234e-19)
(15.5607 -1.70694 1.70242e-19)
(-2.52302 -1.57787 -3.29848e-19)
(-1.65976 -1.44547 3.59734e-19)
(-0.682199 -1.3066 -3.81426e-19)
(0.417249 -1.16717 -5.74856e-19)
(1.65268 -1.03208 4.70813e-21)
(3.04449 -0.909481 -1.80819e-19)
(4.61682 -0.812242 0)
(6.39857 -0.760569 1.91306e-19)
(8.41978 -0.781584 0)
(10.7028 -0.909022 3.41474e-19)
(13.2474 -1.18065 -3.64726e-19)
(16.0054 -1.62846 -2.56074e-21)
(-2.11702 -1.3663 3.09495e-19)
(-1.26078 -1.24128 3.36616e-19)
(-0.287114 -1.10603 3.49507e-19)
(0.811316 -0.975095 3.53023e-19)
(2.04909 -0.853043 0)
(3.44872 -0.746753 1.90506e-19)
(5.03039 -0.66676 8.19111e-21)
(6.81892 -0.633513 1.85944e-19)
(8.84214 -0.673657 1.66907e-19)
(11.12 -0.817671 -5.34268e-19)
(13.6476 -1.09846 0)
(16.3717 -1.54377 -3.61666e-21)
(-1.72797 -1.17989 -6.13745e-19)
(-0.886651 -1.05968 3.15916e-19)
(0.0726757 -0.931106 -5.09317e-19)
(1.16076 -0.809772 -5.10599e-19)
(2.39042 -0.700721 1.6954e-19)
(3.79298 -0.609543 -1.75922e-19)
(5.38044 -0.541189 0)
(7.17232 -0.518371 -5.12079e-19)
(9.19609 -0.571091 3.60096e-19)
(11.474 -0.727134 -1.32992e-19)
(13.9959 -1.01407 6.47256e-19)
(16.7025 -1.45817 -1.97162e-19)
(-1.36091 -1.01607 0)
(-0.544064 -0.896728 -6.23061e-19)
(0.3936 -0.775872 1.59476e-19)
(1.46297 -0.663887 -3.13155e-19)
(2.6719 -0.568852 1.65997e-19)
(4.07705 -0.492842 0)
(5.67308 -0.432983 -1.64014e-19)
(7.45814 -0.412797 3.47622e-19)
(9.46782 -0.471831 -1.62649e-19)
(11.7407 -0.638603 1.69347e-20)
(14.2492 -0.928811 -2.99319e-19)
(16.9245 -1.3635 -2.84321e-19)
(-0.970567 -0.89053 0)
(-0.196037 -0.759946 4.57222e-19)
(0.699615 -0.638038 1.53503e-19)
(1.76772 -0.538863 -7.45742e-20)
(2.94488 -0.469846 3.84385e-19)
(4.37055 -0.408041 -8.15025e-20)
(5.96919 -0.346888 -3.31855e-19)
(7.78879 -0.328668 8.03139e-20)
(9.80772 -0.401515 3.18814e-19)
(12.0833 -0.58261 1.68183e-19)
(14.6233 -0.882727 1.84474e-19)
(17.3486 -1.3351 5.67422e-19)
(17.2569 -3.39176 3.74217e-18)
(21.1441 -4.79422 5.38239e-18)
(22.4509 -5.27528 -4.93819e-18)
(22.9422 -5.39001 0)
(23.1678 -5.40264 -1.65216e-18)
(23.2173 -5.35217 1.5866e-18)
(23.164 -5.25748 5.83851e-19)
(23.0547 -5.13401 -5.02768e-19)
(22.9136 -4.99091 -8.99528e-21)
(22.7535 -4.83316 5.93692e-19)
(22.581 -4.66332 -1.47229e-18)
(22.3965 -4.48322 2.8938e-19)
(17.1758 -2.83494 0)
(21.0551 -4.16353 0)
(22.9282 -4.86197 -1.51826e-18)
(23.3557 -4.96849 1.95645e-19)
(23.4772 -4.97299 9.97623e-19)
(23.4631 -4.93579 0)
(23.3742 -4.86923 0)
(23.2447 -4.78191 6.70425e-20)
(23.0919 -4.67806 3.2313e-20)
(22.9246 -4.5607 -2.12005e-20)
(22.7482 -4.43026 2.62862e-19)
(22.565 -4.28457 1.31923e-20)
(17.6237 -2.61369 -1.68822e-18)
(21.0103 -3.71143 -9.02344e-20)
(23.1138 -4.50328 0)
(23.5614 -4.65015 -1.46607e-19)
(23.6081 -4.64142 0)
(23.5593 -4.60505 -8.23445e-20)
(23.46 -4.55033 -1.14236e-19)
(23.332 -4.48237 3.41342e-21)
(23.1862 -4.40291 0)
(23.0278 -4.31336 -8.99838e-20)
(22.8594 -4.21339 8.33362e-20)
(22.6827 -4.10043 -6.12325e-19)
(18.1046 -2.47828 8.48459e-20)
(21.1554 -3.41476 -8.7405e-20)
(23.2353 -4.19101 0)
(23.7219 -4.38112 1.39156e-19)
(23.713 -4.36573 1.11485e-19)
(23.6351 -4.33118 8.11445e-20)
(23.5242 -4.28439 2.317e-19)
(23.3946 -4.22879 -7.1202e-20)
(23.2529 -4.16512 0)
(23.102 -4.09379 0)
(22.9423 -4.01376 -1.7602e-19)
(22.7741 -3.92487 1.64233e-19)
(18.5141 -2.36752 0)
(21.3533 -3.20572 1.5963e-19)
(23.3219 -3.92704 0)
(23.8281 -4.13997 0)
(23.7856 -4.12337 -9.15753e-19)
(23.6887 -4.09144 7.41821e-19)
(23.5701 -4.05141 -6.48262e-19)
(23.4394 -4.00559 3.05026e-19)
(23.301 -3.95418 -1.50362e-19)
(23.1566 -3.89692 1.01184e-19)
(23.0056 -3.83374 1.0888e-19)
(22.8483 -3.76896 -6.76683e-20)
(18.867 -2.26315 0)
(21.553 -3.0372 0)
(23.3925 -3.70112 0)
(23.888 -3.92007 4.92514e-19)
(23.8243 -3.90682 -7.52798e-19)
(23.7153 -3.87869 -8.78867e-20)
(23.593 -3.84525 7.98029e-19)
(23.4633 -3.80793 -3.0357e-19)
(23.3293 -3.76676 -1.54753e-20)
(23.1919 -3.72121 5.63392e-20)
(23.0506 -3.67194 -3.78988e-20)
(22.9052 -3.62566 -1.12215e-19)
(19.1655 -2.15845 7.35248e-19)
(21.7315 -2.8858 -6.51064e-19)
(23.4514 -3.50086 3.88872e-19)
(23.9187 -3.71868 -5.52281e-19)
(23.8417 -3.71287 -3.04647e-19)
(23.7252 -3.69015 3.11886e-19)
(23.601 -3.66337 0)
(23.4732 -3.63346 0)
(23.3436 -3.60068 5.91392e-20)
(23.213 -3.56443 -5.66584e-20)
(23.0812 -3.52551 -6.98499e-20)
(22.9478 -3.49104 1.41353e-20)
(19.4471 -2.06144 -6.19385e-19)
(21.9085 -2.75949 -1.41179e-19)
(23.5088 -3.33583 -1.28742e-19)
(23.9319 -3.54434 2.35788e-19)
(23.8446 -3.54298 8.32981e-21)
(23.7237 -3.52429 1.12039e-19)
(23.5994 -3.50291 -2.50178e-19)
(23.474 -3.47909 -7.07164e-20)
(23.3488 -3.45297 5.62836e-20)
(23.2246 -3.4239 -4.20557e-20)
(23.1018 -3.39302 1.38897e-20)
(22.9797 -3.36725 4.20963e-20)
(19.6079 -1.93994 -3.88503e-19)
(21.9803 -2.60186 1.86195e-19)
(23.5178 -3.15935 3.02348e-19)
(23.9264 -3.3772 -1.24527e-20)
(23.8404 -3.38994 9.04746e-21)
(23.7198 -3.37783 -2.48543e-19)
(23.5951 -3.36151 2.36822e-19)
(23.4715 -3.34274 1.80704e-19)
(23.351 -3.32197 -1.05612e-19)
(23.2327 -3.29841 -2.33181e-20)
(23.1176 -3.27416 0)
(23.0056 -3.25577 0)
(20.0464 -1.93929 4.7689e-19)
(22.3051 -2.61468 3.38031e-20)
(23.6188 -3.1209 4.50439e-19)
(23.9251 -3.28482 -4.38143e-19)
(23.8247 -3.27084 6.57645e-21)
(23.7018 -3.25206 0)
(23.5787 -3.23545 0)
(23.4588 -3.22115 5.14419e-20)
(23.3437 -3.20468 -5.01731e-20)
(23.2306 -3.18453 1.11225e-20)
(23.1222 -3.16632 0)
(23.0204 -3.15586 4.03643e-20)
(1.47257 2.04433 -4.8432e-17)
(3.73702 2.03729 0)
(6.46057 2.80594 0)
(9.2771 4.09216 1.7536e-19)
(11.9313 5.48865 0)
(14.4303 6.84639 -3.55461e-18)
(16.7224 8.07436 2.54601e-18)
(18.6949 9.05091 1.50382e-18)
(20.2332 9.66219 -1.88064e-18)
(21.2728 9.84203 0)
(21.8432 9.60672 5.90354e-19)
(22.0938 9.02212 -3.82252e-19)
(-10.8974 2.76397 -7.14883e-19)
(-9.1905 2.62207 0)
(-6.81296 2.5164 0)
(-3.84816 2.62828 -1.02512e-17)
(-0.100875 2.97387 8.02522e-18)
(4.1902 3.62384 7.27064e-19)
(8.67644 4.58223 4.49969e-18)
(12.9559 5.76735 -3.14352e-18)
(16.6716 6.98355 1.1903e-18)
(19.5378 7.97589 0)
(21.4102 8.53891 1.31476e-18)
(22.3744 8.52377 -7.30593e-19)
(-5.41369 1.57465 9.35457e-19)
(-5.62862 1.43461 3.3667e-17)
(-5.1159 1.2813 -2.2051e-17)
(-4.11283 1.14836 -9.50351e-19)
(-2.60003 1.15657 2.14338e-21)
(-0.441954 1.40421 -1.11493e-18)
(2.64553 1.97833 8.50954e-19)
(6.68614 2.93684 -4.65968e-18)
(11.2542 4.21918 3.57934e-18)
(15.6779 5.63171 2.19461e-18)
(19.2788 6.88028 -1.50164e-18)
(21.6286 7.53936 1.26114e-18)
(-6.64023 1.87916 0)
(-6.733 1.90868 0)
(-6.27783 1.79697 0)
(-5.50351 1.6496 1.07251e-18)
(-4.39909 1.50404 1.145e-17)
(-2.89274 1.41637 -9.50946e-20)
(-0.799502 1.46253 -9.53687e-18)
(2.16806 1.75449 0)
(6.20125 2.46456 -4.52813e-18)
(11.0057 3.61782 0)
(15.8274 5.05567 -2.00897e-18)
(19.6948 6.20662 -2.72895e-18)
(-5.97074 1.7069 -1.0116e-18)
(-6.25521 1.75677 0)
(-6.01161 1.68642 0)
(-5.49351 1.56467 -1.11333e-18)
(-4.72281 1.42496 -1.34947e-17)
(-3.66199 1.29629 1.06594e-17)
(-2.20358 1.21902 0)
(-0.13957 1.26276 -1.93497e-18)
(2.82499 1.5534 -1.75947e-20)
(6.93694 2.2538 -2.02114e-18)
(11.9411 3.4537 -2.59618e-18)
(16.8556 4.82892 3.72287e-18)
(-5.99306 1.70874 1.05228e-18)
(-6.34523 1.79381 0)
(-6.18501 1.74886 0)
(-5.77168 1.65061 1.19209e-18)
(-5.14691 1.52516 0)
(-4.28986 1.38963 0)
(-3.13976 1.26736 0)
(-1.55431 1.1938 9.93673e-18)
(0.706775 1.23919 -1.0341e-17)
(3.96318 1.54276 7.44877e-18)
(8.42169 2.29631 3.20033e-18)
(13.6399 3.58434 -4.33433e-18)
(-5.82655 1.66545 0)
(-6.24659 1.7702 0)
(-6.16252 1.74503 0)
(-5.83575 1.66294 0)
(-5.32307 1.55021 0)
(-4.61486 1.42059 0)
(-3.67306 1.28868 -1.15978e-18)
(-2.40236 1.17562 0)
(-0.615519 1.12013 -7.2267e-18)
(1.96135 1.20689 5.81183e-18)
(5.66739 1.57333 -3.93658e-18)
(10.607 2.59135 2.52772e-18)
(-5.75615 1.64551 0)
(-6.22548 1.76911 0)
(-6.19434 1.76024 0)
(-5.924 1.6929 -1.24845e-18)
(-5.4826 1.59319 0)
(-4.86976 1.47241 1.47242e-18)
(-4.05912 1.34043 2.39354e-18)
(-2.9863 1.21149 0)
(-1.51124 1.10686 0)
(0.597884 1.07975 -6.32438e-18)
(3.65583 1.20394 1.35791e-17)
(8.0514 1.93774 -5.76309e-18)
(-5.68447 1.62686 -2.4872e-21)
(-6.19545 1.76631 -4.19414e-17)
(-6.20783 1.77181 2.86998e-17)
(-5.98207 1.7173 -3.98489e-17)
(-5.59485 1.62985 1.45771e-17)
(-5.05256 1.51969 -1.52965e-18)
(-4.33615 1.39458 -1.23004e-18)
(-3.40127 1.26464 -2.0244e-18)
(-2.14396 1.1433 3.5389e-18)
(-0.372923 1.06417 0)
(2.18295 1.07225 -1.29121e-20)
(5.96779 1.53746 -3.26648e-18)
(-5.64782 1.61775 1.38261e-16)
(-6.19208 1.77089 -4.74918e-21)
(-6.23851 1.78869 -2.81945e-17)
(-6.04713 1.74553 0)
(-5.70071 1.66936 9.91486e-19)
(-5.2105 1.56992 1.38956e-17)
(-4.56267 1.45374 -1.11799e-17)
(-3.72571 1.32817 2.06067e-18)
(-2.62307 1.20269 -3.54624e-18)
(-1.10191 1.09745 -3.17682e-18)
(1.06951 1.04499 -5.4809e-18)
(4.28856 1.30365 3.63014e-18)
(-5.6311 1.61444 -1.38283e-16)
(-6.20364 1.77881 4.38464e-17)
(-6.27737 1.80658 -7.4971e-21)
(-6.11419 1.77278 1.30769e-18)
(-5.80106 1.70623 0)
(-5.35235 1.61649 -1.56791e-18)
(-4.75771 1.50929 1.25328e-17)
(-3.99296 1.39015 -8.25459e-18)
(-3.00088 1.26572 -6.99923e-18)
(-1.65969 1.14673 3.17569e-18)
(0.227981 1.05254 5.72685e-18)
(3.00476 1.15758 -3.97472e-18)
(-5.63308 1.61621 6.88573e-17)
(-6.22977 1.78931 -9.44727e-21)
(-6.32498 1.82426 -6.47492e-21)
(-6.18568 1.79781 2.10394e-17)
(-5.90103 1.73901 9.86479e-19)
(-5.48753 1.65741 -2.51012e-17)
(-4.93709 1.55836 6.74609e-21)
(-4.22932 1.44659 8.27539e-18)
(-3.32019 1.32772 3.48159e-18)
(-2.11217 1.20844 -6.14033e-18)
(-0.437351 1.10557 5.58542e-18)
(1.98271 1.12398 4.07855e-18)
(-5.64714 1.62093 6.8428e-17)
(-6.25893 1.79854 4.09518e-17)
(-6.37332 1.83841 -3.01428e-17)
(-6.25538 1.81692 -1.32101e-18)
(-5.99627 1.76318 -1.7e-17)
(-5.61446 1.68681 1.25867e-17)
(-5.1035 1.59281 -1.26877e-18)
(-4.4447 1.48543 8.26943e-18)
(-3.60224 1.36934 -3.4662e-18)
(-2.49587 1.24723 -6.01105e-18)
(-0.980396 1.12162 5.47299e-18)
(1.18607 1.03654 1.85197e-20)
(-5.66217 1.62483 0)
(-6.28193 1.80326 0)
(-6.41511 1.84668 0)
(-6.31655 1.82806 0)
(-6.08062 1.77707 9.98048e-19)
(-5.72791 1.70342 -1.41826e-17)
(-5.25371 1.61192 1.26855e-18)
(-4.64057 1.50662 8.29293e-18)
(-3.85782 1.39242 3.44081e-18)
(-2.83733 1.27376 0)
(-1.44621 1.16333 0)
(0.538188 1.07271 -9.26309e-18)
(-5.66276 1.6238 -3.00284e-22)
(-6.29196 1.80212 8.42135e-17)
(-6.44227 1.84732 -2.92483e-17)
(-6.3613 1.8295 1.31552e-18)
(-6.14626 1.77873 -1.00901e-18)
(-5.8198 1.70456 1.28953e-20)
(-5.37923 1.61132 -1.00029e-20)
(-4.80875 1.50228 0)
(-4.08135 1.38123 -6.91061e-18)
(-3.13932 1.25038 8.82897e-18)
(-1.86734 1.11187 -1.04111e-17)
(-0.0848431 0.941752 9.56191e-18)
(-5.64178 1.61635 -6.73629e-17)
(-6.28349 1.79502 -4.19358e-17)
(-6.44936 1.84105 2.91835e-17)
(-6.38452 1.8234 -1.32161e-20)
(-6.18792 1.77206 0)
(-5.88407 1.69648 1.59841e-18)
(-5.47247 1.6005 8.96194e-18)
(-4.93952 1.48665 -6.2801e-18)
(-4.26106 1.3581 -6.89781e-18)
(-3.38679 1.21894 2.93257e-18)
(-2.20994 1.0791 0)
(-0.557552 0.91223 -4.37756e-20)
(-5.60123 1.60344 0)
(-6.25496 1.78281 4.05292e-17)
(-6.43635 1.8299 -2.91317e-17)
(-6.38653 1.81254 -2.2476e-17)
(-6.20595 1.7605 -2.73464e-21)
(-5.92077 1.68305 2.55224e-17)
(-5.53242 1.58341 -9.02463e-18)
(-5.02966 1.46291 -2.11595e-18)
(-4.39127 1.32267 6.93341e-18)
(-3.57543 1.16234 2.89543e-18)
(-2.49381 0.975873 0)
(-0.994545 0.750271 -4.47154e-18)
(-5.54729 1.58719 6.7111e-17)
(-6.21282 1.76847 -4.04943e-17)
(-6.40947 1.81813 -9.07498e-19)
(-6.3736 1.80272 -1.60054e-21)
(-6.20693 1.75205 1.00409e-18)
(-5.93695 1.67539 1.5885e-18)
(-5.56662 1.57577 -1.46253e-20)
(-5.08644 1.45416 1.05661e-17)
(-4.47708 1.31104 -7.00929e-18)
(-3.7017 1.14566 3.17902e-21)
(-2.67975 0.952165 -4.97145e-18)
(-1.25595 0.731053 4.31028e-18)
(-5.48744 1.56983 6.71468e-17)
(-6.16445 1.75409 -8.36834e-17)
(-6.37613 1.80742 3.01121e-17)
(-6.35367 1.79509 0)
(-6.19992 1.74701 -1.01998e-18)
(-5.94365 1.67273 -1.61283e-18)
(-5.58927 1.57541 -1.30415e-18)
(-5.12924 1.4561 -2.1382e-18)
(-4.54679 1.31564 3.4747e-18)
(-3.8105 1.15572 -2.89378e-18)
(-2.84854 0.981452 1.48511e-17)
(-1.51965 0.790249 -1.28197e-17)
(-5.4272 1.55252 0)
(-6.11517 1.74023 4.18922e-17)
(-6.34147 1.79777 -2.92515e-17)
(-6.33177 1.78921 2.12852e-17)
(-6.18995 1.74462 -3.25488e-17)
(-5.9459 1.67364 1.60275e-18)
(-5.6053 1.57953 1.29794e-18)
(-5.16231 1.46326 1.70546e-17)
(-4.60266 1.32543 -3.53338e-18)
(-3.90098 1.16662 0)
(-3.00171 0.986881 -9.83502e-18)
(-1.80371 0.782835 5.05955e-20)
(-5.3705 1.53664 8.51436e-23)
(-6.06866 1.72829 8.39344e-17)
(-6.30904 1.79061 -5.86475e-17)
(-6.31161 1.78639 2.13513e-17)
(-6.18107 1.74586 0)
(-5.94839 1.679 -1.62268e-18)
(-5.62031 1.58937 9.12603e-18)
(-5.19221 1.47825 -8.55606e-18)
(-4.65148 1.34661 -3.66385e-20)
(-3.97604 1.19564 2.88892e-18)
(-3.11804 1.02633 4.89094e-20)
(-1.98706 0.834472 4.14223e-18)
(-5.31967 1.52225 6.73189e-17)
(-6.02703 1.71748 -4.20106e-17)
(-6.28089 1.78438 9.13847e-19)
(-6.2952 1.7844 2.14027e-17)
(-6.17539 1.74794 -1.73921e-17)
(-5.95349 1.68513 -1.45559e-17)
(-5.63734 1.59971 1.30774e-18)
(-5.2236 1.49314 8.56936e-18)
(-4.70126 1.36652 -1.0566e-17)
(-4.05105 1.221 2.88912e-18)
(-3.23168 1.05647 4.55232e-20)
(-2.16113 0.866992 -4.03506e-18)
(-5.27445 1.50971 6.73468e-17)
(-5.99021 1.70853 -8.40896e-17)
(-6.25695 1.78003 5.79275e-17)
(-6.28248 1.78421 -4.29049e-17)
(-6.17276 1.75159 3.38551e-17)
(-5.96084 1.69256 3.24159e-18)
(-5.65564 1.61109 -2.36084e-17)
(-5.25497 1.5088 8.58003e-18)
(-4.7493 1.38689 0)
(-4.1215 1.24667 8.66402e-18)
(-3.33525 1.08909 2.61613e-20)
(-2.31543 0.914272 3.99249e-18)
(-5.23543 1.4987 0)
(-5.95857 1.70061 1.30833e-18)
(-6.23751 1.77636 3.03626e-17)
(-6.2737 1.78448 -2.01473e-17)
(-6.1734 1.75552 -1.64397e-17)
(-5.97068 1.70005 1.29914e-17)
(-5.67546 1.62212 -9.18343e-18)
(-5.2867 1.52347 1.716e-17)
(-4.79628 1.40532 -7.04039e-18)
(-4.18914 1.26882 -2.90289e-18)
(-3.43381 1.11389 2.77726e-20)
(-2.46401 0.93781 7.86681e-18)
(-5.20145 1.48934 6.72216e-17)
(-5.93144 1.69436 -8.53081e-17)
(-6.22204 1.77433 2.85302e-17)
(-6.26834 1.78621 2.1494e-17)
(-6.17685 1.76063 -2.98319e-21)
(-5.98253 1.70836 -1.46563e-17)
(-5.6962 1.63366 1.05074e-17)
(-5.31789 1.5383 -6.8134e-21)
(-4.84076 1.42341 -7.03973e-18)
(-4.25148 1.28999 0)
(-3.52199 1.13836 0)
(-2.59005 0.965352 -3.95935e-18)
(-5.17296 1.48123 -6.70637e-17)
(-5.90955 1.68904 0)
(-6.21117 1.77296 0)
(-6.26695 1.78848 -2.15136e-17)
(-6.18358 1.76626 1.02945e-18)
(-5.99686 1.7172 1.302e-17)
(-5.71845 1.64567 9.19007e-18)
(-5.34928 1.55352 -8.57619e-18)
(-4.88371 1.44186 7.0276e-18)
(-4.31011 1.31172 -1.07089e-20)
(-3.60384 1.16409 -4.76285e-18)
(-2.70914 0.997454 0)
(-5.14962 1.4749 -6.69251e-17)
(-5.89249 1.68561 4.31182e-17)
(-6.20461 1.77348 -2.84769e-17)
(-6.26935 1.79247 -1.34773e-18)
(-6.19355 1.77333 -1.74872e-17)
(-6.01383 1.72719 2.5997e-17)
(-5.74256 1.65859 -1.96516e-17)
(-5.38142 1.56946 8.56369e-18)
(-4.92582 1.46089 -7.01909e-18)
(-4.36566 1.33377 -2.86197e-18)
(-3.67971 1.18897 4.74598e-18)
(-2.81951 1.02548 3.8686e-18)
(-5.13164 1.46978 -1.37138e-22)
(-5.88082 1.68315 -8.59701e-17)
(-6.20281 1.77474 -1.83142e-18)
(-6.2759 1.79705 2.14625e-17)
(-6.20712 1.78098 -1.53952e-17)
(-6.03384 1.73778 4.76494e-21)
(-5.76909 1.67211 1.04606e-17)
(-5.41519 1.58603 0)
(-4.96838 1.48073 -7.0058e-18)
(-4.41985 1.35721 2.60507e-20)
(-3.75109 1.21637 1.72233e-20)
(-2.91924 1.05727 0)
(-5.11788 1.46616 6.65099e-17)
(-5.87382 1.68244 -4.02446e-17)
(-6.20514 1.77765 3.017e-17)
(-6.28606 1.80305 -2.13962e-17)
(-6.22385 1.78967 -1.73869e-17)
(-6.05659 1.74902 4.70922e-21)
(-5.79789 1.68593 1.17291e-17)
(-5.45063 1.60257 0)
(-5.01179 1.50014 3.48864e-18)
(-4.47387 1.3796 5.74497e-18)
(-3.82145 1.24225 9.39821e-18)
(-3.0186 1.08988 -9.84303e-21)
(-5.10857 1.46345 0)
(-5.87215 1.68258 0)
(-6.21205 1.78108 0)
(-6.3001 1.80938 -1.99823e-17)
(-6.24384 1.79866 4.07327e-21)
(-6.08204 1.76055 5.06613e-21)
(-5.82879 1.69995 8.48489e-22)
(-5.48731 1.61905 1.06115e-17)
(-5.05509 1.51894 -6.97242e-18)
(-4.52539 1.40004 8.57855e-18)
(-3.88493 1.26112 -9.38832e-18)
(-3.10042 1.09944 -3.76156e-18)
(-5.10342 1.46233 0)
(-5.8754 1.68476 0)
(-6.22318 1.78644 0)
(-6.31774 1.81745 -1.32886e-18)
(-6.26697 1.80912 0)
(-6.11029 1.77336 1.60057e-18)
(-5.86216 1.71525 -1.29336e-17)
(-5.52607 1.6371 8.45281e-18)
(-5.09978 1.54013 -3.46117e-18)
(-4.57702 1.42533 5.70208e-18)
(-3.9453 1.29397 -4.66091e-18)
(-3.17588 1.14261 3.70409e-18)
(-5.10224 1.46207 0)
(-5.88413 1.688 0)
(-6.23876 1.79241 0)
(-6.33908 1.82586 -1.31875e-18)
(-6.29326 1.81982 0)
(-6.1413 1.78632 -1.43673e-17)
(-5.89799 1.7305 1.15996e-17)
(-5.56705 1.6547 -1.05268e-17)
(-5.14649 1.56009 1.38326e-17)
(-4.63061 1.44718 -5.67804e-18)
(-4.00901 1.31464 -4.63163e-18)
(-3.25736 1.15915 -7.22901e-18)
(-5.1048 1.46324 0)
(-5.898 1.69331 -1.26969e-18)
(-6.25814 1.8002 0)
(-6.36352 1.83592 2.97695e-21)
(-6.32217 1.83196 -1.00485e-18)
(-6.17458 1.80054 1.27109e-17)
(-5.93577 1.74695 -2.18013e-17)
(-5.60959 1.67359 1.04829e-17)
(-5.19415 1.58167 0)
(-4.68397 1.47194 -8.46409e-18)
(-4.0683 1.34497 4.62155e-18)
(-3.31936 1.19886 3.71989e-18)
(-5.11314 1.46588 0)
(-5.91649 1.69956 1.26424e-18)
(-6.28166 1.80865 0)
(-6.39138 1.84644 2.61547e-18)
(-6.35397 1.84449 1.00195e-18)
(-6.21038 1.81516 1.58043e-18)
(-5.97582 1.76376 2.5531e-18)
(-5.65416 1.69272 -1.04297e-17)
(-5.24357 1.60314 9.79094e-21)
(-4.73889 1.49554 1.12541e-17)
(-4.13137 1.36964 4.5912e-18)
(-3.40054 1.2245 8.54065e-21)
(-5.12623 1.47018 0)
(-5.94014 1.70785 0)
(-6.30921 1.81897 0)
(-6.42253 1.85862 -1.31992e-21)
(-6.38859 1.85847 0)
(-6.24872 1.83106 -1.57447e-18)
(-6.01827 1.78183 -2.53997e-18)
(-5.70101 1.71332 0)
(-5.29489 1.62673 3.40536e-18)
(-4.79429 1.52276 -8.39707e-18)
(-4.19032 1.40172 -9.13572e-18)
(-3.46298 1.26389 4.01771e-21)
(-5.14566 1.47602 0)
(-5.96878 1.71708 0)
(-6.34114 1.82991 0)
(-6.45729 1.87119 -5.5009e-22)
(-6.42633 1.8727 0)
(-6.28997 1.84714 -1.56523e-18)
(-6.06368 1.80002 1.263e-17)
(-5.75119 1.73394 -8.26259e-18)
(-5.35023 1.6502 -3.3846e-18)
(-4.85473 1.54971 2.78531e-18)
(-4.25502 1.43256 9.45637e-21)
(-3.53137 1.29397 3.58829e-18)
(-5.16972 1.48339 -6.39464e-17)
(-6.00199 1.72793 7.92365e-17)
(-6.37659 1.8422 -2.80329e-17)
(-6.49483 1.88471 -2.5715e-18)
(-6.46641 1.8875 0)
(-6.33338 1.86343 3.1143e-18)
(-6.11127 1.81813 1.39068e-22)
(-5.80385 1.75425 -2.05465e-18)
(-5.40886 1.67328 0)
(-4.92015 1.57686 -7.89132e-22)
(-4.32743 1.46842 -4.50816e-18)
(-3.60903 1.35008 7.09146e-18)
(-5.19884 1.49189 -9.93567e-19)
(-6.03905 1.73925 0)
(-6.41527 1.85451 0)
(-6.53475 1.89788 -7.06949e-22)
(-6.50829 1.90171 -9.79582e-19)
(-6.37816 1.87888 1.0836e-17)
(-6.15989 1.83497 -1.12539e-17)
(-5.8572 1.77256 -1.08567e-21)
(-5.46788 1.69294 0)
(-4.9864 1.59677 5.79739e-21)
(-4.40511 1.48454 1.34704e-17)
(-3.71149 1.35285 -3.70552e-21)
(-5.23151 1.50171 1.97429e-18)
(-6.08053 1.7523 -3.90701e-17)
(-6.45672 1.86822 2.76594e-17)
(-6.57656 1.91219 2.15742e-17)
(-6.55154 1.91682 -1.45964e-17)
(-6.42395 1.89509 1.23073e-17)
(-6.20915 1.85258 -1.11876e-17)
(-5.91058 1.79182 2.03137e-18)
(-5.52568 1.71397 6.67463e-18)
(-5.04854 1.61935 -1.64376e-17)
(-4.47111 1.50683 -4.45026e-18)
(-3.77893 1.37636 7.00996e-21)
(-5.26951 1.51297 -9.79835e-19)
(-6.12564 1.76612 0)
(-6.50101 1.88224 0)
(-6.62049 1.92654 -1.26149e-18)
(-6.59651 1.9319 1.54601e-17)
(-6.4713 1.91128 -1.22324e-17)
(-6.26002 1.87027 -1.84836e-21)
(-5.96586 1.81141 8.07405e-18)
(-5.58588 1.7359 -6.64239e-18)
(-5.11352 1.64444 8.16142e-18)
(-4.5393 1.53755 -4.43219e-18)
(-3.84713 1.41356 3.55441e-18)
(-5.31152 1.52549 -6.23315e-17)
(-6.17386 1.78105 0)
(-6.54728 1.89709 -2.72599e-17)
(-6.66572 1.94137 2.12708e-17)
(-6.64247 1.94707 0)
(-6.51958 1.92723 0)
(-6.31196 1.88737 1.10336e-17)
(-6.02252 1.83005 -8.02736e-18)
(-5.6481 1.7565 0)
(-5.1819 1.66763 -2.70819e-18)
(-4.61481 1.56455 -4.40273e-18)
(-3.93284 1.45106 0)
(-5.35783 1.53897 6.09376e-17)
(-6.22468 1.79615 -3.82476e-17)
(-6.59527 1.91162 2.70612e-17)
(-6.71194 1.95554 -1.98723e-17)
(-6.68904 1.96145 0)
(-6.5683 1.94226 1.20563e-17)
(-6.36425 1.90341 -9.74506e-18)
(-6.07946 1.84733 1.99452e-18)
(-5.71044 1.77512 0)
(-5.25016 1.6872 2.68434e-18)
(-4.68972 1.58291 -8.75363e-18)
(-4.01687 1.46272 1.85086e-20)
(-5.40702 1.55347 9.60521e-19)
(-6.27782 1.81215 7.5959e-17)
(-6.64416 1.92668 -5.3718e-17)
(-6.75841 1.96992 1.97167e-17)
(-6.73563 1.97574 1.60676e-17)
(-6.617 1.95698 -1.19692e-17)
(-6.41659 1.91901 0)
(-6.13658 1.86423 -3.95505e-18)
(-5.77306 1.79371 0)
(-5.31842 1.70802 0)
(-4.76263 1.60718 -3.6419e-22)
(-4.09119 1.49339 -4.00998e-23)
(-5.45947 1.56878 -6.1064e-17)
(-6.3324 1.82819 3.88949e-17)
(-6.69329 1.94106 2.66534e-17)
(-6.80457 1.98325 -2.07846e-17)
(-6.78174 1.98879 -9.36692e-19)
(-6.66526 1.9703 1.18729e-17)