/*--------------------------------*- C++ -*----------------------------------*\
| =========                 |                                                 |
| \\      /  F ield         | OpenFOAM: The Open Source CFD Toolbox           |
|  \\    /   O peration     | Version:  2.3.0                                 |
|   \\  /    A nd           | Web:      www.OpenFOAM.org                      |
|    \\/     M anipulation  |                                                 |
\*---------------------------------------------------------------------------*/
FoamFile
{
    version     2.0;
    format      ascii;
    class       volScalarField;
    location    "200";
    object      nut;
}
// * * * * * * * * * * * * * * * * * * * * * * * * * * * * * * * * * * * * * //

dimensions      [0 2 -1 0 0 0 0];

internalField   nonuniform List<scalar> 
7991
(
0.0670468
0.0619895
0.0572543
0.0528998
0.0489797
0.0455372
0.042598
0.040162
0.0381928
0.0366149
0.0353205
0.0341848
0.0330817
0.0318941
0.030522
0.0729703
0.0693979
0.066205
0.0634232
0.0610627
0.0591139
0.0575503
0.0563328
0.0554146
0.0547469
0.0542825
0.0539792
0.0538008
0.053718
0.0537082
0.0782853
0.0757355
0.0735319
0.0716648
0.0701142
0.0688513
0.0678423
0.0670517
0.0664452
0.0659909
0.0656613
0.0654327
0.0652859
0.0652049
0.0651772
0.0828154
0.0809678
0.0793959
0.0780774
0.0769868
0.0760965
0.075379
0.0748085
0.0743617
0.0740185
0.0737616
0.0735768
0.0734525
0.0733792
0.0733493
0.0866123
0.0852402
0.0840758
0.0830983
0.0822853
0.0816148
0.0810669
0.0806235
0.0802691
0.0799906
0.0797769
0.079619
0.0795095
0.0794424
0.0794129
0.0897939
0.0887366
0.0878422
0.0870869
0.0864522
0.0859217
0.0854812
0.0851186
0.0848233
0.0845867
0.0844016
0.084262
0.0841631
0.0841011
0.0840726
0.0924354
0.0916127
0.0909079
0.0903048
0.0897908
0.0893549
0.0889871
0.0886794
0.0884247
0.0882172
0.0880523
0.0879261
0.0878352
0.0877773
0.0877499
0.0946534
0.0940053
0.093435
0.0929391
0.0925101
0.0921408
0.0918245
0.091556
0.0913306
0.0911445
0.0909946
0.0908785
0.0907939
0.0907393
0.0907131
0.0965645
0.0960202
0.0955426
0.0951234
0.094756
0.0944354
0.094157
0.0939176
0.0937141
0.0935442
0.093406
0.0932978
0.0932183
0.0931665
0.0931413
0.0981768
0.0977203
0.0973145
0.0969535
0.0966328
0.0963489
0.0960993
0.095882
0.0956955
0.0955383
0.0954093
0.0953075
0.0952322
0.0951827
0.0951584
0.0995553
0.0991667
0.0988171
0.0985016
0.0982171
0.0979616
0.0977342
0.0975342
0.0973611
0.0972141
0.0970927
0.0969962
0.0969243
0.0968767
0.0968533
0.100736
0.100406
0.100102
0.0998223
0.0995668
0.0993336
0.0991233
0.098937
0.0987744
0.0986358
0.098521
0.0984292
0.0983597
0.0983139
0.0982913
0.101759
0.101477
0.101208
0.100957
0.100726
0.10051
0.100313
0.100138
0.0999833
0.0998514
0.0997429
0.0996561
0.099587
0.0995431
0.0995212
0.102652
0.102413
0.102168
0.101941
0.101729
0.101525
0.101338
0.101175
0.101025
0.100897
0.100795
0.100718
0.100643
0.100601
0.100579
0.030535
0.0319292
0.0331179
0.0342154
0.0353436
0.0366322
0.0382079
0.0401788
0.0426194
0.0455646
0.0490136
0.0529399
0.0573003
0.0620416
0.0671051
0.0537067
0.0537138
0.0537944
0.0539712
0.054274
0.0547391
0.055409
0.0563307
0.0575531
0.0591225
0.0610781
0.063446
0.0662357
0.0694369
0.0730188
0.065177
0.0652045
0.0652854
0.0654325
0.0656616
0.0659922
0.066448
0.0670567
0.06785
0.0688623
0.0701293
0.0716847
0.0735575
0.0757679
0.0783259
0.0733493
0.0733794
0.073453
0.0735779
0.0737633
0.0740212
0.0743657
0.0748141
0.0753866
0.0761065
0.0769999
0.0780942
0.0794172
0.080995
0.0828506
0.079413
0.0794428
0.0795103
0.0796203
0.0797788
0.0799933
0.0802729
0.0806286
0.0810736
0.0816236
0.0822964
0.0831125
0.0840937
0.0852631
0.0866426
0.0840727
0.0841015
0.084164
0.0842632
0.0844034
0.0845892
0.0848267
0.0851231
0.0854871
0.0859292
0.0864617
0.0870989
0.0878573
0.0887555
0.0898179
0.0877501
0.0877776
0.0878359
0.0879271
0.0880539
0.0882194
0.0884276
0.0886832
0.0889921
0.0893612
0.089799
0.0903151
0.0909208
0.0916287
0.0924538
0.0907132
0.0907396
0.0907944
0.0908793
0.0909958
0.0911462
0.0913329
0.0915591
0.0918286
0.092146
0.0925169
0.0929479
0.0934465
0.0940203
0.094673
0.0931413
0.0931666
0.0932185
0.0932982
0.0934068
0.0935454
0.0937159
0.0939201
0.0941603
0.0944396
0.0947615
0.0951306
0.0955525
0.0960338
0.0965832
0.0951584
0.0951826
0.0952321
0.0953076
0.0954096
0.0955391
0.0956969
0.095884
0.0961018
0.096352
0.0966369
0.0969591
0.0973225
0.0977321
0.098195
0.0968532
0.0968765
0.0969238
0.0969956
0.0970924
0.0972145
0.0973622
0.0975358
0.0977361
0.0979637
0.0982196
0.0985052
0.0988227
0.0991756
0.0995692
0.0982913
0.0983137
0.0983588
0.0984275
0.09852
0.0986361
0.0987757
0.0989386
0.0991247
0.0993345
0.0995676
0.0998239
0.100105
0.100412
0.100747
0.0995218
0.0995432
0.0995858
0.0996515
0.0997409
0.099852
0.0999853
0.100139
0.100314
0.10051
0.100725
0.100957
0.101209
0.10148
0.101767
0.100582
0.100603
0.100642
0.100703
0.100791
0.100898
0.101028
0.101174
0.101339
0.101526
0.101728
0.10194
0.102169
0.102411
0.102662
0.0137141
0.0108315
0.00852605
0.00674557
0.00556576
0.00472321
0.00405729
0.00348931
0.00298014
0.00250987
0.00206915
0.00165552
0.00127105
0.000917369
0.000657405
0.0137774
0.0110976
0.00893166
0.00724406
0.00603795
0.00515426
0.00446815
0.00389759
0.00339486
0.00293346
0.00249948
0.00208703
0.00169452
0.00132173
0.00101731
0.0138661
0.0113889
0.00935769
0.00776378
0.00654111
0.00561031
0.00488472
0.00429054
0.00377611
0.00330896
0.00287031
0.00245048
0.00204384
0.00164682
0.00131352
0.0139739
0.0116811
0.00977415
0.00825774
0.0070358
0.00606581
0.00529398
0.00466253
0.00412248
0.00363831
0.00318695
0.00275473
0.00233193
0.00191172
0.0015544
0.0140882
0.0119629
0.0101725
0.00871668
0.0075051
0.00650747
0.00569159
0.00501688
0.00444213
0.00393247
0.00346222
0.00301404
0.00257419
0.0021325
0.00175324
0.0142183
0.0122321
0.0105488
0.00914187
0.00794348
0.00692754
0.00607361
0.00535526
0.00474112
0.00420017
0.00370624
0.00323927
0.00278178
0.00232001
0.00192029
0.0143231
0.0124831
0.0108976
0.00953503
0.00835032
0.00732215
0.00643658
0.00567733
0.00502256
0.00444697
0.00392595
0.00343797
0.00296234
0.00248159
0.00206273
0.0144549
0.0127197
0.0112178
0.00989714
0.00872649
0.00768998
0.00677827
0.0059821
0.00528772
0.0046762
0.004126
0.00361542
0.00312127
0.00262242
0.00218567
0.0145328
0.0129346
0.0115102
0.0102295
0.00907322
0.00803106
0.0070976
0.00626864
0.00553692
0.00488972
0.00430942
0.00377527
0.00326239
0.00274622
0.00229275
0.0146414
0.013132
0.0117762
0.0105336
0.00939201
0.00834623
0.0073945
0.00653659
0.00577041
0.00508876
0.00447837
0.00392029
0.00338868
0.00285588
0.00238673
0.0147146
0.013311
0.0120179
0.0108111
0.00968429
0.0086365
0.00766932
0.00678583
0.00598814
0.00527391
0.0046341
0.00405217
0.00350206
0.00295342
0.00246967
0.0148118
0.0134764
0.0122377
0.011064
0.00995181
0.00890346
0.00792356
0.00701781
0.00619159
0.00544685
0.00477901
0.00417383
0.00360523
0.00304097
0.00254335
0.0148788
0.013627
0.0124371
0.0112936
0.0101947
0.00914478
0.00815118
0.00722496
0.00637392
0.00560198
0.00490619
0.0042791
0.00369568
0.003119
0.00260871
0.0149733
0.0137926
0.0126397
0.0115183
0.010446
0.00941757
0.00843235
0.00747642
0.00658601
0.00577944
0.00506801
0.00441057
0.00379113
0.00319033
0.00266926
0.000659002
0.000915825
0.00126623
0.00164629
0.00205362
0.0024859
0.00294567
0.00344275
0.00399883
0.00465839
0.0055134
0.00674314
0.00855076
0.0108779
0.0137825
0.00101849
0.00131738
0.00168395
0.00206993
0.00247462
0.00289934
0.00335044
0.00384331
0.00440778
0.00509744
0.00599999
0.00723545
0.00896148
0.011147
0.013839
0.00131436
0.00163984
0.00202807
0.00242632
0.00283731
0.00326659
0.00372491
0.00423332
0.00482775
0.00556327
0.00651336
0.0077597
0.00939165
0.0114405
0.0139324
0.001555
0.00190239
0.00231164
0.0027246
0.0031475
0.00359028
0.00406812
0.00460647
0.00524329
0.0060284
0.0070176
0.00826281
0.00981191
0.0117359
0.0140431
0.00175366
0.00212109
0.00255004
0.00297907
0.00341807
0.00388125
0.00438755
0.00496459
0.00564835
0.0064794
0.00749628
0.00872984
0.01021
0.012019
0.0141509
0.00192058
0.0023068
0.00275439
0.00320054
0.00365897
0.00414777
0.00468839
0.00530817
0.00603815
0.00690828
0.00794278
0.00915948
0.0105817
0.0122899
0.0142948
0.00206296
0.00246686
0.0029323
0.00339645
0.00387691
0.00439493
0.004973
0.00563612
0.00640872
0.0073107
0.00835571
0.00955455
0.0109279
0.0125443
0.014406
0.00218587
0.00260641
0.00308911
0.00357193
0.00407625
0.00462559
0.00524209
0.0059469
0.00675741
0.00768502
0.00873621
0.00991803
0.0112487
0.0127821
0.0145344
0.00229298
0.00272917
0.00322857
0.0037305
0.00425976
0.00484126
0.00549557
0.00623923
0.00708291
0.00803131
0.00908624
0.0102523
0.0115446
0.0130027
0.014641
0.00238696
0.00283791
0.00335353
0.00387475
0.00442937
0.00504286
0.00573336
0.00651252
0.0073851
0.00835073
0.009408
0.0105595
0.011816
0.0132048
0.0147374
0.00247012
0.00293493
0.00346612
0.00400646
0.00458629
0.00523089
0.00595542
0.00676673
0.00766454
0.00864468
0.00970335
0.0108408
0.0120634
0.0133872
0.0148181
0.00254313
0.00302114
0.00356779
0.00412723
0.00473182
0.00540608
0.00616197
0.00700194
0.00792192
0.0089146
0.009974
0.011098
0.0122882
0.0135545
0.0149099
0.00261214
0.0031024
0.0036617
0.00423787
0.00486517
0.00556746
0.00635302
0.00722138
0.00816126
0.00916373
0.010223
0.011333
0.0124933
0.0137077
0.0149852
0.00265342
0.00315485
0.00373667
0.00433839
0.00499619
0.00572566
0.00653948
0.00740826
0.00835337
0.00937471
0.0104251
0.0115344
0.0126634
0.0138242
0.015007
0.00128863
0.00388049
0.00673667
0.00981241
0.0131102
0.0166358
0.0204061
0.0244474
0.0287897
0.0334593
0.0384706
0.0438209
0.049489
0.0554364
0.0616132
9.30892e-08
0.000424442
0.0017215
0.00385155
0.00634467
0.00931961
0.0127865
0.016749
0.0212058
0.0261485
0.0315587
0.0374051
0.0436407
0.0502029
0.0570144
0
0.00021039
0.00108511
0.00254563
0.00436888
0.00669026
0.00955458
0.0129975
0.0170437
0.0217034
0.0269677
0.0328063
0.0391651
0.0459667
0.0531143
2.58934e-06
0.00017839
0.00109164
0.00216552
0.00362087
0.00552688
0.00794527
0.0109356
0.01455
0.0188269
0.0237845
0.0294149
0.0356787
0.0425043
0.04979
6.13081e-05
0.000511799
0.00105121
0.00194851
0.00319471
0.00484391
0.00696221
0.00961952
0.0128839
0.0168147
0.0214546
0.0268213
0.0328993
0.0396348
0.0469339
0.000345083
0.000619607
0.000983038
0.00177417
0.00288193
0.00435644
0.00626296
0.0086741
0.0116651
0.0153077
0.0196617
0.0247665
0.0306296
0.0372182
0.0444507
0.000397278
0.000599144
0.000968886
0.00163159
0.00263255
0.00397574
0.00572174
0.00794254
0.0107159
0.0141199
0.0182259
0.0230888
0.028736
0.0351564
0.0422905
0.000390361
0.000566447
0.000957551
0.00151559
0.00242959
0.00366763
0.00528495
0.00735189
0.00994651
0.0131501
0.0170407
0.0216844
0.0271229
0.0333582
0.0403238
0.000382002
0.000547634
0.000932576
0.001419
0.00226233
0.00341352
0.00492397
0.00686237
0.00930623
0.0123381
0.0160404
0.0204867
0.0257311
0.0317951
0.0386649
0.000376072
0.000537145
0.00090504
0.00134103
0.00212264
0.00320059
0.00462033
0.00644893
0.00876303
0.0116456
0.0151815
0.0194504
0.0245165
0.0304178
0.0371587
0.000371336
0.000531401
0.000887972
0.00130075
0.00200684
0.0030198
0.00436109
0.00609439
0.00829514
0.0110462
0.0144341
0.0185428
0.0234445
0.0291883
0.0357843
0.000367433
0.00052894
0.000881716
0.00128343
0.0019108
0.00286457
0.00413698
0.0057865
0.0078871
0.0105212
0.0137763
0.0177392
0.0224875
0.028077
0.0345189
0.00036408
0.0005279
0.000879832
0.00127086
0.00182959
0.00272988
0.0039411
0.00551623
0.00752752
0.0100567
0.0131917
0.0170215
0.0216285
0.0270788
0.0334173
0.000360966
0.000526727
0.000877565
0.00125676
0.00175979
0.00261168
0.00376822
0.00527675
0.00720775
0.00964217
0.012668
0.0163759
0.0208527
0.0261724
0.0323861
0.000357954
0.000525041
0.000874332
0.00124366
0.00170989
0.00250818
0.00361448
0.00506285
0.00692119
0.00926946
0.0121955
0.0157913
0.0201463
0.0253376
0.0314088
0.000355114
0.000523462
0.000872282
0.00123681
0.00168577
0.00241892
0.00347707
0.00487051
0.00666264
0.00893215
0.0117665
0.0152583
0.0194987
0.0245674
0.0305156
0.000352535
0.000522469
0.000872377
0.00123549
0.00167409
0.00234186
0.00335374
0.00469655
0.00642798
0.0086251
0.0113748
0.01477
0.0189037
0.0238614
0.0297168
0.000350203
0.000521932
0.000873733
0.00123614
0.00166449
0.00227419
0.00324249
0.0045384
0.00621389
0.00834416
0.0110154
0.0143207
0.018355
0.0232083
0.0289577
0.000348031
0.000521425
0.000874966
0.00123603
0.00165334
0.00221435
0.00314153
0.00439395
0.00601765
0.00808595
0.0106843
0.0139058
0.0178467
0.0225996
0.0282406
0.000345939
0.000520659
0.000875346
0.00123456
0.00164194
0.00216734
0.00305014
0.00426149
0.00583703
0.00784769
0.010378
0.0135211
0.0173738
0.0220302
0.0275681
0.000343909
0.000519687
0.00087521
0.00123316
0.00163426
0.00213959
0.00296864
0.00413976
0.00567019
0.00762702
0.0100937
0.013163
0.0169323
0.0214969
0.0269385
0.000341971
0.000518748
0.000875309
0.00123324
0.0016315
0.00212533
0.00289651
0.00402777
0.0055156
0.00742197
0.0098289
0.0128287
0.0165189
0.0209959
0.0263423
0.000340155
0.000518004
0.000876026
0.0012349
0.00163191
0.00211611
0.00283218
0.00392452
0.00537196
0.00723084
0.00958145
0.0125153
0.0161296
0.0205192
0.0257586
0.00033846
0.000517438
0.0008772
0.00123735
0.00163313
0.00210725
0.00277405
0.00382902
0.00523813
0.00705219
0.00934957
0.012221
0.015764
0.0200773
0.0252643
0.000336858
0.000516922
0.0008784
0.00123964
0.00163364
0.00209725
0.00272171
0.00374043
0.00511313
0.00688475
0.00913176
0.0119441
0.0154189
0.0196542
0.024731
0.000335317
0.000516327
0.000879257
0.00124122
0.00163307
0.00208697
0.00267851
0.00365844
0.00499609
0.00672746
0.00892666
0.0116826
0.0150922
0.0192529
0.024251
0.000333817
0.000515612
0.000879684
0.00124216
0.00163221
0.00207897
0.0026492
0.00358344
0.00488641
0.00657937
0.00873307
0.0114353
0.0147821
0.0188707
0.0237894
0.000332357
0.000514826
0.000879871
0.00124298
0.00163219
0.0020748
0.00263209
0.00351552
0.0047836
0.00643969
0.00855
0.011201
0.0144885
0.0185132
0.0233851
0.000330949
0.000514058
0.000880092
0.00124418
0.00163353
0.00207399
0.00262161
0.00345397
0.00468716
0.00630773
0.00837661
0.0109788
0.0142103
0.0181737
0.0229763
0.000329603
0.000513369
0.000880517
0.0012459
0.00163603
0.00207502
0.00261337
0.00339772
0.0045966
0.0061829
0.0082122
0.010768
0.0139465
0.017852
0.0225942
0.000328322
0.000512765
0.000881142
0.00124801
0.00163908
0.00207647
0.0026051
0.00334585
0.00451139
0.00606468
0.00805613
0.0105676
0.0136948
0.01754
0.0221965
0.000327098
0.00051221
0.000881841
0.00125018
0.00164204
0.00207742
0.00259604
0.0032983
0.00443108
0.00595256
0.00790776
0.0103768
0.0134549
0.0172456
0.0218605
0.000325918
0.000511652
0.000882454
0.00125212
0.0016445
0.00207753
0.00258659
0.00325695
0.00435551
0.00584613
0.00776654
0.0101949
0.0132258
0.0169624
0.0215065
0.000324771
0.000511055
0.000882871
0.00125366
0.00164638
0.00207716
0.00257823
0.00322518
0.00428494
0.00574502
0.00763194
0.0100212
0.0130063
0.0166889
0.021168
0.00032365
0.000510407
0.000883074
0.00125485
0.0016479
0.00207702
0.00257244
0.00320387
0.00421969
0.005649
0.0075035
0.0098551
0.0127965
0.0164311
0.0208751
0.000322554
0.000509729
0.00088313
0.00125585
0.00164945
0.00207777
0.00256968
0.00319033
0.00415966
0.00555781
0.00738083
0.0096961
0.012595
0.0161792
0.0205462
0.000321486
0.000509051
0.000883148
0.00125687
0.00165134
0.00207962
0.00256936
0.00318101
0.00410432
0.00547123
0.00726356
0.00954376
0.012402
0.0159414
0.0202823
0.000320453
0.000508404
0.000883216
0.00125806
0.00165367
0.0020824
0.00257047
0.00317334
0.00405297
0.00538893
0.00715139
0.00939783
0.0122174
0.0157156
0.0200162
0.000319455
0.0005078
0.000883374
0.00125943
0.00165636
0.00208574
0.00257209
0.00316583
0.00400501
0.00531064
0.00704404
0.00925797
0.0120404
0.0154965
0.0197388
0.000318492
0.000507235
0.000883607
0.00126092
0.00165923
0.00208919
0.00257354
0.00315787
0.00396024
0.00523608
0.00694126
0.00912381
0.0118704
0.0152857
0.0194859
0.000317561
0.000506695
0.000883865
0.00126242
0.00166204
0.00209243
0.00257446
0.00314941
0.0039193
0.00516509
0.00684279
0.00899507
0.0117072
0.0150838
0.0192419
0.000316657
0.00050616
0.000884087
0.00126382
0.00166462
0.00209525
0.00257482
0.00314104
0.00388399
0.00509769
0.00674839
0.00887128
0.0115494
0.0148845
0.0189758
0.000315776
0.000505614
0.000884225
0.00126504
0.00166689
0.00209764
0.00257492
0.00313378
0.00385635
0.00503413
0.00665788
0.00875213
0.0113971
0.0146936
0.0187526
0.000314912
0.00050505
0.000884258
0.00126604
0.00166885
0.00209976
0.00257522
0.00312855
0.00383665
0.00497462
0.00657106
0.00863728
0.0112499
0.014508
0.0185166
0.000314066
0.00050447
0.000884194
0.00126687
0.00167062
0.00210186
0.00257618
0.0031257
0.00382326
0.00491913
0.00648783
0.00852651
0.0111075
0.014328
0.0182926
0.000313236
0.000503882
0.000884068
0.0012676
0.00167234
0.00210416
0.00257801
0.00312497
0.00381385
0.00486739
0.00640799
0.00841952
0.0109693
0.0141523
0.0180692
0.000312424
0.0005033
0.000883922
0.00126831
0.00167412
0.0021068
0.00258069
0.00312577
0.0038065
0.00481893
0.0063314
0.00831621
0.0108358
0.0139843
0.0178698
0.000311633
0.000502734
0.000883792
0.00126907
0.00167606
0.0021098
0.00258405
0.00312745
0.00379992
0.0047733
0.00625783
0.00821621
0.0107055
0.0138154
0.0176313
0.000310863
0.000502191
0.0008837
0.0012699
0.00167814
0.00211308
0.0025878
0.00312943
0.00379335
0.00473015
0.00618708
0.00811948
0.0105798
0.0136588
0.0174777
0.000310115
0.000501671
0.000883649
0.0012708
0.00168034
0.00211652
0.00259167
0.00313131
0.00378645
0.00468937
0.00611899
0.00802586
0.0104577
0.0135025
0.0172515
0.000309387
0.000501172
0.000883627
0.00127174
0.00168258
0.00211998
0.00259544
0.00313285
0.00377916
0.00465129
0.00605344
0.00793515
0.0103389
0.0133491
0.0170573
0.000308678
0.000500685
0.000883613
0.00127267
0.00168478
0.00212331
0.00259895
0.00313395
0.00377172
0.00461688
0.00599041
0.00784721
0.0102233
0.013201
0.0168768
0.000307987
0.000500204
0.000883583
0.00127354
0.00168686
0.00212643
0.00260213
0.0031347
0.00376467
0.0045875
0.00592999
0.0077619
0.0101107
0.0130548
0.016678
0.00030731
0.000499723
0.000883516
0.00127433
0.00168877
0.00212929
0.00260499
0.00313535
0.0037587
0.00456417
0.00587236
0.00767902
0.0100004
0.0129103
0.0164896
0.000306647
0.000499236
0.000883401
0.00127501
0.00169051
0.00213192
0.00260767
0.0031362
0.00375433
0.00454672
0.00581765
0.00759861
0.00989332
0.0127738
0.0163418
0.000305997
0.000498745
0.000883236
0.00127557
0.00169208
0.00213437
0.0026103
0.00313752
0.00375177
0.00453402
0.00576584
0.00752059
0.00978891
0.0126382
0.0161524
0.000305358
0.000498249
0.000883028
0.00127605
0.00169353
0.00213674
0.00261305
0.00313949
0.00375088
0.00452459
0.00571679
0.00744497
0.00968742
0.0125082
0.0160023
0.000304732
0.000497754
0.000882792
0.00127647
0.00169491
0.0021391
0.00261601
0.00314212
0.00375132
0.00451711
0.00567026
0.0073717
0.00958863
0.0123804
0.0158335
0.000304119
0.000497263
0.000882544
0.00127687
0.00169628
0.00214154
0.00261924
0.00314535
0.00375266
0.0045106
0.00562598
0.00730071
0.00949244
0.0122561
0.0156807
0.000303519
0.000496782
0.0008823
0.00127727
0.00169768
0.00214408
0.00262273
0.00314902
0.00375451
0.0045044
0.00558369
0.00723194
0.00939902
0.0121367
0.0155402
0.000302935
0.000496312
0.000882071
0.00127769
0.00169913
0.00214673
0.00262641
0.00315296
0.00375653
0.00449812
0.00554323
0.00716533
0.00930834
0.0120206
0.015395
0.000302367
0.000495857
0.000881861
0.00127813
0.00170063
0.00214946
0.00263022
0.003157
0.00375847
0.00449156
0.00550458
0.00710086
0.0092204
0.0119083
0.0152589
0.000301815
0.000495414
0.00088167
0.00127861
0.00170215
0.00215224
0.00263406
0.00316099
0.00376016
0.00448467
0.00546794
0.00703848
0.00913505
0.0117988
0.0151207
0.000301279
0.000494984
0.000881494
0.00127909
0.00170369
0.002155
0.00263784
0.00316481
0.00376152
0.00447757
0.00543381
0.0069782
0.00905227
0.011693
0.0149944
0.000300761
0.000494562
0.000881324
0.00127957
0.0017052
0.0021577
0.00264149
0.0031684
0.00376257
0.00447053
0.00540306
0.0069201
0.00897206
0.0115906
0.0148683
0.00030026
0.000494146
0.000881152
0.00128002
0.00170665
0.0021603
0.00264496
0.00317173
0.0037634
0.00446396
0.00537658
0.00686433
0.0088943
0.0114905
0.0147395
0.000299777
0.000493735
0.000880973
0.00128044
0.00170803
0.00216277
0.00264824
0.00317485
0.00376418
0.00445832
0.00535493
0.00681101
0.00881884
0.0113926
0.0146142
0.000299317
0.000493323
0.000880777
0.00128081
0.00170932
0.00216509
0.00265135
0.00317782
0.00376514
0.00445398
0.005338
0.00676026
0.00874566
0.0112972
0.0144944
0.000298876
0.000492914
0.000880579
0.00128115
0.00171053
0.00216731
0.00265433
0.00318077
0.00376649
0.00445113
0.00532514
0.00671211
0.00867471
0.0112041
0.0143751
0.000298481
0.000492493
0.000880342
0.00128141
0.00171163
0.00216939
0.00265722
0.0031838
0.00376837
0.00444976
0.00531541
0.00666655
0.00860615
0.0111142
0.0142652
0.00029808
0.0004921
0.00088021
0.00128175
0.00171279
0.00217153
0.0026602
0.00318709
0.00377092
0.00444979
0.00530799
0.00662348
0.00853979
0.0110258
0.0141475
0.000297896
0.000491605
0.000879857
0.00128192
0.00171388
0.00217373
0.00266342
0.00319088
0.00377436
0.00445116
0.00530224
0.00658321
0.00847646
0.0109428
0.0140556
0.000297275
0.000491346
0.000879892
0.00128192
0.00171424
0.00217481
0.00266537
0.00319348
0.00377689
0.00445203
0.00529632
0.00654314
0.00841358
0.0108581
0.0139281
0.000299246
0.000491966
0.00088317
0.00128912
0.00172474
0.00218778
0.00268002
0.00320904
0.00379235
0.0044654
0.00530189
0.00652003
0.00836628
0.0107876
0.0138521
0.000280356
0.000468036
0.000839184
0.0012339
0.00166493
0.00212779
0.00262232
0.0031544
0.00373978
0.00441174
0.00524001
0.00641662
0.00824613
0.0106652
0.0137179
0.0012858
0.00387073
0.00671963
0.00978836
0.0130825
0.0166077
0.0203821
0.0244318
0.0287864
0.0334707
0.0384969
0.0438609
0.0495401
0.055496
0.0616781
9.22786e-08
0.000422934
0.0017154
0.00384192
0.00633326
0.00930821
0.0127773
0.016745
0.0212102
0.0261643
0.031588
0.0374482
0.0436965
0.0502693
0.0570898
0
0.000212378
0.00109217
0.00255243
0.00437629
0.0066996
0.0095668
0.0130138
0.0170659
0.0217334
0.0270076
0.0328572
0.0392271
0.0460384
0.0531924
3.23361e-06
0.000193314
0.00109802
0.00217676
0.00363456
0.00554359
0.00796586
0.010961
0.0145812
0.0188653
0.0238315
0.0294715
0.0357455
0.0425804
0.049874
6.16254e-05
0.000512895
0.00105414
0.00195548
0.00320625
0.0048599
0.00698288
0.00964567
0.0129165
0.0168549
0.0215035
0.0268798
0.0329679
0.039713
0.0470202
0.000346306
0.000614084
0.000983358
0.00177749
0.00288932
0.00436926
0.00628163
0.00869887
0.0116968
0.0153472
0.0197102
0.0248247
0.0306981
0.0372966
0.0445369
0.000399578
0.000589765
0.000949776
0.00163131
0.00263689
0.0039851
0.00573777
0.00796549
0.0107461
0.0141583
0.0182732
0.023146
0.0288037
0.0352342
0.0423768
0.000392658
0.000558542
0.000938289
0.00151308
0.00243171
0.00367426
0.00529762
0.00737247
0.00997495
0.0131868
0.0170865
0.0217401
0.0271889
0.0334341
0.0404069
0.000384482
0.00054236
0.000918137
0.00141588
0.00226296
0.00341813
0.0049341
0.00688017
0.00933254
0.0123731
0.0160844
0.0205406
0.0257952
0.0318691
0.0387478
0.00037876
0.00053366
0.000893828
0.00133401
0.00212197
0.00320362
0.00462835
0.00646386
0.00878693
0.0116786
0.0152238
0.0195025
0.0245789
0.0304907
0.0372429
0.000373951
0.000527908
0.00087465
0.00127942
0.00200375
0.00302139
0.00436736
0.00610705
0.00831644
0.0110771
0.0144746
0.0185932
0.0235053
0.0292604
0.0358695
0.000369857
0.000525038
0.000866709
0.00125816
0.00190566
0.00286483
0.0041417
0.00579714
0.00790566
0.0105498
0.0138148
0.0177879
0.0225471
0.0281484
0.0346044
0.000366412
0.00052423
0.000865675
0.00124835
0.00182344
0.00272902
0.00394447
0.00552513
0.00754388
0.0100829
0.0132283
0.0170687
0.0216869
0.0271497
0.033503
0.000363341
0.000523868
0.000865738
0.00123837
0.00175282
0.00261001
0.00377046
0.00528416
0.00722223
0.009666
0.0127027
0.0164216
0.02091
0.0262426
0.0324712
0.000360388
0.000522883
0.000864058
0.00122596
0.00169305
0.00250481
0.00361564
0.00506894
0.00693396
0.00929106
0.0122283
0.0158355
0.0202025
0.0254069
0.0314924
0.000357516
0.000521442
0.00086178
0.00121633
0.00165678
0.00241286
0.00347707
0.0048754
0.00667391
0.00895191
0.0117974
0.015301
0.0195536
0.0246353
0.0305967
0.000354838
0.00052029
0.000861134
0.00121315
0.00164189
0.00233358
0.0033526
0.00470034
0.00643792
0.00864324
0.0114036
0.0148111
0.0189572
0.0239277
0.0297961
0.00035242
0.000519736
0.000862469
0.00121428
0.00163455
0.00226473
0.00324035
0.0045412
0.00622263
0.00836078
0.0110423
0.0143601
0.0184071
0.0232735
0.0290373
0.000350223
0.000519513
0.000864617
0.00121626
0.00162713
0.00220377
0.00313861
0.00439586
0.00602529
0.00810119
0.0107094
0.0139435
0.0178975
0.0226638
0.0283197
0.000348151
0.000519192
0.000866278
0.00121688
0.00161755
0.00214976
0.00304589
0.00426254
0.00584367
0.00786168
0.0104016
0.013557
0.0174232
0.0220935
0.0276466
0.000346137
0.00051855
0.000866952
0.00121607
0.00160792
0.00210889
0.00296181
0.00413985
0.0056759
0.00763988
0.0101159
0.0131972
0.0169802
0.0215587
0.0270133
0.000344175
0.000517701
0.000867138
0.00121548
0.00160224
0.00208664
0.00288684
0.00402677
0.00552041
0.00743378
0.00984982
0.0128611
0.0165652
0.021056
0.0264152
0.000342304
0.000516904
0.000867615
0.0012164
0.00160131
0.0020763
0.00282044
0.00392245
0.00537591
0.00724166
0.00960112
0.0125462
0.0161743
0.0205779
0.0258315
0.000340551
0.000516312
0.000868729
0.00121887
0.00160321
0.00206988
0.00276111
0.00382602
0.00524126
0.00706206
0.00936808
0.0122505
0.0158071
0.0201349
0.0253369
0.000338916
0.000515894
0.000870285
0.00122204
0.0016057
0.00206325
0.0027073
0.00373661
0.00511548
0.00689374
0.00914918
0.0119722
0.0154604
0.0197105
0.0248021
0.00033737
0.000515515
0.00087184
0.00122499
0.00160731
0.00205512
0.00265847
0.00365344
0.00499771
0.00673563
0.00894307
0.0117096
0.0151322
0.0193077
0.0243206
0.00033588
0.000515046
0.000873019
0.00122714
0.00160766
0.00204628
0.00261749
0.0035762
0.00488719
0.00658675
0.00874854
0.011461
0.0148205
0.0189241
0.0238577
0.000334424
0.000514438
0.000873717
0.00122855
0.0016075
0.00203925
0.00258963
0.00350531
0.00478338
0.00644629
0.00856456
0.0112256
0.0145256
0.0185652
0.0234515
0.000333003
0.000513739
0.000874116
0.00122973
0.001608
0.00203589
0.00257417
0.00344102
0.00468586
0.00631355
0.0083903
0.0110023
0.014246
0.0182241
0.0230409
0.000331628
0.000513041
0.000874507
0.00123122
0.00160983
0.00203597
0.00256574
0.00338281
0.00459424
0.00618795
0.00822506
0.0107905
0.013981
0.0179009
0.0226578
0.000330313
0.000512417
0.000875092
0.00123324
0.00161287
0.00203809
0.00255976
0.00332967
0.00450809
0.00606898
0.00806819
0.0105892
0.0137281
0.0175875
0.0222589
0.00032906
0.000511884
0.000875898
0.0012357
0.00161657
0.00204078
0.00255373
0.00328062
0.00442693
0.00595615
0.00791906
0.0103975
0.0134871
0.0172914
0.0219203
0.000327865
0.000511409
0.000876814
0.00123829
0.00162029
0.00204302
0.00254674
0.00323524
0.00435034
0.00584903
0.0077771
0.0102147
0.0132569
0.0170067
0.0215652
0.000326716
0.000510941
0.000877676
0.0012407
0.00162355
0.00204434
0.00253886
0.00319454
0.00427804
0.00574719
0.00764179
0.0100401
0.0130362
0.0167316
0.0212244
0.000325599
0.000510435
0.00087835
0.00124271
0.00162614
0.00204488
0.00253126
0.00316172
0.00421018
0.0056503
0.00751264
0.00987315
0.0128253
0.0164725
0.0209305
0.000324508
0.000509872
0.000878786
0.0012443
0.0016282
0.00204529
0.00252562
0.00313924
0.00414714
0.00555811
0.00738925
0.00971333
0.0126228
0.0162193
0.0205993
0.000323438
0.000509262
0.000879027
0.00124559
0.00163011
0.00204632
0.00252292
0.00312565
0.00408908
0.00547043
0.00727124
0.00956017
0.0124287
0.0159799
0.0203329
0.000322392
0.000508636
0.000879177
0.00124682
0.00163224
0.00204839
0.00252293
0.00311744
0.00403566
0.00538706
0.00715832
0.00941344
0.0122432
0.0157532
0.0200688
0.000321377
0.000508028
0.000879343
0.00124816
0.00163478
0.00205151
0.00252479
0.00311158
0.00398624
0.00530777
0.00705024
0.00927281
0.0120653
0.015533
0.0197891
0.000320395
0.00050746
0.000879592
0.00124969
0.00163775
0.00205536
0.00252748
0.00310622
0.00394017
0.00523231
0.00694674
0.00913793
0.0118946
0.0153229
0.0195459
0.000319449
0.000506936
0.000879933
0.00125139
0.00164099
0.00205952
0.00253023
0.00310043
0.00389698
0.00516041
0.0068476
0.00900858
0.0117311
0.0151222
0.0193062
0.000318535
0.000506444
0.000880329
0.00125317
0.00164429
0.0020636
0.00253253
0.00309392
0.00385671
0.00509186
0.00675258
0.00888436
0.0115735
0.014925
0.019047
0.00031765
0.000505967
0.000880721
0.0012549
0.00164743
0.00206731
0.00253416
0.00308689
0.00382034
0.00502655
0.00666145
0.00876494
0.0114216
0.0147358
0.0188253
0.000316789
0.000505485
0.000881049
0.00125647
0.00165028
0.00207053
0.00253522
0.0030801
0.00378999
0.0049646
0.006574
0.00865002
0.0112752
0.0145536
0.018602
0.000315947
0.000504986
0.000881273
0.00125782
0.00165278
0.00207331
0.0025361
0.00307465
0.00376742
0.0049063
0.00649009
0.00853932
0.0111337
0.0143753
0.0183712
0.000315122
0.000504464
0.000881384
0.00125896
0.00165497
0.00207587
0.00253729
0.00307136
0.00375232
0.00485185
0.00640959
0.00843257
0.0109968
0.0142021
0.0181533
0.000314311
0.000503926
0.0008814
0.00125993
0.001657
0.00207846
0.00253919
0.00307038
0.0037427
0.00480116
0.00633235
0.00832939
0.0108634
0.0140305
0.0179251
0.000313517
0.000503382
0.000881361
0.00126082
0.001659
0.00208128
0.00254198
0.00307137
0.00373632
0.00475389
0.00625822
0.00822966
0.0107345
0.0138688
0.0177478
0.00031274
0.000502846
0.000881312
0.00126171
0.0016611
0.00208447
0.00254559
0.00307367
0.00373144
0.00470959
0.00618703
0.00813308
0.0106087
0.0137056
0.0175124
0.000311984
0.000502328
0.000881287
0.00126265
0.00166335
0.002088
0.0025498
0.00307667
0.00372697
0.00466782
0.00611857
0.00803958
0.0104871
0.0135549
0.0173757
0.000311248
0.000501833
0.000881305
0.00126368
0.00166576
0.0020918
0.00255434
0.00307985
0.00372228
0.00462825
0.0060527
0.00794921
0.0103702
0.0134116
0.0172042
0.000310534
0.000501362
0.000881365
0.00126477
0.00166827
0.00209573
0.00255895
0.00308282
0.0037171
0.0045908
0.00598932
0.00786199
0.0102576
0.0132706
0.0170105
0.00030984