/*--------------------------------*- C++ -*----------------------------------*\
| =========                 |                                                 |
| \\      /  F ield         | OpenFOAM: The Open Source CFD Toolbox           |
|  \\    /   O peration     | Version:  2.3.0                                 |
|   \\  /    A nd           | Web:      www.OpenFOAM.org                      |
|    \\/     M anipulation  |                                                 |
\*---------------------------------------------------------------------------*/
FoamFile
{
    version     2.0;
    format      ascii;
    class       surfaceScalarField;
    location    "200";
    object      phi;
}
// * * * * * * * * * * * * * * * * * * * * * * * * * * * * * * * * * * * * * //

dimensions      [0 3 -1 0 0 0 0];

internalField   nonuniform List<scalar> 
15867
(
-0.0018689
-0.019808
0.0214839
0.000193257
-0.00310694
-0.0166712
0.0179092
-0.00398093
-0.0140567
0.0149307
-0.00455202
-0.011878
0.0124491
-0.00487066
-0.010062
0.0103807
-0.00497713
-0.00854911
0.00865559
-0.0049056
-0.0072882
0.00721667
-0.0046839
-0.00623721
0.00601551
-0.00433571
-0.00536134
0.00501316
-0.00388102
-0.00463122
0.00417652
-0.00333688
-0.00402239
0.00347825
-0.00271741
-0.00351486
0.00289539
-0.00203435
-0.00309168
0.00240862
-0.00129678
-0.00273881
0.00200124
-0.0024446
-0.000496663
0.00164449
-0.00169237
-0.0182906
0.000174935
-0.00280802
-0.0155555
-0.00358888
-0.0132759
-0.00409093
-0.011376
-0.0043606
-0.00979236
-0.00443701
-0.0084727
-0.00435247
-0.00737274
-0.00413329
-0.00645638
-0.0038021
-0.00569254
-0.00337701
-0.00505631
-0.00287338
-0.00452601
-0.00230408
-0.00408417
-0.00167973
-0.00371602
-0.00100928
-0.00340926
-0.0031537
-0.000300183
-0.00153503
-0.0169132
0.000157614
-0.00254755
-0.014543
-0.00325537
-0.012568
-0.00370945
-0.0109219
-0.0039514
-0.00955041
-0.00401648
-0.00840761
-0.00393426
-0.00745495
-0.00372934
-0.00666131
-0.0034217
-0.00600017
-0.00302918
-0.00544884
-0.00256549
-0.0049897
-0.00204268
-0.00460698
-0.00147063
-0.00428806
-0.000857619
-0.00402228
-0.00380077
-0.000210548
-0.00138896
-0.0156636
0.000139434
-0.00230646
-0.0136255
-0.00294714
-0.0119274
-0.003357
-0.010512
-0.00357464
-0.00933277
-0.00363223
-0.00835002
-0.00355614
-0.00753105
-0.00336869
-0.00684876
-0.00308879
-0.00628006
-0.00273135
-0.00580628
-0.00230986
-0.00541119
-0.00183471
-0.00508213
-0.00131493
-0.00480784
-0.000757998
-0.00457921
-0.00438867
-0.000170097
-0.00125798
-0.014529
0.000123308
-0.00209049
-0.012793
-0.00267185
-0.011346
-0.00304322
-0.0101407
-0.00324018
-0.00913581
-0.0032915
-0.00829871
-0.00322149
-0.00760106
-0.00305048
-0.00701977
-0.00279537
-0.00653518
-0.00247024
-0.00613141
-0.00208638
-0.00579504
-0.00165417
-0.00551435
-0.00118138
-0.00528062
-0.000674885
-0.00508571
-0.00492328
-0.000140276
-0.00113915
-0.0134987
0.000108852
-0.00189529
-0.0120368
-0.00242269
-0.0108186
-0.00275995
-0.00980341
-0.0029382
-0.00895755
-0.00298438
-0.00825252
-0.00292041
-0.00766503
-0.00276476
-0.00717542
-0.00253271
-0.00676723
-0.00223691
-0.00642721
-0.0018882
-0.00614374
-0.00149519
-0.00590736
-0.00106539
-0.00571042
-0.000604911
-0.00554619
-0.00540926
-0.000118925
-0.00103236
-0.0125627
9.6369e-05
-0.00171921
-0.01135
-0.00219832
-0.0103395
-0.00250425
-0.00949748
-0.00266633
-0.00879548
-0.00270804
-0.00821081
-0.00264968
-0.00772339
-0.00250811
-0.00731699
-0.00229699
-0.00697835
-0.00202796
-0.00669625
-0.00171084
-0.00646085
-0.00135352
-0.00626469
-0.000962741
-0.0061012
-0.000544106
-0.00596482
-0.00585112
-0.000102246
-0.00093583
-0.0117123
8.54784e-05
-0.00155989
-0.0107259
-0.00199497
-0.00990441
-0.00227318
-0.00921927
-0.00242003
-0.00864863
-0.002458
-0.00817284
-0.00240495
-0.00777644
-0.00227613
-0.0074458
-0.0020842
-0.00717029
-0.00183957
-0.00694087
-0.00155128
-0.00674914
-0.00122639
-0.00658958
-0.000871133
-0.00645646
-0.000490538
-0.00634542
-0.00625282
-8.88371e-05
-0.000848704
-0.0109394
7.57869e-05
-0.00141559
-0.010159
-0.00181119
-0.00950881
-0.00206381
-0.00896665
-0.00219732
-0.00851512
-0.0022318
-0.00813836
-0.00218351
-0.00782474
-0.00206628
-0.00756303
-0.00189175
-0.00734482
-0.00166954
-0.00716308
-0.00140729
-0.0070114
-0.00111189
-0.00688498
-0.000789008
-0.00677934
-0.000442991
-0.00669144
-0.00661803
-7.77861e-05
-0.000769969
-0.0102369
6.74745e-05
-0.00128516
-0.00964384
-0.00164476
-0.00914921
-0.00187423
-0.00873718
-0.00199566
-0.00839369
-0.00202669
-0.00810733
-0.00198277
-0.00786866
-0.00187634
-0.00766946
-0.00171763
-0.00750353
-0.00151545
-0.00736526
-0.00127723
-0.00724963
-0.00100877
-0.00715344
-0.000715042
-0.00707306
-0.000400483
-0.007006
-0.00695004
-6.84739e-05
-0.000698565
-0.0095985
6.01516e-05
-0.00116696
-0.00917545
-0.00149361
-0.00882257
-0.00170219
-0.0085286
-0.00181256
-0.00828332
-0.00184096
-0.00807893
-0.00180103
-0.00790858
-0.00170401
-0.00776648
-0.00155971
-0.00764783
-0.00137616
-0.00754881
-0.00115937
-0.00746642
-0.000915348
-0.00739746
-0.000648381
-0.00734003
-0.000362398
-0.00729198
-0.00725187
-6.05631e-05
-0.000633923
-0.00901831
5.37312e-05
-0.00105975
-0.00874962
-0.00135669
-0.00852562
-0.00154641
-0.00833888
-0.00164654
-0.00818319
-0.00167212
-0.00805334
-0.001636
-0.00794471
-0.00154799
-0.0078545
-0.00141691
-0.00777891
-0.00124958
-0.00771613
-0.00105282
-0.00766318
-0.000830837
-0.00761944
-0.000588166
-0.0075827
-0.000328175
-0.00755197
-0.00752629
-5.37524e-05
-0.000575496
-0.00849092
4.81011e-05
-0.000962396
-0.00836272
-0.00123245
-0.00825557
-0.00140471
-0.00816662
-0.00149582
-0.00809209
-0.0015194
-0.00802976
-0.00148628
-0.00797783
-0.00140628
-0.0079345
-0.00128681
-0.00789837
-0.00113511
-0.00786783
-0.000955987
-0.0078423
-0.000754235
-0.0078212
-0.00053368
-0.00780325
-0.000297316
-0.00778833
-0.00777577
-4.7843e-05
-0.000522526
4.30554e-05
-0.00801145
-0.000874356
-0.00801089
-0.00111954
-0.00801039
-0.00127635
-0.00800981
-0.00135926
-0.00800917
-0.00138044
-0.00800858
-0.00135031
-0.00800796
-0.00127753
-0.00800728
-0.00116928
-0.00800662
-0.0010312
-0.00800591
-0.000868303
-0.0080052
-0.000684979
-0.00800452
-0.000484389
-0.00800384
-0.000269502
-0.00800322
-4.26899e-05
-0.00800258
0.000321412
-0.0024419
0.00162383
0.00107879
-0.00272987
0.0019725
0.00178443
-0.00307589
0.00237025
0.00243151
-0.00349161
0.00284453
0.00300999
-0.00399104
0.00341256
0.00350701
-0.0045912
0.00409418
0.00390606
-0.00531212
0.00491307
0.00418675
-0.00617828
0.00589759
0.00432378
-0.00721896
0.00708192
0.00428651
-0.00846872
0.00850598
0.00403722
-0.00996928
0.0102186
0.00353211
-0.0117713
0.0122764
0.00271828
-0.0139343
0.0147481
0.00153387
-0.0165314
0.0177159
-0.0196497
0.0212776
-9.39918e-05
0.000410519
-0.00315261
0.00108631
-0.00340566
0.00171982
-0.0037094
0.00230214
-0.00407392
0.00282251
-0.00451141
0.00326781
-0.0050365
0.00362218
-0.00566649
0.00386682
-0.00642292
0.00397838
-0.00733053
0.00392997
-0.00842031
0.00368902
-0.00972832
0.00321658
-0.0112989
0.00246666
-0.0131844
0.0013837
-0.0154485
-0.0181668
-9.91805e-05
0.000436691
-0.00379984
0.00105034
-0.00401931
0.00162366
-0.00428272
0.00214861
-0.00459887
0.00261554
-0.00497834
0.00301269
-0.00543366
0.00332669
-0.00598049
0.00354009
-0.00663632
0.00363328
-0.00742371
0.003582
-0.00836904
0.00335695
-0.00950327
0.00292287
-0.0108648
0.00223798
-0.0124995
0.00125094
-0.0144614
-0.0168169
-9.89453e-05
0.000417927
-0.00438787
0.000975303
-0.00457668
0.00149594
-0.00480336
0.0019725
-0.00507543
0.00239609
-0.00540193
0.00275649
-0.00579406
0.00304038
-0.00626438
0.00323308
-0.00682902
0.0033159
-0.00750653
0.00326673
-0.00831986
0.00305945
-0.00929599
0.00266211
-0.0104675
0.00203635
-0.0118737
0.00113632
-0.0135614
-0.0155875
-9.30718e-05
0.000394378
-0.00492252
0.00090105
-0.00508336
0.0013742
-0.00527651
0.00180706
-0.00550829
0.00219193
-0.0057868
0.00251858
-0.0061207
0.00277584
-0.00652165
0.00294982
-0.007003
0.00302381
-0.00758051
0.00297771
-0.00827377
0.00278744
-0.00910572
0.00242448
-0.0101045
0.00185353
-0.0113028
0.0010336
-0.0127415
-0.0144678
-8.61033e-05
0.000367091
-0.00540854
0.000827686
-0.00554395
0.00125773
-0.00570655
0.00165117
-0.00590173
0.00200055
-0.00613618
0.00229736
-0.00641751
0.00253085
-0.00675514
0.00268849
-0.00716063
0.00275515
-0.00764717
0.00271251
-0.00823113
0.00253885
-0.00893206
0.00220747
-0.00977315
0.00168744
-0.0107828
0.000940433
-0.0119945
-0.0134486
-7.87634e-05
0.000339632
-0.00585042
0.000758339
-0.00596266
0.00114928
-0.00609749
0.00150689
-0.00625934
0.00182445
-0.00645375
0.00209418
-0.00668724
0.0023063
-0.00696726
0.00244926
-0.00730359
0.00250951
-0.00770743
0.00247033
-0.00819194
0.00231157
-0.0087733
0.0020099
-0.00947149
0.00153622
-0.0103091
0.000856194
-0.0113144
-0.0125212
-7.12761e-05
0.000312877
-0.00625213
0.000693525
-0.00634331
0.0010489
-0.00645286
0.001374
-0.00658444
0.00166262
-0.00674237
0.00190776
-0.00693237
0.00210043
-0.00715993
0.00223027
-0.00743344
0.00228473
-0.00776188
0.00224865
-0.00815585
0.00210427
-0.00862893
0.00182927
-0.00919648
0.00139829
-0.0098781
0.000779407
-0.0106956
-0.0116772
-6.45428e-05
0.000287428
-0.00661735
0.000633485
-0.00668936
0.000956454
-0.00677583
0.00125201
-0.00687999
0.00151452
-0.00700488
0.00173712
-0.00715496
0.00191221
-0.00733502
0.00203023
-0.00755146
0.0020796
-0.00781126
0.00204657
-0.00812282
0.00191496
-0.00849732
0.00166483
-0.00894635
0.00127242
-0.00948569
0.00070959
-0.0101327
-0.0109094
-5.82083e-05
0.000263542
-0.00694936
0.000578131
-0.00700395
0.000871922
-0.00706962
0.00114051
-0.00714858
0.00137893
-0.00724331
0.00158142
-0.00735745
0.00174058
-0.00749418
0.00184763
-0.00765851
0.0018924
-0.00785602
0.0018625
-0.00809292
0.00174258
-0.00837739
0.00151506
-0.00871883
0.00115798
-0.00912862
0.000646
-0.00962074
-0.010211
-5.24393e-05
0.000241276
-0.0072512
0.000527282
-0.00728996
0.000794302
-0.00733664
0.00103842
-0.0073927
0.00125538
-0.00746027
0.00143918
-0.00754125
0.00158383
-0.00763884
0.00168136
-0.00775603
0.00172196
-0.00789663
0.00169447
-0.00806543
0.00158531
-0.00826823
0.00137831
-0.00851182
0.00105368
-0.008804
0.000587882
-0.00915494
-0.00957583
-4.72716e-05
0.000220672
-0.00752563
0.000480676
-0.00754996
0.000723391
-0.00757936
0.000945458
-0.00761476
0.00114235
-0.00765716
0.00130989
-0.00770878
0.00144126
-0.00777021
0.00152968
-0.00784445
0.00156636
-0.00793331
0.00154152
-0.00804059
0.00144237
-0.00816909
0.00125395
-0.0083234
0.00095866
-0.00850871
0.000534945
-0.00873123
-0.00899833
-4.25636e-05
0.000201628
-0.0077751
0.000437991
-0.00778633
0.000658581
-0.00779995
0.000860402
-0.00781658
0.00103965
-0.00783641
0.00119152
-0.00786065
0.00131122
-0.00788991
0.00139156
-0.00792479
0.00142514
-0.00796689
0.00140218
-0.00801763
0.0013119
-0.0080788
0.00114069
-0.00815219
0.000871999
-0.00824001
0.000486833
-0.00834606
-0.0084731
-3.83892e-05
0.000184101
-0.00800189
0.000398991
-0.00800122
0.000599623
-0.00800058
0.000782993
-0.00799996
0.000946011
-0.00799943
0.00108423
-0.00799887
0.00119268
-0.00799836
0.00126576
-0.00799787
0.00129625
-0.00799739
0.00127561
-0.00799698
0.00119341
-0.00799661
0.00103746
-0.00799624
0.000793401
-0.00799595
0.000443048
-0.00799571
-3.46015e-05
-0.00799545
0.00164453
0.0197992
-0.021459
1.52025e-05
0.00285548
0.016634
-0.0178449
0.00368674
0.0139816
-0.0148128
0.00419575
0.011753
-0.012262
0.00443226
0.00987482
-0.0101113
0.00444101
0.00829169
-0.00830045
0.00426511
0.00695864
-0.00678274
0.00394335
0.00583871
-0.00551696
0.00351048
0.00489988
-0.00446701
0.00299656
0.00411295
-0.00359903
0.00242777
0.00345109
-0.0028823
0.00182737
0.00288901
-0.00228862
0.00121734
0.00240127
-0.00179123
0.000612631
0.0019667
-0.001362
0.00160787
-5.42174e-06
-0.000989816
0.00149676
0.0182912
1.12431e-05
0.00259805
0.0155327
0.00335762
0.013222
0.00382898
0.0112816
0.00405664
0.00964717
0.00408029
0.00826804
0.00393592
0.00710301
0.00365584
0.00611879
0.00326992
0.00528581
0.00280406
0.00457881
0.00228172
0.00397343
0.00172443
0.0034463
0.00115187
0.00297382
0.000576788
0.00254178
0.00219096
-6.30386e-06
0.00136631
0.0169188
6.08428e-06
0.00237047
0.0145285
0.00306513
0.0125273
0.00349935
0.0108474
0.00371318
0.00943334
0.00374192
0.0082393
0.00361735
0.00722759
0.00336807
0.00636806
0.00301941
0.00563447
0.0025952
0.00500302
0.00211596
0.00445267
0.00160135
0.00396092
0.00106936
0.00350581
0.000533
0.00307814
0.00273081
-6.85192e-06
0.00124559
0.015671
2.23258e-06
0.00215873
0.0136154
0.00279114
0.0118949
0.00318739
0.0104511
0.0033849
0.00923584
0.00341567
0.00820853
0.00330734
0.00733591
0.00308496
0.00659045
0.00277129
0.00594813
0.00238611
0.0053882
0.00194863
0.00489015
0.00147616
0.00443339
0.000985433
0.00399653
0.000489867
0.00357371
0.00322775
-7.06402e-06
0.00113378
0.0145369
3.6057e-07
0.00196345
0.0127857
0.00253884
0.0113195
0.00290021
0.0100898
0.00308229
0.00905375
0.00311354
0.00817728
0.00301888
0.00743057
0.00282032
0.006789
0.00253754
0.00623092
0.00218841
0.00573733
0.00178922
0.00528935
0.00135644
0.00486617
0.000905309
0.00444766
0.000449308
0.00402971
0.00368409
-7.03866e-06
0.00103119
0.0135065
-8.09303e-07
0.00178562
0.0120313
0.00230884
0.0107963
0.00263872
0.00975987
0.00280578
0.00888669
0.00283658
0.00814648
0.00275326
0.0075139
0.00257535
0.00696691
0.00232014
0.00648613
0.0020033
0.00605416
0.00163987
0.00565279
0.00124401
0.00526202
0.000830279
0.0048614
0.000411651
0.00444834
0.00410261
-6.86084e-06
0.000937884
0.0125699
-1.2444e-06
0.00162378
0.0113454
0.00209988
0.0103202
0.00240022
0.00945953
0.00255364
0.00873327
0.00258331
0.00811681
0.00250955
0.00758766
0.00234984
0.00712662
0.00211925
0.00671672
0.00183182
0.0063416
0.0015009
0.00598371
0.00113936
0.00562356
0.000760518
0.00524024
0.000376836
0.00483202
0.00448604
-6.60022e-06
0.000852773
0.0117187
-1.59261e-06
0.00147629
0.0107218
0.00190912
0.00988739
0.00218302
0.00918563
0.00232312
0.00859318
0.00235157
0.00808835
0.00228617
0.00765306
0.00214249
0.00727031
0.00193415
0.00692506
0.00167344
0.0066023
0.00137238
0.00628477
0.00104245
0.00595349
0.000696
0.00558669
0.000344724
0.0051833
0.00483702
-6.2492e-06
0.000775207
0.0109447
-1.26292e-06
0.00134182
0.0101552
0.00173575
0.00949347
0.00198503
0.00893635
0.00211326
0.00846494
0.00214022
0.00806139
0.002082
0.00771129
0.00195256
0.00739974
0.0017642
0.00711342
0.00152798
0.00683852
0.00125402
0.00655873
0.00095314
0.00625437
0.0006366
0.00590323
0.000315193
0.0055047
0.00515813
-5.92209e-06
0.00070468
0.0102415
-1.41282e-06
0.00121974
0.00964017
0.00157807
0.00913513
0.00180497
0.00870945
0.00192226
0.00834766
0.00194734
0.00803631
0.00189545
0.00776318
0.00177902
0.00751617
0.00160869
0.00728375
0.00139439
0.00705283
0.00114561
0.00680751
0.000871579
0.0065284
0.000582353
0.00619246
0.000288401
0.00579866
0.0054519
-5.37085e-06
0.000640228
0.00960216
-9.09875e-07
0.0011086
0.0091718
0.0014343
0.00880944
0.00164087
0.00850288
0.00174801
0.00824052
0.00177173
0.00801259
0.00172547
0.00780944
0.00162032
0.00762132
0.00146634
0.00743773
0.00127242
0.00724675
0.00104625
0.00703367
0.000796711
0.00677794
0.000532659
0.00645651
0.000263769
0.00606755
0.00572086
-5.19111e-06
0.000581589
0.00902134
-7.65119e-07
0.00100745
0.00874593
0.00130363
0.00851326
0.00149172
0.00831479
0.00158928
0.00814296
0.00161119
0.00799068
0.00157013
0.0078505
0.00147564
0.00771581
0.0013365
0.00757688
0.00116034
0.0074229
0.000955829
0.00723819
0.000729392
0.00700438
0.000488576
0.00669733
0.000242501
0.00631362
0.00596687
-3.50324e-06
0.000528364
0.00849321
-2.37428e-07
0.000915356
0.00835894
0.00118475
0.00824386
0.00135568
0.00814386
0.00144474
0.0080539
0.00146539
0.00797003
0.00142853
0.00788736
0.00134363
0.0078007
0.0012174
0.00770311
0.00105833
0.00758197
0.000872351
0.00742417
0.000667207
0.00720952
0.00044725
0.00691728
0.000221649
0.00653922
0.00619252
-4.0059e-06
0.000479867
0.00801319
1.52161e-07
0.00083189
0.00800692
0.00107644
0.00799931
0.0012319
0.0079884
0.00131307
0.00797273
0.0013316
0.0079515
0.00129917
0.00791979
0.00122323
0.00787664
0.00110887
0.00781748
0.00096382
0.00772702
0.000796848
0.00759114
0.000615175
0.00739119
0.00041334
0.00711912
0.000205674
0.00674689
6.34416e-06
0.00639185
-0.000623349
0.00161432
-0.000996399
-0.00123163
0.0019804
-0.00137212
-0.00184622
0.00241914
-0.00180454
-0.00245115
0.00291029
-0.00230536
-0.00302401
0.0034759
-0.00290303
-0.00354124
0.00414158
-0.00362435
-0.00397633
0.00493248
-0.00449739
-0.00429891
0.00587513
-0.00555255
-0.00447406
0.00699829
-0.00682314
-0.00446301
0.00833343
-0.00834448
-0.00422305
0.00991703
-0.010157
-0.00371028
0.0117938
-0.0123066
-0.00287565
0.0140201
-0.0148547
-0.00166215
0.0166696
-0.0178831
0.0198316
-0.021493
-7.22029e-07
-0.000590237
0.00219826
-0.00116865
0.00255881
-0.00174545
0.00299594
-0.00230689
0.00347173
-0.00283281
0.00400182
-0.00330137
0.00461015
-0.00368889
0.00532
-0.00396925
0.00615549
-0.00411253
0.00714156
-0.00408655
0.00830746
-0.00385575
0.00968622
-0.00338108
0.0113192
-0.00261851
0.0132575
-0.00151472
0.0155658
0.0183217
-4.81157e-06
-0.000547918
0.00273932
-0.00108745
0.00309834
-0.00162333
0.00353182
-0.00214167
0.00399007
-0.00262401
0.00448416
-0.00305043
0.00503656
-0.00340022
0.00566979
-0.00364943
0.0064047
-0.00377277
0.0072649
-0.00374178
0.00827647
-0.00352513
0.00946957
-0.00308798
0.010882
-0.00239062
0.0125601
-0.00138411
0.0145593
0.0169474
-9.85449e-06
-0.000505329
0.00323758
-0.00100394
0.00359696
-0.00149824
0.00402611
-0.00197403
0.00446586
-0.00241416
0.00492429
-0.00280113
0.00542353
-0.00311557
0.00598423
-0.00333767
0.00662681
-0.00344473
0.00737196
-0.00341193
0.00824367
-0.00321197
0.00926961
-0.00281318
0.0104832
-0.00217835
0.0119253
-0.00126304
0.013644
0.0156978
-1.34297e-05
-0.000464718
0.00369526
-0.000923615
0.00405585
-0.00137802
0.00448052
-0.00181374
0.00490159
-0.00221521
0.00532576
-0.00256575
0.00577407
-0.00284904
0.00626751
-0.00304719
0.00682496
-0.00314065
0.00746542
-0.00310762
0.00821064
-0.00292343
0.00908542
-0.00255987
0.0101197
-0.00198234
0.0113478
-0.00115068
0.0128124
0.0145619
-1.48189e-05
-0.000426659
0.00411506
-0.000848013
0.00447721
-0.00126474
0.00489724
-0.0016632
0.00530005
-0.00202858
0.00569114
-0.00234655
0.00609204
-0.00260207
0.00652303
-0.00277951
0.00700239
-0.00286172
0.00754763
-0.00282936
0.00817829
-0.0026605
0.00891655
-0.00232872
0.00978789
-0.0018036
0.0108227
-0.00104733
0.0120561
0.0135298
-1.52417e-05
-0.000391256
0.00449972
-0.000777478
0.00486343
-0.00115904
0.0052788
-0.0015229
0.00566391
-0.00185547
0.00602371
-0.00214382
0.00638039
-0.00237457
0.00675379
-0.0025338
0.00716162
-0.00260656
0.00762039
-0.00257554
0.00814726
-0.00242056
0.00876158
-0.00211857
0.0094859
-0.0016408
0.0103449
-0.000953243
0.0113685
0.0125916
-1.50055e-05
-0.000358383
0.00485185
-0.000712033
0.00521708
-0.00106098
0.00562775
-0.00139297
0.0059959
-0.00169546
0.0063262
-0.0019569
0.00664183
-0.00216532
0.00696221
-0.00230853
0.00730483
-0.00237305
0.00768491
-0.00234342
0.00811763
-0.00220197
0.00862013
-0.00192662
0.00921055
-0.00149228
0.00991055
-0.000867216
0.0107435
0.0117388
-1.4423e-05
-0.000328102
0.00517403
-0.000651684
0.00554066
-0.000970473
0.00594654
-0.00127318
0.00629861
-0.00154838
0.0066014
-0.00178521
0.00687866
-0.0019736
0.0071506
-0.0021026
0.00743383
-0.00216005
0.00774236
-0.00213208
0.00808966
-0.00200268
0.00849073
-0.00175211
0.00895999
-0.00135684
0.00951528
-0.000788849
0.0101755
0.0109636
-1.36408e-05
-0.000300243
0.0054689
-0.000596324
0.00583674
-0.000887678
0.00623789
-0.0011634
0.00657433
-0.00141328
0.00685128
-0.00162808
0.00709347
-0.00179841
0.00732093
-0.00191446
0.00754988
-0.00196568
0.00779358
-0.00193971
0.00806369
-0.00182138
0.0083724
-0.00159334
0.00873194
-0.00123377
0.00915572
-0.000717426
0.00965913
0.010259
-1.27669e-05
-0.000275101
0.00573881
-0.000545882
0.00610752
-0.000811635
0.00650365
-0.00106261
0.0068253
-0.00128981
0.00707848
-0.0014842
0.00728785
-0.00163818
0.00747491
-0.00174301
0.00765471
-0.0017887
0.00783927
-0.0017642
0.00803919
-0.00165613
0.00826433
-0.00144851
0.00852432
-0.00112169
0.0088289
-0.000652165
0.0091896
0.00961853
-1.17369e-05
-0.000251969
0.00598728
-0.000500605
0.00635616
-0.000742796
0.00674584
-0.000971016
0.00705352
-0.00117671
0.00728418
-0.00135303
0.00746417
-0.00149199
0.00761386
-0.00158636
0.00774909
-0.00162704
0.00787995
-0.0016044
0.00801655
-0.00150595
0.00816587
-0.00131684
0.00833522
-0.00101961
0.00853167
-0.000592715
0.00876271
0.00903657
-1.0758e-05
-0.000233398
0.00621667
-0.000460892
0.00658366
-0.000678756
0.0069637
-0.000886038
0.00726081
-0.00107358
0.00747172
-0.0012324
0.00762299
-0.00135861
0.00774008
-0.00144384
0.00783431
-0.00148016
0.00791626
-0.00145878
0.00799518
-0.00136881
0.0080759
-0.00119696
0.00816338
-0.000926543
0.00826125
-0.000538681
0.00837485
0.00850759
-9.70011e-06
-0.000212675
0.00643569
-0.000426839
0.00679782
-0.000620938
0.0071578
-0.000810311
0.00745018
-0.00097954
0.00764095
-0.00112263
0.00776608
-0.00123584
0.00785328
-0.00131335
0.00791183
-0.00134596
0.00794888
-0.00132626
0.00797548
-0.00124427
0.00799391
-0.00108767
0.00800677
-0.000842127
0.0080157
-0.000489504
0.00802222
-8.80511e-06
0.00802689
0.000114638
0.00152992
0.000129465
0.00198649
0.00014245
0.00239564
0.000154902
0.00288298
0.000166809
0.00346633
0.000178179
0.00416518
0.000188636
0.00500268
0.000197685
0.00600647
0.00020448
0.00720986
0.000208206
0.00865186
0.000208193
0.0103807
0.000204328
0.012453
0.000197151
0.0149379
0.000187766
0.0179186
0.0214942
0.000177485
0.000139382
0.00139058
0.000134597
0.00199128
0.000133332
0.00239692
0.000136517
0.0028798
0.000141619
0.00346124
0.000147513
0.00415929
0.000153564
0.00499664
0.000159316
0.00600072
0.000164397
0.00720478
0.000168491
0.00864777
0.000171267
0.0103779
0.000172397
0.0124519
0.000171593
0.0149387
0.000168762
0.0179214
0.0214988
0.000164184
0.00014585
0.00124473
0.000154655
0.00198247
0.000151423
0.00240015
0.000149693
0.00288153
0.0001495
0.00346143
0.00015032
0.00415847
0.000151745
0.00499521
0.000153453
0.00599902
0.000155144
0.00720309
0.000156532
0.00864639
0.000157375
0.0103771
0.000157506
0.0124517
0.000156831
0.0149394
0.000155272
0.017923
0.0215012
0.000152795
7.00163e-05
0.00117472
0.000109481
0.001943
0.000117604
0.00239202
0.000119032
0.0028801
0.000120049
0.00346041
0.000121783
0.00415674
0.000124293
0.0049927
0.000127438
0.00599587
0.000130979
0.00719955
0.000134615
0.00864275
0.000137972
0.0103737
0.000140679
0.012449
0.000142446
0.0149376
0.000143124
0.0179223
0.0215017
0.000142688
-2.28669e-05
0.00119759
4.76514e-05
0.00187248
7.4838e-05
0.00236483
8.43344e-05
0.0028706
8.91696e-05
0.00345557
9.32861e-05
0.00415262
9.77652e-05
0.00498822
0.000102791
0.00599085
0.00010824
0.0071941
0.000113872
0.00863712
0.000119366
0.0103682
0.00012436
0.012444
0.000128495
0.0149335
0.000131481
0.0179193
0.0215
0.000133131
-4.25986e-05
0.00124019
2.20931e-05
0.00180779
5.92001e-05
0.00232772
7.53577e-05
0.00285444
8.28063e-05
0.00344812
8.73758e-05
0.00414805
9.13703e-05
0.00498422
9.55826e-05
0.00598664
0.00010018
0.0071895
0.000105074
0.00863223
0.00011006
0.0103632
0.000114873
0.0124392
0.000119219
0.0149291
0.000122807
0.0179157
0.0214975
0.000125369
-1.75217e-05
0.0012577
2.29006e-05
0.00176737
5.84974e-05
0.00229213
7.82296e-05
0.00283471
8.76982e-05
0.00343865
9.24543e-05
0.0041433
9.54689e-05
0.00498121
9.81156e-05
0.00598399
0.000100932
0.00718668
0.00010406
0.0086291
0.000107443
0.0103598
0.000110928
0.0124357
0.000114307
0.0149257
0.000117335
0.0179127
0.0214951
0.000119736
3.58492e-06
0.00125412
2.85411e-05
0.00174241
5.8367e-05
0.0022623
7.89693e-05
0.00281411
9.01738e-05
0.00342745
9.58148e-05
0.00413766
9.87651e-05
0.00497826
0.000100697
0.00598206
0.000102443
0.00718494
0.000104355
0.00862719
0.000106517
0.0103577
0.000108879
0.0124334
0.000111304
0.0149233
0.000113602
0.0179104
0.0214932
0.0001155
1.32103e-05
0.00124091
3.22902e-05
0.00172333
5.6946e-05
0.00223764
7.67783e-05
0.00279428
8.90619e-05
0.00341516
9.5808e-05
0.00413091
9.93212e-05
0.00497474
0.000101273
0.00598011
0.000102661
0.00718355
0.000103996
0.00862585
0.000105483
0.0103562
0.000107154
0.0124317
0.000108948
0.0149215
0.000110744
0.0179086
0.0214915
0.000112387
1.53328e-05
0.00122557
3.3337e-05
0.00170533
5.47556e-05
0.00221622
7.34732e-05
0.00277556
8.63078e-05
0.00340233
9.40105e-05
0.00412321
9.82775e-05
0.00497048
0.000100602
0.00597778
0.000102023
0.00718213
0.000103155
0.00862472
0.000104298
0.010355
0.000105563
0.0124304
0.000106945
0.0149201
0.000108384
0.0179072
0.0214901
0.000109777
1.46359e-05
0.00121094
3.22895e-05
0.00168767
5.18255e-05
0.00219669
6.9731e-05
0.00275765
8.29084e-05
0.00338915
9.13529e-05
0.00411476
9.63449e-05
0.00496548
9.9163e-05
0.00597496
0.00010081
0.00718048
0.000101951
0.00862358
0.000102957
0.010354
0.000103997
0.0124294
0.00010511
0.014919
0.000106272
0.017906
0.021489
0.000107409
1.32784e-05
0.00119766
3.01731e-05
0.00167078
4.85189e-05
0.00217834
6.59041e-05
0.00274027
7.93333e-05
0.00337572
8.83439e-05
0.00410575
9.39542e-05
0.00495987
9.72625e-05
0.00597165
9.92048e-05
0.00717854
0.000100459
0.00862233
0.000101445
0.0103531
0.000102378
0.0124285
0.000103335
0.0149181
0.000104317
0.017905
0.021488
0.000105281
1.20303e-05
0.00118562
2.78883e-05
0.00165491
4.53436e-05
0.00216088
6.23157e-05
0.00272329
7.59031e-05
0.00336213
8.53474e-05
0.0040963
9.14675e-05
0.00495375
9.52183e-05
0.0059679
9.7463e-05
0.00717629
9.88705e-05
0.00862092
9.98927e-05
0.010352
0.000100785
0.0124276
0.00010166
0.0149172
0.000102548
0.0179041
0.0214871
0.000103436
1.10689e-05
0.00117455
2.58792e-05
0.0016401
4.25279e-05
0.00214423
5.90519e-05
0.00270677
7.27099e-05
0.00334848
8.24999e-05
0.00408651
8.90401e-05
0.00494721
9.31779e-05
0.00596376
9.57084e-05
0.00717376
9.72803e-05
0.00861935
9.83622e-05
0.0103509
9.92413e-05
0.0124267
0.000100062
0.0149164
0.000100874
0.0179033
0.0214863
0.000101678
1.0321e-05
0.00116423
2.41735e-05
0.00162625
4.00018e-05
0.00212841
5.59853e-05
0.00269078
6.96854e-05
0.00333478
7.9806e-05
0.00407639
8.67119e-05
0.00494031
9.11902e-05
0.00595928
9.39849e-05
0.00717097
9.5721e-05
0.00861761
9.68735e-05
0.0103498
9.77525e-05
0.0124258
9.85264e-05
0.0149156
9.9261e-05
0.0179026
0.0214856
9.99561e-05
9.64965e-06
0.00115458
2.26162e-05
0.00161328
3.76028e-05
0.00211342
5.30056e-05
0.00267538
6.67462e-05
0.00332104
7.72142e-05
0.00406592
8.44672e-05
0.00493305
8.92589e-05
0.00595449
9.23026e-05
0.00716792
9.42039e-05
0.00861571
9.54386e-05
0.0103486
9.63344e-05
0.0124249
9.70833e-05
0.0149148
9.77711e-05
0.0179019
0.021485
9.84144e-05
8.98998e-06
0.00114559
2.1118e-05
0.00160115
3.52941e-05
0.00209924
5.01561e-05
0.00266051
6.39044e-05
0.00330729
7.46958e-05
0.00405513
8.22873e-05
0.00492546
8.73781e-05
0.0059494
9.06621e-05
0.00716464
9.27306e-05
0.00861364
9.40586e-05
0.0103472
9.49873e-05
0.012424
9.57297e-05
0.0149141
9.63931e-05
0.0179012
0.0214844
9.70141e-05
8.36573e-06
0.00113722
1.97149e-05
0.0015898
3.31524e-05
0.00208581
4.75304e-05
0.00264613
6.122e-05
0.0032936
7.2268e-05
0.00404408
8.01758e-05
0.00491756
8.55532e-05
0.00594402
8.90693e-05
0.00716112
9.13047e-05
0.00861141
9.27321e-05
0.0103458
9.37028e-05
0.012423
9.44463e-05
0.0149134
9.50877e-05
0.0179006
0.0214838
9.56792e-05
7.82299e-06
0.0011294
1.84778e-05
0.00157914
3.1256e-05
0.00207303
4.51772e-05
0.00263221
5.87253e-05
0.00328005
6.99533e-05
0.00403285
7.81489e-05
0.00490936
8.37963e-05
0.00593838
8.7534e-05
0.00715738
8.99318e-05
0.00860901
9.14597e-05
0.0103443
9.24763e-05
0.012422
9.32251e-05
0.0149126
9.38462e-05
0.0179
0.0214832
9.44021e-05
7.37576e-06
0.00112202
1.74277e-05
0.00156909
2.96051e-05
0.00206085
4.30585e-05
0.00261876
5.63757e-05
0.00326673
6.77336e-05
0.0040215
7.62066e-05
0.00490089
8.21109e-05
0.00593247
8.60599e-05
0.00715344
8.86149e-05
0.00860645
9.02429e-05
0.0103427
9.13086e-05
0.0124209
9.20669e-05
0.0149119
9.2672e-05
0.0178994
0.0214827
9.31962e-05
6.99468e-06
0.00111503
1.6517e-05
0.00155957
2.81278e-05
0.00204924
4.10896e-05
0.0026058
5.41158e-05
0.00325371
6.55788e-05
0.00401003
7.43347e-05
0.00489213
8.04911e-05
0.00592632
8.46442e-05
0.00714928
8.73518e-05
0.00860375
8.90798e-05
0.0103409
9.01974e-05
0.0124198
9.09705e-05
0.0149111
9.15665e-05
0.0178988
0.0214822
9.20691e-05
6.639e-06
0.0011084
1.5674e-05
0.00155054
2.67402e-05
0.00203817
3.92065e-05
0.00259334
5.19321e-05
0.00324098
6.34754e-05
0.00399849
7.25069e-05
0.0048831
7.89169e-05
0.00591991
8.32728e-05
0.00714493
8.61323e-05
0.00860089
8.79618e-05
0.0103391
8.91351e-05
0.0124186
8.99274e-05
0.0149103
9.05177e-05
0.0178982
0.0214817
9.10055e-05
6.28838e-06
0.00110211
1.48609e-05
0.00154197
2.54097e-05
0.00202763
3.74064e-05
0.00258134
4.98527e-05
0.00322853
6.14397e-05
0.00398691
7.07163e-05
0.00487382
7.73758e-05
0.00591325
8.19339e-05
0.00714037
8.49457e-05
0.00859788
8.68786e-05
0.0103372
8.81116e-05
0.0124174
8.89268e-05
0.0149095
8.95134e-05
0.0178976
0.0214812
8.99892e-05
5.95053e-06
0.00109616
1.40842e-05
0.00153384
2.41529e-05
0.00201756
3.57194e-05
0.00256978
4.79077e-05
0.00321634
5.94946e-05
0.00397533
6.89721e-05
0.00486434
7.58685e-05
0.00590636
8.06273e-05
0.00713561
8.37914e-05
0.00859471
8.58294e-05
0.0103351
8.71237e-05
0.0124161
8.79638e-05
0.0149086
8.85458e-05
0.017897
0.0214808
8.89859e-05
5.64186e-06
0.00109052
1.33701e-05
0.00152612
2.30005e-05
0.00200793
3.41732e-05
0.00255861
4.61091e-05
0.00320441
5.76473e-05
0.00396379
6.72807e-05
0.00485471
7.43992e-05
0.00589924
7.9354e-05
0.00713065
8.26702e-05
0.0085914
8.48149e-05
0.010333
8.61752e-05
0.0124148
8.70471e-05
0.0149078
8.76402e-05
0.0178964
0.0214803
8.80935e-05
5.37443e-06
0.00108515
1.27393e-05
0.00151876
2.1973e-05
0.00199869
3.27759e-05
0.00254781
4.44487e-05
0.00319273
5.58859e-05
0.00395235
6.56439e-05
0.00484495
7.2977e-05
0.00589191
7.81225e-05
0.00712551
8.15879e-05
0.00858793
8.3839e-05
0.0103307
8.52659e-05
0.0124133
8.61711e-05
0.0149069
8.67712e-05
0.0178958
0.0214799
8.71945e-05
5.14528e-06
0.00108001
1.21884e-05
0.00151172
2.10572e-05
0.00198983
3.15008e-05
0.00253737
4.28882e-05
0.00318135