/*--------------------------------*- C++ -*----------------------------------*\
| =========                 |                                                 |
| \\      /  F ield         | OpenFOAM: The Open Source CFD Toolbox           |
|  \\    /   O peration     | Version:  2.3.0                                 |
|   \\  /    A nd           | Web:      www.OpenFOAM.org                      |
|    \\/     M anipulation  |                                                 |
\*---------------------------------------------------------------------------*/
FoamFile
{
    version     2.0;
    format      ascii;
    class       volVectorField;
    location    "200";
    object      U;
}
// * * * * * * * * * * * * * * * * * * * * * * * * * * * * * * * * * * * * * //

dimensions      [0 1 -1 0 0 0 0];

internalField   nonuniform List<vector> 
7991
(
(20.081 0.14461 -1.00312e-23)
(20.0835 0.158165 -3.64507e-22)
(20.0867 0.174046 1.66842e-21)
(20.0907 0.192792 -1.29907e-21)
(20.0953 0.213987 -9.82604e-21)
(20.0998 0.236759 2.44102e-20)
(20.1033 0.260039 -1.43146e-20)
(20.1044 0.282807 0)
(20.1022 0.304218 0)
(20.0959 0.323631 -1.65739e-20)
(20.0852 0.340616 1.53517e-20)
(20.07 0.354896 -1.95701e-20)
(20.0501 0.366216 1.79969e-20)
(20.0253 0.371713 0)
(19.9964 0.374249 0)
(20.0669 0.142894 0)
(20.0646 0.151548 0)
(20.0609 0.159866 0)
(20.0557 0.168189 -3.6576e-21)
(20.0493 0.176693 7.59764e-21)
(20.0419 0.185447 6.89558e-22)
(20.0337 0.194366 -9.59518e-21)
(20.0251 0.203214 4.94653e-21)
(20.0162 0.211673 -7.04838e-21)
(20.0071 0.21941 -1.4873e-21)
(19.9979 0.226134 1.64331e-20)
(19.9886 0.231623 -1.32733e-20)
(19.9793 0.235727 4.58155e-21)
(19.9703 0.238335 0)
(19.9618 0.239338 1.10339e-35)
(20.0572 0.141329 0)
(20.0543 0.148644 0)
(20.051 0.155683 8.15547e-21)
(20.047 0.162268 -7.98185e-21)
(20.0425 0.168221 -1.04387e-20)
(20.0375 0.173398 -1.44744e-21)
(20.0318 0.17773 -1.41018e-21)
(20.0258 0.181209 1.16115e-20)
(20.0194 0.183862 0)
(20.0128 0.185737 0)
(20.0062 0.186885 0)
(19.9995 0.187361 0)
(19.993 0.18722 0)
(19.9867 0.186523 0)
(19.9806 0.18532 0)
(20.0492 0.13691 0)
(20.0455 0.141905 -4.22389e-21)
(20.0413 0.146544 4.17496e-21)
(20.0367 0.150686 0)
(20.0318 0.154344 -1.05875e-20)
(20.0268 0.157499 1.01702e-20)
(20.0218 0.160142 -1.15639e-20)
(20.0167 0.162273 2.29999e-20)
(20.0116 0.163903 -5.27319e-21)
(20.0067 0.16505 -5.8797e-21)
(20.0019 0.165738 0)
(19.9973 0.165998 0)
(19.9928 0.16586 0)
(19.9885 0.16536 -1.69732e-21)
(19.9844 0.164525 1.66207e-21)
(20.0438 0.132761 0)
(20.0403 0.13638 0)
(20.0366 0.139763 5.26939e-21)
(20.0327 0.14266 4.56903e-22)
(20.0287 0.14511 -5.43736e-21)
(20.0247 0.14712 -6.13004e-21)
(20.0206 0.148709 5.91652e-21)
(20.0165 0.149901 0)
(20.0124 0.15072 0)
(20.0085 0.151196 0)
(20.0046 0.151353 0)
(20.0008 0.151217 0)
(19.9971 0.150811 -3.61255e-21)
(19.9935 0.150158 3.53747e-21)
(19.9901 0.149276 -6.68111e-36)
(20.0397 0.128646 0)
(20.0364 0.131209 -2.62632e-21)
(20.033 0.133641 2.59053e-21)
(20.0295 0.135676 0)
(20.026 0.137368 0)
(20.0225 0.138734 6.2606e-21)
(20.019 0.139792 -1.25359e-20)
(20.0155 0.140562 -3.35041e-22)
(20.0121 0.14106 -3.21887e-22)
(20.0088 0.141303 -3.09077e-22)
(20.0055 0.141307 6.82054e-21)
(20.0023 0.141086 0)
(19.9992 0.140653 0)
(19.9962 0.140022 -1.90824e-21)
(19.9933 0.139206 1.89796e-21)
(20.0367 0.124992 0)
(20.0338 0.126822 0)
(20.0308 0.128611 0)
(20.0278 0.130099 0)
(20.0248 0.13132 0)
(20.0217 0.132289 0)
(20.0187 0.13302 0)
(20.0157 0.133528 0)
(20.0128 0.133822 0)
(20.0099 0.133914 0)
(20.007 0.133813 0)
(20.0042 0.133528 0)
(20.0015 0.133066 0)
(19.9988 0.132436 0)
(19.9962 0.131645 0)
(20.0346 0.121533 -1.36884e-21)
(20.032 0.122984 1.35519e-21)
(20.0293 0.124328 0)
(20.0266 0.125452 0)
(20.0239 0.126367 0)
(20.0213 0.127083 0)
(20.0186 0.127611 -6.79412e-21)
(20.0159 0.12796 6.72244e-21)
(20.0133 0.128136 0)
(20.0107 0.128144 0)
(20.0082 0.127989 -3.82879e-21)
(20.0056 0.127675 3.81895e-21)
(20.0032 0.127206 0)
(20.0008 0.126587 0)
(19.9984 0.125824 3.82909e-36)
(20.033 0.118342 1.40867e-21)
(20.0306 0.119635 -1.40216e-21)
(20.0282 0.120693 0)
(20.0259 0.121575 0)
(20.0235 0.122283 0)
(20.0211 0.12283 -3.36016e-21)
(20.0187 0.123222 6.80124e-21)
(20.0163 0.123465 -7.02331e-21)
(20.0139 0.123562 -1.26686e-22)
(20.0116 0.123515 3.68691e-21)
(20.0092 0.123325 3.93749e-21)
(20.0069 0.122994 -3.94365e-21)
(20.0047 0.122522 2.09797e-21)
(20.0024 0.121912 -1.02239e-21)
(20.0003 0.121168 -1.08655e-21)
(20.0316 0.11573 0)
(20.0296 0.116791 0)
(20.0275 0.117612 0)
(20.0253 0.118308 3.2037e-21)
(20.0232 0.118865 -3.18238e-21)
(20.021 0.119289 0)
(20.0189 0.119584 0)
(20.0167 0.119753 3.63652e-21)
(20.0145 0.119795 -3.63925e-21)
(20.0123 0.119711 -3.88783e-21)
(20.0101 0.119499 5.91201e-21)
(20.008 0.119158 -2.01923e-21)
(20.0059 0.118687 0)
(20.0038 0.118085 1.10799e-21)
(20.0018 0.117356 -1.11468e-21)
(20.0307 0.113343 -7.34724e-22)
(20.0288 0.114281 2.25426e-21)
(20.0269 0.114946 -1.51422e-21)
(20.025 0.115512 3.23783e-21)
(20.0231 0.115962 -3.22516e-21)
(20.0211 0.116297 3.44444e-21)
(20.0191 0.11652 -3.44399e-21)
(20.017 0.116635 0)
(20.015 0.116637 0)
(20.013 0.116526 -1.96828e-21)
(20.0109 0.116299 1.97909e-21)
(20.0089 0.115955 0)
(20.007 0.115486 0)
(20.005 0.114892 0)
(20.0031 0.114173 0)
(20.0299 0.111302 0)
(20.0282 0.112083 0)
(20.0265 0.112632 -1.5828e-21)
(20.0248 0.113097 3.20576e-21)
(20.023 0.11347 -1.62562e-21)
(20.0212 0.113738 0)
(20.0193 0.113906 0)
(20.0174 0.113981 0)
(20.0155 0.113952 1.91064e-21)
(20.0136 0.113817 -1.92161e-21)
(20.0116 0.113581 -2.04481e-21)
(20.0098 0.113238 2.05873e-21)
(20.0079 0.112775 0)
(20.006 0.112186 0)
(20.0042 0.111471 0)
(20.0293 0.109575 0)
(20.0278 0.110149 0)
(20.0262 0.110604 1.59166e-21)
(20.0246 0.110981 -1.5861e-21)
(20.023 0.111302 -1.68259e-21)
(20.0213 0.111534 3.41672e-21)
(20.0195 0.111657 -1.73734e-21)
(20.0177 0.1117 1.84629e-21)
(20.0159 0.111641 -1.85573e-21)
(20.0141 0.111483 0)
(20.0122 0.111244 2.03934e-21)
(20.0104 0.110907 -2.05316e-21)
(20.0086 0.110453 1.08863e-21)
(20.0069 0.10987 -1.09573e-21)
(20.0052 0.109139 0)
(20.0288 0.107891 0)
(20.0273 0.108398 0)
(20.0259 0.108822 0)
(20.0244 0.109099 -1.68261e-21)
(20.0229 0.109388 3.38404e-21)
(20.0214 0.109627 -1.62839e-21)
(20.0197 0.109707 0)
(20.0179 0.10972 0)
(20.0163 0.109639 0)
(20.0145 0.109448 0)
(20.0127 0.109199 0)
(20.0109 0.108872 1.03864e-21)
(20.0092 0.108431 -1.04108e-21)
(20.0076 0.107883 -2.71211e-22)
(20.0059 0.107128 2.7834e-22)
(19.9523 0.34017 0)
(19.9091 0.325294 0)
(19.8729 0.306818 3.59922e-20)
(19.8441 0.290751 -3.91826e-20)
(19.8233 0.273534 4.31764e-20)
(19.8106 0.254549 -4.66583e-20)
(19.806 0.233798 0)
(19.8086 0.211542 0)
(19.8172 0.188214 -1.08368e-19)
(19.83 0.164509 2.21077e-19)
(19.8453 0.141381 -1.11199e-19)
(19.8612 0.119917 -5.25577e-20)
(19.8766 0.101067 1.01473e-19)
(19.8908 0.0854281 -2.5304e-20)
(19.9038 0.0719321 -2.18145e-20)
(19.9538 0.238795 -1.10681e-35)
(19.9462 0.236249 0)
(19.9391 0.231256 9.90515e-21)
(19.9324 0.223954 -3.39304e-20)
(19.9262 0.214443 5.19434e-20)
(19.9207 0.202936 1.51594e-21)
(19.916 0.189783 -3.28665e-20)
(19.9121 0.175464 3.73767e-20)
(19.9092 0.16056 -7.98928e-20)
(19.9074 0.145677 1.60323e-22)
(19.9067 0.131348 8.70942e-20)
(19.9075 0.117929 -4.43997e-20)
(19.9099 0.105544 0)
(19.914 0.0941641 0)
(19.9197 0.0828454 0)
(19.9747 0.183671 0)
(19.9687 0.18149 0)
(19.9626 0.178654 0)
(19.9565 0.175141 0)
(19.9505 0.170914 0)
(19.9448 0.165941 0)
(19.9396 0.160203 0)
(19.935 0.153691 2.76484e-20)
(19.9312 0.146406 5.8916e-22)
(19.9285 0.138368 4.81484e-22)
(19.9269 0.12963 -3.3328e-20)
(19.9265 0.120303 -3.49208e-20)
(19.9274 0.110573 3.56791e-20)
(19.9294 0.100721 0)
(19.9325 0.0904408 0)
(19.9805 0.163373 1.82184e-21)
(19.9765 0.161841 -1.86461e-21)
(19.9725 0.159851 0)
(19.9685 0.157367 0)
(19.9646 0.154348 0)
(19.9607 0.15076 -1.05566e-20)
(19.9571 0.146574 -1.17386e-20)
(19.9537 0.141773 4.83546e-20)
(19.9506 0.136356 -2.56614e-20)
(19.9479 0.130339 2.79615e-20)
(19.9457 0.123763 -2.91142e-20)
(19.9441 0.116696 0)
(19.9432 0.109226 1.57827e-20)
(19.9432 0.101458 -1.59669e-20)
(19.9441 0.0930688 0)
(19.9868 0.148174 6.69409e-36)
(19.9835 0.146815 4.0792e-21)
(19.9801 0.145154 -4.1662e-21)
(19.9768 0.14317 0)
(19.9735 0.140839 0)
(19.9703 0.138136 0)
(19.9671 0.135037 0)
(19.9642 0.131519 0)
(19.9614 0.127562 1.2019e-20)
(19.9589 0.123149 -1.24548e-20)
(19.9568 0.118272 -1.33271e-20)
(19.9551 0.112936 -1.60601e-22)
(19.9539 0.107162 1.42293e-20)
(19.9533 0.100985 0)
(19.9533 0.0941434 0)
(19.9905 0.138205 2.02592e-21)
(19.9877 0.136994 -2.04067e-21)
(19.9849 0.135545 0)
(19.9821 0.133844 0)
(19.9793 0.131876 9.53976e-21)
(19.9767 0.129626 2.49707e-22)
(19.9741 0.127077 2.45508e-22)
(19.9716 0.124213 2.38676e-22)
(19.9692 0.121019 -2.26352e-20)
(19.9671 0.117479 1.1746e-20)
(19.9651 0.113582 0)
(19.9635 0.109321 0)
(19.9622 0.104703 6.68627e-21)
(19.9612 0.099744 -6.7788e-21)
(19.9606 0.0942842 0)
(19.9937 0.130695 0)
(19.9912 0.129569 0)
(19.9887 0.128247 0)
(19.9862 0.126722 0)
(19.9838 0.124986 0)
(19.9815 0.12303 0)
(19.9792 0.120844 0)
(19.977 0.118417 0)
(19.975 0.115738 0)
(19.973 0.112795 0)
(19.9713 0.109575 0)
(19.9698 0.106067 0)
(19.9685 0.102262 0)
(19.9674 0.0981499 0)
(19.9667 0.0935736 0)
(19.9961 0.124917 -3.83517e-36)
(19.9938 0.123855 0)
(19.9916 0.122625 0)
(19.9894 0.121224 4.77666e-21)
(19.9872 0.119648 -4.78912e-21)
(19.9851 0.117892 0)
(19.9831 0.115951 0)
(19.9812 0.113819 1.05951e-20)
(19.9793 0.111491 -1.07086e-20)
(19.9776 0.108957 0)
(19.9761 0.10621 0)
(19.9747 0.10324 0)
(19.9734 0.100039 0)
(19.9724 0.0966026 3.10058e-21)
(19.9716 0.0928592 -3.09011e-21)
(19.9981 0.120292 -1.14555e-21)
(19.996 0.119276 -1.19772e-21)
(19.994 0.118114 2.33309e-21)
(19.9919 0.116804 -4.87069e-21)
(19.99 0.115346 4.86317e-21)
(19.988 0.113736 5.06406e-21)
(19.9862 0.111973 9.54349e-23)
(19.9845 0.110055 -1.04548e-20)
(19.9828 0.107981 1.06873e-20)
(19.9813 0.105746 -5.42639e-21)
(19.9799 0.103346 0)
(19.9786 0.100773 0)
(19.9774 0.0980212 0)
(19.9764 0.0950921 -2.99801e-21)
(19.9755 0.091939 2.94991e-21)
(19.9998 0.116503 -1.17268e-21)
(19.9978 0.115524 1.16723e-21)
(19.9959 0.114414 0)
(19.994 0.113176 -2.47037e-21)
(19.9922 0.111807 7.47813e-21)
(19.9904 0.110307 -5.00087e-21)
(19.9887 0.108678 -5.17467e-21)
(19.9871 0.106921 5.17087e-21)
(19.9856 0.105038 0)
(19.9842 0.103028 0)
(19.9829 0.10089 -5.5343e-21)
(19.9817 0.0986182 5.57148e-21)
(19.9807 0.0962085 0)
(19.9797 0.0936639 0)
(19.9789 0.0909421 0)
(20.0012 0.113337 0)
(19.9993 0.112386 0)
(19.9975 0.111319 0)
(19.9957 0.110139 0)
(19.994 0.108843 2.52116e-21)
(19.9924 0.107428 -2.50741e-21)
(19.9908 0.105902 0)
(19.9893 0.104269 0)
(19.9879 0.102533 -5.30131e-21)
(19.9866 0.100699 5.30208e-21)
(19.9854 0.0987644 -5.45097e-21)
(19.9843 0.0967276 5.47244e-21)
(19.9834 0.0945861 -2.80885e-21)
(19.9825 0.0923456 4.25024e-21)
(19.9817 0.0899772 -1.42911e-21)
(20.0024 0.110646 0)
(20.0006 0.109721 0)
(19.9989 0.108691 0)
(19.9972 0.10756 2.48605e-21)
(19.9956 0.106322 -2.46925e-21)
(19.994 0.104973 -2.54398e-21)
(19.9926 0.103527 2.52947e-21)
(19.9912 0.101991 0)
(19.9899 0.100373 0)
(19.9886 0.0986807 0)
(19.9875 0.0969081 -2.68756e-21)
(19.9865 0.0950592 5.41549e-21)
(19.9856 0.0931329 -2.73277e-21)
(19.9848 0.0911286 0)
(19.9841 0.0890251 0)
(20.0034 0.108325 0)
(20.0017 0.107427 -1.20164e-21)
(20 0.106431 1.19388e-21)
(19.9984 0.105347 -2.46679e-21)
(19.9969 0.104147 2.45016e-21)
(19.9954 0.102849 0)
(19.994 0.101468 -2.54378e-21)
(19.9927 0.100007 2.53088e-21)
(19.9915 0.0984884 -2.59212e-21)
(19.9903 0.0969123 5.20441e-21)
(19.9893 0.0952652 -2.61704e-21)
(19.9884 0.0935779 -2.67815e-21)
(19.9875 0.091839 2.68753e-21)
(19.9868 0.090034 0)
(19.9861 0.0881819 0)
(20.0042 0.106336 2.99603e-22)
(20.0025 0.105459 -2.96803e-22)
(20.001 0.104474 -1.20938e-21)
(19.9993 0.103447 1.16115e-21)
(19.998 0.102272 0)
(19.9966 0.101028 0)
(19.9953 0.0996828 0)
(19.9941 0.0982588 0)
(19.9929 0.0968312 0)
(19.9918 0.095348 -2.59054e-21)
(19.9909 0.0937726 5.3267e-21)
(19.99 0.0922259 -2.66515e-21)
(19.9892 0.0906618 0)
(19.9885 0.0890088 0)
(19.9879 0.0873415 0)
(20.065 0.00990775 -9.00413e-21)
(20.0247 0.00724489 1.00848e-20)
(19.9522 0.00400256 0)
(19.8305 0.000138299 0)
(19.6415 -0.00464791 0)
(19.3755 -0.0103032 0)
(19.0318 -0.0167765 -4.43588e-22)
(18.6141 -0.0241039 4.92626e-22)
(18.126 -0.0322277 0)
(17.5665 -0.0410317 0)
(16.9246 -0.0507747 -1.45934e-20)
(16.169 -0.0615877 1.72632e-20)
(15.2298 -0.0752829 -2.76903e-21)
(13.9918 -0.0652941 3.53283e-21)
(12.6288 -0.0789776 9.47048e-23)
(20.0629 0.00784033 0)
(20.0277 0.00566551 -2.19653e-20)
(19.9675 0.00269429 2.42223e-20)
(19.8696 -0.00152588 0)
(19.72 -0.00741042 0)
(19.5084 -0.0147466 0)
(19.23 -0.0230882 0)
(18.8833 -0.0319812 6.3653e-20)
(18.4668 -0.041029 -7.05301e-20)
(17.9752 -0.0499824 8.75889e-20)
(17.3936 -0.059127 3.05334e-21)
(16.6879 -0.0686099 -1.19338e-19)
(15.7948 -0.0804794 7.43323e-20)
(14.6646 -0.0762988 -4.60976e-20)
(13.5885 -0.0483866 -6.05194e-20)
(20.0614 0.0037667 0)
(20.0306 0.000102919 0)
(19.9795 -0.00454691 3.02953e-20)
(19.8985 -0.0102413 -3.3015e-20)
(19.7761 -0.0168692 -4.32982e-20)
(19.6022 -0.023975 -3.35625e-21)
(19.3698 -0.0311663 -2.82478e-21)
(19.0738 -0.0382435 6.30935e-20)
(18.709 -0.0451759 0)
(18.2663 -0.0520777 0)
(17.7277 -0.0594725 0)
(17.057 -0.067476 0)
(16.197 -0.0761014 0)
(15.1299 -0.0725107 0)
(14.1675 -0.0345463 0)
(20.0582 0.000504378 0)
(20.0294 -0.00347703 -1.14491e-20)
(19.9836 -0.00806627 1.24124e-20)
(19.913 -0.0132508 0)
(19.8088 -0.0189524 -3.19806e-20)
(19.6616 -0.0249359 3.45644e-20)
(19.4631 -0.0310184 -3.81713e-20)
(19.2059 -0.0371239 8.3151e-20)
(18.8814 -0.0432832 -2.27112e-20)
(18.4775 -0.0496409 -2.52252e-20)
(17.973 -0.0566822 0)
(17.33 -0.0645451 0)
(16.4946 -0.0717505 0)
(15.4637 -0.0675652 -1.17345e-20)
(14.5503 -0.0288011 1.42524e-20)
(20.0543 -0.00116544 0)
(20.0273 -0.004774 0)
(19.986 -0.00880568 1.10659e-20)
(19.9243 -0.0133201 1.34693e-22)
(19.8349 -0.01831 1.17345e-22)
(19.7091 -0.0236434 -2.80844e-20)
(19.538 -0.0291782 1.51911e-20)
(19.3121 -0.0348318 -1.66388e-20)
(19.0207 -0.0406255 -8.47059e-23)
(18.6489 -0.0467139 1.99579e-20)
(18.1731 -0.0535364 0)
(17.5537 -0.0612889 0)
(16.7383 -0.0678629 -1.49054e-20)
(15.73 -0.0631869 1.76491e-20)
(14.8404 -0.0256851 0)
(20.051 -0.0024012 0)
(20.0261 -0.0055774 0)
(19.989 -0.00923606 1.04274e-20)
(19.935 -0.0133312 -2.24788e-20)
(19.8575 -0.0178308 2.44778e-20)
(19.7486 -0.0226545 2.15245e-22)
(19.5991 -0.0277088 -2.89906e-20)
(19.3984 -0.0329416 1.57101e-20)
(19.1341 -0.0383929 -1.7309e-20)
(18.7891 -0.0442363 3.79001e-20)
(18.3378 -0.0508702 -2.09601e-20)
(17.739 -0.0584931 0)
(16.9404 -0.0647826 0)
(15.9472 -0.0598554 0)
(15.0699 -0.0236542 0)
(20.0483 -0.0031512 0)
(20.0252 -0.00608536 0)
(19.9917 -0.00952669 0)
(19.9437 -0.0132998 0)
(19.8754 -0.017401 0)
(19.7796 -0.0218176 0)
(19.6471 -0.0265095 0)
(19.4667 -0.0314524 0)
(19.2247 -0.036691 0)
(18.9024 -0.0423968 0)
(18.4723 -0.0489268 0)
(17.8916 -0.0564435 0)
(17.1073 -0.0625712 0)
(16.125 -0.0574986 0)
(15.2539 -0.0222288 0)
(20.0459 -0.00378371 0)
(20.0242 -0.00633395 4.29127e-21)
(19.9936 -0.00954419 -4.51919e-21)
(19.9504 -0.0130723 9.81974e-21)
(19.8894 -0.0169154 1.68579e-22)
(19.8039 -0.0210958 -2.25165e-20)
(19.685 -0.0255995 -2.23082e-22)
(19.5212 -0.0304126 -2.55366e-22)
(19.2979 -0.0355722 2.1664e-20)
(18.995 -0.0412333 1.69386e-22)
(18.5835 -0.0477158 -8.7803e-21)
(18.019 -0.0551427 1.01489e-20)
(17.2473 -0.0611401 -1.71842e-20)
(16.2732 -0.0559372 6.65003e-21)
(15.405 -0.0212568 0)
(20.0433 -0.00364111 1.90083e-21)
(20.0231 -0.00617922 -1.99796e-21)
(19.995 -0.00932206 0)
(19.9557 -0.0127294 0)
(19.9006 -0.0164668 0)
(19.8234 -0.0205795 -5.16579e-21)
(19.7155 -0.0250626 1.10837e-20)
(19.5654 -0.029901 -1.21252e-20)
(19.3578 -0.0351155 -2.26396e-22)
(19.0717 -0.0408377 7.29988e-21)
(18.6766 -0.0473364 0)
(18.1268 -0.0546547 0)
(17.3664 -0.0604317 5.54838e-21)
(16.399 -0.0549728 -3.09769e-21)
(15.5323 -0.0205211 -3.61265e-21)
(20.0411 -0.00370944 0)
(20.0221 -0.00599349 0)
(19.996 -0.00897278 0)
(19.9599 -0.0122893 4.05959e-21)
(19.9096 -0.0160024 -4.24561e-21)
(19.8392 -0.0201593 0)
(19.7403 -0.0247602 0)
(19.6016 -0.0297755 5.62937e-21)
(19.4074 -0.0351976 -5.98259e-21)
(19.136 -0.0411221 -7.12426e-21)
(18.7558 -0.0477961 1.17379e-20)
(18.2194 -0.0552146 -4.42642e-21)
(17.4695 -0.0609151 0)
(16.5079 -0.0551088 3.16372e-21)
(15.6414 -0.0205018 -3.55351e-21)
(20.039 -0.00305754 0)
(20.021 -0.00547301 0)
(19.9967 -0.00841029 0)
(19.9631 -0.0116865 3.62082e-21)
(19.9166 -0.0154541 4.20842e-23)
(19.8515 -0.0197956 -8.08012e-21)
(19.7598 -0.0247098 4.29901e-21)
(19.6304 -0.0301222 0)
(19.4475 -0.035952 0)
(19.1887 -0.0423395 -3.36957e-21)
(18.8212 -0.0494587 3.60743e-21)
(18.297 -0.0569537 0)
(17.5576 -0.0622672 0)
(16.6024 -0.055764 0)
(15.7366 -0.0202643 0)
(20.0371 -0.00266939 0)
(20.0201 -0.00482571 1.54897e-21)
(19.9972 -0.00760608 -3.14232e-21)
(19.9658 -0.0107532 1.60045e-21)
(19.9224 -0.01448 0)
(19.8617 -0.0189329 0)
(19.7763 -0.0242572 3.66458e-21)
(19.6552 -0.0302906 -3.84531e-21)
(19.4827 -0.0366339 0)
(19.2353 -0.0433257 -2.89957e-21)
(18.8808 -0.0512886 -4.33543e-22)
(18.3688 -0.060591 1.54909e-21)
(17.6388 -0.0668894 2.4431e-21)
(16.6873 -0.0595666 -1.73089e-21)
(15.8207 -0.0232434 1.91909e-21)
(20.0353 -0.00175683 0)
(20.0189 -0.00400706 0)
(19.9972 -0.0066886 0)
(19.9676 -0.00968684 0)
(19.926 -0.0134923 0)
(19.868 -0.0182841 1.38713e-21)
(19.7855 -0.0243284 -1.44398e-21)
(19.6701 -0.0315925 0)
(19.5054 -0.0387037 0)
(19.2664 -0.0461754 0)
(18.9159 -0.0552185 0)
(18.4115 -0.0653077 -2.41249e-21)
(17.6988 -0.0715708 2.61774e-21)
(16.7607 -0.0621297 0)
(15.8955 -0.0227023 0)
(20.0341 -0.000661682 0)
(20.0188 -0.00284863 0)
(19.9989 -0.0054176 0)
(19.9705 -0.00778268 -1.04476e-21)
(19.9323 -0.0109648 1.92553e-21)
(19.8796 -0.0148689 -8.75084e-22)
(19.8048 -0.0210763 0)
(19.6963 -0.0302821 0)
(19.5453 -0.0379451 0)
(19.3167 -0.0431629 0)
(18.9943 -0.0526454 0)
(18.4984 -0.073934 0)
(17.7854 -0.0848898 0)
(16.835 -0.0718899 -1.03196e-21)
(15.9628 -0.0407527 1.1366e-21)
(12.6878 0.0860553 -3.43199e-22)
(14.0929 0.0700201 4.96619e-21)
(15.3441 0.0796455 -3.62689e-21)
(16.2886 0.0659846 1.98152e-20)
(17.0471 0.0553871 -1.67572e-20)
(17.6903 0.0458772 0)
(18.2488 0.0373404 0)
(18.7331 0.0295508 6.64754e-21)
(19.1435 0.0226581 -5.98651e-21)
(19.4764 0.0167398 0)
(19.7284 0.0117626 0)
(19.9016 0.00784027 0)
(20.0082 0.0049048 0)
(20.0678 0.00276261 7.97053e-21)
(20.0974 0.000994199 -7.17081e-21)
(13.6361 0.0582081 -6.01431e-20)
(14.7644 0.0839322 -4.54803e-20)
(15.9126 0.0876075 7.36196e-20)
(16.8112 0.0757536 -1.17468e-19)
(17.5186 0.0665262 3.48864e-21)
(18.0996 0.0576249 8.58548e-20)
(18.5883 0.0489072 -6.80558e-20)
(18.9992 0.0401185 6.14269e-20)
(19.3373 0.0315457 0)
(19.6043 0.023611 0)
(19.8023 0.0167905 0)
(19.9375 0.0115767 0)
(20.022 0.00811843 2.03372e-20)
(20.0707 0.00600448 -1.8445e-20)
(20.0961 0.00449839 0)
(14.2123 0.0464888 0)
(15.2297 0.0826481 0)
(16.3172 0.0855692 0)
(17.1827 0.076915 0)
(17.8538 0.0691775 0)
(18.3901 0.0620482 0)
(18.8281 0.0553869 0)
(19.1859 0.0486856 6.02311e-20)
(19.4723 0.0418549 -3.32482e-21)
(19.6931 0.0349456 -3.8508e-21)
(19.854 0.0281907 -4.01699e-20)
(19.9634 0.0220307 -2.92557e-20)
(20.0325 0.0169111 2.68394e-20)
(20.0732 0.0129281 0)
(20.0951 0.00985297 0)
(14.5949 0.0424071 1.41154e-20)
(15.5645 0.0796367 -1.15998e-20)
(16.6168 0.0830922 0)
(17.4573 0.075841 0)
(18.0994 0.0682388 0)
(18.6001 0.0614661 -2.40934e-20)
(18.9979 0.0553401 -2.12649e-20)
(19.3142 0.0493862 7.82039e-20)
(19.5612 0.0434826 -3.56896e-20)
(19.748 0.0376215 3.14212e-20)
(19.883 0.0319123 -2.90637e-20)
(19.9754 0.0265727 0)
(20.0352 0.0218364 1.05504e-20)
(20.0717 0.0177659 -9.7326e-21)
(20.0923 0.0142988 0)
(14.8854 0.0406162 0)
(15.8321 0.0767445 1.72716e-20)
(16.8621 0.0806901 -1.45977e-20)
(17.6819 0.0740696 0)
(18.2992 0.066575 0)
(18.7698 0.0600227 1.88678e-20)
(19.1343 0.0541586 -2.84911e-22)
(19.4166 0.0485533 -1.55431e-20)
(19.6318 0.0430783 1.37869e-20)
(19.7915 0.0377396 -2.52683e-20)
(19.9058 0.0326499 3.2252e-22)
(19.9845 0.0279702 3.43204e-22)
(20.0364 0.0238244 9.46976e-21)
(20.0693 0.0202045 0)
(20.0887 0.0170477 0)
(15.1156 0.0396721 0)
(16.0507 0.0746018 0)
(17.0654 0.0788237 0)
(17.8677 0.072499 0)
(18.4632 0.0651387 -1.99691e-20)
(18.9081 0.0587796 3.5919e-20)
(19.2447 0.0531584 -1.63136e-20)
(19.4992 0.0478883 1.44117e-20)
(19.689 0.0428245 -2.63777e-20)
(19.8274 0.0379547 4.12137e-22)
(19.9255 0.0333536 2.14539e-20)
(19.9932 0.0291214 -1.92602e-20)
(20.0384 0.0253244 8.82518e-21)
(20.0677 0.0219753 0)
(20.0857 0.0191305 0)
(15.3003 0.0391818 0)
(16.2297 0.0732414 0)
(17.2334 0.0776322 0)
(18.0205 0.0714818 0)
(18.5967 0.0642368 0)
(19.0194 0.0579904 0)
(19.3324 0.052512 0)
(19.564 0.0474582 0)
(19.7335 0.0426876 0)
(19.8553 0.0381803 0)
(19.941 0.0339737 0)
(20.0001 0.0301075 0)
(20.04 0.0265838 0)
(20.0663 0.0233928 0)
(20.083 0.0206884 0)
(15.4521 0.0389199 0)
(16.379 0.0724694 6.49289e-21)
(17.3741 0.0770451 -1.66758e-20)
(18.1478 0.0710652 9.8227e-21)
(18.7069 0.0639351 -8.30537e-21)
(19.11 0.0577521 2.67209e-22)
(19.4028 0.0523314 1.9991e-20)
(19.6155 0.0473703 -4.54978e-22)
(19.7684 0.0427422 -4.24488e-22)
(19.8769 0.0384279 -1.96363e-20)
(19.9528 0.0344454 3.7314e-22)
(20.0052 0.0308015 8.24801e-21)
(20.0409 0.0274641 -3.57619e-21)
(20.0648 0.0243989 3.39501e-21)
(20.0805 0.0217893 0)
(15.5802 0.0389246 -3.56954e-21)
(16.5062 0.0722302 -2.99356e-21)
(17.4941 0.0770567 5.41849e-21)
(18.2556 0.071299 0)
(18.799 0.0643018 0)
(19.1848 0.0581421 6.78039e-21)
(19.4603 0.0526981 -3.26275e-22)
(19.6569 0.0477136 -1.09308e-20)
(19.7963 0.0430881 9.7573e-21)
(19.8941 0.0388142 -4.48912e-21)
(19.9621 0.0348978 0)
(20.0091 0.0313326 0)
(20.0414 0.0280791 0)
(20.0633 0.0250889 -1.46468e-21)
(20.0779 0.0225406 1.40801e-21)
(15.6896 0.0389206 -3.5309e-21)
(16.6155 0.0726835 3.13585e-21)
(17.5971 0.0780733 0)
(18.3475 0.0725556 -4.27445e-21)
(18.8768 0.0655449 1.12253e-20)
(19.2471 0.0592399 -6.77808e-21)
(19.5075 0.053604 -5.44702e-21)
(19.6905 0.0484461 5.12555e-21)
(19.8186 0.0436944 0)
(19.9077 0.0393208 0)
(19.9694 0.0353377 -3.36406e-21)
(20.0121 0.0317415 3.2169e-21)
(20.0415 0.028495 0)
(20.0617 0.0255544 0)
(20.0754 0.0231154 0)
(15.7869 0.0398662 0)
(16.713 0.0741805 0)
(17.6877 0.0800115 0)
(18.4266 0.0745789 0)
(18.9424 0.067536 3.40462e-21)
(19.2989 0.060987 -3.18118e-21)
(19.5461 0.0550094 0)
(19.7178 0.0495206 0)
(19.8365 0.0444368 3.57491e-21)
(19.9184 0.0398114 -6.5586e-21)
(19.975 0.0356443 1.82111e-22)
(20.0142 0.0319368 2.72223e-21)
(20.0413 0.0286553 0)
(20.0602 0.0257261 0)
(20.0732 0.0233037 0)
(15.8689 0.0391341 1.99563e-21)
(16.7941 0.0774805 -1.79561e-21)
(17.7624 0.0849326 2.50251e-21)
(18.4932 0.07892 1.62082e-21)
(18.9982 0.0708045 -5.40633e-22)
(19.3419 0.0633573 -2.91317e-21)
(19.578 0.0565521 0)
(19.7394 0.0505252 -3.42166e-21)
(19.8501 0.0452254 3.26092e-21)
(19.9264 0.0402244 0)
(19.9789 0.035751 0)
(20.0154 0.0318791 1.05647e-21)
(20.0408 0.0285275 -2.03102e-21)
(20.0586 0.0256462 9.80155e-22)
(20.0711 0.0233357 0)
(15.9631 0.0445268 0)
(16.8863 0.0857948 0)
(17.8373 0.0904944 2.19185e-21)
(18.5539 0.0810408 -2.02101e-21)
(19.0442 0.0737366 0)
(19.3769 0.0660408 0)
(19.6025 0.0582609 0)
(19.758 0.052237 0)
(19.8623 0.0459014 -1.00084e-21)
(19.9331 0.0401889 9.61486e-22)
(19.9825 0.035382 0)
(20.0165 0.0313525 0)
(20.0405 0.0280468 0)
(20.0574 0.0252193 0)
(20.0694 0.0230763 0)
(16.0019 0.0293429 1.59471e-21)
(16.9141 0.0972784 -1.44121e-21)
(17.8542 0.104864 0)
(18.5935 0.088596 0)
(19.0896 0.079467 0)
(19.404 0.0683992 0)
(19.6295 0.0584591 0)
(19.7713 0.0517186 0)
(19.8648 0.0470341 0)
(19.9365 0.0401078 -5.87791e-22)
(19.9819 0.034906 1.14867e-21)
(20.0166 0.0306306 -5.64807e-22)
(20.0388 0.027259 0)
(20.0557 0.0245945 0)
(20.0669 0.0230165 0)
(19.4 0.140005 0)
(19.9627 0.088106 0)
(20.066 0.102143 0)
(20.1191 0.111684 0)
(20.1489 0.121282 0)
(20.165 0.130007 0)
(20.1714 0.138211 0)
(20.1705 0.145551 0)
(20.1639 0.151486 0)
(20.1532 0.15534 0)
(20.1402 0.156533 0)
(20.1267 0.15479 0)
(20.1142 0.150342 0)
(20.1037 0.143939 0)
(20.0955 0.135747 0)
(17.5786 -0.262019 0)
(19.9028 0.196538 0)
(19.9572 0.10934 0)
(20.0017 0.10016 0)
(20.0416 0.10355 0)
(20.0735 0.108566 0)
(20.0977 0.11326 0)
(20.1147 0.117741 0)
(20.1253 0.121875 0)
(20.1299 0.125394 0)
(20.1295 0.128017 0)
(20.1252 0.129459 0)
(20.1184 0.129467 0)
(20.1106 0.128003 0)
(20.1028 0.124211 0)
(15.6915 -0.145105 -1.26113e-37)
(19.8877 0.217616 0)
(19.983 0.107569 0)
(19.997 0.108834 0)
(20.0256 0.11158 0)
(20.0535 0.112593 0)
(20.0769 0.113354 0)
(20.095 0.114514 0)
(20.1079 0.115832 0)
(20.1158 0.11703 0)
(20.1193 0.1179 0)
(20.1191 0.118291 0)
(20.1161 0.118098 0)
(20.1111 0.117358 0)
(20.1052 0.115142 0)
(14.1545 -0.0586585 0)
(19.7534 0.14683 0)
(20.0192 0.0699177 0)
(20.0278 0.08695 0)
(20.0433 0.0898711 0)
(20.063 0.0908444 0)
(20.0816 0.0922293 0)
(20.0968 0.0943946 0)
(20.1079 0.0969811 0)
(20.1149 0.0997347 0)
(20.118 0.1024 0)
(20.118 0.104696 0)
(20.1155 0.106367 0)
(20.1113 0.107372 0)
(20.1062 0.10696 0)
(14.0666 0.0384345 0)
(19.1361 0.0247667 0)
(19.8735 0.0353792 0)
(19.9973 0.0619006 0)
(20.0305 0.0659349 0)
(20.0512 0.0685641 0)
(20.0692 0.071619 0)
(20.0847 0.0752588 0)
(20.097 0.0792578 0)
(20.1057 0.0834774 0)
(20.1109 0.0877115 0)
(20.1129 0.0916936 0)
(20.1122 0.0951301 0)
(20.1097 0.0978737 0)
(20.1057 0.0992462 0)
(14.7087 0.0715885 0)
(18.3432 -0.0396976 0)
(19.5677 0.0328627 0)
(19.8983 0.055175 0)
(19.9898 0.0604641 0)
(20.0257 0.064031 0)
(20.0479 0.0671079 0)
(20.0655 0.0701988 0)
(20.0799 0.0735261 0)
(20.0911 0.0771291 0)
(20.0991 0.0808884 0)
(20.1039 0.0846168 0)
(20.106 0.0880848 0)
(20.1057 0.0911427 0)
(20.1036 0.0932589 0)
(15.0721 0.0319853 4.75596e-36)
(17.8284 -0.0256871 0)
(19.2456 0.0397275 0)
(19.7655 0.0551626 0)
(19.9382 0.0634629 0)
(20.0019 0.0680211 0)
(20.0327 0.0706908 0)
(20.0528 0.0726913 0)
(20.0684 0.0747026 0)
(20.0807 0.0769477 0)
(20.09 0.0794266 0)
(20.0964 0.0820465 0)
(20.1001 0.0846568 0)
(20.1015 0.08713 0)
(20.101 0.0891606 0)
(15.1216 0.00742759 0)
(17.5323 0.00102257 0)
(18.9726 0.0393809 0)
(19.6223 0.0537191 0)
(19.8784 0.0649571 0)
(19.9781 0.0705295 0)
(20.0221 0.0733287 0)
(20.0463 0.0749261 0)
(20.0628 0.0762159 0)
(20.0754 0.0775708 0)
(20.0849 0.0791146 0)
(20.0917 0.0808417 0)
(20.0962 0.0826686 0)
(20.0984 0.0844794 0)
(20.0989 0.0861471 0)
(14.9906 0.00271739 -9.30467e-36)
(17.3325 0.0152689 0)
(18.7506 0.0363411 0)
(19.481 0.0516619 0)
(19.81 0.0639312 0)
(19.9488 0.0702919 0)
(20.0101 0.0736564 0)
(20.0408 0.0754294 0)
(20.0593 0.0765519 0)
(20.0722 0.0775225 0)
(20.0818 0.0785738 0)
(20.0888 0.0797741 0)
(20.0935 0.0810994 0)
(20.0962 0.0824583 0)
(20.0973 0.0838856 0)
(14.806 0.00377884 -9.44202e-36)
(17.1513 0.0191369 0)
(18.562 0.0339965 0)
(19.3474 0.0494662 0)
(19.7368 0.0615727 0)
(19.9136 0.0686241 0)
(19.9944 0.0726832 0)
(20.0338 0.0748706 0)
(20.0555 0.0761123 0)
(20.0695 0.0769891 0)
(20.0795 0.0778148 0)
(20.0866 0.0787192 0)
(20.0915 0.079729 0)
(20.0945 0.0807805 0)
(20.0959 0.0819542 0)
(14.6222 0.00466644 0)
(16.9719 0.0186355 0)
(18.3932 0.0320943 0)
(19.2208 0.0468857 0)
(19.6612 0.0586593 0)
(19.8744 0.0663576 0)
(19.9756 0.0710265 0)
(20.0251 0.073673 0)
(20.0513 0.0751643 0)
(20.0669 0.0761076 0)
(20.0774 0.0768677 0)
(20.0848 0.0776231 0)
(20.0899 0.07844 0)
(20.0931 0.079281 0)
(20.0947 0.0802258 0)
(14.4544 0.00473086 9.44174e-36)
(16.798 0.0170081 0)
(18.2362 0.0301014 0)
(19.0986 0.0440566 0)
(19.5841 0.0557016 0)
(19.8321 0.0639157 0)
(19.9542 0.0690518 0)
(20.0148 0.0721237 0)
(20.0463 0.0739026 0)
(20.0642 0.0749849 0)
(20.0755 0.0757654 0)
(20.0832 0.0764622 0)
(20.0885 0.0771732 0)
(20.0919 0.0778875 0)
(20.0938 0.0786898 0)
(14.3034 0.0044163 0)
(16.6339 0.0154325 0)
(18.0873 0.0280769 0)
(18.9792 0.0413368 0)
(19.5058 0.0529645 0)
(19.7874 0.0615213 0)
(19.9306 0.0670155 0)
(20.003 0.0704606 0)
(20.0405 0.07252 0)
(20.0611 0.0737642 0)
(20.0736 0.0746041 0)
(20.0818 0.0752891 0)
(20.0873 0.0759462 0)
(20.0908 0.0765915 0)
(20.0929 0.0773298 0)
(14.1655 0.00403437 1.81489e-35)
(16.4806 0.0141939 0)
(17.9452 0.0262202 0)
(18.8627 0.0389038 0)
(19.4268 0.0504911 0)
(19.7409 0.0592507 0)
(19.905 0.0650472 0)
(19.9897 0.0688144 0)
(20.0338 0.0711299 0)
(20.0577 0.072537 0)
(20.0716 0.0734514 0)
(20.0803 0.0741451 0)
(20.0861 0.0747698 0)
(20.0899 0.0753639 0)
(20.0921 0.0760228 0)
(14.0375 0.00370834 -1.78196e-35)
(16.3374 0.0132232 0)
(17.8097 0.0245586 0)
(18.7496 0.0366857 0)
(19.3476 0.0481744 0)
(19.6929 0.0570693 0)
(19.878 0.0631748 0)
(19.9752 0.0672212 0)
(20.0263 0.0697668 0)
(20.0538 0.0713312 0)
(20.0694 0.0723266 0)
(20.0789 0.0730393 0)
(20.0851 0.0736409 0)
(20.089 0.0741881 0)
(20.0914 0.0747722 0)
(13.9176 0.00345474 0)
(16.2033 0.0123579 0)
(17.6812 0.0230047 0)
(18.6405 0.0345681 0)
(19.2681 0.0459039 0)
(19.6433 0.0549446 0)
(19.8495 0.061385 0)
(19.9597 0.0656781 0)
(20.0182 0.0684357 0)
(20.0496 0.0701536 0)
(20.0671 0.0712364 0)
(20.0775 0.0719797 0)
(20.084 0.0725722 0)
(20.0882 0.0730897 0)
(20.0908 0.0736425 0)
(13.8057 0.00324195 0)
(16.0779 0.0115142 0)
(17.5598 0.021518 0)
(18.5355 0.0325442 0)
(19.1885 0.0436858 0)
(19.5919 0.0528962 0)
(19.8196 0.0596562 0)
(19.9431 0.0641764 0)
(20.0093 0.0671368 0)
(20.0449 0.0690069 0)
(20.0646 0.0701834 0)
(20.076 0.0709684 0)
(20.083 0.0715651 0)
(20.0875 0.0720659 0)
(20.0902 0.0725935 0)
(13.7018 0.00303946 1.70877e-35)
(15.9606 0.0107151 0)
(17.4448 0.0201358 0)
(18.434 0.0306781 0)
(19.1089 0.0415997 0)
(19.5391 0.0509552 0)
(19.7884 0.0579836 0)
(19.9256 0.0627189 0)
(19.9998 0.0658755 0)
(20.0399 0.0678945 0)
(20.0619 0.0691675 0)
(20.0745 0.0700004 0)
(20.0821 0.0706084 0)
(20.0868 0.071098 0)
(20.0897 0.0715976 0)
(13.6049 0.00284159 -1.68128e-35)
(15.8508 0.0100171 0)
(17.3357 0.0189118 0)
(18.3357 0.0290188 0)
(19.03 0.0396933 0)
(19.4853 0.0491342 0)
(19.756 0.0563701 0)
(19.9071 0.0613156 0)
(19.9897 0.0646599 0)
(20.0345 0.0668221 0)