/*--------------------------------*- C++ -*----------------------------------*\
| =========                 |                                                 |
| \\      /  F ield         | OpenFOAM: The Open Source CFD Toolbox           |
|  \\    /   O peration     | Version:  2.3.0                                 |
|   \\  /    A nd           | Web:      www.OpenFOAM.org                      |
|    \\/     M anipulation  |                                                 |
\*---------------------------------------------------------------------------*/
FoamFile
{
    version     2.0;
    format      ascii;
    class       volVectorField;
    location    "10000";
    object      U;
}
// * * * * * * * * * * * * * * * * * * * * * * * * * * * * * * * * * * * * * //

dimensions      [0 1 -1 0 0 0 0];

internalField   nonuniform List<vector> 
14769
(
(21.757 9.56131 4.74829e-21)
(21.5916 9.94518 -5.04084e-20)
(21.4226 10.3372 0)
(21.2437 10.74 0)
(21.0539 11.1549 1.96617e-20)
(20.851 11.5804 -2.09835e-20)
(20.6313 12.0132 5.47334e-20)
(20.389 12.4479 -1.56946e-20)
(20.1164 12.8779 -7.4526e-20)
(19.8037 13.2954 6.12248e-20)
(19.4395 13.6939 -9.86317e-20)
(19.0121 14.0685 2.68967e-20)
(18.5097 14.4162 4.65415e-20)
(17.9211 14.7359 -3.1799e-20)
(17.2362 15.0289 0)
(16.4456 15.2979 0)
(15.541 15.5461 2.55195e-20)
(14.5167 15.779 2.41142e-19)
(13.3668 15.9955 1.78207e-19)
(12.0839 16.1839 -3.81613e-19)
(10.6647 16.3255 0)
(9.14284 16.4625 0)
(7.58502 16.6932 5.5671e-19)
(5.98278 16.8119 -5.26346e-19)
(21.4041 9.42097 -6.68688e-20)
(21.2242 9.74314 5.36243e-20)
(21.0367 10.068 0)
(20.8354 10.3947 -2.37361e-19)
(20.6181 10.7251 8.91205e-20)
(20.383 11.0596 2.29852e-19)
(20.1282 11.3987 -2.1035e-19)
(19.8518 11.7425 -2.70773e-19)
(19.5519 12.0901 2.7449e-19)
(19.226 12.44 -5.42882e-20)
(18.8715 12.789 -8.04754e-20)
(18.4861 13.1327 4.93116e-19)
(18.0671 13.4652 -4.9085e-19)
(17.6125 13.7793 -6.21176e-19)
(17.1204 14.0662 6.7914e-19)
(16.5899 14.3163 -8.7534e-19)
(16.0211 14.5183 8.85642e-19)
(15.4155 14.6606 -1.22649e-18)
(14.7761 14.7303 1.21179e-18)
(14.1079 14.7134 4.87769e-20)
(13.4211 14.5952 0)
(12.7308 14.3639 -6.16238e-20)
(12.0471 14.0118 6.82622e-20)
(11.3635 13.5359 -2.81713e-20)
(21.1045 9.26288 -1.80956e-19)
(20.9197 9.53354 8.148e-20)
(20.7264 9.80496 9.00773e-20)
(20.5209 10.0741 6.2527e-20)
(20.3017 10.3416 4.30166e-19)
(20.0672 10.6066 -4.20088e-19)
(19.8156 10.8681 3.67688e-19)
(19.5449 11.1249 3.77325e-20)
(19.2532 11.3756 -5.41993e-19)
(18.9383 11.6185 5.33944e-20)
(18.5982 11.8515 5.9572e-20)
(18.2311 12.0719 -3.34385e-20)
(17.8357 12.2766 3.7758e-20)
(17.411 12.4617 0)
(16.957 12.623 9.56082e-19)
(16.4747 12.7557 -9.519e-19)
(15.9662 12.8543 6.61082e-19)
(15.4354 12.9133 -1.23882e-18)
(14.8875 12.9268 6.54552e-19)
(14.3301 12.8895 5.52787e-20)
(13.7734 12.7969 -8.72692e-19)
(13.2298 12.6459 1.9441e-18)
(12.7135 12.4352 -1.01393e-18)
(12.2398 12.1645 -1.10625e-18)
(20.8626 9.10201 1.09197e-19)
(20.6777 9.32615 -2.01489e-19)
(20.4859 9.55049 3.27794e-19)
(20.2845 9.77256 1.49123e-20)
(20.072 9.99159 -2.98298e-19)
(19.8472 10.2068 3.22886e-19)
(19.6091 10.4173 -2.06524e-19)
(19.3567 10.6219 0)
(19.0888 10.8192 4.0764e-19)
(18.8046 11.0077 -7.03726e-19)
(18.5031 11.1853 3.68001e-19)
(18.1837 11.3496 0)
(17.8457 11.4978 0)
(17.489 11.6268 5.25574e-19)
(17.114 11.733 -5.93913e-19)
(16.7218 11.8125 0)
(16.3141 11.8614 -7.65438e-20)
(15.8937 11.8755 0)
(15.4645 11.8512 -1.01454e-19)
(15.0319 11.785 -1.0154e-18)
(14.6021 11.675 1.03801e-18)
(14.1828 11.5204 -6.09016e-20)
(13.7821 11.3223 1.35508e-19)
(13.4084 11.0843 0)
(20.6594 8.92896 2.03152e-20)
(20.4811 9.12254 0)
(20.2963 9.31021 4.0511e-19)
(20.1034 9.4946 -3.39723e-19)
(19.9013 9.67504 1.44651e-19)
(19.6889 9.85086 0)
(19.4652 10.0213 3.40332e-19)
(19.2293 10.1853 -3.40974e-19)
(18.9804 10.3418 9.94868e-20)
(18.7175 10.4894 0)
(18.4401 10.6265 0)
(18.1477 10.7513 -3.63695e-19)
(17.8402 10.8617 4.91226e-19)
(17.5178 10.9551 0)
(17.1811 11.029 6.9616e-19)
(16.8314 11.0804 -6.27167e-19)
(16.4706 11.1062 -7.29832e-19)
(16.1012 11.1035 7.39623e-19)
(15.7267 11.0696 9.59558e-19)
(15.3514 11.0024 -9.80223e-19)
(14.9804 10.9003 8.72374e-19)
(14.6195 10.7634 -1.00121e-18)
(14.2746 10.5926 -1.53297e-21)
(13.9518 10.3909 1.45273e-19)
(20.4887 8.77115 -1.36536e-19)
(20.3215 8.93317 0)
(20.1471 9.09046 -1.40149e-19)
(19.9651 9.24468 3.978e-19)
(19.7754 9.39515 -7.43329e-19)
(19.577 9.54117 3.41404e-19)
(19.3692 9.6821 0)
(19.1514 9.81697 4.05779e-19)
(18.9227 9.94486 -5.07165e-19)
(18.6825 10.0645 0)
(18.4303 10.1744 0)
(18.1657 10.2731 -1.23426e-19)
(17.8886 10.3586 0)
(17.5992 10.429 -4.6213e-19)
(17.2981 10.4821 -1.17791e-19)
(16.9865 10.5155 -1.30717e-19)
(16.666 10.5268 1.59167e-18)
(16.3387 10.5137 -8.84789e-19)
(16.0075 10.4739 -1.09234e-19)
(15.6757 10.4059 4.78949e-19)
(15.3475 10.3086 -1.00067e-18)
(15.0272 10.1819 5.19448e-19)
(14.7195 10.0268 2.97476e-19)
(14.4288 9.84536 -7.32702e-19)
(20.3493 8.62333 2.22007e-19)
(20.1924 8.75874 -8.31017e-20)
(20.0291 8.89172 -1.70749e-19)
(19.8584 9.02179 -8.42202e-21)
(19.6807 9.14868 2.73315e-19)
(19.4954 9.27162 9.92972e-20)
(19.3018 9.39003 -4.14737e-19)
(19.0992 9.50312 4.15678e-19)
(18.8869 9.61002 0)
(18.6647 9.70955 -1.22783e-19)
(18.4318 9.80042 1.30363e-19)
(18.188 9.88124 6.98417e-19)
(17.933 9.95024 -5.66393e-19)
(17.667 10.0058 -1.53112e-19)
(17.3906 10.0459 1.69557e-19)
(17.105 10.0687 8.87874e-20)
(16.8118 10.0721 3.99424e-19)
(16.5128 10.0539 1.25888e-19)
(16.2105 10.0123 -3.22808e-19)
(15.9076 9.94609 -5.64226e-22)
(15.6078 9.85421 -1.2725e-19)
(15.3149 9.73647 0)
(15.0324 9.59361 1.43557e-19)
(14.7642 9.42708 0)
(20.2365 8.48815 1.36163e-21)
(20.089 8.60036 2.61277e-19)
(19.9362 8.71365 -8.36062e-20)
(19.776 8.82434 -9.71154e-20)
(19.6099 8.93264 -9.51826e-20)
(19.4366 9.03757 -9.96873e-20)
(19.2557 9.13872 0)
(19.0663 9.2352 3.47618e-19)
(18.8678 9.32656 -2.33051e-19)
(18.6606 9.4114 1.23389e-19)
(18.4438 9.48846 4.80609e-21)
(18.2176 9.55631 -1.39616e-19)
(17.9816 9.61334 1.53287e-19)
(17.7354 9.6582 -1.63322e-19)
(17.4791 9.68926 -1.70748e-19)
(17.2137 9.70496 0)
(16.9412 9.70344 3.08087e-19)
(16.6639 9.68229 -2.00327e-19)
(16.3838 9.63953 4.64104e-19)
(16.1021 9.57503 -5.92271e-19)
(15.8232 9.48772 1.28351e-19)
(15.55 9.37696 5.56906e-19)
(15.2862 9.24332 -5.6253e-19)
(15.0349 9.08795 1.57591e-19)
(20.1417 8.36193 -1.86163e-19)
(20.003 8.4559 1.88503e-19)
(19.8616 8.55422 2.02657e-19)
(19.7117 8.64954 1.05333e-19)
(19.5561 8.74321 -4.1593e-19)
(19.3935 8.83387 4.32916e-19)
(19.2235 8.92155 -3.35935e-19)
(19.0462 9.00449 -4.77435e-19)
(18.8589 9.08352 2.42861e-19)
(18.6639 9.15756 1.36304e-19)
(18.4596 9.22529 -2.67946e-19)
(18.247 9.28495 -1.46721e-19)
(18.0269 9.33374 -1.53657e-19)
(17.7965 9.37067 3.30425e-19)
(17.5567 9.39404 3.60945e-19)
(17.3069 9.40423 -3.66517e-19)
(17.05 9.40018 2.00877e-19)
(16.7882 9.3789 -2.12693e-19)
(16.5263 9.3348 2.28217e-19)
(16.2597 9.27134 2.41589e-19)
(15.9965 9.18761 2.62318e-19)
(15.738 9.0826 -2.65401e-19)
(15.4882 8.95652 0)
(15.2496 8.81006 1.50303e-19)
(20.0485 8.24926 -2.94686e-22)
(19.9232 8.32775 -2.07609e-19)
(19.7995 8.41431 1.07891e-19)
(19.6612 8.49597 -1.05982e-19)
(19.5159 8.57746 2.25667e-19)
(19.3635 8.65575 -2.25188e-19)
(19.2024 8.73394 1.17438e-19)
(19.0401 8.80534 -1.31393e-19)
(18.8656 8.87213 2.58773e-19)
(18.6853 8.935 -1.43963e-19)
(18.4952 8.99357 1.37006e-19)
(18.2917 9.04969 2.93422e-19)
(18.0773 9.09628 0)
(17.8513 9.1312 -1.68435e-19)
(17.6237 9.14862 1.81933e-19)
(17.3871 9.15201 -3.97908e-19)
(17.1441 9.14369 1.98715e-19)
(16.8949 9.12669 2.18409e-19)
(16.6445 9.08399 1.1044e-20)
(16.3844 9.02109 -2.3688e-19)
(16.135 8.93936 0)
(15.8888 8.83833 -7.08702e-21)
(15.649 8.7186 2.82617e-19)
(15.416 8.57987 3.07336e-19)
(4.34593 15.9906 -4.11453e-20)
(4.2513 14.5766 -8.62451e-20)
(4.45653 13.3166 0)
(4.76663 12.2208 0)
(5.12426 11.2511 1.06458e-18)
(5.50601 10.3744 -5.06533e-19)
(5.91339 9.58351 -6.89157e-19)
(6.34019 8.86654 -1.44066e-19)
(6.77882 8.21533 1.17789e-19)
(7.22161 7.62298 -5.76742e-19)
(7.66182 7.08363 -4.17289e-20)
(8.09417 6.59243 0)
(8.51464 6.14505 -2.8624e-19)
(8.92061 5.73722 4.18988e-20)
(9.31083 5.36511 1.11027e-18)
(9.68514 5.02475 -1.08178e-18)
(10.0442 4.71235 5.37888e-19)
(10.3894 4.42401 -1.08169e-18)
(10.7223 4.15608 -1.00312e-18)
(11.0446 3.90526 -1.00808e-18)
(11.3578 3.66873 9.33681e-19)
(11.6633 3.44474 0)
(11.9628 3.23231 -1.68185e-18)
(12.2562 3.02523 1.55628e-18)
(10.6915 12.9534 0)
(10.1623 12.2883 -9.10302e-20)
(9.78407 11.6064 0)
(9.53097 10.9359 9.43456e-19)
(9.3775 10.2892 -5.74468e-19)
(9.30326 9.6725 -8.8636e-19)
(9.29265 9.08945 8.69266e-19)
(9.33385 8.54189 1.27793e-19)
(9.41747 8.03049 -2.58986e-19)
(9.53549 7.55462 -2.62029e-19)
(9.6811 7.11282 5.22551e-19)
(9.84886 6.70282 0)
(10.034 6.32188 -2.6007e-19)
(10.2327 5.96691 0)
(10.4419 5.63489 0)
(10.659 5.32288 2.24165e-20)
(10.882 5.02819 4.79897e-19)
(11.1091 4.7486 0)
(11.3389 4.4823 3.38726e-20)
(11.5702 4.22797 2.31234e-19)
(11.8022 3.98473 -1.14082e-18)
(12.0343 3.75253 0)
(12.2664 3.53053 2.55194e-20)
(12.4956 3.30904 -6.23977e-21)
(11.8207 11.834 1.03866e-18)
(11.4636 11.4446 8.77211e-20)
(11.1695 11.0096 0)
(10.9383 10.5467 0)
(10.7667 10.0705 1.04673e-19)
(10.6497 9.5915 -3.09865e-19)
(10.582 9.11748 -2.24851e-19)
(10.5581 8.65404 2.08838e-19)
(10.5723 8.20528 0)
(10.6194 7.77369 0)
(10.6941 7.36097 0)
(10.7918 6.96777 0)
(10.9084 6.59426 4.50638e-19)
(11.0402 6.23995 -1.34469e-18)
(11.1841 5.90429 4.50836e-19)
(11.3376 5.58628 4.64144e-19)
(11.4985 5.2849 -4.60908e-19)
(11.6653 4.99901 -2.23004e-19)
(11.8367 4.72747 1.12314e-18)
(12.0117 4.46906 -8.58998e-19)
(12.1898 4.22277 0)
(12.3706 3.98815 -8.27543e-19)
(12.554 3.76328 8.04102e-19)
(12.7377 3.53536 1.49554e-18)
(13.0659 10.8101 -5.61803e-19)
(12.7557 10.5009 1.48096e-18)
(12.4816 10.1615 -1.39419e-18)
(12.2471 9.80048 1.08866e-18)
(12.0533 9.42573 -5.58462e-19)
(11.8994 9.04413 -1.90845e-19)
(11.7836 8.66151 1.00702e-19)
(11.7031 8.28241 -1.05299e-19)
(11.6548 7.9105 -9.79231e-20)
(11.6355 7.54826 -1.04083e-19)
(11.6417 7.19755 0)
(11.6704 6.85945 0)
(11.7185 6.53455 0)
(11.7835 6.22294 4.32894e-19)
(11.8631 5.9244 0)
(11.9551 5.63848 0)
(12.0579 5.36457 -6.29281e-19)
(12.1698 5.10201 1.05798e-19)
(12.2895 4.85008 1.1802e-19)
(12.416 4.60805 9.31396e-19)
(12.5482 4.3754 -1.0233e-19)
(12.6855 4.15214 -1.18895e-18)
(12.8276 3.93696 1.15779e-18)
(12.9728 3.71758 7.3009e-19)
(13.6534 10.1606 1.53109e-19)
(13.38 9.90254 -4.47099e-21)
(13.134 9.6194 0)
(12.9185 9.31692 5.34634e-19)
(12.7349 9.00087 -7.24082e-19)
(12.5834 8.67644 5.62993e-19)
(12.4631 8.34827 -2.86721e-19)
(12.3725 8.02028 9.65552e-20)
(12.3092 7.69563 4.97195e-19)
(12.271 7.37666 1.01878e-19)
(12.255 7.06525 -1.99483e-19)
(12.2589 6.76268 -3.97692e-19)
(12.2801 6.4698 -6.01639e-19)
(12.3167 6.18707 3.98111e-19)
(12.3665 5.91452 2.0204e-19)
(12.4279 5.65211 0)
(12.4994 5.39954 8.09479e-19)
(12.5795 5.15643 1.00766e-19)
(12.6672 4.92232 -1.00282e-19)
(12.7614 4.69666 0)
(12.8614 4.47905 3.89098e-19)
(12.9666 4.26974 7.81756e-19)
(13.077 4.06755 -7.63132e-19)
(13.191 3.86019 -7.25773e-19)
(14.1573 9.6397 4.83394e-19)
(13.9058 9.41085 -8.0906e-19)
(13.6764 9.16131 0)
(13.4717 8.89543 -3.23524e-21)
(13.2934 8.61771 1.83955e-19)
(13.1422 8.33233 1.88564e-19)
(13.0177 8.04293 -1.82901e-19)
(12.9189 7.75272 -3.02728e-21)
(12.8442 7.46439 -1.93257e-19)
(12.7916 7.17989 2.90612e-19)
(12.7587 6.90096 -2.86896e-19)
(12.7435 6.62898 3.92499e-19)
(12.744 6.36487 5.92603e-19)
(12.7587 6.10902 -5.93722e-19)
(12.7859 5.86158 1.95237e-19)
(12.8239 5.62257 0)
(12.8715 5.39191 -5.90042e-19)
(12.9276 5.16926 2.91548e-19)
(12.9911 4.95428 2.92409e-19)
(13.061 4.74643 -6.01265e-21)
(13.1364 4.54543 -5.75531e-19)
(13.2168 4.35181 1.88213e-19)
(13.3023 4.16444 0)
(13.3913 3.97095 6.93003e-19)
(14.5121 9.23871 0)
(14.2773 9.02967 -1.63752e-19)
(14.0613 8.8026 0)
(13.8666 8.56133 -1.77867e-19)
(13.6947 8.30976 0)
(13.5469 8.05152 9.31302e-20)
(13.4233 7.78944 9.66032e-20)
(13.3229 7.52624 0)
(13.2445 7.26419 3.76601e-19)
(13.1859 7.00497 2.8099e-19)
(13.1448 6.75018 6.70928e-19)
(13.1192 6.50154 -7.66078e-19)
(13.1082 6.25986 1.91883e-19)
(13.1102 6.02541 -3.76504e-19)
(13.1236 5.79827 -1.89804e-19)
(13.1468 5.5787 -3.76094e-19)
(13.1789 5.36672 -9.47973e-20)
(13.2188 5.16204 4.68194e-19)
(13.2656 4.96426 -3.79658e-19)
(13.3183 4.77278 -3.70761e-19)
(13.3757 4.58736 0)
(13.437 4.40908 0)
(13.5037 4.2367 0)
(13.572 4.06056 -3.39724e-19)
(14.7981 8.91232 -1.45437e-19)
(14.5762 8.71745 -1.57419e-19)
(14.37 8.50622 0)
(14.1825 8.28261 0)
(14.0147 8.05037 3.54987e-19)
(13.8695 7.81251 9.19038e-20)
(13.7474 7.57083 -4.45901e-20)
(13.6467 7.32807 -4.4537e-20)
(13.5666 7.08619 -5.49068e-20)
(13.5049 6.84642 1.34285e-19)
(13.4584 6.61042 -1.93997e-19)
(13.4254 6.38055 4.71365e-19)
(13.4065 6.15731 0)
(13.3997 5.94046 6.60622e-21)
(13.4036 5.73013 -3.68658e-19)
(13.4159 5.52715 7.4132e-19)
(13.4369 5.33141 9.24839e-20)
(13.465 5.14261 -4.63122e-19)
(13.4999 4.96029 -5.73434e-21)
(13.5401 4.7835 3.73703e-19)
(13.5838 4.61213 -1.8139e-19)
(13.6304 4.44825 1.79803e-19)
(13.6842 4.28942 -2.61017e-21)
(13.7397 4.12921 6.7894e-19)
(15.0244 8.64466 1.56998e-19)
(14.8131 8.46107 -3.302e-19)
(14.6148 8.26004 6.64533e-19)
(14.4338 8.05021 3.43271e-19)
(14.2689 7.8323 -2.64609e-19)
(14.1266 7.6104 2.66595e-19)
(14.0068 7.3842 0)
(13.9061 7.15732 3.61608e-19)
(13.8262 6.9309 -3.6868e-19)
(13.7641 6.70666 -3.23536e-19)
(13.7142 6.48514 -4.15482e-19)
(13.6751 6.27048 0)
(13.6517 6.06239 3.62855e-19)
(13.6394 5.8597 3.67392e-19)
(13.6369 5.66303 7.26631e-19)
(13.6409 5.47398 -3.64806e-19)
(13.6543 5.29232 -3.57964e-19)
(13.6737 5.11717 0)
(13.7004 4.94852 0)
(13.7322 4.78465 0)
(13.7662 4.62599 0)
(13.8 4.47553 0)
(13.8447 4.32877 -4.36472e-21)
(13.8875 4.18168 6.88761e-19)
(15.1951 8.42346 -3.09665e-19)
(14.9963 8.2551 1.64771e-19)
(14.805 8.05838 -5.01901e-19)
(14.6325 7.86234 -3.52699e-19)
(14.4727 7.65187 0)
(14.3359 7.44025 -3.58585e-19)
(14.22 7.22366 3.50321e-19)
(14.1174 7.01108 -3.43619e-19)
(14.0388 6.79873 3.37403e-19)
(13.9794 6.59021 0)
(13.9277 6.37852 3.51674e-19)
(13.8834 6.17546 9.03409e-20)
(13.8606 5.97936 -4.57318e-19)
(13.8451 5.78675 0)
(13.8389 5.60126 -4.42975e-21)
(13.8352 5.42347 8.96628e-20)
(13.845 5.25435 6.30046e-19)
(13.8573 5.08978 0)
(13.8795 4.9334 2.82251e-21)
(13.9062 4.78064 -2.77651e-21)
(13.9349 4.63495 0)
(13.9545 4.49564 0)
(13.9886 4.3543 -3.48697e-19)
(14.0247 4.21083 -3.56172e-21)
(-4.55487 -2.52552 1.9796e-21)
(-4.34276 -2.5398 4.06136e-19)
(-4.08519 -2.5559 0)
(-3.7911 -2.57065 -2.28126e-19)
(-3.46814 -2.58349 0)
(-3.12294 -2.59409 6.42788e-20)
(-2.76115 -2.60209 6.65153e-20)
(-2.38752 -2.60711 -2.79372e-19)
(-2.00596 -2.60884 -6.43688e-24)
(-1.61958 -2.60698 4.58065e-19)
(-1.23067 -2.6012 -1.6952e-19)
(-0.840945 -2.59109 8.39937e-20)
(-0.451178 -2.57582 -1.77421e-19)
(-0.061312 -2.55415 8.71739e-20)
(0.329891 -2.52433 0)
(0.725779 -2.48396 1.04832e-19)
(1.13299 -2.42993 0)
(1.56444 -2.35834 -2.4472e-19)
(2.04498 -2.2649 1.39244e-19)
(2.62259 -2.14532 3.37948e-20)
(3.38557 -1.99942 -4.95983e-19)
(4.51024 -1.83517 1.97206e-18)
(6.38019 -1.69073 -3.04709e-18)
(9.88447 -1.84747 1.79375e-18)
(-4.51962 -2.51054 -5.02863e-22)
(-4.3125 -2.51458 3.96839e-19)
(-4.06833 -2.52083 1.04363e-19)
(-3.79257 -2.52579 1.1014e-19)
(-3.49052 -2.52919 3.60869e-21)
(-3.16647 -2.53084 2.35285e-19)
(-2.82401 -2.53031 -1.23822e-19)
(-2.4659 -2.52704 4.34008e-22)
(-2.09412 -2.52032 1.31171e-19)
(-1.70977 -2.50921 1.35641e-19)
(-1.31299 -2.49255 -1.77111e-22)
(-0.902836 -2.46892 3.91913e-22)
(-0.476587 -2.43661 0)
(-0.0298971 -2.39348 -7.7712e-20)
(0.443865 -2.33705 8.10685e-20)
(0.955104 -2.26444 -8.37712e-20)
(1.51957 -2.17275 -8.54041e-20)
(2.16228 -2.05958 4.49157e-20)
(2.92344 -1.92445 -1.77765e-19)
(3.86734 -1.77207 1.48001e-19)
(5.09611 -1.61899 -4.24891e-19)
(6.76854 -1.50884 4.83944e-20)
(9.1175 -1.53544 3.93878e-19)
(12.4124 -1.87557 5.82847e-19)
(-4.46051 -2.46374 0)
(-4.25246 -2.4562 0)
(-4.01167 -2.45267 -4.02703e-19)
(-3.74153 -2.44717 0)
(-3.44573 -2.43941 0)
(-3.12711 -2.42903 -2.80088e-19)
(-2.78772 -2.41532 5.73904e-20)
(-2.42882 -2.39743 0)
(-2.05086 -2.37437 1.21272e-19)
(-1.65337 -2.34501 7.98206e-23)
(-1.23472 -2.30801 -1.27525e-19)
(-0.791991 -2.26188 -1.94719e-19)
(-0.32075 -2.20508 6.70587e-20)
(0.185832 -2.13597 -2.72248e-19)
(0.737445 -2.053 7.00979e-20)
(1.34819 -1.95476 0)
(2.03833 -1.84066 1.44371e-19)
(2.83687 -1.71171 0)
(3.78534 -1.57274 1.84547e-19)
(4.94309 -1.43592 -1.18268e-19)
(6.39055 -1.32711 0)
(8.23074 -1.2947 0)
(10.5751 -1.42103 2.45679e-19)
(13.4769 -1.82237 -6.64802e-19)
(-4.38492 -2.3926 3.4986e-19)
(-4.17553 -2.37197 -9.07311e-20)
(-3.93788 -2.35693 2.87696e-19)
(-3.67296 -2.33909 0)
(-3.38297 -2.31835 0)
(-3.0692 -2.29443 1.03324e-19)
(-2.73234 -2.2667 -1.05519e-19)
(-2.37242 -2.2343 -5.44569e-20)
(-1.98861 -2.19629 5.66046e-20)
(-1.57924 -2.15171 -2.25506e-19)
(-1.14151 -2.09951 -1.15645e-19)
(-0.671135 -2.03849 2.38863e-19)
(-0.162177 -1.96741 1.20779e-19)
(0.393549 -1.88517 6.2274e-20)
(1.0072 -1.79107 -9.27114e-20)
(1.69392 -1.68518 3.22798e-20)
(2.47482 -1.56877 -1.29971e-19)
(3.37841 -1.44568 -6.42169e-20)
(4.44256 -1.32428 1.97381e-19)
(5.7173 -1.22028 -1.39209e-19)
(7.26473 -1.16122 0)
(9.15474 -1.19146 0)
(11.448 -1.3758 0)
(14.157 -1.79182 1.53462e-19)
(-4.29339 -2.30743 -1.66493e-19)
(-4.08329 -2.2764 1.75368e-19)
(-3.84775 -2.25118 -1.83413e-19)
(-3.58649 -2.22282 0)
(-3.30048 -2.19141 0)
(-2.98987 -2.15681 -9.85118e-20)
(-2.65412 -2.11833 2.09285e-21)
(-2.29239 -2.07513 5.07836e-20)
(-1.90311 -2.02641 -4.9404e-20)
(-1.48381 -1.97139 2.1103e-19)
(-1.03074 -1.90932 5.38807e-20)
(-0.538794 -1.83936 -1.09664e-19)
(-0.00118739 -1.76064 -1.1367e-19)
(0.59099 -1.67252 0)
(1.24944 -1.57496 5.92977e-20)
(1.9895 -1.46901 0)
(2.83178 -1.35745 3.19932e-20)
(3.80316 -1.24586 3.13484e-20)
(4.93785 -1.14428 0)
(6.27898 -1.06958 1.1748e-19)
(7.87671 -1.04845 -1.82045e-19)
(9.78388 -1.12018 -8.83192e-20)
(12.041 -1.33752 2.30733e-19)
(14.6486 -1.75855 -2.08004e-19)
(-4.19054 -2.21518 1.56212e-19)
(-3.98104 -2.17774 8.43393e-20)
(-3.7481 -2.14412 -4.24207e-20)
(-3.49075 -2.10733 4.33955e-20)
(-3.20896 -2.06761 1.41523e-21)
(-2.90196 -2.02499 -2.44899e-20)
(-2.56809 -1.97883 1.18088e-19)
(-2.2058 -1.92811 9.42881e-20)
(-1.81302 -1.87201 1.94879e-19)
(-1.38694 -1.81006 -1.00888e-19)
(-0.923275 -1.74194 1.0073e-19)
(-0.415946 -1.66716 5.48918e-20)
(0.142624 -1.58514 -5.36247e-20)
(0.761728 -1.49546 0)
(1.45321 -1.3984 1.36698e-20)
(2.23217 -1.29556 4.12658e-20)
(3.11804 -1.19057 2.84122e-20)
(4.13601 -1.08992 2.96976e-20)
(5.31763 -1.00464 1.13249e-19)
(6.70126 -0.952049 -3.52443e-21)
(8.33017 -0.957527 -5.78041e-20)
(10.2473 -1.0563 9.7919e-20)
(12.4832 -1.2938 -5.89109e-20)
(15.0299 -1.71792 1.92687e-19)
(-4.08135 -2.12074 -2.3388e-19)
(-3.8733 -2.08034 -7.9756e-20)
(-3.64361 -2.04049 4.12798e-20)
(-3.39058 -1.99765 -1.26617e-19)
(-3.11348 -1.95187 0)
(-2.81098 -1.90349 0)
(-2.47985 -1.8522 -2.22379e-20)
(-2.11815 -1.79653 -1.58476e-19)
(-1.72347 -1.73565 -9.3753e-20)
(-1.29294 -1.66894 0)
(-0.822353 -1.5967 -1.45953e-19)
(-0.304873 -1.51929 5.0989e-20)
(0.268404 -1.43641 0)
(0.907133 -1.3476 0)
(1.6235 -1.25308 0)
(2.43178 -1.15446 -1.60922e-19)
(3.35024 -1.05598 -1.09465e-19)
(4.40243 -0.964656 -2.67704e-20)
(5.61733 -0.891645 -8.22891e-20)
(7.0292 -0.854983 -5.59056e-20)
(8.67894 -0.879302 0)
(10.6031 -0.996295 0)
(12.825 -1.24649 -8.3585e-20)
(15.3301 -1.6716 8.9512e-20)
(-3.96821 -2.03172 -7.50901e-20)
(-3.76375 -1.98645 7.65796e-20)
(-3.53833 -1.94288 0)
(-3.29004 -1.89613 8.91253e-20)
(-3.01788 -1.84607 -1.14242e-20)
(-2.72113 -1.79331 1.2918e-21)
(-2.3937 -1.73875 0)
(-2.03344 -1.68014 2.38202e-20)
(-1.63769 -1.61648 -1.09187e-19)
(-1.20417 -1.54656 8.9332e-20)
(-0.729525 -1.47098 2.47939e-21)
(-0.206249 -1.39165 0)
(0.376714 -1.30905 2.40862e-20)
(1.02966 -1.22235 -2.49922e-20)
(1.76529 -1.13156 0)
(2.59646 -1.03758 1.04512e-19)
(3.54042 -0.945179 5.30144e-20)
(4.61982 -0.861506 1.04083e-19)
(5.86226 -0.797192 -5.08601e-20)
(7.29517 -0.771675 0)
(8.96435 -0.810833 9.86099e-20)
(10.8984 -0.941776 -3.9087e-20)
(13.1168 -1.20084 4.93387e-20)
(15.596 -1.62666 3.61334e-20)
(-3.8586 -1.94898 0)
(-3.65616 -1.8997 0)
(-3.43538 -1.85304 -7.42991e-20)
(-3.19137 -1.80381 8.25227e-21)
(-2.92367 -1.75142 6.76508e-20)
(-2.63389 -1.69472 0)
(-2.31181 -1.63786 7.91916e-20)
(-1.95428 -1.57742 6.27445e-20)
(-1.55725 -1.51264 8.53542e-20)
(-1.1194 -1.44113 -6.5929e-20)
(-0.641164 -1.36299 2.00273e-19)
(-0.116896 -1.2816 -2.66834e-22)
(0.469807 -1.19916 -4.61756e-20)
(1.13192 -1.11431 1.21082e-20)
(1.88362 -1.02755 1.21752e-20)
(2.73527 -0.937905 0)
(3.70072 -0.851616 0)
(4.80012 -0.777495 -1.01736e-19)
(6.05639 -0.72063 7.77715e-20)
(7.48815 -0.703518 1.1688e-19)
(9.16256 -0.750831 -9.56464e-20)
(11.1005 -0.891474 -4.47363e-20)
(13.3129 -1.15511 8.47127e-22)
(15.7559 -1.57324 4.43239e-20)
(-3.74549 -1.87289 1.0219e-19)
(-3.54729 -1.82077 -3.64756e-20)
(-3.33499 -1.77219 7.41846e-20)
(-3.10304 -1.71811 -1.59989e-19)
(-2.83763 -1.66779 -6.59282e-20)
(-2.55255 -1.60639 0)
(-2.23006 -1.5487 -7.75932e-20)
(-1.88108 -1.48691 -2.00365e-20)
(-1.49136 -1.42116 4.16315e-20)
(-1.05439 -1.34801 6.32079e-20)
(-0.57053 -1.26712 -6.6587e-20)
(-0.0350021 -1.1839 -2.23905e-20)
(0.56105 -1.10544 0)
(1.2218 -1.02116 -1.12954e-20)
(1.98083 -0.938391 1.17591e-20)
(2.84125 -0.848586 0)
(3.81899 -0.760228 -5.91308e-21)
(4.94935 -0.688325 6.14798e-21)
(6.28622 -0.65267 0)
(7.74441 -0.670464 -4.98264e-20)
(9.49266 -0.734406 1.97669e-20)
(11.4202 -0.888415 7.19454e-20)
(13.6594 -1.16497 -1.06817e-19)
(16.1189 -1.59793 0)
(16.5214 -3.32901 0)
(20.1149 -4.60683 -1.79328e-18)
(21.4176 -5.05082 2.77374e-18)
(22.0754 -5.2265 -1.0264e-18)
(22.5176 -5.32459 0)
(22.823 -5.37917 -2.65651e-19)
(23.0319 -5.40204 2.33941e-19)
(23.1673 -5.40105 -1.02554e-21)
(23.245 -5.38121 0)
(23.277 -5.34673 2.24091e-19)
(23.2744 -5.30092 -2.08113e-19)
(23.2462 -5.24663 0)
(23.1992 -5.18601 0)
(23.1383 -5.12064 0)
(23.0668 -5.05153 0)
(22.9873 -4.97947 0)
(22.9018 -4.90492 6.86882e-20)
(22.8114 -4.82826 8.50014e-20)
(22.7171 -4.74972 -1.67143e-19)
(22.6196 -4.66938 0)
(22.5195 -4.5873 0)
(22.4171 -4.50417 7.69095e-19)
(22.3133 -4.42025 5.35098e-20)
(22.2108 -4.32598 -7.71919e-19)
(16.4626 -2.81737 -7.17259e-19)
(20.2214 -4.09692 5.07583e-19)
(21.9736 -4.72573 -4.79856e-19)
(22.6086 -4.90652 -2.43617e-20)
(22.9779 -4.99834 -1.19885e-20)
(23.2137 -5.05274 -2.53709e-19)
(23.3562 -5.07983 2.36245e-19)
(23.4306 -5.0858 1.61498e-20)
(23.455 -5.07532 1.05045e-19)
(23.4435 -5.052 -1.21868e-19)
(23.407 -5.01898 0)
(23.3531 -4.97846 0)
(23.2871 -4.93216 4.05305e-19)
(23.2125 -4.8813 -3.30996e-19)
(23.1318 -4.82679 5.03618e-19)
(23.0467 -4.7692 -9.6496e-19)
(22.9582 -4.70899 3.86422e-19)
(22.867 -4.64651 7.54715e-20)
(22.7738 -4.58194 5.07313e-19)
(22.6787 -4.51538 -6.46665e-19)
(22.5823 -4.44693 7.39643e-19)
(22.4846 -4.37722 -7.20495e-19)
(22.3859 -4.30535 1.92535e-19)
(22.2866 -4.22234 0)
(16.8154 -2.61259 8.59481e-19)
(20.1977 -3.72347 -4.07692e-19)
(22.2399 -4.47706 -2.45805e-19)
(22.9126 -4.69324 5.87583e-20)
(23.2201 -4.77053 1.71943e-19)
(23.4009 -4.81345 4.37305e-20)
(23.4978 -4.83371 -4.97048e-20)
(23.5357 -4.83723 -1.09013e-19)
(23.5326 -4.82805 2.95222e-19)
(23.5016 -4.8093 -1.67086e-19)
(23.4519 -4.78324 1.86878e-20)
(23.3894 -4.75143 3.58367e-19)
(23.3182 -4.71495 -3.60915e-19)
(23.2409 -4.67466 -5.3174e-19)
(23.1594 -4.63113 3.9545e-19)
(23.0748 -4.58481 -6.26991e-19)
(22.9881 -4.53602 1.14135e-18)
(22.8998 -4.485 -1.14273e-18)
(22.8101 -4.43194 7.82395e-19)
(22.7194 -4.37694 0)
(22.6281 -4.32016 0)
(22.5357 -4.26229 0)
(22.4415 -4.20327 -2.00466e-19)
(22.3461 -4.13738 0)
(17.2057 -2.50342 -1.86062e-19)
(20.2821 -3.4782 0)
(22.4149 -4.26948 -1.64526e-19)
(23.1491 -4.53013 1.9127e-19)
(23.4029 -4.59637 -7.96382e-20)
(23.5336 -4.62911 6.31222e-20)
(23.5911 -4.64277 1.13821e-22)
(23.5999 -4.64298 8.28088e-20)
(23.5765 -4.63338 -7.21133e-20)
(23.5322 -4.61648 1.64984e-20)
(23.4742 -4.594 1.32265e-21)
(23.407 -4.56708 2.22797e-20)
(23.3336 -4.53646 1.70363e-19)
(23.256 -4.50279 -2.12979e-19)
(23.1755 -4.46646 1.25338e-19)
(23.093 -4.42779 -6.77856e-20)
(23.0091 -4.38703 7.26576e-20)
(22.9241 -4.34434 -6.15025e-22)
(22.8384 -4.29988 0)
(22.752 -4.25376 -2.72488e-19)
(22.6651 -4.20612 3.50913e-19)
(22.5773 -4.15728 0)
(22.4875 -4.1068 -4.11933e-19)
(22.3959 -4.05109 4.06479e-19)
(17.5327 -2.42717 1.43983e-19)
(20.4121 -3.3142 3.02237e-20)
(22.5319 -4.0953 -1.8708e-19)
(23.3206 -4.39079 5.78802e-20)
(23.5343 -4.45016 1.13473e-19)
(23.6248 -4.47488 0)
(23.6521 -4.48345 -5.00632e-20)
(23.6392 -4.48122 4.67151e-20)
(23.6011 -4.47118 0)
(23.5472 -4.45543 -1.72956e-19)
(23.4831 -4.43526 1.27686e-19)
(23.4126 -4.41158 2.08742e-19)
(23.3378 -4.38497 -2.01019e-19)
(23.2603 -4.3559 -2.52391e-19)
(23.1811 -4.32469 1.13545e-19)
(23.1008 -4.29158 -2.21939e-19)
(23.0198 -4.25675 5.91524e-19)
(22.9384 -4.22037 -1.31153e-19)
(22.8566 -4.18252 -4.0292e-19)
(22.7746 -4.14332 -4.52001e-19)
(22.6923 -4.1029 3.57e-19)
(22.6093 -4.06134 -5.9285e-19)
(22.5248 -4.0183 3.93905e-19)
(22.4391 -3.97357 2.1704e-19)
(17.8074 -2.36135 -1.32247e-19)
(20.5513 -3.19124 -1.5229e-21)
(22.6192 -3.94747 0)
(23.4383 -4.26564 0)
(23.6214 -4.32206 5.27178e-21)
(23.6801 -4.34095 2.38425e-20)
(23.6849 -4.34607 -9.02348e-20)
(23.6568 -4.34227 -4.27531e-20)
(23.6087 -4.33215 1.00242e-19)
(23.5484 -4.31738 1.98301e-20)
(23.4806 -4.29905 -1.96679e-19)
(23.4083 -4.27783 4.08044e-19)
(23.3331 -4.25427 -9.73348e-20)
(23.2563 -4.22871 0)
(23.1787 -4.20144 6.63022e-20)
(23.1008 -4.17261 3.00213e-19)
(23.0228 -4.14239 -2.91624e-19)
(22.9448 -4.11093 1.61656e-19)
(22.867 -4.0783 8.52631e-20)
(22.7893 -4.04465 8.96873e-20)
(22.7114 -4.01014 0)
(22.6331 -3.97475 2.97427e-19)
(22.5542 -3.93835 -2.05488e-19)
(22.4747 -3.90251 0)
(18.0333 -2.29746 -1.97741e-21)
(20.6774 -3.08721 -4.98021e-20)
(22.6856 -3.81687 -1.62465e-20)
(23.5167 -4.14896 0)
(23.6785 -4.20732 -8.10505e-21)
(23.7132 -4.22337 -7.55182e-22)
(23.7015 -4.22674 0)
(23.6625 -4.22227 0)
(23.6074 -4.21236 0)
(23.5428 -4.19854 -2.0382e-19)
(23.4727 -4.18171 1.25501e-19)
(23.3994 -4.16247 2.32927e-19)
(23.3244 -4.14126 -3.42804e-19)
(23.2486 -4.11847 0)
(23.1727 -4.09428 2.92297e-19)
(23.097 -4.06877 -2.8334e-19)
(23.0218 -4.04214 -7.91512e-20)
(22.9471 -4.0145 -8.2783e-20)
(22.8728 -3.98595 8.76065e-20)
(22.7988 -3.9567 -6.1285e-23)
(22.7249 -3.92695 0)
(22.651 -3.89665 2.06693e-19)
(22.5774 -3.86567 6.87437e-21)
(22.5035 -3.83635 3.3541e-19)
(18.248 -2.24184 -3.05546e-20)
(20.812 -3.00554 -4.59254e-20)
(22.756 -3.71558 6.45394e-20)
(23.5765 -4.05368 2.78496e-20)
(23.7172 -4.1107 1.84502e-20)
(23.7329 -4.12241 3.31497e-20)
(23.7087 -4.12365 -4.92698e-20)
(23.6614 -4.11831 -3.74814e-20)
(23.601 -4.10845 1.03312e-19)
(23.5332 -4.09537 0)
(23.4615 -4.07972 1.0231e-19)
(23.3876 -4.06195 0)
(23.3127 -4.04257 1.93903e-19)
(23.2379 -4.02204 -2.69715e-19)
(23.1638 -4.00035 6.43723e-20)
(23.0905 -3.97744 -1.59706e-19)
(23.0178 -3.95361 6.80544e-20)
(22.9462 -3.929 1.64466e-19)
(22.8751 -3.90366 -8.94743e-20)
(22.8044 -3.87788 -9.40426e-20)
(22.7339 -3.85197 -9.85985e-20)
(22.664 -3.82593 -1.03511e-19)
(22.5954 -3.79943 0)
(22.5271 -3.77467 -1.14216e-19)
(18.3601 -2.16899 -4.76408e-22)
(20.8524 -2.89805 5.33864e-20)
(22.7562 -3.59182 5.22686e-21)
(23.5935 -3.9475 -8.24281e-21)
(23.7393 -4.01815 -1.47881e-20)
(23.7448 -4.03156 3.63296e-20)
(23.7118 -4.03242 4.31992e-20)
(23.6586 -4.02687 -1.24799e-19)
(23.5943 -4.01742 3.18389e-20)
(23.5244 -4.00539 0)
(23.452 -3.99098 -5.26411e-20)
(23.3779 -3.97434 0)
(23.3031 -3.95657 -6.59578e-20)
(23.2291 -3.93825 0)
(23.1568 -3.91875 7.38831e-20)
(23.0853 -3.89776 0)
(23.0146 -3.87611 0)
(22.9454 -3.85382 0)
(22.8766 -3.83068 -2.81382e-19)
(22.8084 -3.80744 1.87005e-19)
(22.7408 -3.78457 -2.07082e-19)
(22.6746 -3.76234 5.27684e-19)
(22.6112 -3.73984 -2.15581e-19)
(22.5484 -3.71908 1.15633e-19)
(18.7292 -2.21063 -7.02186e-20)
(21.1449 -2.93789 4.12599e-20)
(22.9176 -3.61898 -1.3996e-20)
(23.6726 -3.94138 0)
(23.7671 -3.96866 3.113e-21)
(23.753 -3.96061 0)
(23.7105 -3.95513 -6.18268e-20)
(23.6504 -3.94748 -1.01775e-20)
(23.5812 -3.93775 0)
(23.5082 -3.92652 1.07956e-19)
(23.4352 -3.91258 -1.03647e-19)
(23.3603 -3.89597 -6.30652e-20)
(23.2845 -3.87941 6.65231e-20)
(23.2108 -3.86322 7.32079e-20)
(23.1417 -3.84532 8.20756e-20)
(23.0721 -3.82516 -1.5668e-19)
(23.0032 -3.80534 -8.70946e-20)
(22.9377 -3.78511 9.58299e-20)
(22.8721 -3.76372 1.06693e-19)
(22.8066 -3.74294 -3.99061e-19)
(22.7417 -3.72284 2.01731e-19)
(22.6775 -3.70377 -1.0669e-19)
(22.6204 -3.68446 0)
(22.561 -3.66722 -2.37349e-19)
(0.0475107 1.81209 -5.484e-19)
(1.09111 2.0648 -2.10968e-17)
(2.68121 2.77825 2.89445e-19)
(4.38455 3.70019 4.2453e-18)
(6.10251 4.63587 0)
(7.81484 5.60682 -6.87138e-20)
(9.49002 6.61646 0)
(11.1262 7.62283 -4.72653e-20)
(12.7066 8.58928 7.9265e-20)
(14.206 9.48109 0)
(15.5955 10.2696 -8.28725e-19)
(16.8502 10.9322 9.29254e-19)
(17.9509 11.4516 4.81153e-20)
(18.8862 11.8176 0)
(19.6555 12.0279 0)
(20.2674 12.0884 -3.26709e-19)
(20.7398 12.0137 3.57065e-19)
(21.0967 11.8251 -1.69056e-19)
(21.3653 11.5484 -3.31793e-19)
(21.5718 11.2096 3.02217e-19)
(21.7382 10.833 0)
(21.8809 10.4381 -1.66736e-19)
(22.0104 10.0383 4.91805e-20)
(22.1385 9.6326 0)
(-9.6257 2.34093 -3.65448e-19)
(-8.95891 2.25834 -5.20929e-19)
(-7.8251 2.19385 0)
(-6.49008 2.29845 -5.37753e-18)
(-4.92435 2.53496 8.17322e-18)
(-3.05536 2.87428 -3.01087e-18)
(-0.892031 3.31567 0)
(1.47214 3.87474 -2.22063e-18)
(3.97025 4.55168 1.80187e-18)
(6.51823 5.33689 -1.38524e-18)
(9.02857 6.20713 1.41535e-18)
(11.4264 7.12178 -1.34365e-19)
(13.6474 8.03068 -1.11507e-19)
(15.638 8.88027 8.48598e-19)
(17.3586 9.62123 -7.84962e-19)
(18.787 10.2137 0)
(19.9205 10.6321 -6.76192e-19)
(20.7769 10.8678 1.11245e-18)
(21.3915 10.9295 -4.9605e-19)
(21.8122 10.8406 -1.25798e-19)
(22.0903 10.6337 0)
(22.2739 10.3437 3.844e-19)
(22.4017 10.0038 -2.01318e-19)
(22.505 9.62235 0)
(-4.55771 1.37295 5.21763e-19)