/*--------------------------------*- C++ -*----------------------------------*\
| =========                 |                                                 |
| \\      /  F ield         | OpenFOAM: The Open Source CFD Toolbox           |
|  \\    /   O peration     | Version:  2.3.0                                 |
|   \\  /    A nd           | Web:      www.OpenFOAM.org                      |
|    \\/     M anipulation  |                                                 |
\*---------------------------------------------------------------------------*/
FoamFile
{
    version     2.0;
    format      ascii;
    class       volScalarField;
    location    "2000";
    object      nut;
}
// * * * * * * * * * * * * * * * * * * * * * * * * * * * * * * * * * * * * * //

dimensions      [0 2 -1 0 0 0 0];

internalField   nonuniform List<scalar> 
14769
(
0.0513949
0.0481988
0.0451218
0.0421995
0.03946
0.0369343
0.0346554
0.0325998
0.0306011
0.0286702
0.0268365
0.0251067
0.0234768
0.0219367
0.020476
0.0190846
0.0177536
0.0164788
0.0152564
0.0140876
0.0129711
0.0119108
0.0109341
0.0102629
0.0554332
0.052768
0.0502002
0.0477369
0.0453834
0.0431433
0.0410211
0.0390178
0.0371288
0.0353538
0.0336984
0.0321675
0.0307663
0.029499
0.028371
0.0273867
0.0265516
0.0258702
0.0253486
0.02499
0.0247987
0.0247742
0.0249168
0.0252218
0.0590421
0.0568231
0.0546898
0.052646
0.0506942
0.0488368
0.047075
0.0454112
0.0438478
0.0423862
0.0410298
0.0397829
0.0386491
0.0376327
0.036738
0.0359694
0.0353311
0.0348273
0.0344605
0.0342329
0.0341434
0.0341908
0.0343686
0.0346688
0.0622439
0.060389
0.0586072
0.0569007
0.0552716
0.0537203
0.0522488
0.0508581
0.0495505
0.0483279
0.0471933
0.0461504
0.0452026
0.0443533
0.0436076
0.0429688
0.0424413
0.0420288
0.0417338
0.0415582
0.0415015
0.0415628
0.0417388
0.0420234
0.0650756
0.063513
0.0620129
0.0605742
0.0591977
0.0578849
0.0566369
0.0554552
0.054341
0.0532967
0.0523246
0.0514289
0.0506122
0.0498794
0.0492343
0.0486819
0.0482259
0.0478701
0.047618
0.0474718
0.0474325
0.0474993
0.0476705
0.0479423
0.0675625
0.0662434
0.0649705
0.0637445
0.0625668
0.0614394
0.0603639
0.0593427
0.0583766
0.0574677
0.0566185
0.0558314
0.0551114
0.0544627
0.0538898
0.0533975
0.0529905
0.052673
0.0524484
0.0523201
0.05229
0.0523582
0.052524
0.0527851
0.0697526
0.06863
0.06754
0.0664843
0.0654641
0.0644821
0.0635409
0.0626433
0.061792
0.0609879
0.0602333
0.0595305
0.0588842
0.0582986
0.0577793
0.0573314
0.0569598
0.056669
0.0564636
0.0563472
0.0563226
0.0563909
0.0565515
0.0568036
0.0716804
0.0707174
0.0697749
0.0688567
0.0679635
0.0670972
0.0662607
0.0654587
0.0646963
0.0639755
0.0632964
0.0626609
0.0620727
0.0615366
0.0610582
0.0606449
0.0603005
0.0600296
0.0598369
0.0597288
0.0597077
0.0597753
0.0599315
0.0601758
0.0733752
0.0725467
0.0717211
0.0709154
0.0701262
0.0693541
0.0686018
0.0678719
0.0671783
0.0665227
0.0659056
0.0653266
0.0647864
0.0642922
0.0638435
0.0634574
0.0631368
0.0628831
0.0626967
0.0625939
0.0625752
0.0626421
0.0627949
0.0630323
0.0748716
0.0741644
0.0734176
0.0727032
0.0720024
0.0713075
0.0706315
0.0699499
0.0693049
0.0686966
0.068128
0.0676029
0.0671026
0.0666587
0.0662255
0.0658595
0.0655579
0.0653278
0.0651403
0.0650405
0.0650226
0.0650891
0.0652402
0.0654715
0.0113559
0.013587
0.0151157
0.01663
0.0182784
0.0200892
0.0220556
0.024164
0.0264048
0.0287667
0.0312395
0.0338149
0.0364857
0.0392452
0.0420875
0.0450066
0.0479959
0.0510486
0.0541567
0.0573127
0.0605078
0.0637328
0.0669775
0.0702307
0.0256732
0.0262838
0.0270784
0.0280571
0.0292179
0.0305539
0.0320545
0.0337071
0.0354991
0.0374172
0.0394489
0.0415842
0.0438124
0.0461244
0.0485126
0.0509702
0.0534906
0.0560675
0.0586949
0.0613667
0.0640768
0.0668188
0.0695863
0.0723811
0.03508
0.0356152
0.036294
0.037119
0.0380881
0.0391974
0.0404403
0.041809
0.0432944
0.044888
0.0465798
0.0483618
0.0502257
0.0521642
0.0541704
0.0562387
0.0583633
0.060539
0.062761
0.0650244
0.0673245
0.0696568
0.0720174
0.074412
0.0424098
0.0429054
0.0435226
0.0442617
0.0451205
0.0460957
0.0471816
0.0483718
0.0496585
0.0510348
0.0524928
0.0540253
0.0556253
0.057287
0.0590049
0.0607739
0.0625896
0.0644478
0.0663448
0.0682767
0.0702403
0.0722326
0.0742511
0.0763029
0.0483104
0.0487786
0.0493545
0.0500367
0.0508221
0.0517071
0.0526865
0.0537534
0.0549009
0.0561227
0.0574115
0.0587609
0.0601649
0.0616184
0.0631167
0.0646551
0.0662304
0.0678386
0.0694768
0.0711424
0.0728328
0.0745459
0.0762805
0.0780457
0.0531378
0.0535849
0.0541295
0.0547697
0.055502
0.056322
0.0572241
0.0582018
0.0592477
0.0603554
0.0615183
0.0627303
0.063986
0.0652807
0.0666103
0.0679706
0.0693579
0.0707695
0.0722023
0.0736544
0.0751239
0.0766092
0.0781094
0.0796347
0.057144
0.0575738
0.0580938
0.0587012
0.0593928
0.0601633
0.0610071
0.0619174
0.0628864
0.0639069
0.0649727
0.0660781
0.0672185
0.0683899
0.0695879
0.0708087
0.072048
0.0733032
0.0745719
0.0758521
0.0771422
0.0784415
0.0797495
0.0810721
0.060506
0.0609217
0.0614213
0.0620024
0.0626607
0.0633923
0.0641914
0.06505
0.0659594
0.0669112
0.0678992
0.0689192
0.0699681
0.0710424
0.0721368
0.0732464
0.0743678
0.0754976
0.0766337
0.0777741
0.0789178
0.0800646
0.0812138
0.0823676
0.0633534
0.0637594
0.0642394
0.0647983
0.0654286
0.066129
0.0668935
0.0677135
0.0685768
0.0694714
0.070394
0.0713435
0.0723189
0.073316
0.0743286
0.0753483
0.0763744
0.0774023
0.0784303
0.079456
0.0804781
0.0814998
0.0825176
0.0835271
0.0657777
0.0661812
0.0666363
0.0671781
0.0677836
0.0684617
0.0692009
0.0699906
0.0708136
0.0716502
0.0725161
0.0734053
0.0743235
0.0752613
0.0762094
0.0771536
0.0781039
0.0790481
0.0799881
0.0809175
0.0818321
0.0827542
0.0836901
0.0845743
0.0686836
0.0634806
0.0586617
0.054158
0.0499208
0.0459143
0.0421128
0.0385
0.0350653
0.0318031
0.0287099
0.0257858
0.023033
0.0204563
0.0180584
0.0158357
0.0137841
0.0119061
0.0102316
0.00884647
0.00769857
0.00652688
0.00523483
0.00370635
0.0706632
0.0662016
0.0620618
0.0581821
0.0545187
0.0510384
0.0477179
0.0445404
0.0414968
0.0385824
0.0357949
0.0331324
0.0305996
0.0282155
0.0260161
0.0240235
0.0221738
0.0203673
0.0185389
0.0166537
0.0146889
0.0125998
0.0103283
0.00779628
0.0728123
0.0690349
0.0655324
0.0622507
0.0591516
0.0562064
0.0533927
0.0506934
0.0481
0.0456142
0.0432393
0.040965
0.0387656
0.0366124
0.0344793
0.0323484
0.0301946
0.0279896
0.0256991
0.0232865
0.0207139
0.0179434
0.0149348
0.0116446
0.0750487
0.0718978
0.0689807
0.0662532
0.063686
0.0612545
0.0589381
0.056711
0.0545383
0.0523921
0.0502542
0.0481121
0.0459525
0.0437595
0.0415162
0.0392035
0.0368014
0.0342864
0.0316305
0.0288017
0.0257646
0.0224823
0.0189179
0.0150383
0.0773279
0.0747254
0.0723274
0.0700983
0.0680124
0.0660305
0.0640971
0.0621699
0.060223
0.05824
0.0562077
0.0541154
0.0519521
0.0497052
0.0473601
0.0449001
0.0423051
0.0395512
0.0366124
0.033457
0.0300507
0.0263573
0.0223418
0.0179703
0.079572
0.0774524
0.075509
0.0737083
0.0719935
0.0703042
0.0685992
0.0668515
0.0650443
0.0631633
0.0611976
0.0591375
0.056971
0.0546853
0.0522656
0.0496942
0.0469507
0.0440121
0.0408491
0.0374306
0.0337224
0.0296882
0.0252908
0.0204962
0.0817266
0.0800316
0.0784664
0.0769711
0.0754904
0.0739867
0.0724327
0.0708093
0.0691013
0.067297
0.0653851
0.0633542
0.0611912
0.0588825
0.0564113
0.0537588
0.0509036
0.0478194
0.0444776
0.0408449
0.0368868
0.0325644
0.0278398
0.0226768
0.0837838
0.082418
0.0811116
0.0798143
0.0784909
0.0771167
0.0756723
0.0741414
0.0725116
0.0707706
0.0689059
0.0669041
0.0647516
0.0624317
0.0599271
0.0572173
0.0542785
0.0510829
0.0475977
0.0437897
0.0396239
0.0350575
0.0300493
0.0245637
0.0856835
0.0845406
0.0834057
0.082247
0.0810406
0.0797636
0.078402
0.076942
0.0753755
0.0736897
0.0718686
0.0698977
0.0677602
0.0654362
0.0629106
0.0601604
0.0571617
0.0538826
0.0502862
0.0463316
0.0419951
0.0372243
0.0319718
0.0262003
0.087372
0.0863764
0.0853635
0.0843043
0.0831987
0.0819991
0.0807028
0.0792929
0.0777747
0.0761379
0.074361
0.0724212
0.0703053
0.0679783
0.0654385
0.0626567
0.0596152
0.0562794
0.0526113
0.0485202
0.0440467
0.0391145
0.0336524
0.0276228
0.00192737
0.000944401
0.00112494
0.00142494
0.00171225
0.00200132
0.0023104
0.00266674
0.00310924
0.0036812
0.00436655
0.00515511
0.00604723
0.0070479
0.00816457
0.00940352
0.0107717
0.0122773
0.0139293
0.0157371
0.0177102
0.0198571
0.0221871
0.0247134
0.00492599
0.00230958
0.0015035
0.00173148
0.00204282
0.00237961
0.00276483
0.00322426
0.00377991
0.00445236
0.00521667
0.00606847
0.00701028
0.00804657
0.00918204
0.0104214
0.011771
0.0132374
0.0148283
0.016551
0.0184136
0.0204239
0.0225898
0.0249107
0.00800823
0.00425495
0.00210454
0.00203867
0.00238935
0.00280079
0.00328186
0.00384595
0.00450067
0.0052558
0.00608743
0.00699419
0.00797872
0.00904374
0.0101923
0.0114281
0.0127561
0.0141818
0.015711
0.0173499
0.0191049
0.0209824
0.0229893
0.0251333
0.0107799
0.00624793
0.00292115
0.00236214
0.00274965
0.00324752
0.0038239
0.00448057
0.00522
0.00604393
0.00693301
0.0078868
0.00890704
0.00999457
0.0111514
0.0123806
0.0136859
0.0150717
0.016542
0.0181019
0.0197564
0.0215105
0.0233675
0.0253241
0.0131838
0.00805141
0.00383464
0.00271317
0.00311866
0.00370178
0.00436352
0.00509831
0.00591402
0.00679687
0.00773594
0.00873031
0.00977991
0.0108851
0.0120472
0.0132683
0.014551
0.0158984
0.0173139
0.0188007
0.0203624
0.0220025
0.0237237
0.0255316
0.015252
0.00962151
0.00473948
0.00308771
0.0034886
0.00414979
0.00488693
0.00569213
0.00657175
0.00750636
0.0084892
0.00951842
0.0105927
0.011712
0.0128771
0.0140893
0.0153503
0.0166618
0.0180262
0.0194457
0.0209226
0.0224596
0.02406
0.0257307
0.0170305
0.0109724
0.00557737
0.00347276
0.00385142
0.0045818
0.00538546
0.0062545
0.00718881
0.0081692
0.00919032
0.0102492
0.0113443
0.0124753
0.013642
0.0148451
0.0160853
0.0173635
0.018681
0.020039
0.0214391
0.0228833
0.0243747
0.0259185
0.0185634
0.0121363
0.00632957
0.00385356
0.00420299
0.00499295
0.00585406
0.0067819
0.00776341
0.00878416
0.0098386
0.0109232
0.0120364
0.013177
0.0143445
0.0155388
0.0167597
0.0180073
0.0192819
0.020584
0.0219143
0.0232747
0.0246666
0.0260915
0.0198825
0.0131325
0.00700398
0.00422742
0.00452573
0.00536792
0.00628482
0.00726579
0.00829108
0.00934886
0.0104339
0.0115427
0.0126731
0.0138233
0.0149921
0.0161786
0.0173818
0.0186007
0.0198353
0.0210858
0.0223527
0.0236368
0.0249386
0.0262564
0.0209894
0.0138831
0.00740659
0.00449399
0.00489736
0.00580756
0.00676646
0.00778714
0.00884741
0.00994069
0.0110546
0.0121825
0.013325
0.0144803
0.0156439
0.0168179
0.0179976
0.0191793
0.0203679
0.0215627
0.022766
0.0239826
0.0252088
0.0264293
0.000358499
0.00123358
0.00263187
0.00429789
0.00598858
0.00767264
0.00936574
0.0110827
0.0128229
0.0145864
0.0163757
0.0181968
0.0200589
0.0219746
0.023957
0.026015
0.0281473
0.0303554
0.0326987
0.035213
0.03785
0.0407769
0.0440237
0.0474782
0.00027232
0.000708539
0.00164608
0.00294081
0.00450853
0.00607882
0.00765041
0.00921616
0.0107926
0.0123978
0.014046
0.0157423
0.0174925
0.0193044
0.0211885
0.023156
0.0252176
0.0273842
0.0296786
0.0321295
0.034743
0.0375961
0.0407163
0.0440195
9.04647e-05
0.000426667
0.00102002
0.0018671
0.00299866
0.00443383
0.00620651
0.00805844
0.00986017
0.0116113
0.0133207
0.0150032
0.0166753
0.0183537
0.0200587
0.0218145
0.0236481
0.0255882
0.0276654
0.029913
0.0323638
0.0350623
0.0380392
0.0412557
0.000118377
0.000358169
0.000840015
0.00151623
0.00242153
0.00358229
0.00503475
0.00681744
0.00875361
0.0106924
0.0126054
0.0144831
0.0163149
0.0180938
0.0198216
0.0215121
0.023193
0.0249058
0.0267019
0.0286408
0.0307853
0.0331957
0.0359208
0.038964
8.46304e-05
0.000319599
0.000731394
0.00131272
0.00209422
0.00309512
0.00434455
0.00587835
0.00773398
0.00977165
0.011826
0.0138614
0.0158658
0.0178252
0.0197216
0.021539
0.0232727
0.0249377
0.0265749
0.0282519
0.030058
0.0320923
0.0344477
0.0371788
8.86549e-05
0.000308946
0.000669904
0.00119368
0.00189456
0.00279394
0.00391589
0.00529317
0.00696438
0.0089461
0.0110615
0.0132016
0.0153345
0.0174442
0.0195112
0.0215105
0.0234142
0.0252019
0.0268734
0.0284626
0.0300461
0.0317402
0.0336855
0.0360262
8.65001e-05
0.000308263
0.00062588
0.00110985
0.00175556
0.00258629
0.00362083
0.00488871
0.00642537
0.00826967
0.0103744
0.0125744
0.0147977
0.0170186
0.0192185
0.021374
0.0234549
0.0254249
0.0272523
0.0289244
0.0304688
0.031971
0.0335762
0.0354582
8.91667e-05
0.00030696
0.000596234
0.00105176
0.0016581
0.0024392
0.0034105
0.0045989
0.00603749
0.0077644
0.00979675
0.0120085
0.0142885
0.0165905
0.018892
0.0211714
0.0234008
0.0255436
0.0275568
0.0293992
0.0310504
0.032537
0.0339584
0.0354784
9.16193e-05
0.000307069
0.000575134
0.00100962
0.00158706
0.00233159
0.00325615
0.00438553
0.00575051
0.00738733
0.00932986
0.0115187
0.0138276
0.0161875
0.0185667
0.0209432
0.023292
0.0255799
0.0277637
0.0297929
0.0316193
0.0332188
0.034623
0.0359366
9.55346e-05
0.000307549
0.000561571
0.000979939
0.00153633
0.00225263
0.00314193
0.00422659
0.00553551
0.00710315
0.00896634
0.0111111
0.0134257
0.0158242
0.0182629
0.0207166
0.0231618
0.0255683
0.0278972
0.0300976
0.0321113
0.0338846
0.0353929
0.0366719
0.000100136
0.000309079
0.00055402
0.000958752
0.00149942
0.00219444
0.00305726
0.00410808
0.00537421
0.0068883
0.00868736
0.0107816
0.0130864
0.0155089
0.0179936
0.0205098
0.0230338
0.0255385
0.0279881
0.0303361
0.0325231
0.0344831
0.0361574
0.0375215
0.000105451
0.000311363
0.000551132
0.000944084
0.00147297
0.0021523
0.00299525
0.00402055
0.00525401
0.00672709
0.00847576
0.0105222
0.0128093
0.0152453
0.0177663
0.0203345
0.022925
0.0255118
0.0280629
0.0305357
0.0328745
0.0350106
0.036869
0.0383864
0.000111118
0.000314065
0.000550996
0.000934199
0.00145449
0.00212232
0.0029507
0.0039569
0.0051658
0.00660744
0.00831713
0.0103228
0.0125898
0.0150334
0.0175841
0.0201979
0.0228463
0.0255043
0.0281423
0.0307214
0.0331909
0.0354845
0.0375232
0.0392287
0.00011694
0.000316818
0.000552212
0.000927938
0.00144212
0.00210183
0.00291965
0.00391189
0.00510243
0.0065205
0.00820031
0.0101731
0.0124216
0.0148701
0.0174473
0.020103
0.0228047
0.025527
0.0282418
0.0309137
0.0334962
0.035928
0.038132
0.0400225
0.000122787
0.000319533
0.000554127
0.000924344
0.00143441
0.00208854
0.00289898
0.00388117
0.00505833
0.00645893
0.00811638
0.0100636
0.0122964
0.0147502
0.0173526
0.0200491
0.0228027
0.0255857
0.0283716
0.0311271
0.0338096
0.0363628
0.0387134
0.0407717
0.000128538
0.000322083
0.000556298
0.000922765
0.00143025
0.00208067
0.00288613
0.00386133
0.00502897
0.00641679
0.00805755
0.0099853
0.012206
0.0146664
0.0172947
0.0200325
0.0228381
0.0256817
0.0285361
0.0313704
0.0341444
0.0368069
0.0392899
0.041509
0.000134234
0.000324457
0.000558657
0.000922659
0.00142863
0.00207684
0.00287902
0.00384951
0.0050104
0.00638909
0.00801766
0.00993069
0.0121424
0.0146108
0.0172662
0.0200464
0.0229058
0.025811
0.0287341
0.0316449
0.0345062
0.0372695
0.0398727
0.0422352
0.00013973
0.000326612
0.000560982
0.000923479
0.00142877
0.00207572
0.0028759
0.0038432
0.00499951
0.00637152
0.00799112
0.00989319
0.0120981
0.0145755
0.0172586
0.020083
0.0229979
0.0259668
0.0289598
0.0319473
0.0348934
0.0377526
0.040466
0.0429569
0.000145008
0.000328539
0.000563213
0.000924929
0.00143003
0.00207644
0.00287541
0.00384066
0.00499368
0.00636096
0.00797376
0.00986725
0.0120669
0.0145532
0.0172644
0.0201333
0.0231055
0.0261398
0.0292046
0.0322696
0.0352999
0.0382516
0.0410685
0.0436777
0.00015007
0.000330286
0.000565375
0.000926666
0.00143192
0.00207818
0.00287651
0.00384032
0.00499098
0.00635465
0.00796226
0.00984881
0.0120437
0.0145381
0.0172761
0.0201896
0.0232196
0.026321
0.029459
0.0326024
0.0357165
0.0387587
0.0416739
0.0443904
0.000154815
0.000331795
0.000567293
0.000928528
0.00143411
0.00208041
0.00287833
0.00384117
0.00498996
0.00635071
0.00795383
0.00983451
0.0120248
0.0145255
0.0172884
0.0202452
0.0233328
0.0265017
0.0297139
0.0329365
0.0361348
0.0392669
0.0422795
0.0451052
0.000159318
0.00033315
0.000569089
0.000930315
0.00143618
0.0020826
0.00288022
0.00384217
0.00498932
0.00634749
0.00794681
0.00982208
0.0120076
0.0145125
0.0172974
0.020295
0.0234388
0.0266748
0.0299612
0.0332631
0.0365451
0.0397651
0.0428691
0.0457848
0.000163535
0.000334323
0.000570695
0.000931871
0.00143801
0.0020845
0.00288177
0.00384281
0.0049884
0.00634402
0.00793961
0.0098098
0.01199
0.0144968
0.0173002
0.0203354
0.0235333
0.0268351
0.0301952
0.0335762
0.0369416
0.0402493
0.043446
0.046463
0.000167473
0.000335347
0.000572102
0.000933133
0.00143942
0.00208582
0.00288258
0.00384261
0.00498653
0.00633955
0.00793139
0.00979641
0.0119709
0.0144773
0.0172953
0.0203644
0.0236133
0.0269789
0.0304114
0.0338707
0.037319
0.0407138
0.0440016
0.0471119
0.000171151
0.000336232
0.000573337
0.000934049
0.00144028
0.00208641
0.00288247
0.00384128
0.00498328
0.00633352
0.00792147
0.00978113
0.0119494
0.0144534
0.0172821
0.0203807
0.0236769
0.0271037
0.0306069
0.0341434
0.0376738
0.0411555
0.0445358
0.0477486
0.000174549
0.000336988
0.000574325
0.000934537
0.00144053
0.00208618
0.0028813
0.00383861
0.00497841
0.0063256
0.00790936
0.00976343
0.011925
0.0144246
0.0172603
0.0203838
0.0237232
0.0272079
0.0307795
0.0343914
0.0380027
0.0415698
0.0450399
0.0483447
0.000177696
0.000337632
0.00057513
0.000934638
0.00144019
0.00208514
0.00287908
0.00383457
0.00497186
0.00631566
0.0078949
0.00974307
0.0118974
0.0143912
0.0172303
0.0203741
0.0237523
0.0272913
0.0309285
0.0346138
0.0383043
0.041956
0.0455161
0.0489173
0.000180607
0.000338177
0.00057574
0.000934357
0.00143927
0.00208328
0.00287574
0.00382916
0.00496364
0.00630371
0.00787808
0.00971995
0.0118666
0.0143532
0.0171925
0.0203522
0.0237645
0.0273538
0.0310535
0.0348098
0.0385778
0.0423128
0.0459629
0.0494621
0.000183297
0.000338623
0.000576141
0.000933711
0.00143781
0.00208067
0.00287141
0.00382248
0.00495384
0.00628987
0.00785901
0.00969425
0.0118327
0.014311
0.0171478
0.020319
0.0237608
0.0273962
0.0311548
0.0349794
0.0388225
0.0426388
0.0463769
0.0499739
0.000185797
0.000338992
0.000576363
0.000932734
0.00143585
0.00207736
0.00286615
0.00381464
0.00494264
0.00627431
0.00783793
0.00966619
0.0117961
0.0142653
0.0170972
0.0202759
0.0237426
0.0274197
0.0312335
0.0351232
0.039039
0.0429342
0.0467572
0.0504432
0.000188119
0.000339287
0.000576484
0.0009315
0.00143349
0.00207347
0.00286015
0.00380584
0.00493021
0.00625727
0.00781511
0.00963612
0.0117572
0.0142166
0.0170416
0.0202243
0.0237113
0.0274257
0.0312909
0.0352424
0.0392278
0.0431999
0.0471074
0.0508875
0.000190253
0.000339507
0.000576416
0.00093001
0.00143075
0.0020691
0.0028535
0.00379619
0.00491674
0.00623901
0.00779086
0.00960442
0.0117163
0.0141655
0.0169823
0.0201657
0.023669
0.0274164
0.031329
0.0353388
0.0393906
0.043436
0.0474244
0.0512964
0.000192238
0.000339664
0.000576219
0.000928335
0.00142775
0.00206435
0.00284635
0.00378588
0.00490244
0.00621973
0.00776541
0.00957138
0.0116741
0.0141126
0.01692
0.0201016
0.0236175
0.0273941
0.0313503
0.0354148
0.0395296
0.0436447
0.0477094
0.0516645
0.000194073
0.000339758
0.000575861
0.000926478
0.0014245
0.00205927
0.00283876
0.00377504
0.00488747
0.00619966
0.00773903
0.00953731
0.0116306
0.0140583
0.0168555
0.0200333
0.0235587
0.0273608
0.0313575
0.0354738
0.0396489
0.0438306
0.0479674
0.0519995
0.000195787
0.000339806
0.000575471
0.000924559
0.00142114
0.00205402
0.00283091
0.00376386
0.0048721
0.00617906
0.00771202
0.00950248
0.0115863
0.0140031
0.0167894
0.0199616
0.0234936
0.0273182
0.0313524
0.0355184
0.0397518
0.043999
0.0482078
0.0523192
0.000197373
0.000339794
0.000574968
0.000922544
0.00141766
0.00204861
0.00282289
0.00375246
0.00485646
0.00615811
0.00768459
0.00946715
0.0115415
0.0139471
0.016722
0.019887
0.0234229
0.0272671
0.0313361
0.0355496
0.0398401
0.0441519
0.0484326
0.0526244
0.000198855
0.00033973
0.000574378
0.000920464
0.00141411
0.00204313
0.00281477
0.00374093
0.00484064
0.00613699
0.00765696
0.00943157
0.0114963
0.0138907
0.0166536
0.01981
0.0233473
0.0272078
0.0313089
0.0355674
0.0399133
0.0442884
0.0486399
0.0529105
0.000200223
0.000339619
0.000573686
0.000918312
0.00141048
0.00203757
0.00280658
0.00372935
0.00482479
0.00611587
0.00762934
0.00939604
0.0114512
0.0138342
0.0165849
0.0197313
0.0232674
0.0271411
0.0312709
0.0355718
0.0399706
0.0444072
0.0488282
0.0531764
0.000201491
0.000339462
0.000572952
0.000916137
0.00140684
0.00203202
0.00279841
0.00371782
0.00480903
0.00609487
0.00760191
0.00936078
0.0114065
0.0137782
0.0165164
0.0196519
0.0231846
0.0270683
0.0312233
0.0355631
0.0400117
0.0445067
0.0489943
0.0534201
0.000202667
0.000339262
0.000572154
0.000913924
0.00140317
0.00202645
0.00279026
0.00370634
0.00479338
0.00607407
0.00757479
0.00932595
0.0113623
0.0137229
0.0164486
0.0195725
0.0231001
0.026991
0.0311681
0.0355435
0.0400383
0.0445876
0.0491355
0.0536266
0.000203766
0.000339012
0.000571281
0.000911671
0.00139947
0.00202087
0.00278211
0.00369492
0.00477787
0.00605351
0.00754804
0.00929166
0.0113189
0.0136686
0.0163819
0.019494
0.0230151
0.026911
0.0311074
0.0355157
0.0400541
0.0446547
0.0492594
0.0538096
0.000204763
0.000338715
0.000570294
0.000909349
0.0013957
0.00201523
0.00277395
0.00368352
0.00476245
0.00603313
0.00752161
0.00925787
0.0112762
0.0136153
0.0163165
0.0194166
0.0229304
0.0268295
0.0310431
0.0354821
0.0400624
0.0447134
0.0493753
0.053989
0.000205685
0.000338375
0.000569281
0.00090701
0.00139192
0.0020096
0.00276581
0.0036722
0.00474717
0.006013
0.00749555
0.00922463
0.0112343
0.013563
0.0162523
0.0193405
0.0228462
0.026747
0.0309759
0.035444
0.0400649
0.0447658
0.0494859
0.0541682
0.00020654
0.000337994
0.000568234
0.000904638
0.00138812
0.00200395
0.00275766
0.0036609
0.00473198
0.00599303
0.0074698
0.00919188
0.0111931
0.0135118
0.0161895
0.0192656
0.0227626
0.0266637
0.0309061
0.0354014
0.0400612
0.0448102
0.049586
0.0543315
0.000207321
0.000337558
0.000567093
0.000902214
0.00138426
0.00199824
0.00274947
0.00364958
0.0047168
0.00597316
0.00744425
0.00915948
0.0111525
0.0134614
0.0161277
0.019192
0.0226798
0.0265799
0.0308341
0.0353549
0.0400521
0.0448477
0.0496775
0.0544837
0.000208
0.000337075
0.00056581
0.000899718
0.00138032
0.00199245
0.00274118
0.00363816
0.00470156
0.00595328
0.00741878
0.0091273
0.0111123
0.0134116
0.0160668
0.0191193
0.0225975
0.0264955
0.0307598
0.0353043
0.0400374
0.0448789
0.0497626
0.0546281
0.000208615
0.000336547
0.000564493
0.000897224
0.00137638
0.00198663
0.00273285
0.0036267
0.00468627
0.00593337
0.00739333
0.00909525
0.0110723
0.0133623
0.0160067
0.0190475
0.0225157
0.0264105
0.0306832
0.0352494
0.0400166
0.0449025
0.0498399
0.0547704
0.000209199
0.000335991
0.000563214
0.00089476
0.00137245
0.0019808
0.00272449
0.00361518
0.00467089
0.00591335
0.00736778
0.00906312
0.0110324
0.0133132
0.0159469
0.0189762
0.0224342
0.0263249
0.0306043
0.0351903
0.0399892
0.0449168
0.0499048
0.0548946
0.000209728
0.000335386
0.000561909
0.000892269
0.0013685
0.00197497
0.00271611
0.00360362
0.00465544
0.00589322
0.00734208
0.00903081
0.0109923
0.013264
0.0158872
0.018905
0.0223527
0.0262385
0.0305235
0.0351276
0.0399561
0.0449225
0.0499564
0.0549995
0.000210164
0.000334751
0.000560502
0.000889753
0.00136454
0.00196912
0.00270773
0.00359201
0.00463991
0.00587298
0.00731621
0.00899828
0.010952
0.0132144
0.0158271
0.0188334
0.0222705
0.0261508
0.0304405
0.0350617
0.0399189
0.044923
0.0499998
0.0550843
0.000210535
0.000334085
0.000559096
0.000887268
0.00136063
0.00196334
0.00269941
0.00358048
0.00462442
0.00585273
0.00729028
0.00896559
0.0109113
0.0131645
0.0157664
0.018761
0.022187
0.0260609
0.0303541
0.0349916
0.0398774
0.0449205
0.0500458
0.0551929
0.000210827
0.000333384
0.000557629
0.000884786
0.00135675
0.00195761
0.00269113
0.00356901
0.00460903
0.00583257
0.00726438
0.00893287
0.0108705
0.0131142
0.0157051
0.0186876
0.0221017
0.0259679
0.0302629
0.0349151
0.0398281
0.0449088
0.0500797
0.0552776
0.000211077
0.000332654
0.000556117
0.000882321
0.00135291
0.00195194
0.00268295
0.00355765
0.00459379
0.00581258
0.00723865
0.00890026
0.0108297
0.0130637
0.0156435
0.0186132
0.0220148
0.0258715
0.0301662
0.0348308
0.0397694
0.0448866
0.0501024
0.0553527
0.000211281
0.000331907
0.000554597
0.000879862
0.00134908
0.00194629
0.00267484
0.00354642
0.0045787
0.00579277
0.00721316
0.00886794
0.0107892
0.0130136
0.0155819
0.0185387
0.0219266
0.0257725
0.0300644
0.0347387
0.0397004
0.0448519
0.0501109
0.0554116
0.000211425
0.000331124
0.000553073
0.000877425
0.00134532
0.00194075
0.00266684
0.00353537
0.00456384
0.00577327
0.00718795
0.00883598
0.0107492
0.0129638
0.0155207
0.0184643
0.021838
0.0256718
0.0299584
0.0346396
0.039621
0.0448036
0.0501018
0.0554456
0.000211505
0.000330329
0.00055151
0.000874995
0.00134152
0.0019352
0.0026589
0.00352435
0.00454906
0.00575397
0.00716323
0.00880455
0.0107099
0.012915
0.0154606
0.018391
0.0217504
0.0255709
0.0298505
0.0345355
0.0395339
0.0447448
0.0500806
0.0554694
0.000211551
0.0003295
0.000549936
0.000872551
0.00133777
0.00192965
0.002651
0.00351347
0.00453452
0.00573487
0.00713874
0.00877367
0.0106711
0.0128669
0.0154013
0.0183189
0.021664
0.0254711
0.0297422
0.0344292
0.0394418
0.0446789
0.0500501
0.055484
0.000211551
0.000328672
0.000548339
0.000870127
0.00133402
0.0019242
0.00264315
0.00350267
0.00452006
0.00571607
0.00711457
0.00874313
0.010633
0.0128196
0.0153434
0.0182482
0.0215794
0.0253727
0.029635
0.0343225
0.0393477
0.0446084
0.0500123
0.0554851
0.000211481
0.000327819
0.000546715
0.000867687
0.00133029
0.00191876
0.00263538
0.00349193
0.00450576
0.00569743
0.00709077
0.00871309
0.0105954
0.0127733
0.0152864
0.018179
0.0214964
0.0252763
0.0295291
0.0342162
0.039253
0.0445366
0.0499714
0.0554769
0.000211374
0.000326941
0.00054502
0.000865325
0.00132666
0.0019134
0.00262768
0.00348139
0.00449166
0.00567901
0.00706714
0.0086833
0.0105584
0.0127275
0.0152305
0.018111
0.0214149
0.0251814
0.0294243
0.0341104
0.039158
0.0444648
0.0499339
0.0554855
0.000211235
0.000326051
0.000543389
0.000862912
0.00132299
0.00190806
0.00262006
0.00347086
0.00447759
0.00566073
0.00704386
0.0086539
0.0105217
0.0126824
0.0151753
0.0180442
0.0213349
0.0250878
0.0293205
0.0340042
0.0390612
0.0443893
0.0498908
0.0554841
0.00021099
0.000325157
0.000541542
0.000860525
0.0013194
0.00190277
0.00261252
0.00346048
0.00446376
0.00564266
0.0070207
0.00862477
0.0104855
0.0126377
0.0151207
0.0179782
0.0212559
0.0249957
0.0292176
0.0338979
0.0389624
0.04431
0.0498415
0.0554747
0.000210773
0.000324291
0.000539777
0.000858235
0.00131589
0.00189767
0.00260516
0.00345035
0.00445013
0.00562491
0.00699797
0.00859604
0.0104498
0.0125936
0.0150669
0.0179128
0.021178
0.0249044
0.0291155
0.0337918
0.0388627
0.044228
0.0497875
0.0554567
0.000210462
0.000323393
0.000537966
0.000855935
0.00131244
0.00189259
0.00259791
0.00344028
0.00443673
0.00560732
0.00697546
0.00856773
0.0104144
0.01255
0.0150135
0.0178483
0.0211005
0.0248137
0.0290136
0.0336852
0.0387617
0.0441442
0.0497313
0.0554348
0.000210142
0.000322415
0.00053614
0.000853684
0.00130904
0.00188765
0.00259076
0.00343043
0.00442353
0.00559014
0.00695336
0.0085398
0.0103796
0.0125069
0.0149608
0.0177842
0.0210237
0.0247232
0.0289112
0.033577
0.0386578
0.0440568
0.0496729
0.0554209
0.00020976
0.000321508
0.00053426
0.000851438
0.00130567
0.00188274
0.00258374
0.00342072
0.00441053
0.00557318
0.0069317
0.00851238
0.0103453
0.0124646
0.0149089
0.017721
0.0209475
0.0246332
0.0288084
0.0334661
0.0385486
0.0439601
0.0495994
0.0553772
0.000209296
0.000320496
0.000532406
0.000849269
0.00130244
0.00187794
0.00257686
0.00341122
0.00439784
0.00555654
0.00691032
0.0084854
0.0103117
0.012423
0.0148578
0.0176589
0.0208725
0.0245442
0.0287057
0.0333543
0.0384353
0.0438562
0.0495149
0.0553216
0.000208837
0.000319514
0.000530568
0.000847193
0.0012993
0.00187335
0.00257019
0.00340198
0.00438537
0.00554027
0.00688945
0.00845898
0.0102788
0.0123823
0.0148079
0.0175981
0.0207992
0.0244568
0.0286046
0.0332428
0.0383209
0.0437479
0.0494231
0.0552555
0.00020834
0.00031851
0.000528707
0.000845154
0.00129627
0.00186887
0.00256372
0.00339292
0.0043732
0.00552423
0.00686886
0.00843305
0.0102463
0.0123422
0.0147587
0.0175384
0.0207272
0.0243714
0.0285056
0.033133
0.0382066
0.0436381
0.0493266
0.0551842
0.000207849
0.0003175
0.000526897
0.000843224
0.00129337
0.00186459
0.00255743
0.00338414
0.00436131
0.00550864
0.00684872
0.00840751
0.0102144
0.0123028
0.0147106
0.0174798
0.0206569
0.0242877
0.0284087
0.0330254
0.0380938
0.0435268
0.0492244
0.0550985
0.000207295
0.000316529
0.000525063
0.000841345
0.00129058
0.00186046
0.00255142
0.00337565
0.00434982
0.00549347
0.00682914
0.00838257
0.0101831
0.0122641
0.014663
0.0174221
0.0205874
0.0242055
0.0283137
0.0329202
0.0379834
0.0434169
0.0491192
0.0550013
0.000206667
0.000315449
0.000523219
0.000839597
0.001288
0.00185659
0.00254568
0.00336761
0.00433882
0.00547884
0.00681002
0.00835819
0.0101525
0.012226
0.0146163
0.0173652
0.0205187
0.0241242
0.0282199
0.0328169
0.0378763
0.0433119
0.0490179
0.054891
0.000206049
0.000314411
0.000521416
0.000837944
0.00128551
0.00185289
0.00254025
0.00335988
0.00432823
0.00546478
0.00679176
0.00833468
0.0101228
0.0121889
0.0145703
0.0173091
0.020451
0.0240434
0.0281265
0.0327139
0.0377709
0.0432135
0.0489365
0.0548397
0.000205402
0.000313354
0.000519598
0.000836354
0.0012832
0.0018494
0.00253512
0.0033526
0.00431826
0.00545135
0.00677421
0.00831219
0.0100941
0.0121529
0.0145255
0.017254
0.0203839
0.0239632
0.0280328
0.0326095
0.0376625
0.0431108
0.0488497
0.0547805
0.000204742
0.000312305
0.000517839
0.000834916
0.00128107
0.00184621
0.00253031
0.00334578
0.00430882
0.00543874
0.00675759
0.0082907
0.0100668
0.0121183
0.0144825
0.0172006
0.0203187
0.0238842
0.0279398
0.0325045
0.0375516
0.0430026
0.0487529
0.0547003
0.000204024
0.000311252
0.000516052
0.000833547
0.00127912
0.0018432
0.00252581
0.0033393
0.00429997
0.0054268
0.00674194
0.00827046
0.0100408
0.0120856
0.0144414
0.0171496
0.0202557
0.0238078
0.0278488
0.0324006
0.0374406
0.0428939
0.0486569
0.054627
0.000203317
0.000310138
0.000514296
0.00083232
0.00127732
0.00184043
0.0025216
0.00333328
0.00429161
0.00541561
0.00672715
0.00825127
0.0100164
0.0120546
0.0144026
0.0171011
0.0201957
0.0237345
0.027761
0.0322994
0.0373308
0.0427844
0.0485585
0.0545512
0.000202555
0.000309087
0.000512498
0.000831146