/*--------------------------------*- C++ -*----------------------------------*\
| =========                 |                                                 |
| \\      /  F ield         | OpenFOAM: The Open Source CFD Toolbox           |
|  \\    /   O peration     | Version:  2.3.0                                 |
|   \\  /    A nd           | Web:      www.OpenFOAM.org                      |
|    \\/     M anipulation  |                                                 |
\*---------------------------------------------------------------------------*/
FoamFile
{
    version     2.0;
    format      ascii;
    class       volScalarField;
    location    "400";
    object      nut;
}
// * * * * * * * * * * * * * * * * * * * * * * * * * * * * * * * * * * * * * //

dimensions      [0 2 -1 0 0 0 0];

internalField   nonuniform List<scalar> 
7994
(
0.0670379
0.061977
0.057238
0.0528796
0.0489554
0.0455087
0.0425652
0.0401249
0.0381516
0.0365699
0.0352722
0.0341341
0.0330297
0.0318421
0.0304715
0.072961
0.0693848
0.0661877
0.0634011
0.0610352
0.0590803
0.05751
0.0562853
0.0553597
0.0546848
0.0542137
0.0539045
0.0537215
0.0536356
0.0536244
0.0782761
0.0757227
0.0735152
0.0716437
0.0700881
0.0688198
0.0678051
0.0670087
0.0663962
0.0659363
0.0656015
0.0653685
0.0652182
0.0651349
0.0651063
0.0828064
0.0809557
0.0793806
0.0780586
0.0769642
0.0760698
0.0753481
0.0747733
0.0743223
0.0739752
0.0737147
0.0735269
0.0734003
0.0733255
0.073295
0.0866035
0.085229
0.0840623
0.0830823
0.0822665
0.0815931
0.0810421
0.0805957
0.0802385
0.0799573
0.0797412
0.0795814
0.0794704
0.0794023
0.0793724
0.0897846
0.0887263
0.0878306
0.0870736
0.0864369
0.0859043
0.0854618
0.085097
0.0847998
0.0845614
0.0843747
0.0842338
0.084134
0.0840713
0.0840426
0.0924246
0.0916034
0.0908982
0.090294
0.0897787
0.0893412
0.088972
0.0886628
0.0884067
0.088198
0.0880321
0.0879049
0.0878135
0.0877551
0.0877275
0.0946468
0.0939985
0.0934275
0.0929306
0.0925006
0.0921301
0.0918128
0.0915433
0.0913169
0.0911299
0.0909793
0.0908626
0.0907776
0.0907226
0.0906963
0.09656
0.0960151
0.0955368
0.0951167
0.0947486
0.0944271
0.094148
0.0939078
0.0937037
0.0935332
0.0933944
0.0932858
0.0932059
0.0931538
0.0931285
0.0981747
0.0977166
0.0973099
0.0969483
0.096627
0.0963425
0.0960923
0.0958746
0.0956875
0.0955299
0.0954005
0.0952984
0.0952228
0.095173
0.0951486
0.0995519
0.0991633
0.0988134
0.0984974
0.0982125
0.0979567
0.0977288
0.0975285
0.097355
0.0972076
0.0970859
0.0969892
0.096917
0.0968693
0.0968456
0.100733
0.100403
0.100099
0.099819
0.0995632
0.0993298
0.0991192
0.0989326
0.0987698
0.0986309
0.0985159
0.0984238
0.0983541
0.0983081
0.0982853
0.101757
0.101475
0.101206
0.100955
0.100723
0.100507
0.10031
0.100135
0.0999798
0.0998476
0.0997389
0.0996519
0.0995826
0.0995385
0.0995165
0.102651
0.102412
0.102167
0.101939
0.101727
0.101523
0.101336
0.101173
0.101023
0.100895
0.100792
0.100714
0.100639
0.100598
0.100576
0.030485
0.0318786
0.0330681
0.0341675
0.0352988
0.0365912
0.0381711
0.0401464
0.0425915
0.0455412
0.0489944
0.0529246
0.0572887
0.0620333
0.0670995
0.0536234
0.053633
0.0537177
0.0539002
0.0542096
0.054682
0.0553595
0.0562888
0.0575184
0.0590946
0.061056
0.0634291
0.0662232
0.0694282
0.073013
0.0651066
0.0651359
0.06522
0.0653714
0.0656056
0.0659419
0.0664038
0.0670186
0.0678179
0.068836
0.0701083
0.0716685
0.0735455
0.0757595
0.0783202
0.0732954
0.0733268
0.0734027
0.0735304
0.0737194
0.0739813
0.07433
0.0747828
0.0753597
0.0760841
0.0769816
0.0780799
0.0794066
0.0809876
0.0828455
0.0793728
0.0794036
0.0794725
0.0795844
0.0797453
0.0799625
0.080245
0.0806037
0.0810519
0.081605
0.0822811
0.0831003
0.0840847
0.0852571
0.0866387
0.0840429
0.0840723
0.0841356
0.0842362
0.0843778
0.0845654
0.0848049
0.0851033
0.0854695
0.0859139
0.0864488
0.0870887
0.0878498
0.0887512
0.0898168
0.0877277
0.0877557
0.0878145
0.0879065
0.0880342
0.0882008
0.0884102
0.0886672
0.0889776
0.0893484
0.089788
0.0903062
0.0909143
0.0916254
0.0924556
0.0906963
0.0907229
0.0907781
0.0908633
0.0909804
0.0911314
0.0913189
0.091546
0.0918164
0.092135
0.0925073
0.0929398
0.0934404
0.0940164
0.0946715
0.0931284
0.0931537
0.0932058
0.0932857
0.0933944
0.0935334
0.0937042
0.0939088
0.0941497
0.0944297
0.0947527
0.0951232
0.0955467
0.0960299
0.0965812
0.0951484
0.0951726
0.095222
0.0952974
0.0953995
0.095529
0.0956868
0.095874
0.0960921
0.0963429
0.0966285
0.096952
0.0973171
0.0977286
0.0981925
0.0968454
0.0968685
0.0969157
0.0969873
0.0970839
0.0972057
0.0973532
0.0975267
0.0977269
0.0979548
0.0982114
0.0984983
0.0988178
0.0991732
0.0995698
0.0982852
0.0983073
0.0983522
0.0984205
0.0985127
0.0986283
0.0987674
0.0989299
0.0991157
0.0993254
0.099559
0.0998168
0.1001
0.10041
0.100749
0.0995169
0.0995381
0.0995803
0.0996456
0.0997345
0.099845
0.0999776
0.100131
0.100305
0.1005
0.100715
0.100949
0.101204
0.101478
0.101769
0.100578
0.100599
0.100637
0.100698
0.100786
0.100892
0.101021
0.101166
0.101329
0.101516
0.101715
0.101929
0.102162
0.10241
0.102662
0.0137199
0.0108385
0.00853426
0.00675436
0.00557501
0.0047317
0.00406441
0.00349495
0.00298442
0.00251297
0.0020713
0.00165694
0.00127194
0.000917902
0.000657664
0.0137843
0.0111041
0.00893922
0.00725291
0.00604718
0.0051632
0.00447619
0.00390441
0.0034004
0.0029378
0.00250276
0.00208943
0.00169622
0.00132287
0.00101792
0.0138738
0.0113955
0.00936482
0.00777234
0.00655027
0.00561951
0.00489341
0.00429832
0.00378276
0.00331442
0.00287466
0.00245382
0.00204631
0.00164855
0.00131449
0.0139817
0.0116879
0.00978113
0.0082659
0.00704475
0.00607507
0.00530307
0.004671
0.00413002
0.00364474
0.00319225
0.00275893
0.00233513
0.00191402
0.00155571
0.0140959
0.0119698
0.01018
0.00872465
0.00751379
0.00651666
0.00570088
0.00502582
0.00445035
0.0039397
0.00346833
0.003019
0.00257805
0.00213531
0.00175486
0.0142256
0.0122391
0.0105566
0.00914987
0.00795199
0.00693658
0.00608293
0.00536448
0.00474983
0.00420803
0.00371304
0.00324489
0.00278622
0.00232328
0.00192218
0.0143302
0.0124902
0.0109056
0.00954311
0.00835873
0.00733104
0.00644586
0.00568669
0.00503161
0.00445533
0.00393332
0.00344418
0.00296731
0.00248527
0.00206488
0.0144615
0.0127267
0.0112257
0.00990526
0.00873485
0.00769875
0.00678746
0.0059915
0.00529698
0.00468493
0.00413384
0.00362212
0.00312669
0.00262647
0.00218804
0.014539
0.0129415
0.011518
0.0102376
0.00908155
0.00803974
0.0071067
0.00627802
0.00554632
0.00489873
0.00431765
0.00378241
0.00326822
0.0027506
0.00229532
0.0146471
0.0131387
0.0117838
0.0105416
0.00940029
0.00835484
0.0074035
0.00654594
0.00577987
0.00509797
0.00448691
0.00392779
0.00339486
0.00286055
0.00238948
0.0147199
0.0133174
0.0120253
0.010819
0.0096925
0.00864504
0.00767824
0.00679512
0.00599762
0.00528326
0.00464288
0.00405998
0.00350855
0.00295836
0.00247258
0.0148166
0.0134827
0.0122448
0.0110717
0.00995992
0.00891192
0.0079324
0.00702704
0.00620107
0.00545629
0.00478798
0.00418188
0.00361199
0.00304614
0.00254641
0.0148834
0.0136332
0.0124441
0.0113012
0.0102027
0.00915315
0.00815994
0.00723412
0.00638339
0.0056115
0.00491536
0.00428743
0.00370271
0.0031244
0.00261188
0.0149775
0.0137985
0.0126465
0.0115256
0.0104538
0.00942583
0.00844101
0.0074855
0.00659545
0.00578896
0.00507708
0.00441872
0.00379824
0.00319587
0.00267261
0.000658951
0.000915639
0.00126594
0.0016459
0.00205309
0.00248523
0.00294484
0.00344176
0.00399765
0.00465698
0.00551166
0.00674072
0.00854714
0.0108723
0.0137742
0.00101847
0.00131707
0.00168349
0.00206934
0.00247388
0.00289845
0.00334938
0.00384207
0.00440634
0.00509575
0.0059979
0.00723267
0.0089574
0.011141
0.0138304
0.00131438
0.00163941
0.00202745
0.00242553
0.00283636
0.00326547
0.00372361
0.00423183
0.00482604
0.00556126
0.00651088
0.00775646
0.00938709
0.0114342
0.0139237
0.00155506
0.00190185
0.00231085
0.00272363
0.00314634
0.00358893
0.00406658
0.00460471
0.00524128
0.00602604
0.0070147
0.00825907
0.00980689
0.0117292
0.0140347
0.00175377
0.00212046
0.0025491
0.00297792
0.00341671
0.00387968
0.00438577
0.00496257
0.00564604
0.00647668
0.00749296
0.00872562
0.0102045
0.0120119
0.0141416
0.00192072
0.00230607
0.00275331
0.00319921
0.00365742
0.004146
0.00468638
0.00530589
0.00603553
0.00690519
0.00793902
0.00915481
0.0105758
0.0122828
0.0142884
0.00206313
0.00246604
0.00293109
0.00339496
0.00387518
0.00439295
0.00497076
0.00563358
0.00640579
0.00730724
0.00835154
0.00954949
0.0109218
0.0125376
0.0144011
0.00218606
0.0026055
0.00308776
0.00357029
0.00407434
0.00462341
0.00523962
0.00594409
0.00675417
0.0076812
0.00873168
0.00991271
0.0112427
0.0127762
0.0145315
0.00229318
0.00272818
0.0032271
0.00372871
0.00425768
0.00483889
0.00549288
0.00623616
0.00707937
0.00802718
0.00908142
0.0102469
0.0115389
0.0129978
0.0146392
0.00238718
0.00283685
0.00335195
0.00387282
0.00442713
0.0050403
0.00573046
0.0065092
0.00738128
0.00834631
0.00940296
0.010554
0.0118107
0.0132006
0.0147358
0.00247035
0.00293379
0.00346442
0.0040044
0.0045839
0.00522816
0.00595232
0.00676318
0.00766046
0.00864002
0.00969819
0.0108355
0.0120585
0.0133837
0.0148168
0.00254336
0.00301993
0.00356599
0.00412504
0.00472927
0.00540314
0.0061586
0.00699809
0.00791759
0.00890977
0.0099688
0.0110928
0.0122838
0.0135514
0.0149087
0.00261235
0.00310111
0.0036598
0.00423556
0.0048625
0.0055645
0.00634986
0.00721794
0.00815702
0.00915881
0.0102179
0.0113281
0.0124892
0.0137049
0.014984
0.00265373
0.00315353
0.00373468
0.00433597
0.00499333
0.00572204
0.00653384
0.00739874
0.00834503
0.00936885
0.0104197
0.0115296
0.0126596
0.0138216
0.0150056
0.00128743
0.00387664
0.00672998
0.0098029
0.013098
0.0166213
0.0203898
0.0244298
0.0287715
0.0334413
0.0384535
0.0438054
0.0494755
0.0554255
0.0616051
9.27293e-08
0.000424467
0.00172193
0.00385
0.00634147
0.00931459
0.0127796
0.0167403
0.0211956
0.0261372
0.0315469
0.0373935
0.0436299
0.0501937
0.0570073
0
0.000210644
0.00108587
0.00254507
0.00436745
0.00668775
0.00955082
0.0129923
0.0170373
0.0216957
0.0269592
0.0327975
0.0391565
0.045959
0.0531081
2.74951e-06
0.000182296
0.00109152
0.00216502
0.00361983
0.00552514
0.00794269
0.010932
0.0145454
0.0188213
0.0237781
0.029408
0.0356717
0.0424977
0.0497846
6.19256e-05
0.000513997
0.00105104
0.00194802
0.0031938
0.00484249
0.00696016
0.00961674
0.0128803
0.0168103
0.0214495
0.0268157
0.0328935
0.0396292
0.0469291
0.000346132
0.000619668
0.000982888
0.00177371
0.00288112
0.0043552
0.00626121
0.00867177
0.0116622
0.015304
0.0196575
0.0247617
0.0306245
0.0372133
0.0444464
0.000397373
0.000598693
0.00096878
0.00163118
0.00263184
0.00397467
0.00572023
0.00794054
0.0107134
0.0141168
0.0182222
0.0230846
0.0287317
0.0351522
0.0422867
0.000390305
0.000566166
0.000957326
0.00151523
0.00242898
0.00366671
0.00528365
0.00735016
0.0099443
0.0131474
0.0170375
0.0216808
0.0271191
0.0333544
0.0403204
0.000381961
0.000547515
0.000932351
0.00141867
0.00226181
0.00341274
0.00492285
0.00686087
0.00930429
0.0123357
0.0160375
0.0204835
0.0257277
0.0317917
0.0386619
0.000376043
0.0005371
0.0009049
0.00134082
0.00212219
0.00319991
0.00461935
0.00644761
0.00876132
0.0116435
0.015179
0.0194476
0.0245134
0.0304148
0.037156
0.000371313
0.000531392
0.000887943
0.00130073
0.00200647
0.00301921
0.00436024
0.00609322
0.00829362
0.0110443
0.0144319
0.0185402
0.0234417
0.0291855
0.0357819
0.000367414
0.000528951
0.000881755
0.00128348
0.00191049
0.00286406
0.00413622
0.00578546
0.00788574
0.0105195
0.0137742
0.0177368
0.022485
0.0280745
0.0345167
0.000364062
0.000527917
0.000879892
0.00127092
0.00182934
0.00272942
0.00394042
0.0055153
0.00752629
0.0100552
0.0131898
0.0170193
0.0216262
0.0270765
0.0334152
0.000360948
0.000526741
0.00087762
0.00125681
0.0017596
0.00261128
0.00376762
0.00527591
0.00720663
0.00964075
0.0126663
0.016374
0.0208506
0.0261702
0.0323842
0.000357936
0.000525054
0.000874395
0.00124376
0.00170992
0.00250784
0.00361393
0.00506208
0.00692017
0.00926816
0.012194
0.0157895
0.0201443
0.0253356
0.0314069
0.000355098
0.000523482
0.000872371
0.00123698
0.00168598
0.00241865
0.00347658
0.00486981
0.0066617
0.00893095
0.0117651
0.0152566
0.0194967
0.0245645
0.0305084
0.00035252
0.000522497
0.00087249
0.0012357
0.00167434
0.00234165
0.00335331
0.0046959
0.00642711
0.00862398
0.0113734
0.0147682
0.0189013
0.0238573
0.0297079
0.00035019
0.000521963
0.000873855
0.00123636
0.00166473
0.00227402
0.0032421
0.00453781
0.00621308
0.00834309
0.011014
0.0143189
0.0183523
0.0232039
0.0289516
0.000348018
0.000521453
0.000875082
0.00123623
0.00165356
0.00221425
0.00314118
0.0043934
0.00601688
0.00808491
0.0106829
0.0139039
0.0178442
0.0225966
0.028241
0.000345925
0.000520684
0.000875454
0.00123475
0.00164218
0.00216743
0.00304984
0.00426097
0.00583628
0.00784665
0.0103766
0.013519
0.0173707
0.0220254
0.0275587
0.000343895
0.000519711
0.00087532
0.00123338
0.00163457
0.00213991
0.0029684
0.00413928
0.00566946
0.00762599
0.0100923
0.0131613
0.0169316
0.0215047
0.0269969
0.000341958
0.000518774
0.000875431
0.00123348
0.00163188
0.00212576
0.00289633
0.00402731
0.00551489
0.007421
0.00982771
0.0128277
0.0165199
0.0210032
0.0263479
0.000340143
0.000518034
0.000876161
0.00123517
0.00163232
0.00211657
0.00283205
0.00392409
0.00537131
0.00723002
0.00958068
0.0125155
0.0161337
0.0205359
0.0258221
0.000338448
0.00051747
0.000877343
0.00123763
0.00163355
0.00210769
0.00277396
0.00382865
0.00523759
0.00705161
0.00934943
0.0122227
0.0157711
0.0200978
0.025307
0.000336846
0.000516952
0.000878541
0.00123992
0.00163404
0.00209766
0.00272171
0.00374013
0.00511274
0.00688454
0.00913244
0.0119475
0.0154294
0.0196819
0.024801
0.000335305
0.000516355
0.000879391
0.00124148
0.00163346
0.00208741
0.00267874
0.00365827
0.00499594
0.00672774
0.00892835
0.011688
0.0151062
0.0192851
0.0243138
0.000333804
0.000515638
0.000879814
0.00124242
0.00163262
0.0020795
0.00264974
0.00358347
0.00488656
0.00658025
0.00873589
0.0114426
0.0147989
0.0189046
0.0238447
0.000332344
0.000514851
0.000880003
0.00124326
0.00163265
0.00207545
0.00263287
0.00351578
0.00478412
0.00644124
0.00855398
0.0112101
0.0145072
0.0185471
0.0234344
0.000330936
0.000514085
0.000880234
0.00124448
0.00163405
0.00207474
0.00262255
0.0034545
0.00468811
0.00630999
0.0083817
0.0109893
0.0142301
0.0182066
0.023021
0.000329591
0.000513399
0.000880672
0.00124624
0.0016366
0.00207585
0.00261443
0.00339852
0.00459799
0.00618586
0.00821829
0.0107797
0.0139669
0.0178837
0.0226359
0.000328311
0.000512799
0.00088131
0.00124837
0.00163969
0.00207737
0.00260627
0.00334695
0.00451322
0.00606829
0.00806305
0.01058
0.0137152
0.0175702
0.0222346
0.000327088
0.000512247
0.00088202
0.00125057
0.0016427
0.00207838
0.00259731
0.00329971
0.00443335
0.00595676
0.00791534
0.0103897
0.0134751
0.017274
0.0218946
0.000325909
0.000511691
0.00088264
0.00125252
0.00164519
0.00207856
0.00258801
0.00325874
0.00435819
0.00585083
0.00777462
0.0102081
0.0132455
0.0169889
0.0215359
0.000324762
0.000511095
0.000883064
0.00125409
0.00164711
0.00207827
0.00257982
0.00322739
0.00428801
0.00575014
0.00764036
0.0100343
0.0130252
0.0167132
0.0211935
0.000323641
0.000510449
0.000883274
0.00125529
0.00164868
0.00207824
0.00257424
0.00320645
0.00422309
0.00565443
0.00751212
0.00986804
0.0128144
0.0164529
0.0208944
0.000322546
0.000509774
0.000883341
0.00125632
0.0016503
0.0020791
0.00257166
0.00319318
0.00416335
0.00556348
0.00738951
0.00970868
0.0126117
0.0161982
0.0205609
0.00032148
0.0005091
0.000883372
0.00125738
0.00165225
0.00208106
0.0025715
0.00318406
0.00410823
0.00547704
0.00727218
0.00955582
0.0124173
0.0159581
0.0202957
0.000320448
0.000508457
0.000883455
0.0012586
0.00165464
0.00208394
0.00257275
0.00317651
0.00405704
0.00539481
0.00715983
0.00940927
0.0122314
0.01573
0.0200259
0.000319452
0.000507857
0.000883628
0.00126
0.00165739
0.00208736
0.00257446
0.0031691
0.00400918
0.00531651
0.00705223
0.00926871
0.0120531
0.0155089
0.0197475
0.000318491
0.000507297
0.000883874
0.00126152
0.0016603
0.00209088
0.00257598
0.00316119
0.00396447
0.00524188
0.00694912
0.00913382
0.0118819
0.0152974
0.0195
0.000317561
0.00050676
0.000884143
0.00126305
0.00166315
0.00209416
0.00257695
0.00315278
0.00392358
0.00517076
0.00685029
0.00900439
0.0117178
0.0150955
0.0192592
0.000316658
0.000506226
0.000884371
0.00126446
0.00166575
0.00209701
0.00257735
0.00314444
0.00388834
0.00510321
0.00675552
0.00888004
0.0115596
0.0148972
0.0189983
0.000315777
0.000505682
0.000884514
0.00126568
0.00166804
0.00209942
0.00257747
0.00313722
0.00386077
0.00503949
0.00666466
0.00876044
0.0114071
0.0147069
0.0187746
0.000314914
0.000505118
0.000884548
0.00126669
0.00167001
0.00210156
0.0025778
0.00313203
0.00384114
0.00497983
0.00657756
0.00864532
0.0112602
0.0145236
0.01855
0.000314068
0.000504537
0.000884484
0.00126752
0.00167178
0.00210367
0.00257879
0.00312922
0.00382777
0.00492421
0.00649409
0.00853441
0.011118
0.0143444
0.0183188
0.000313238
0.000503949
0.000884357
0.00126825
0.0016735
0.00210599
0.00258064
0.00312851
0.00381835
0.00487235
0.00641412
0.00842747
0.0109805
0.0141705
0.0181013
0.000312426
0.000503365
0.000884208
0.00126896
0.00167529
0.00210864
0.00258334
0.00312933
0.00381097
0.00482381
0.00633743
0.00832414
0.0108468
0.0139986
0.0178735
0.000311635
0.000502798
0.000884076
0.00126972
0.00167723
0.00211165
0.0025867
0.00313099
0.00380434
0.00477812
0.00626381
0.00822426
0.0107173
0.0138356
0.0176914
0.000310865
0.000502253
0.000883981
0.00127054
0.00167931
0.00211493
0.00259045
0.00313296
0.00379773
0.00473494
0.00619307
0.00812764
0.0105915
0.0136747
0.0174718
0.000310116
0.000501732
0.000883927
0.00127144
0.00168151
0.00211837
0.00259431
0.00313482
0.00379078
0.00469416
0.006125
0.00803406
0.0104692
0.0135178
0.017278
0.000309389
0.00050123
0.000883901
0.00127237
0.00168374
0.00212181
0.00259807
0.00313633
0.00378346
0.00465614
0.00605947
0.00794339
0.0103506
0.0133678
0.0171045
0.00030868
0.000500742
0.000883881
0.00127329
0.00168592
0.00212513
0.00260156
0.0031374
0.00377602
0.00462185
0.0059965
0.00785563
0.0102359
0.0132227
0.0169203
0.000307989
0.000500259
0.000883845
0.00127416
0.00168799
0.00212823
0.00260471
0.00313815
0.00376901
0.00459268
0.00593618
0.00777052
0.0101237
0.0130766
0.0167149
0.000307312
0.000499776
0.000883772
0.00127493
0.00168989
0.00213108
0.00260757
0.0031388
0.00376311
0.00456961
0.00587873
0.00768811
0.0100153
0.0129412
0.0165839
0.000306649
0.000499289
0.000883652
0.0012756
0.00169161
0.00213369
0.00261024
0.00313968
0.00375885
0.00455244
0.00582427
0.0076083
0.00990965
0.0128035
0.0163709
0.000305999
0.000498796
0.000883482
0.00127616
0.00169317
0.00213614
0.00261289
0.00314106
0.00375643
0.00454001
0.0057728
0.00753102
0.00980678
0.012671
0.0162179
0.00030536
0.0004983
0.000883271
0.00127663
0.00169462
0.00213851
0.00261566
0.00314309
0.00375568
0.00453082
0.00572416
0.00745615
0.00970623
0.0125389
0.0160313
0.000304733
0.000497804
0.000883033
0.00127705
0.001696
0.00214089
0.00261866
0.00314581
0.00375626
0.00452358
0.00567806
0.00738353
0.00960786
0.0124095
0.015869
0.00030412
0.000497314
0.000882786
0.00127745
0.00169738
0.00214334
0.00262193
0.00314912
0.00375775
0.00451728
0.00563419
0.00731305
0.00951184
0.0122846
0.0157188
0.000303521
0.000496833
0.000882545
0.00127785
0.00169879
0.00214591
0.00262547
0.00315289
0.00375974
0.00451129
0.00559228
0.00724466
0.0094184
0.0121639
0.0155721
0.000302936
0.000496365
0.00088232
0.00127828
0.00170026
0.00214859
0.00262921
0.00315692
0.0037619
0.0045052
0.00555215
0.00717832
0.00932753
0.0120466
0.0154234
0.000302368
0.00049591
0.000882114
0.00127874
0.00170177
0.00215136
0.00263308
0.00316105
0.00376396
0.00449881
0.00551378
0.00711397
0.00923906
0.0119318
0.0152778
0.000301816
0.000495468
0.000881928
0.00127922
0.00170332
0.00215417
0.00263697
0.00316512
0.00376577
0.00449208
0.00547737
0.0070516
0.00915315
0.0118215
0.0151496
0.00030128
0.000495038
0.000881755
0.00127971
0.00170488
0.00215697
0.00264081
0.00316903
0.00376725
0.00448512
0.00544346
0.00699124
0.00906979
0.0117145
0.0150153
0.000300761
0.000494616
0.000881587
0.0012802
0.0017064
0.0021597
0.00264451
0.00317269
0.0037684
0.00447821
0.0054129
0.00693299
0.00898886
0.01161
0.0148826
0.000300261
0.0004942
0.000881418
0.00128066
0.00170787
0.00216233
0.00264803
0.00317609
0.00376932
0.00447177
0.00538661
0.00687698
0.00891028
0.0115081
0.0147527
0.000299778
0.000493788
0.000881238
0.00128109
0.00170927
0.00216482
0.00265136
0.00317927
0.0037702
0.00446625
0.00536512
0.00682337
0.00883388
0.0114081
0.0146226
0.000299318
0.000493376
0.000881041
0.00128146
0.00171056
0.00216717
0.0026545
0.0031823
0.00377124
0.00446202
0.00534829
0.00677225
0.00875971
0.0113111
0.0145046
0.000298878
0.000492967
0.00088084
0.0012818
0.00171178
0.00216941
0.00265752
0.00318531
0.00377267
0.00445926
0.00533546
0.00672371
0.00868789
0.0112173
0.014389
0.000298483
0.000492546
0.000880601
0.00128206
0.00171289
0.00217151
0.00266044
0.00318839
0.00377461
0.00445794
0.00532569
0.00667774
0.0086185
0.0111263
0.0142729
0.000298084
0.000492153
0.000880469
0.00128241
0.00171406
0.00217366
0.00266345
0.00319173
0.00377722
0.00445801
0.00531818
0.00663424
0.00855138
0.011037
0.0141569
0.000297901
0.000491659
0.000880115
0.00128257
0.00171516
0.00217588
0.0026667
0.00319556
0.00378071
0.00445938
0.00531228
0.00659355
0.00848731
0.0109529
0.0140625
0.000297281
0.000491401
0.000880157
0.00128258
0.00171553
0.00217698
0.00266867
0.00319819
0.00378326
0.00446022
0.00530618
0.00655306
0.00842375
0.0108676
0.0139361
0.000299253
0.000492021
0.00088344
0.00128979
0.00172605
0.00218997
0.00268337
0.0032138
0.00379874
0.00447354
0.00531156
0.00652953
0.0083758
0.0107962
0.0138576
0.000280353
0.000468078
0.000839413
0.0012345
0.00166613
0.00212985
0.00262552
0.003159
0.00374602
0.00441971
0.00524944
0.00642576
0.00825508
0.0106731
0.0137225
0.00128459
0.00386695
0.00671315
0.00977932
0.0130711
0.0165945
0.0203674
0.0244164
0.0287711
0.033456
0.0384836
0.0438494
0.0495307
0.0554889
0.0616731
9.19201e-08
0.000422936
0.00171572
0.00384039
0.00633021
0.00930355
0.0127711
0.0167374
0.0212016
0.0261552
0.0315788
0.0374396
0.043689
0.0502632
0.0570851
0
0.000212609
0.00109286
0.0025519
0.00437495
0.0066973
0.00956342
0.0130094
0.0170605
0.0217273
0.027001
0.0328507
0.039221
0.0460334
0.0531888
3.39987e-06
0.000196723
0.0010979
0.00217625
0.00363357
0.00554198
0.00796353
0.0109578
0.0145773
0.0188607
0.0238265
0.0294663
0.0357405
0.0425759
0.04987
6.21608e-05
0.000514796
0.00105395
0.00195497
0.00320534
0.00485854
0.00698098
0.00964318
0.0129134
0.0168512
0.0214993
0.0268755
0.0329636
0.039709
0.0470167
0.000347274
0.000614065
0.000983133
0.00177699
0.00288849
0.00436803
0.00627996
0.00869672
0.0116941
0.0153441
0.0197067
0.0248209
0.0306943
0.037293
0.044534
0.00039965
0.000589283
0.000949516
0.00163086
0.00263614
0.00398401
0.00573627
0.00796358
0.0107438
0.0141555
0.0182701
0.0231426
0.0288002
0.0352309
0.0423741
0.000392582
0.00055821
0.000937915
0.00151265
0.00243106
0.00367331
0.00529631
0.00737075
0.00997283
0.0131843
0.0170837
0.021737
0.0271857
0.033431
0.0404042
0.000384417
0.000542182
0.000917782
0.00141548
0.00226237
0.00341728
0.00493293
0.0068786
0.0093306
0.0123707
0.0160818
0.0205377
0.0257922
0.0318662
0.038745
0.000378707
0.000533552
0.000893549
0.00133365
0.00212144
0.00320287
0.00462731
0.00646247
0.00878514
0.0116764
0.0152213
0.0194997
0.024576
0.0304879
0.0372401
0.0003739
0.000527826
0.000874441
0.00127913
0.00200328
0.0030207
0.00436641
0.00610577
0.00831476
0.011075
0.0144722
0.0185906
0.0235026
0.0292576
0.0358669
0.000369807
0.000524968
0.000866547
0.00125792
0.00190522
0.00286421
0.00414083
0.00579597
0.00790414
0.0105479
0.0138126
0.0177854
0.0225444
0.0281458
0.034602
0.000366362
0.000524166
0.000865537
0.00124814
0.00182304
0.00272844
0.00394367
0.00552405
0.00754247
0.0100811
0.0132262
0.0170662
0.0216843
0.0271472
0.0335009
0.000363291
0.000523806
0.000865613
0.00123817
0.00175246
0.00260947
0.00376971
0.00528315
0.00722089
0.00966425
0.0127006
0.0164193
0.0209076
0.0262402
0.0324693
0.000360338
0.000522823
0.000863938
0.00122577
0.00169272
0.0025043
0.00361493
0.00506799
0.0069327
0.00928944
0.0122263
0.0158333
0.0202001
0.0254046
0.0314907
0.000357466
0.000521383
0.000861668
0.00121617
0.00165653
0.00241239
0.00347641
0.0048745
0.00667273
0.00895038
0.0117954
0.0152988
0.0195513
0.0246331
0.030595
0.000354787
0.000520234
0.000861031
0.001213
0.00164168
0.00233314
0.00335197
0.00469949
0.0064368
0.00864178
0.0114018
0.0148089
0.018955
0.0239257
0.0297948
0.00035237
0.000519681
0.000862374
0.00121415
0.00163436
0.00226432
0.00323975
0.00454038
0.00622156
0.0083594
0.0110405
0.0143581
0.018405
0.0232715
0.0290358
0.000350172
0.000519459
0.000864523
0.00121612
0.00162693
0.00220338
0.00313803
0.00439508
0.00602427
0.00809988
0.0107078
0.0139415
0.0178954
0.0226619
0.0283182
0.0003481
0.000519137
0.000866182
0.00121674
0.00161735
0.0021494
0.00304534
0.0042618
0.0058427
0.00786044
0.0104001
0.0135551
0.0174212
0.0220916
0.0276451
0.000346085
0.000518494
0.000866855
0.00121594
0.00160774
0.00210861
0.00296129
0.00413915
0.00567497
0.0076387
0.0101145
0.0131953
0.0169782
0.0215568
0.0270117
0.000344122
0.000517645
0.000867042
0.00121534
0.00160207
0.00208643
0.00288635
0.00402609
0.00551953
0.00743265
0.00984839
0.0128594
0.0165632
0.0210541
0.0264137
0.00034225
0.000516848
0.000867523
0.00121628
0.00160116
0.00207611
0.00281999
0.0039218
0.00537506
0.00724057
0.00959975
0.0125445
0.0161723
0.0205761
0.0258304
0.000340498
0.000516256
0.00086864
0.00121875
0.00160307
0.0020697
0.00276068
0.00382539
0.00524044
0.00706102
0.00936677
0.0122489
0.0158052
0.0201331
0.025336
0.000338862
0.000515838
0.000870196
0.00122193
0.00160556
0.00206306
0.00270688
0.00373601
0.00511469
0.00689274
0.00914793
0.0119707
0.0154586
0.0197089
0.0248014
0.000337316
0.000515459
0.00087175
0.00122487
0.00160716
0.00205492
0.00265808
0.00365286
0.00499695
0.00673466
0.00894187
0.0117081
0.0151304
0.0193062
0.0243199
0.000335825
0.000514988
0.000872926
0.00122702
0.00160751
0.00204608
0.00261717
0.00357565
0.00488646
0.00658582
0.00874738
0.0114596
0.0148189
0.0189227
0.0238569
0.000334369
0.000514379
0.000873622
0.00122842
0.00160735
0.00203907
0.00258939
0.00350479
0.00478267
0.00644539
0.00856345
0.0112243
0.0145241
0.0185637
0.0234503
0.000332947
0.00051368
0.000874021
0.00122961
0.00160786
0.00203573
0.00257399
0.00344053
0.00468517
0.00631268
0.00838924
0.0110011
0.0142446
0.0182226
0.0230395
0.000331572
0.000512982
0.000874413
0.0012311
0.00160969
0.00203583
0.00256559
0.00338235
0.00459358
0.00618711
0.00822404
0.0107893
0.0139796
0.0178992
0.0226558
0.000330256
0.000512358
0.000874999
0.00123312
0.00161274
0.00203796
0.0025596
0.00332922
0.00450745
0.00606817
0.00806721
0.010588
0.0137267
0.0175856
0.0222564
0.000329003
0.000511824
0.000875805
0.00123558
0.00161644
0.00204064
0.00255357
0.00328019
0.00442632
0.00595537
0.0079181
0.0103963
0.0134856
0.0172894
0.0219177
0.000327808
0.000511349
0.00087672
0.00123817
0.00162016
0.00204287
0.00254655
0.00323483
0.00434974
0.00584827
0.00777616
0.0102135
0.0132554
0.0170046
0.0215624
0.000326658
0.00051088
0.00087758
0.00124058
0.00162341
0.00204418
0.00253866
0.00319418
0.00427747
0.00574645
0.00764085
0.0100389
0.0130346
0.0167296
0.021222
0.000325541
0.000510373
0.000878252
0.00124259
0.00162599
0.00204472
0.00253107
0.00316144
0.00420962
0.00564957
0.00751171
0.00987196
0.0128238
0.0164705
0.0209276
0.000324449
0.000509809
0.000878686
0.00124417
0.00162805
0.00204513
0.00252546
0.00313905
0.00414661
0.00555738
0.00738832
0.00971211
0.0126211
0.0162169
0.0205955
0.000323378
0.000509198
0.000878925
0.00124546
0.00162996
0.00204616
0.00252277
0.00312551
0.00408858
0.00546971
0.00727031
0.00955895
0.0124271
0.0159787
0.0203377
0.000322333
0.000508572
0.000879074
0.00124669
0.00163209
0.00204824
0.0025228
0.00311732
0.00403517
0.00538635
0.00715739
0.00941227
0.0122419
0.0157531
0.0200732
0.000321317
0.000507964
0.00087924
0.00124803
0.00163463
0.00205137
0.00252466
0.00311145
0.00398577
0.00530707
0.00704933
0.00927174
0.0120644
0.0155335
0.0197929
0.000320335
0.000507395
0.000879489
0.00124956
0.0016376
0.00205521
0.00252734
0.00310607
0.0039397
0.00523163
0.00694588
0.00913702
0.0118941
0.0153239
0.0195504
0.000319388
0.00050687
0.000879829
0.00125126
0.00164084
0.00205936
0.00253008
0.00310025
0.00389652
0.00515975
0.00684681
0.00900784
0.0117309
0.0151237
0.0193111
0.000318474
0.000506378
0.000880223
0.00125303
0.00164413
0.00206343
0.00253236
0.00309372
0.00385627
0.00509123
0.00675188
0.00888382
0.0115736
0.0149268
0.0190516
0.000317589
0.0005059
0.000880613
0.00125476
0.00164727
0.00206713
0.00253397
0.00308667
0.00381996
0.00502597
0.00666085
0.00876458
0.011422
0.0147377
0.018829
0.000316728
0.000505418
0.000880938
0.00125632
0.00165011
0.00207034
0.00253502
0.00307989
0.0037897
0.00496409
0.00657351
0.00864983
0.0112758
0.0145554
0.0186044
0.000315885
0.000504917
0.00088116
0.00125767
0.0016526
0.00207312
0.00253589
0.00307446
0.00376723
0.00490587
0.0064897
0.00853927
0.0111344
0.0143768
0.0183725
0.00031506
0.000504395
0.000881269
0.00125881
0.00165479
0.00207567
0.00253709
0.00307119
0.00375221
0.00485149
0.0064093
0.00843263
0.0109974
0.0142032
0.0181534
0.000314249
0.000503856
0.000881283
0.00125978
0.00165681
0.00207825
0.002539
0.00307024
0.00374265
0.00480087
0.00633214
0.0083295
0.010864
0.0140313
0.0179249
0.000313454
0.000503312
0.000881244
0.00126066
0.00165881
0.00208108
0.00254179
0.00307124
0.00373629
0.00475366
0.00625808
0.0082298
0.0107349
0.0138691
0.0177463
0.000312678
0.000502775
0.000881194
0.00126155
0.00166091
0.00208427
0.0025454
0.00307355
0.00373142
0.00470942
0.00618693
0.00813321
0.010609
0.0137055
0.0175105
0.000311921
0.000502257
0.000881169
0.00126249
0.00166316
0.0020878
0.00254961
0.00307655
0.00372694
0.00466768
0.0061185
0.00803966
0.0104872
0.013554
0.0173711
0.000311186
0.000501762
0.000881186
0.00126352
0.00166557
0.0020916
0.00255415
0.00307972
0.00372224
0.00462814
0.00605263
0.00794922
0.0103702
0.0134116
0.0172094
0.000310471
0.000501291
0.000881246
0.00126461
0.00166808
0.00209552
0.00255876
0.00308268
0.00371705
0.00459069
0.00598924
0.00786196
0.0102575
0.0132705