/*--------------------------------*- C++ -*----------------------------------*\
| =========                 |                                                 |
| \\      /  F ield         | OpenFOAM: The Open Source CFD Toolbox           |
|  \\    /   O peration     | Version:  2.3.0                                 |
|   \\  /    A nd           | Web:      www.OpenFOAM.org                      |
|    \\/     M anipulation  |                                                 |
\*---------------------------------------------------------------------------*/
FoamFile
{
    version     2.0;
    format      ascii;
    class       volScalarField;
    location    "400";
    object      nuTilda;
}
// * * * * * * * * * * * * * * * * * * * * * * * * * * * * * * * * * * * * * //

dimensions      [0 2 -1 0 0 0 0];

internalField   nonuniform List<scalar> 
7994
(
0.0670379
0.061977
0.057238
0.0528796
0.0489554
0.0455087
0.0425652
0.0401249
0.0381516
0.0365699
0.0352722
0.0341341
0.0330297
0.0318421
0.0304715
0.072961
0.0693848
0.0661877
0.0634011
0.0610352
0.0590803
0.05751
0.0562853
0.0553597
0.0546848
0.0542137
0.0539045
0.0537215
0.0536356
0.0536244
0.0782761
0.0757227
0.0735152
0.0716437
0.0700881
0.0688198
0.0678051
0.0670087
0.0663962
0.0659363
0.0656015
0.0653685
0.0652182
0.0651349
0.0651063
0.0828064
0.0809557
0.0793806
0.0780586
0.0769642
0.0760698
0.0753481
0.0747733
0.0743223
0.0739752
0.0737147
0.0735269
0.0734003
0.0733255
0.073295
0.0866035
0.085229
0.0840623
0.0830823
0.0822665
0.0815931
0.0810421
0.0805957
0.0802385
0.0799573
0.0797412
0.0795814
0.0794704
0.0794023
0.0793724
0.0897846
0.0887263
0.0878306
0.0870736
0.0864369
0.0859043
0.0854618
0.085097
0.0847998
0.0845614
0.0843747
0.0842338
0.084134
0.0840713
0.0840426
0.0924246
0.0916034
0.0908982
0.090294
0.0897787
0.0893412
0.088972
0.0886628
0.0884067
0.088198
0.0880321
0.0879049
0.0878135
0.0877551
0.0877275
0.0946468
0.0939985
0.0934275
0.0929306
0.0925006
0.0921301
0.0918128
0.0915433
0.0913169
0.0911299
0.0909793
0.0908626
0.0907776
0.0907226
0.0906963
0.09656
0.0960151
0.0955368
0.0951167
0.0947486
0.0944271
0.094148
0.0939078
0.0937037
0.0935332
0.0933944
0.0932858
0.0932059
0.0931538
0.0931285
0.0981747
0.0977166
0.0973099
0.0969483
0.096627
0.0963425
0.0960923
0.0958746
0.0956875
0.0955299
0.0954005
0.0952984
0.0952228
0.095173
0.0951486
0.0995519
0.0991633
0.0988134
0.0984974
0.0982125
0.0979567
0.0977288
0.0975285
0.097355
0.0972076
0.0970859
0.0969892
0.096917
0.0968693
0.0968456
0.100733
0.100403
0.100099
0.099819
0.0995632
0.0993298
0.0991192
0.0989326
0.0987698
0.0986309
0.0985159
0.0984238
0.0983541
0.0983081
0.0982853
0.101757
0.101475
0.101206
0.100955
0.100723
0.100507
0.10031
0.100135
0.0999798
0.0998476
0.0997389
0.0996519
0.0995826
0.0995385
0.0995165
0.102651
0.102412
0.102167
0.101939
0.101727
0.101523
0.101336
0.101173
0.101023
0.100895
0.100792
0.100714
0.100639
0.100598
0.100576
0.030485
0.0318786
0.0330681
0.0341675
0.0352988
0.0365912
0.0381711
0.0401464
0.0425915
0.0455412
0.0489944
0.0529246
0.0572887
0.0620333
0.0670995
0.0536234
0.053633
0.0537177
0.0539002
0.0542096
0.054682
0.0553595
0.0562888
0.0575184
0.0590946
0.061056
0.0634291
0.0662232
0.0694282
0.073013
0.0651066
0.0651359
0.06522
0.0653714
0.0656056
0.0659419
0.0664038
0.0670186
0.0678179
0.068836
0.0701083
0.0716685
0.0735455
0.0757595
0.0783202
0.0732954
0.0733268
0.0734027
0.0735304
0.0737194
0.0739813
0.07433
0.0747828
0.0753597
0.0760841
0.0769816
0.0780799
0.0794066
0.0809876
0.0828455
0.0793728
0.0794036
0.0794725
0.0795844
0.0797453
0.0799625
0.080245
0.0806037
0.0810519
0.081605
0.0822811
0.0831003
0.0840847
0.0852571
0.0866387
0.0840429
0.0840723
0.0841356
0.0842362
0.0843778
0.0845654
0.0848049
0.0851033
0.0854695
0.0859139
0.0864488
0.0870887
0.0878498
0.0887512
0.0898168
0.0877277
0.0877557
0.0878145
0.0879065
0.0880342
0.0882008
0.0884102
0.0886672
0.0889776
0.0893484
0.089788
0.0903062
0.0909143
0.0916254
0.0924556
0.0906963
0.0907229
0.0907781
0.0908633
0.0909804
0.0911314
0.0913189
0.091546
0.0918164
0.092135
0.0925073
0.0929398
0.0934404
0.0940164
0.0946715
0.0931284
0.0931537
0.0932058
0.0932857
0.0933944
0.0935334
0.0937042
0.0939088
0.0941497
0.0944297
0.0947527
0.0951232
0.0955467
0.0960299
0.0965812
0.0951484
0.0951726
0.095222
0.0952974
0.0953995
0.095529
0.0956868
0.095874
0.0960921
0.0963429
0.0966285
0.096952
0.0973171
0.0977286
0.0981925
0.0968454
0.0968685
0.0969157
0.0969873
0.0970839
0.0972057
0.0973532
0.0975267
0.0977269
0.0979548
0.0982114
0.0984983
0.0988178
0.0991732
0.0995698
0.0982852
0.0983073
0.0983522
0.0984205
0.0985127
0.0986283
0.0987674
0.0989299
0.0991157
0.0993254
0.099559
0.0998168
0.1001
0.10041
0.100749
0.0995169
0.0995381
0.0995803
0.0996456
0.0997345
0.099845
0.0999776
0.100131
0.100305
0.1005
0.100715
0.100949
0.101204
0.101478
0.101769
0.100578
0.100599
0.100637
0.100698
0.100786
0.100892
0.101021
0.101166
0.101329
0.101516
0.101715
0.101929
0.102162
0.10241
0.102662
0.0137199
0.0108385
0.00853428
0.00675439
0.00557506
0.00473176
0.0040645
0.00349507
0.00298457
0.00251319
0.00207162
0.00165744
0.00127279
0.000919531
0.000660809
0.0137843
0.0111041
0.00893923
0.00725293
0.00604722
0.00516325
0.00447626
0.0039045
0.00340052
0.00293796
0.00250298
0.00208975
0.00169669
0.00132366
0.00101925
0.0138739
0.0113955
0.00936483
0.00777236
0.0065503
0.00561955
0.00489347
0.0042984
0.00378285
0.00331455
0.00287483
0.00245405
0.00204664
0.00164906
0.00131528
0.0139817
0.0116879
0.00978114
0.00826592
0.00704478
0.00607511
0.00530312
0.00467107
0.0041301
0.00364484
0.00319238
0.00275911
0.00233538
0.00191439
0.00155628
0.0140959
0.0119698
0.01018
0.00872467
0.00751382
0.00651669
0.00570092
0.00502588
0.00445042
0.00393979
0.00346845
0.00301915
0.00257826
0.00213561
0.00175531
0.0142256
0.0122391
0.0105566
0.00914988
0.00795201
0.00693661
0.00608297
0.00536452
0.00474989
0.00420811
0.00371314
0.00324503
0.0027864
0.00232353
0.00192256
0.0143302
0.0124902
0.0109056
0.00954313
0.00835875
0.00733107
0.00644589
0.00568673
0.00503166
0.0044554
0.00393341
0.00344429
0.00296746
0.0024855
0.0020652
0.0144615
0.0127267
0.0112257
0.00990527
0.00873487
0.00769878
0.00678749
0.00599154
0.00529703
0.00468499
0.00413392
0.00362223
0.00312683
0.00262667
0.00218833
0.014539
0.0129415
0.011518
0.0102376
0.00908157
0.00803977
0.00710673
0.00627806
0.00554636
0.00489879
0.00431772
0.0037825
0.00326835
0.00275078
0.00229558
0.0146471
0.0131387
0.0117838
0.0105416
0.00940031
0.00835486
0.00740353
0.00654597
0.00577991
0.00509802
0.00448697
0.00392788
0.00339498
0.00286072
0.00238972
0.0147199
0.0133174
0.0120253
0.010819
0.00969252
0.00864506
0.00767826
0.00679515
0.00599766
0.00528331
0.00464295
0.00406006
0.00350867
0.00295852
0.0024728
0.0148166
0.0134827
0.0122449
0.0110717
0.00995994
0.00891194
0.00793242
0.00702707
0.00620111
0.00545634
0.00478804
0.00418196
0.00361209
0.00304629
0.00254662
0.0148834
0.0136332
0.0124441
0.0113012
0.0102027
0.00915316
0.00815996
0.00723415
0.00638343
0.00561154
0.00491541
0.00428751
0.00370281
0.00312454
0.00261208
0.0149775
0.0137986
0.0126465
0.0115256
0.0104538
0.00942584
0.00844103
0.00748553
0.00659548
0.005789
0.00507713
0.00441879
0.00379833
0.003196
0.0026728
0.000662084
0.000917276
0.0012668
0.00164641
0.00205342
0.00248546
0.002945
0.00344188
0.00399774
0.00465705
0.0055117
0.00674075
0.00854716
0.0108724
0.0137742
0.00101979
0.00131786
0.00168398
0.00206967
0.00247411
0.00289861
0.0033495
0.00384217
0.00440641
0.0050958
0.00599794
0.00723269
0.00895741
0.011141
0.0138304
0.00131518
0.00163993
0.00202779
0.00242577
0.00283653
0.0032656
0.00372371
0.00423191
0.0048261
0.00556131
0.00651091
0.00775648
0.00938711
0.0114342
0.0139237
0.00155563
0.00190223
0.00231111
0.00272382
0.00314648
0.00358904
0.00406666
0.00460478
0.00524133
0.00602608
0.00701473
0.00825909
0.0098069
0.0117292
0.0140347
0.00175422
0.00212076
0.00254931
0.00297808
0.00341683
0.00387977
0.00438584
0.00496263
0.00564608
0.00647671
0.00749298
0.00872564
0.0102045
0.0120119
0.0141416
0.0019211
0.00230633
0.00275349
0.00319935
0.00365752
0.00414608
0.00468644
0.00530594
0.00603557
0.00690522
0.00793905
0.00915482
0.0105759
0.0122828
0.0142884
0.00206346
0.00246627
0.00293125
0.00339508
0.00387527
0.00439302
0.00497082
0.00563362
0.00640582
0.00730726
0.00835156
0.00954951
0.0109219
0.0125376
0.0144011
0.00218635
0.00260571
0.00308791
0.0035704
0.00407442
0.00462348
0.00523967
0.00594413
0.0067542
0.00768123
0.0087317
0.00991272
0.0112427
0.0127762
0.0145316
0.00229345
0.00272837
0.00322724
0.00372881
0.00425776
0.00483895
0.00549293
0.0062362
0.0070794
0.0080272
0.00908143
0.0102469
0.0115389
0.0129978
0.0146392
0.00238742
0.00283702
0.00335207
0.00387292
0.0044272
0.00504035
0.0057305
0.00650923
0.00738131
0.00834633
0.00940298
0.010554
0.0118107
0.0132007
0.0147358
0.00247058
0.00293395
0.00346454
0.00400448
0.00458396
0.00522821
0.00595236
0.00676321
0.00766048
0.00864004
0.00969821
0.0108355
0.0120585
0.0133837
0.0148168
0.00254358
0.00302008
0.0035661
0.00412512
0.00472933
0.00540318
0.00615864
0.00699812
0.00791761
0.00890978
0.00996882
0.0110928
0.0122838
0.0135514
0.0149087
0.00261255
0.00310126
0.0036599
0.00423564
0.00486256
0.00556454
0.0063499
0.00721797
0.00815704
0.00915883
0.0102179
0.0113281
0.0124892
0.0137049
0.014984
0.00265392
0.00315367
0.00373478
0.00433604
0.00499339
0.00572208
0.00653388
0.00739877
0.00834505
0.00936886
0.0104197
0.0115296
0.0126596
0.0138216
0.0150056
0.00128826
0.00387673
0.00673001
0.00980292
0.013098
0.0166213
0.0203898
0.0244298
0.0287715
0.0334413
0.0384535
0.0438054
0.0494755
0.0554255
0.0616051
1.89361e-05
0.000431744
0.0017224
0.00385009
0.0063415
0.0093146
0.0127796
0.0167403
0.0211956
0.0261372
0.031547
0.0373935
0.0436299
0.0501937
0.0570073
0
0.00023348
0.00108704
0.00254528
0.00436752
0.00668778
0.00955083
0.0129923
0.0170373
0.0216958
0.0269592
0.0327975
0.0391565
0.045959
0.0531081
4.48373e-05
0.000209609
0.00109268
0.00216531
0.00361993
0.00552518
0.00794271
0.010932
0.0145454
0.0188213
0.0237781
0.029408
0.0356717
0.0424977
0.0497846
0.000116277
0.000519068
0.00105229
0.00194839
0.00319393
0.00484254
0.00696018
0.00961675
0.0128803
0.0168103
0.0214495
0.0268157
0.0328935
0.0396292
0.0469291
0.000356659
0.000623201
0.00098431
0.00177415
0.00288128
0.00435527
0.00626125
0.00867179
0.0116622
0.015304
0.0196575
0.0247617
0.0306245
0.0372133
0.0444464
0.000405591
0.00060247
0.000970243
0.0016317
0.00263204
0.00397475
0.00572027
0.00794056
0.0107134
0.0141168
0.0182222
0.0230846
0.0287317
0.0351522
0.0422867
0.000398796
0.000570376
0.000958825
0.00151583
0.00242922
0.00366682
0.0052837
0.00735018
0.00994432
0.0131474
0.0170375
0.0216808
0.0271191
0.0333544
0.0403204
0.000390792
0.000552007
0.00093393
0.00141935
0.00226208
0.00341285
0.00492291
0.0068609
0.00930431
0.0123357
0.0160375
0.0204835
0.0257277
0.0317917
0.0386619
0.000385126
0.00054176
0.000906575
0.00134159
0.0021225
0.00320005
0.00461942
0.00644765
0.00876134
0.0116435
0.015179
0.0194476
0.0245135
0.0304148
0.037156
0.000380606
0.00053615
0.000889682
0.00130154
0.00200681
0.00301936
0.00436031
0.00609326
0.00829364
0.0110443
0.0144319
0.0185402
0.0234417
0.0291855
0.0357819
0.000376884
0.000533751
0.000883519
0.00128432
0.00191087
0.00286422
0.0041363
0.0057855
0.00788576
0.0105195
0.0137743
0.0177369
0.022485
0.0280745
0.0345167
0.000373688
0.000532735
0.000881663
0.00127178
0.00182975
0.00272961
0.00394051
0.00551534
0.00752631
0.0100552
0.0131898
0.0170193
0.0216262
0.0270765
0.0334152
0.000370723
0.000531579
0.000879401
0.00125768
0.00176004
0.00261148
0.00376771
0.00527596
0.00720666
0.00964077
0.0126663
0.016374
0.0208506
0.0261702
0.0323842
0.000367858
0.000529923
0.000876189
0.00124465
0.00171039
0.00250806
0.00361404
0.00506214
0.0069202
0.00926817
0.012194
0.0157895
0.0201443
0.0253356
0.0314069
0.00036516
0.000528378
0.000874173
0.00123787
0.00168646
0.00241889
0.00347669
0.00486986
0.00666173
0.00893097
0.0117651
0.0152566
0.0194967
0.0245645
0.0305084
0.000362714
0.000527411
0.000874291
0.00123661
0.00167483
0.0023419
0.00335343
0.00469597
0.00642715
0.008624
0.0113734
0.0147682
0.0189013
0.0238573
0.0297079
0.000360503
0.000526886
0.000875651
0.00123726
0.00166522
0.00227429
0.00324223
0.00453788
0.00621311
0.00834311
0.0110141
0.0143189
0.0183523
0.0232039
0.0289516
0.000358445
0.000526386
0.000876872
0.00123713
0.00165406
0.00221453
0.00314132
0.00439347
0.00601692
0.00808494
0.0106829
0.0139039
0.0178442
0.0225966
0.0282411
0.000356463
0.000525631
0.000877243
0.00123565
0.00164269
0.00216773
0.00304999
0.00426105
0.00583632
0.00784667
0.0103766
0.013519
0.0173707
0.0220254
0.0275587
0.000354542
0.000524676
0.00087711
0.00123428
0.00163509
0.00214021
0.00296856
0.00413936
0.0056695
0.00762602
0.0100923
0.0131613
0.0169316
0.0215047
0.0269969
0.000352711
0.000523756
0.00087722
0.00123439
0.0016324
0.00212607
0.00289649
0.0040274
0.00551494
0.00742103
0.00982773
0.0128277
0.0165199
0.0210032
0.0263479
0.000350996
0.000523029
0.000877948
0.00123608
0.00163284
0.00211687
0.00283222
0.00392418
0.00537136
0.00723004
0.0095807
0.0125155
0.0161337
0.0205359
0.0258221
0.000349396
0.000522476
0.000879124
0.00123853
0.00163406
0.002108
0.00277414
0.00382874
0.00523764
0.00705164
0.00934945
0.0122227
0.0157711
0.0200978
0.025307
0.000347885
0.000521968
0.000880318
0.00124081
0.00163456
0.00209797
0.0027219
0.00374023
0.00511279
0.00688457
0.00913245
0.0119475
0.0154294
0.0196819
0.024801
0.000346432
0.000521382
0.000881165
0.00124238
0.00163398
0.00208773
0.00267893
0.00365838
0.004996
0.00672777
0.00892836
0.011688
0.0151062
0.0192851
0.0243138
0.000345018
0.000520678
0.000881585
0.00124332
0.00163314
0.00207982
0.00264993
0.00358358
0.00488662
0.00658028
0.00873591
0.0114426
0.0147989
0.0189046
0.0238447
0.000343644
0.000519906
0.000881774
0.00124415
0.00163316
0.00207577
0.00263307
0.00351589
0.00478418
0.00644127
0.008554
0.0112101
0.0145072
0.0185471
0.0234344
0.000342319
0.000519155
0.000882004
0.00124537
0.00163456
0.00207506
0.00262275
0.00345461
0.00468817
0.00631002
0.00838172
0.0109893
0.0142301
0.0182066
0.023021
0.000341055
0.000518482
0.000882441
0.00124713
0.00163711
0.00207617
0.00261464
0.00339864
0.00459805
0.00618589
0.00821831
0.0107797
0.0139669
0.0178837
0.0226359
0.000339852
0.000517893
0.000883076
0.00124926
0.0016402
0.00207769
0.00260647
0.00334707
0.00451329
0.00606833
0.00806307
0.01058
0.0137152
0.0175702
0.0222346
0.000338703
0.000517351
0.000883783
0.00125145
0.00164321
0.0020787
0.00259752
0.00329984
0.00443342
0.0059568
0.00791536
0.0103897
0.0134751
0.017274
0.0218946
0.000337596
0.000516806
0.000884401
0.0012534
0.0016457
0.00207888
0.00258821
0.00325887
0.00435826
0.00585087
0.00777464
0.0102081
0.0132455
0.0169889
0.0215359
0.00033652
0.000516222
0.000884823
0.00125496
0.00164762
0.00207859
0.00258003
0.00322752
0.00428808
0.00575018
0.00764039
0.0100343
0.0130252
0.0167132
0.0211935
0.00033547
0.000515588
0.000885032
0.00125617
0.00164919
0.00207856
0.00257445
0.00320658
0.00422317
0.00565448
0.00751215
0.00986806
0.0128144
0.0164529
0.0208944
0.000334443
0.000514925
0.000885099
0.0012572
0.0016508
0.00207942
0.00257187
0.00319331
0.00416343
0.00556353
0.00738954
0.00970869
0.0126117
0.0161982
0.0205609
0.000333445
0.000514265
0.000885129
0.00125825
0.00165275
0.00208138
0.00257171
0.00318419
0.00410831
0.00547709
0.0072722
0.00955584
0.0124173
0.0159581
0.0202957
0.000332478
0.000513634
0.000885212
0.00125946
0.00165515
0.00208426
0.00257295
0.00317665
0.00405712
0.00539486
0.00715986
0.00940928
0.0122315
0.01573
0.0200259
0.000331546
0.000513046
0.000885385
0.00126087
0.00165789
0.00208768
0.00257467
0.00316923
0.00400926
0.00531656
0.00705226
0.00926872
0.0120531
0.0155089
0.0197475
0.000330647
0.000512497
0.00088563
0.00126238
0.0016608
0.0020912
0.00257619
0.00316133
0.00396456
0.00524193
0.00694915
0.00913384
0.0118819
0.0152974
0.0195
0.000329778
0.00051197
0.000885897
0.00126391
0.00166365
0.00209448
0.00257716
0.00315292
0.00392367
0.00517081
0.00685032
0.00900441
0.0117178
0.0150956
0.0192592
0.000328935
0.000511447
0.000886125
0.00126532
0.00166625
0.00209733
0.00257755
0.00314458
0.00388843
0.00510327
0.00675555
0.00888006
0.0115597
0.0148973
0.0189983
0.000328112
0.000510914
0.000886267
0.00126654
0.00166853
0.00209974
0.00257768
0.00313736
0.00386086
0.00503955
0.00666469
0.00876045
0.0114072
0.0147069
0.0187746
0.000327306
0.000510361
0.000886301
0.00126755
0.0016705
0.00210187
0.00257801
0.00313217
0.00384124
0.00497988
0.00657759
0.00864534
0.0112602
0.0145236
0.01855
0.000326516
0.000509792
0.000886238
0.00126838
0.00167228
0.00210399
0.00257899
0.00312936
0.00382786
0.00492427
0.00649412
0.00853443
0.011118
0.0143444
0.0183188
0.000325742
0.000509215
0.000886111
0.00126911
0.001674
0.0021063
0.00258084
0.00312866
0.00381845
0.00487241
0.00641415
0.00842749
0.0109805
0.0141705
0.0181013
0.000324986
0.000508643
0.000885962
0.00126982
0.00167578
0.00210895
0.00258355
0.00312947
0.00381106
0.00482387
0.00633746
0.00832416
0.0108468
0.0139987
0.0178735
0.000324248
0.000508087
0.000885831
0.00127057
0.00167772
0.00211196
0.0025869
0.00313113
0.00380443
0.00477818
0.00626385
0.00822428
0.0107173
0.0138357
0.0176914
0.000323531
0.000507553
0.000885737
0.0012714
0.0016798
0.00211524
0.00259065
0.0031331
0.00379782
0.004735
0.0061931
0.00812766
0.0105916
0.0136747
0.0174718
0.000322834
0.000507043
0.000885683
0.00127229
0.00168199
0.00211867
0.00259452
0.00313496
0.00379088
0.00469422
0.00612503
0.00803408
0.0104692
0.0135178
0.017278
0.000322156
0.000506551
0.000885656
0.00127322
0.00168422
0.00212212
0.00259827
0.00313647
0.00378356
0.0046562
0.00605951
0.00794341
0.0103506
0.0133678
0.0171045
0.000321497
0.000506073
0.000885637
0.00127414
0.00168641
0.00212543
0.00260176
0.00313754
0.00377612
0.00462191
0.00599654
0.00785565
0.0102359
0.0132227
0.0169203
0.000320854
0.0005056
0.000885601
0.00127501
0.00168848
0.00212854
0.00260492
0.00313829
0.00376911
0.00459275
0.00593622
0.00777054
0.0101237
0.0130766
0.0167149
0.000320225
0.000505126
0.000885528
0.00127578
0.00169038
0.00213138
0.00260777
0.00313894
0.00376321
0.00456968
0.00587877
0.00768814
0.0100154
0.0129413
0.0165839
0.000319609
0.000504649
0.000885408
0.00127645
0.0016921
0.002134
0.00261044
0.00313982
0.00375895
0.00455251
0.00582431
0.00760833
0.00990967
0.0128035
0.0163709
0.000319005
0.000504166
0.000885239
0.00127701
0.00169365
0.00213644
0.00261309
0.0031412
0.00375652
0.00454007
0.00577284
0.00753105
0.0098068
0.012671
0.0162179
0.000318411
0.000503681
0.000885029
0.00127748
0.0016951
0.00213881
0.00261586
0.00314323
0.00375578
0.00453089
0.0057242
0.00745617
0.00970624
0.0125389
0.0160313
0.00031783
0.000503195
0.000884792
0.0012779
0.00169648
0.00214119
0.00261886
0.00314595
0.00375636
0.00452364
0.0056781
0.00738355
0.00960787
0.0124095
0.015869
0.00031726
0.000502715
0.000884546
0.00127829
0.00169786
0.00214364
0.00262213
0.00314926
0.00375785
0.00451735
0.00563423
0.00731307
0.00951186
0.0122846
0.0157188
0.000316704
0.000502244
0.000884306
0.0012787
0.00169927
0.00214621
0.00262567
0.00315303
0.00375984
0.00451136
0.00559232
0.00724469
0.00941841
0.012164
0.0155721
0.000316163
0.000501786
0.000884081
0.00127912
0.00170074
0.00214889
0.00262941
0.00315706
0.00376199
0.00450527
0.0055522
0.00717835
0.00932754
0.0120466
0.0154234
0.000315635
0.00050134
0.000883877
0.00127958
0.00170225
0.00215166
0.00263328
0.00316119
0.00376406
0.00449888
0.00551382
0.007114
0.00923907
0.0119318
0.0152778
0.000315124
0.000500908
0.000883691
0.00128006
0.0017038
0.00215447
0.00263717
0.00316526
0.00376587
0.00449215
0.00547742
0.00705163
0.00915317
0.0118215
0.0151496
0.000314627
0.000500486
0.000883519
0.00128055
0.00170535
0.00215726
0.00264101
0.00316917
0.00376735
0.00448519
0.00544351
0.00699127
0.00906981
0.0117145
0.0150153
0.000314147
0.000500074
0.000883352
0.00128104
0.00170688
0.00216
0.00264471
0.00317283
0.00376849
0.00447828
0.00541295
0.00693301
0.00898888
0.01161
0.0148826
0.000313683
0.000499666
0.000883183
0.0012815
0.00170835
0.00216263
0.00264823
0.00317623
0.00376942
0.00447184
0.00538665
0.00687701
0.00891029
0.0115081
0.0147527
0.000313237
0.000499262
0.000883004
0.00128192
0.00170974
0.00216512
0.00265155
0.00317941
0.00377029
0.00446632
0.00536516
0.0068234
0.0088339
0.0114081
0.0146226
0.000312811
0.00049886
0.000882808
0.0012823
0.00171103
0.00216747
0.00265469
0.00318244
0.00377134
0.00446208
0.00534834
0.00677228
0.00875973
0.0113111
0.0145046
0.000312403
0.000498459
0.000882608
0.00128263
0.00171225
0.0021697
0.00265771
0.00318545
0.00377277
0.00445933
0.00533551
0.00672374
0.00868791
0.0112173
0.014389
0.000312039
0.000498047
0.00088237
0.00128289
0.00171336
0.0021718
0.00266064
0.00318853
0.00377471
0.00445801
0.00532574
0.00667777
0.00861852
0.0111263
0.0142729
0.000311669
0.000497662
0.000882238
0.00128324
0.00171453
0.00217396
0.00266365
0.00319187
0.00377732
0.00445808
0.00531822
0.00663427
0.00855139
0.011037
0.0141569
0.0003115
0.000497178
0.000881886
0.00128341
0.00171563
0.00217617
0.00266689
0.0031957
0.0037808
0.00445945
0.00531233
0.00659358
0.00848733
0.010953
0.0140625
0.000310928
0.000496927
0.000881927
0.00128341
0.001716
0.00217727
0.00266887
0.00319832
0.00378336
0.00446029
0.00530623
0.00655309
0.00842377
0.0108676
0.0139361
0.000312751
0.000497533
0.000885197
0.00129062
0.00172651
0.00219026
0.00268356
0.00321393
0.00379884
0.00447361
0.00531161
0.00652956
0.00837582
0.0107962
0.0138576
0.000295365
0.000474138
0.000841358
0.0012354
0.00166663
0.00213015
0.00262572
0.00315914
0.00374612
0.00441978
0.00524949
0.00642579
0.00825511
0.0106731
0.0137225
0.00128543
0.00386704
0.00671318
0.00977934
0.0130711
0.0165945
0.0203674
0.0244164
0.0287711
0.033456
0.0384836
0.0438494
0.0495307
0.0554889
0.0616731
1.88945e-05
0.000430263
0.00171619
0.00384048
0.00633024
0.00930356
0.0127711
0.0167374
0.0212016
0.0261552
0.0315788
0.0374396
0.043689
0.0502632
0.0570851
0
0.000235165
0.00109402
0.00255211
0.00437502
0.00669733
0.00956344
0.0130094
0.0170605
0.0217273
0.027001
0.0328507
0.039221
0.0460334
0.0531889
4.74128e-05
0.000221649
0.00109904
0.00217654
0.00363368
0.00554202
0.00796355
0.0109578
0.0145773
0.0188607
0.0238265
0.0294663
0.0357405
0.0425759
0.04987
0.00011646
0.000519852
0.00105518
0.00195533
0.00320547
0.00485859
0.00698101
0.00964319
0.0129134
0.0168512
0.0214993
0.0268755
0.0329636
0.039709
0.0470167
0.00035774
0.000617661
0.000984554
0.00177743
0.00288865
0.00436811
0.00627999
0.00869674
0.0116941
0.0153441
0.0197067
0.0248209
0.0306943
0.037293
0.044534
0.000407783
0.000593178
0.000951039
0.00163137
0.00263634
0.0039841
0.00573632
0.0079636
0.0107438
0.0141555
0.0182701
0.0231426
0.0288002
0.0352309
0.0423741
0.000400983
0.000562537
0.000939475
0.00151326
0.00243129
0.00367341
0.00529636
0.00737077
0.00997284
0.0131843
0.0170837
0.021737
0.0271857
0.033431
0.0404042
0.000393146
0.000546759
0.000919411
0.00141617
0.00226264
0.0034174
0.00493299
0.00687863
0.00933061
0.0123707
0.0160818
0.0205377
0.0257922
0.0318662
0.038745
0.000387675
0.000538272
0.000895267
0.00133443
0.00212175
0.003203
0.00462737
0.0064625
0.00878516
0.0116764
0.0152213
0.0194997
0.024576
0.0304879
0.0372401
0.000383078
0.000532645
0.000876234
0.00127997
0.00200362
0.00302085
0.00436648
0.00610581
0.00831478
0.0110751
0.0144722
0.0185906
0.0235026
0.0292576
0.0358669
0.000379167
0.000529838
0.000868373
0.00125879
0.0019056
0.00286437
0.00414091
0.00579601
0.00790416
0.0105479
0.0138126
0.0177854
0.0225444
0.0281458
0.034602
0.000375881
0.000529051
0.000867368
0.00124902
0.00182346
0.00272862
0.00394376
0.00552409
0.00754249
0.0100811
0.0132262
0.0170662
0.0216843
0.0271472
0.0335009
0.000372954
0.000528697
0.000867442
0.00123907
0.0017529
0.00260967
0.00376981
0.0052832
0.00722092
0.00966427
0.0127006
0.0164193
0.0209076
0.0262402
0.0324693
0.000370142
0.000527731
0.000865775
0.00122668
0.0016932
0.00250452
0.00361504
0.00506805
0.00693273
0.00928945
0.0122263
0.0158333
0.0202001
0.0254046
0.0314907
0.000367411
0.000526318
0.000863514
0.0012171
0.00165703
0.00241263
0.00347652
0.00487456
0.00667276
0.0089504
0.0117954
0.0152988
0.0195513
0.0246331
0.030595
0.000364865
0.000525189
0.00086288
0.00121394
0.0016422
0.0023334
0.00335209
0.00469955
0.00643683
0.0086418
0.0114018
0.0148089
0.018955
0.0239257
0.0297948
0.00036257
0.000524647
0.000864217
0.00121508
0.00163487
0.00226459
0.00323988
0.00454045
0.0062216
0.00835942
0.0110405
0.0143581
0.018405
0.0232715
0.0290358
0.000360486
0.000524428
0.000866357
0.00121705
0.00162745
0.00220366
0.00313818
0.00439515
0.00602431
0.00809991
0.0107078
0.0139415
0.0178954
0.0226619
0.0283182
0.000358522
0.000524112
0.000868009
0.00121767
0.00161787
0.00214969
0.00304549
0.00426188
0.00584274
0.00786046
0.0104001
0.0135551
0.0174212
0.0220916
0.0276451
0.000356614
0.000523481
0.00086868
0.00121687
0.00160827
0.00210892
0.00296145
0.00413923
0.00567501
0.00763872
0.0101145
0.0131953
0.0169782
0.0215568
0.0270117
0.000354757
0.000522648
0.000868866
0.00121628
0.00160261
0.00208674
0.00288652
0.00402618
0.00551957
0.00743267
0.0098484
0.0128594
0.0165632
0.0210541
0.0264137
0.000352987
0.000521866
0.000869345
0.00121721
0.0016017
0.00207643
0.00282016
0.00392189
0.0053751
0.0072406
0.00959977
0.0125445
0.0161723
0.0205761
0.0258304
0.000351332
0.000521285
0.000870457
0.00121968
0.00160361
0.00207002
0.00276086
0.00382549
0.00524049
0.00706104
0.00936679
0.0122489
0.0158052
0.0201331
0.025336
0.000349788
0.000520875
0.000872007
0.00122285
0.00160609
0.00206338
0.00270707
0.00373611
0.00511475
0.00689277
0.00914795
0.0119707
0.0154586
0.0197089
0.0248014
0.000348328
0.000520502
0.000873554
0.00122579
0.0016077
0.00205525
0.00265827
0.00365296
0.004997
0.00673469
0.00894189
0.0117081
0.0151304
0.0193062
0.0243199
0.000346922
0.000520041
0.000874726
0.00122793
0.00160804
0.00204641
0.00261737
0.00357575
0.00488651
0.00658585
0.0087474
0.0114597
0.014819
0.0189227
0.0238569
0.000345551
0.000519443
0.000875419
0.00122934
0.00160788
0.0020394
0.0025896
0.0035049
0.00478273
0.00644542
0.00856347
0.0112243
0.0145241
0.0185637
0.0234503
0.000344212
0.000518757
0.000875816
0.00123052
0.00160839
0.00203607
0.0025742
0.00344065
0.00468524
0.00631272
0.00838926
0.0110011
0.0142446
0.0182226
0.0230395
0.000342917
0.000518072
0.000876207
0.001232
0.00161022
0.00203617
0.0025658
0.00338247
0.00459365
0.00618715
0.00822406
0.0107894
0.0139796
0.0178992
0.0226558
0.00034168
0.00051746
0.00087679
0.00123403
0.00161327
0.00203829
0.00255981
0.00332935
0.00450752
0.00606821
0.00806723
0.010588
0.0137267
0.0175856
0.0222564
0.000340502
0.000516936
0.000877593
0.00123648
0.00161697
0.00204097
0.00255378
0.00328032
0.00442639
0.00595541
0.00791812
0.0103963
0.0134856
0.0172894
0.0219177
0.000339379
0.00051647
0.000878504
0.00123907
0.00162069
0.0020432
0.00254677
0.00323496
0.00434982
0.00584831
0.00777618
0.0102135
0.0132554
0.0170046
0.0215624
0.000338299
0.00051601
0.000879361
0.00124147
0.00162393
0.00204451
0.00253888
0.00319431
0.00427754
0.00574649
0.00764088
0.0100389
0.0130346
0.0167296
0.021222
0.000337251
0.000515513
0.00088003
0.00124348
0.00162651
0.00204505
0.00253128
0.00316158
0.0042097
0.00564961
0.00751174
0.00987197
0.0128238
0.0164705
0.0209276
0.000336226
0.00051496
0.000880462
0.00124506
0.00162857
0.00204545
0.00252567
0.00313919
0.00414669
0.00555743
0.00738834
0.00971212
0.0126211
0.0162169
0.0205955
0.000335223
0.000514361
0.000880701
0.00124635
0.00163048
0.00204649
0.00252299
0.00312565
0.00408866
0.00546976
0.00727033
0.00955896
0.0124271
0.0159787
0.0203377
0.000334243
0.000513747
0.000880849
0.00124758
0.0016326
0.00204857
0.00252302
0.00311746
0.00403526
0.00538639
0.00715742
0.00941229
0.012242
0.0157531
0.0200732
0.000333292
0.000513151
0.000881014
0.00124891
0.00163515
0.00205169
0.00252487
0.00311159
0.00398585
0.00530712
0.00704936
0.00927176
0.0120644
0.0155335
0.0197929
0.000332373
0.000512593
0.000881262
0.00125044
0.00163811
0.00205554
0.00252756
0.00310621
0.00393979
0.00523168
0.00694591
0.00913703
0.0118941
0.0153239
0.0195504
0.000331487
0.000512079
0.0008816
0.00125214
0.00164135
0.00205969
0.00253029
0.0031004
0.00389662
0.0051598
0.00684684
0.00900786
0.0117309
0.0151237
0.0193111
0.000330632
0.000511596
0.000881993
0.00125391
0.00164464
0.00206375
0.00253257
0.00309386
0.00385637
0.00509128
0.00675191
0.00888383
0.0115736
0.0149268
0.0190516
0.000329805
0.000511128
0.000882381
0.00125563
0.00164778
0.00206745
0.00253419
0.00308682
0.00382006
0.00502603
0.00666088
0.0087646
0.011422
0.0147377
0.018829
0.000329
0.000510655
0.000882706
0.0012572
0.00165061
0.00207066
0.00253524
0.00308004
0.0037898
0.00496415
0.00657354
0.00864985
0.0112758
0.0145554
0.0186044
0.000328213
0.000510164
0.000882927
0.00125854
0.0016531
0.00207344
0.00253611
0.00307461
0.00376733
0.00490592
0.00648973
0.00853929
0.0111344
0.0143769
0.0183725
0.000327442
0.000509652
0.000883035
0.00125968
0.00165529
0.00207599
0.0025373
0.00307134
0.00375231
0.00485155
0.00640933
0.00843265
0.0109974
0.0142032
0.0181535
0.000326685
0.000509124
0.000883049
0.00126064
0.00165732
0.00207857
0.00253921
0.00307039
0.00374274
0.00480093
0.00633218
0.00832952
0.010864
0.0140313
0.0179249
0.000325944
0.000508591
0.00088301
0.00126153
0.00165931
0.0020814
0.00254201
0.00307138
0.00373639
0.00475372
0.00625812
0.00822982
0.0107349
0.0138691
0.0177463
0.00032522
0.000508065
0.00088296
0.00126241
0.00166141
0.00208458
0.00254562
0.0030737
0.00373152
0.00470948
0.00618697
0.00813324
0.010609
0.0137055
0.0175105
0.000324515
0.000507557
0.000882935
0.00126336
0.00166366
0.00208812
0.00254983
0.0030767
0.00372704
0.00466775
0.00611853
0.00803968
0.0104872
0.013554
0.0173711
0.00032383
0.000507072
0.000882953
0.00126438
0.00166607
0.00209191
0.00255437
0.00307987
0.00372234
0.0046282
0.00605266
0.00794925
0.0103702
0.0134116
0.0172094
0.000323164
0.00050661
0.000883012
0.00126547
0.00166858
0.00209584
0.00255897
0.00308283
0.00371715
0.00459076
0.00598928
0.00786198
0.0102575
0.0132705
0.017009