/*--------------------------------*- C++ -*----------------------------------*\
| =========                 |                                                 |
| \\      /  F ield         | OpenFOAM: The Open Source CFD Toolbox           |
|  \\    /   O peration     | Version:  2.3.0                                 |
|   \\  /    A nd           | Web:      www.OpenFOAM.org                      |
|    \\/     M anipulation  |                                                 |
\*---------------------------------------------------------------------------*/
FoamFile
{
    version     2.0;
    format      ascii;
    class       volVectorField;
    location    "400";
    object      U;
}
// * * * * * * * * * * * * * * * * * * * * * * * * * * * * * * * * * * * * * //

dimensions      [0 1 -1 0 0 0 0];

internalField   nonuniform List<vector> 
7994
(
(20.0799 0.144088 -3.74356e-23)
(20.0824 0.15774 -4.34003e-22)
(20.0856 0.173722 1.90549e-21)
(20.0898 0.192616 -1.43688e-21)
(20.0946 0.213994 -1.02318e-20)
(20.0993 0.236965 2.52639e-20)
(20.103 0.260447 -1.47566e-20)
(20.1043 0.28341 0)
(20.1022 0.305002 0)
(20.0961 0.324578 -1.67862e-20)
(20.0854 0.341702 1.55508e-20)
(20.0701 0.356097 -1.97256e-20)
(20.0502 0.367507 1.81422e-20)
(20.0252 0.373073 0)
(19.9961 0.375654 0)
(20.0658 0.14218 0)
(20.0634 0.150819 0)
(20.0596 0.159139 0)
(20.0545 0.16748 -3.76627e-21)
(20.0481 0.176019 7.82622e-21)
(20.0408 0.184824 7.04207e-22)
(20.0327 0.193804 -9.86064e-21)
(20.0242 0.202719 5.07791e-21)
(20.0154 0.211243 -7.18849e-21)
(20.0064 0.219039 -1.49133e-21)
(19.9973 0.225812 1.66863e-20)
(19.9881 0.231335 -1.34495e-20)
(19.9789 0.235458 4.63549e-21)
(19.97 0.23807 0)
(19.9616 0.239063 1.10954e-35)
(20.0562 0.140479 0)
(20.0532 0.14774 0)
(20.0498 0.154739 8.23693e-21)
(20.0459 0.16129 -8.06203e-21)
(20.0414 0.167214 -1.0555e-20)
(20.0364 0.172364 -1.46204e-21)
(20.0309 0.17667 -1.4211e-21)
(20.0249 0.180124 1.17377e-20)
(20.0186 0.182752 0)
(20.0121 0.184602 0)
(20.0056 0.185725 0)
(19.9991 0.186176 0)
(19.9927 0.18601 0)
(19.9865 0.185288 0)
(19.9806 0.184062 0)
(20.0483 0.135951 0)
(20.0444 0.140854 -4.2389e-21)
(20.0402 0.145417 4.18995e-21)
(20.0356 0.149488 0)
(20.0308 0.153082 -1.066e-20)
(20.0258 0.156178 1.02404e-20)
(20.0208 0.158767 -1.16525e-20)
(20.0158 0.160847 2.31779e-20)
(20.0109 0.16243 -5.3151e-21)
(20.0061 0.163532 -5.9254e-21)
(20.0014 0.16418 0)
(19.9969 0.164401 0)
(19.9925 0.164229 0)
(19.9884 0.163699 -1.70751e-21)
(19.9845 0.162839 1.67207e-21)
(20.043 0.131738 0)
(20.0394 0.135247 0)
(20.0356 0.138533 5.28003e-21)
(20.0318 0.141339 4.63569e-22)
(20.0278 0.143703 -5.45425e-21)
(20.0238 0.145633 -6.15805e-21)
(20.0198 0.147147 5.94378e-21)
(20.0158 0.148269 0)
(20.0118 0.149025 0)
(20.008 0.149441 0)
(20.0042 0.149546 0)
(20.0005 0.149363 0)
(19.997 0.148916 -3.6332e-21)
(19.9936 0.14823 3.55776e-21)
(19.9903 0.147322 -6.71783e-36)
(20.0391 0.127589 0)
(20.0357 0.130041 -2.62302e-21)
(20.0322 0.132365 2.58731e-21)
(20.0288 0.134298 0)
(20.0253 0.135894 0)
(20.0218 0.13717 6.27696e-21)
(20.0184 0.138145 -1.25733e-20)
(20.015 0.138837 -3.39757e-22)
(20.0117 0.139264 -3.262e-22)
(20.0084 0.139442 -3.12958e-22)
(20.0053 0.139388 6.85293e-21)
(20.0022 0.139117 0)
(19.9992 0.138642 0)
(19.9963 0.137977 -1.91909e-21)
(19.9935 0.137134 1.90875e-21)
(20.0361 0.123941 0)
(20.0332 0.125664 0)
(20.0302 0.127336 0)
(20.0272 0.128716 0)
(20.0242 0.129837 0)
(20.0212 0.130713 0)
(20.0182 0.131357 0)
(20.0153 0.131784 0)
(20.0124 0.132005 0)
(20.0096 0.132031 0)
(20.0069 0.131871 0)
(20.0042 0.131534 0)
(20.0015 0.13103 0)
(19.999 0.130366 0)
(19.9965 0.129551 0)
(20.0342 0.120492 -1.34549e-21)
(20.0315 0.12185 1.34828e-21)
(20.0289 0.123085 0)
(20.0262 0.124104 0)
(20.0235 0.12492 0)
(20.0209 0.125543 0)
(20.0183 0.125985 -6.80366e-21)
(20.0157 0.126254 6.73194e-21)
(20.0131 0.126357 0)
(20.0106 0.1263 0)
(20.0081 0.126087 -3.84523e-21)
(20.0057 0.125723 3.83537e-21)
(20.0033 0.125213 0)
(20.001 0.124562 0)
(19.9987 0.123776 3.8532e-36)
(20.0327 0.117367 1.37429e-21)
(20.0303 0.118561 -1.39502e-21)
(20.0279 0.119513 0)
(20.0256 0.120294 0)
(20.0232 0.120907 0)
(20.0208 0.121363 -3.36058e-21)
(20.0185 0.121671 6.80541e-21)
(20.0161 0.121837 -7.03408e-21)
(20.0138 0.121863 -1.29961e-22)
(20.0115 0.121753 3.69723e-21)
(20.0093 0.121509 3.95425e-21)
(20.007 0.12113 -3.96046e-21)
(20.0049 0.120619 2.1095e-21)
(20.0027 0.119979 -1.02742e-21)
(20.0006 0.119215 -1.09313e-21)
(20.0315 0.114837 0)
(20.0294 0.115803 0)
(20.0273 0.116523 0)
(20.0252 0.117123 3.19756e-21)
(20.023 0.117589 -3.17629e-21)
(20.0209 0.117926 0)
(20.0188 0.118141 0)
(20.0166 0.118235 3.64367e-21)
(20.0145 0.118209 -3.64642e-21)
(20.0124 0.118065 -3.90193e-21)
(20.0103 0.117802 5.93497e-21)
(20.0082 0.117417 -2.02806e-21)
(20.0061 0.11691 0)
(20.0041 0.116281 1.11497e-21)
(20.0022 0.115533 -1.1217e-21)
(20.0307 0.112573 -7.30826e-22)
(20.0288 0.113411 2.24566e-21)
(20.0269 0.113977 -1.50883e-21)
(20.025 0.114448 3.23232e-21)
(20.023 0.11481 -3.21969e-21)
(20.0211 0.115063 3.44539e-21)
(20.0191 0.115209 -3.44496e-21)
(20.0171 0.115252 0)
(20.0151 0.11519 0)
(20.0131 0.115021 -1.97584e-21)
(20.0111 0.114747 1.98669e-21)
(20.0092 0.114362 0)
(20.0073 0.113861 0)
(20.0054 0.113242 0)
(20.0035 0.112506 0)
(20.03 0.110667 0)
(20.0283 0.111344 0)
(20.0266 0.111798 -1.57937e-21)
(20.0248 0.112173 3.20036e-21)
(20.0231 0.112461 -1.62364e-21)
(20.0212 0.112652 0)
(20.0194 0.112747 0)
(20.0175 0.112753 0)
(20.0156 0.112661 1.91712e-21)
(20.0137 0.112472 -1.92812e-21)
(20.0119 0.112192 -2.05488e-21)
(20.01 0.111811 2.06887e-21)
(20.0082 0.11132 0)
(20.0064 0.110708 0)
(20.0047 0.109978 0)
(20.0295 0.10907 0)
(20.028 0.10955 0)
(20.0264 0.109917 1.58953e-21)
(20.0248 0.11021 -1.58398e-21)
(20.0231 0.11045 -1.68316e-21)
(20.0214 0.110608 3.41951e-21)
(20.0197 0.110664 -1.73958e-21)
(20.0179 0.110642 1.85203e-21)
(20.0161 0.110523 -1.8615e-21)
(20.0143 0.110314 0)
(20.0125 0.110032 2.05004e-21)
(20.0107 0.109659 -2.06395e-21)
(20.009 0.109179 1.09594e-21)
(20.0073 0.108577 -1.10309e-21)
(20.0056 0.107836 0)
(20.0291 0.107525 0)
(20.0276 0.107949 0)
(20.0262 0.108288 0)
(20.0247 0.108494 -1.68334e-21)
(20.0232 0.108709 3.38641e-21)
(20.0216 0.108871 -1.62995e-21)
(20.0199 0.108887 0)
(20.0182 0.108845 0)
(20.0165 0.108707 0)
(20.0148 0.108469 0)
(20.013 0.108177 0)
(20.0112 0.107812 1.04494e-21)
(20.0096 0.107344 -1.04741e-21)
(20.008 0.106778 -2.73297e-22)
(20.0064 0.106021 2.80481e-22)
(19.9517 0.341541 0)
(19.9083 0.326588 0)
(19.8721 0.308009 3.59961e-20)
(19.8433 0.291821 -3.91815e-20)
(19.8226 0.274458 4.31376e-20)
(19.8102 0.255303 -4.66083e-20)
(19.8058 0.234361 0)
(19.8087 0.211898 0)
(19.8177 0.188352 -1.08276e-19)
(19.8309 0.164426 2.20923e-19)
(19.8466 0.141086 -1.11141e-19)
(19.8628 0.11943 -5.26052e-20)
(19.8784 0.100422 1.01601e-19)
(19.8927 0.0846657 -2.53251e-20)
(19.9058 0.0711123 -2.18701e-20)
(19.9537 0.238496 -1.11297e-35)
(19.9463 0.235911 0)
(19.9393 0.230864 9.92746e-21)
(19.9328 0.223495 -3.39942e-20)
(19.9268 0.213904 5.20236e-20)
(19.9215 0.20231 1.51802e-21)
(19.917 0.189064 -3.29041e-20)
(19.9134 0.174654 3.7425e-20)
(19.9107 0.159665 -7.99949e-20)
(19.909 0.14471 1.46088e-22)
(19.9085 0.130325 8.72438e-20)
(19.9094 0.116871 -4.44813e-20)
(19.9119 0.104472 0)
(19.916 0.0930997 0)
(19.9217 0.0818199 0)
(19.9748 0.182391 0)
(19.9689 0.180189 0)
(19.963 0.177332 0)
(19.9571 0.173802 0)
(19.9513 0.16956 0)
(19.9458 0.164576 0)
(19.9407 0.158832 0)
(19.9363 0.152317 2.76923e-20)
(19.9327 0.145036 5.99876e-22)
(19.9301 0.137009 4.96421e-22)
(19.9286 0.128288 -3.33974e-20)
(19.9284 0.118985 -3.50314e-20)
(19.9293 0.10929 3.579e-20)
(19.9314 0.0994852 0)
(19.9345 0.0892774 0)
(19.9807 0.161665 1.83101e-21)
(19.9769 0.160116 -1.87392e-21)
(19.9731 0.158114 0)
(19.9692 0.155623 0)
(19.9655 0.152605 0)
(19.9618 0.149023 -1.0596e-20)
(19.9583 0.14485 -1.17831e-20)
(19.955 0.140071 4.8535e-20)
(19.9521 0.134683 -2.57573e-20)
(19.9495 0.128704 2.8079e-20)
(19.9474 0.122177 -2.92349e-20)
(19.9459 0.115168 0)
(19.9451 0.107768 1.58671e-20)
(19.9451 0.100081 -1.60517e-20)
(19.946 0.0917973 0)
(19.9871 0.146201 6.73069e-36)
(19.9839 0.14483 4.10043e-21)
(19.9807 0.143165 -4.18777e-21)
(19.9776 0.141185 0)
(19.9744 0.138866 0)
(19.9713 0.136184 0)
(19.9683 0.133116 0)
(19.9655 0.129637 0)
(19.9629 0.125729 1.20853e-20)
(19.9605 0.121374 -1.25231e-20)
(19.9584 0.116565 -1.34081e-20)
(19.9568 0.111305 -1.66988e-22)
(19.9556 0.105617 1.43203e-20)
(19.955 0.0995355 0)
(19.955 0.0928139 0)
(19.9908 0.136117 2.03794e-21)
(19.9882 0.134898 -2.05269e-21)
(19.9855 0.133449 0)
(19.9829 0.131757 0)
(19.9802 0.129809 9.60056e-21)
(19.9777 0.127587 2.53048e-22)
(19.9752 0.125077 2.49218e-22)
(19.9728 0.122261 2.42747e-22)
(19.9706 0.119124 -2.27936e-20)
(19.9685 0.115651 1.18293e-20)
(19.9667 0.111829 0)
(19.965 0.107653 0)
(19.9637 0.103127 6.74111e-21)
(19.9628 0.0982655 -6.83421e-21)
(19.9622 0.0929294 0)
(19.9941 0.128586 0)
(19.9917 0.127453 0)
(19.9893 0.126135 0)
(19.987 0.124624 0)
(19.9847 0.122912 0)
(19.9824 0.120989 0)
(19.9803 0.118846 0)
(19.9782 0.116472 0)
(19.9762 0.113855 0)
(19.9744 0.110982 0)
(19.9727 0.107841 0)
(19.9712 0.10442 0)
(19.9699 0.100708 0)
(19.9689 0.0966936 0)
(19.9682 0.0922448 0)
(19.9965 0.122855 -3.85922e-36)
(19.9944 0.121789 0)
(19.9922 0.120565 0)
(19.9901 0.11918 4.81366e-21)
(19.988 0.11763 -4.82617e-21)
(19.986 0.11591 0)
(19.9841 0.114014 0)
(19.9822 0.111936 1.06913e-20)
(19.9805 0.109671 -1.08057e-20)
(19.9788 0.107209 0)
(19.9773 0.104542 0)
(19.9759 0.10166 0)
(19.9747 0.0985537 0)
(19.9737 0.09522 3.13254e-21)
(19.9729 0.0916061 -3.16002e-21)
(19.9986 0.118327 -1.15358e-21)
(19.9966 0.117308 -1.20713e-21)
(19.9946 0.116153 2.35042e-21)
(19.9926 0.114861 -4.91096e-21)
(19.9907 0.113429 4.90335e-21)
(19.9889 0.111855 5.10995e-21)
(19.9871 0.110137 9.83207e-23)
(19.9854 0.108274 -1.05555e-20)
(19.9839 0.106262 1.07942e-20)
(19.9824 0.104099 -5.4816e-21)
(19.981 0.101778 0)
(19.9797 0.0992934 0)
(19.9786 0.0966368 0)
(19.9776 0.0938105 -3.03208e-21)
(19.9767 0.0907865 3.04258e-21)
(20.0003 0.114669 -1.18127e-21)
(19.9984 0.113689 1.17575e-21)
(19.9965 0.112588 0)
(19.9947 0.111367 -2.49179e-21)
(19.9929 0.110025 7.54518e-21)
(19.9912 0.108561 -5.04642e-21)
(19.9896 0.106976 -5.22619e-21)
(19.988 0.105272 5.22234e-21)
(19.9866 0.103449 0)
(19.9852 0.101508 0)
(19.9839 0.0994462 -5.59793e-21)
(19.9828 0.0972593 5.63548e-21)
(19.9817 0.0949419 0)
(19.9808 0.0924937 0)
(19.98 0.0898796 0)
(20.0017 0.11166 0)
(19.9999 0.11071 0)
(19.9981 0.109653 0)
(19.9964 0.108491 0)
(19.9947 0.107221 2.54495e-21)
(19.9931 0.105841 -2.53106e-21)
(19.9916 0.104356 0)
(19.9902 0.102773 0)
(19.9888 0.101094 -5.36042e-21)
(19.9875 0.0993246 5.36119e-21)
(19.9863 0.0974618 -5.51607e-21)
(19.9853 0.095505 5.53773e-21)
(19.9843 0.0934509 -2.84438e-21)
(19.9834 0.0913014 4.30425e-21)
(19.9826 0.089042 -1.44889e-21)
(20.0029 0.109147 0)
(20.0011 0.108223 0)
(19.9994 0.107203 0)
(19.9978 0.106091 2.50901e-21)
(19.9962 0.10488 -2.49206e-21)
(19.9947 0.103563 -2.56966e-21)
(19.9933 0.102156 2.55501e-21)
(19.9919 0.100666 0)
(19.9906 0.0991013 0)
(19.9895 0.0974678 0)
(19.9884 0.0957607 -2.71957e-21)
(19.9874 0.0939853 5.48097e-21)
(19.9865 0.0921395 -2.76628e-21)
(19.9856 0.0902178 0)
(19.9849 0.0882127 0)
(20.0039 0.107018 0)
(20.0022 0.106122 -1.21193e-21)
(20.0006 0.105138 1.20411e-21)
(19.999 0.104072 -2.48996e-21)
(19.9975 0.102897 2.47318e-21)
(19.9961 0.101631 0)
(19.9947 0.100285 -2.57066e-21)
(19.9934 0.0988671 2.55764e-21)
(19.9922 0.0973985 -2.6213e-21)
(19.9911 0.0958771 5.26387e-21)
(19.9901 0.0942924 -2.64736e-21)
(19.9891 0.0926664 -2.71085e-21)
(19.9883 0.0909947 2.72029e-21)
(19.9875 0.0892635 0)
(19.9869 0.0875138 0)
(20.0047 0.105234 3.0215e-22)
(20.0031 0.10436 -2.99323e-22)
(20.0015 0.103386 -1.22019e-21)
(19.9999 0.10237 1.17153e-21)
(19.9986 0.101223 0)
(19.9972 0.10001 0)
(19.996 0.0986981 0)
(19.9947 0.0973174 0)
(19.9935 0.0959347 0)
(19.9925 0.0945018 -2.61909e-21)
(19.9915 0.0929987 5.33472e-21)
(19.9906 0.0915071 -2.67826e-21)
(19.9899 0.0899785 0)
(19.9892 0.0883535 0)
(19.9885 0.0868117 0)
(20.0679 0.0100039 -9.04044e-21)
(20.0271 0.00721614 1.01275e-20)
(19.954 0.00403652 0)
(19.8316 0.000134429 0)
(19.6419 -0.00465914 0)
(19.3753 -0.0103315 0)
(19.0311 -0.0168158 -4.57848e-23)
(18.6131 -0.0241505 5.08463e-23)
(18.1248 -0.0322742 0)
(17.5653 -0.041074 0)
(16.9235 -0.0508099 -1.42165e-20)
(16.1681 -0.0616154 1.68178e-20)
(15.229 -0.0753017 -2.49189e-21)
(13.9912 -0.0653102 2.99139e-21)
(12.6281 -0.0789686 3.41207e-22)
(20.0658 0.00790762 0)
(20.0302 0.00565515 -2.20771e-20)
(19.9694 0.00271867 2.4345e-20)
(19.871 -0.00151821 0)
(19.7207 -0.00741349 0)
(19.5084 -0.0147597 0)
(19.2295 -0.0231079 0)
(18.8824 -0.032004 6.38518e-20)
(18.4657 -0.041051 -7.07504e-20)
(17.9739 -0.0500012 8.78255e-20)
(17.3924 -0.0591432 3.05047e-21)
(16.6867 -0.0686247 -1.19651e-19)
(15.7939 -0.0804888 7.45225e-20)
(14.664 -0.0763032 -4.62173e-20)
(13.5879 -0.0483797 -6.06817e-20)
(20.0643 0.00381056 0)
(20.0331 0.000102401 0)
(19.9816 -0.00452688 3.04284e-20)
(19.9 -0.0102267 -3.31586e-20)
(19.777 -0.0168616 -4.34475e-20)
(19.6025 -0.0239733 -3.3505e-21)
(19.3695 -0.0311711 -2.81877e-21)
(19.0731 -0.0382547 6.32678e-20)
(18.7079 -0.0451936 0)
(18.2651 -0.052101 0)
(17.7265 -0.0595013 0)
(17.0558 -0.0675093 0)
(16.196 -0.0761317 0)
(15.1292 -0.0725298 0)
(14.1668 -0.0345585 0)
(20.0611 0.000538536 0)
(20.032 -0.00346804 -1.15122e-20)
(19.9857 -0.00804384 1.24806e-20)
(19.9147 -0.0132302 0)
(19.8099 -0.0189384 -3.21173e-20)
(19.6621 -0.0249302 3.47107e-20)
(19.4631 -0.0310235 -3.83174e-20)
(19.2053 -0.0371411 8.34636e-20)
(18.8805 -0.0433134 -2.27962e-20)
(18.4763 -0.0496836 -2.53178e-20)
(17.9717 -0.0567367 0)
(17.3287 -0.0646085 0)
(16.4935 -0.0718134 0)
(15.463 -0.0676154 -1.17806e-20)
(14.5497 -0.028847 1.43102e-20)
(20.0572 -0.00113736 0)
(20.0299 -0.00475928 0)
(19.9882 -0.00878178 1.11337e-20)
(19.9261 -0.0132983 1.30931e-22)
(19.8361 -0.0182969 1.13719e-22)
(19.7098 -0.0236422 -2.82299e-20)
(19.5381 -0.0291923 1.52673e-20)
(19.3117 -0.0348629 -1.67168e-20)
(19.0199 -0.0406749 -8.43822e-23)
(18.6478 -0.0467812 2.00505e-20)
(18.1718 -0.0536204 0)
(17.5523 -0.0613851 0)
(16.7372 -0.0679604 -1.49792e-20)
(15.7293 -0.0632715 1.7737e-20)
(14.8398 -0.0257665 0)
(20.054 -0.00237891 0)
(20.0288 -0.00556184 0)
(19.9914 -0.00921467 1.05028e-20)
(19.9369 -0.0133134 -2.26353e-20)
(19.8589 -0.0178232 2.46366e-20)
(19.7494 -0.0226618 2.12071e-22)
(19.5994 -0.0277349 -2.91574e-20)
(19.3982 -0.0329883 1.57982e-20)
(19.1334 -0.0384616 -1.74018e-20)
(18.788 -0.0443266 3.8103e-20)
(18.3365 -0.0509808 -2.10725e-20)
(17.7376 -0.0586183 0)
(16.9392 -0.0649108 0)
(15.9465 -0.0599714 0)
(15.0693 -0.0237684 0)
(20.0513 -0.0031361 0)
(20.0279 -0.00607313 0)
(19.9941 -0.00951194 0)
(19.9457 -0.0132907 0)
(19.877 -0.0174041 0)
(19.7806 -0.0218377 0)
(19.6475 -0.0265504 0)
(19.4666 -0.0315161 0)
(19.2241 -0.0367785 0)
(18.9014 -0.0425077 0)
(18.471 -0.0490599 0)
(17.8902 -0.056593 0)
(17.1061 -0.0627249 0)
(16.1243 -0.0576416 0)
(15.2533 -0.0223715 0)
(20.0489 -0.0037774 0)
(20.027 -0.00632912 4.33881e-21)
(19.9961 -0.00954085 -4.56914e-21)
(19.9525 -0.0130773 9.92505e-21)
(19.8911 -0.0169342 1.68847e-22)
(19.8051 -0.0211332 -2.27522e-20)
(19.6856 -0.0256588 -2.23433e-22)
(19.5213 -0.0304956 -2.55583e-22)
(19.2974 -0.0356797 2.18793e-20)
(18.9941 -0.041365 1.69471e-22)
(18.5823 -0.0478705 -8.8649e-21)
(18.0177 -0.0553141 1.02431e-20)
(17.2461 -0.061316 -1.73432e-20)
(16.2724 -0.056103 6.71119e-21)
(15.4045 -0.0214235 0)
(20.0463 -0.00364243 1.92527e-21)
(20.0259 -0.00618487 -2.02361e-21)
(19.9975 -0.00933372 0)
(19.9578 -0.0127522 0)
(19.9024 -0.0165054 0)
(19.8247 -0.020638 -5.23586e-21)
(19.7163 -0.0251439 1.12332e-20)
(19.5656 -0.0300066 -1.22867e-20)
(19.3574 -0.035246 -2.27501e-22)
(19.0709 -0.0409927 7.39433e-21)
(18.6754 -0.0475143 0)
(18.1254 -0.0548496 0)
(17.3652 -0.0606308 5.61317e-21)
(16.3983 -0.0551612 -3.1343e-21)
(15.5318 -0.0207095 -3.65498e-21)
(20.0441 -0.0037215 0)
(20.0249 -0.00601216 0)
(19.9985 -0.00900086 0)
(19.9621 -0.0123312 4.12501e-21)
(19.9114 -0.0160622 -4.31397e-21)
(19.8405 -0.0202408 0)
(19.7412 -0.024866 0)
(19.6019 -0.0299074 5.72126e-21)
(19.4071 -0.0353563 -6.0802e-21)
(19.1352 -0.0413073 -7.23434e-21)
(18.7546 -0.0480056 1.19172e-20)
(18.2181 -0.0554395 -4.49258e-21)
(17.4683 -0.0611398 0)
(16.5072 -0.0553191 3.2067e-21)
(15.6409 -0.0207096 -3.60218e-21)
(20.0419 -0.00307603 0)
(20.0238 -0.00550249 0)
(19.9992 -0.00845299 0)
(19.9654 -0.0117458 3.68756e-21)
(19.9185 -0.0155339 4.53382e-23)
(19.8529 -0.0198998 -8.23555e-21)
(19.7607 -0.024841 4.38238e-21)
(19.6308 -0.0302815 0)
(19.4473 -0.0361397 0)
(19.188 -0.0425546 -3.42792e-21)
(18.82 -0.0496995 3.66996e-21)
(18.2956 -0.0572147 0)
(17.5564 -0.0625299 0)
(16.6017 -0.0560072 0)
(15.7362 -0.0204971 0)
(20.0401 -0.00269467 0)
(20.0229 -0.00486367 1.57735e-21)
(19.9998 -0.00765992 -3.20165e-21)
(19.9681 -0.0108257 1.6316e-21)
(19.9243 -0.0145754 0)
(19.8632 -0.019056 0)
(19.7773 -0.0244119 3.74869e-21)
(19.6556 -0.0304785 -3.93354e-21)
(19.4825 -0.0368558 0)
(19.2347 -0.0435878 -2.95847e-21)
(18.8796 -0.0515904 -4.38924e-22)
(18.3674 -0.0609028 1.58319e-21)
(17.6375 -0.067181 2.48606e-21)
(16.6866 -0.0598275 -1.7559e-21)
(15.8203 -0.0234906 1.94702e-21)
(20.0382 -0.00178434 0)
(20.0217 -0.00405128 0)
(19.9998 -0.00675145 0)
(19.9699 -0.00976993 0)
(19.928 -0.0136016 0)
(19.8695 -0.0184256 1.42338e-21)
(19.7865 -0.0245062 -1.4817e-21)
(19.6705 -0.0318052 0)
(19.5053 -0.038942 0)
(19.2657 -0.0464338 0)
(18.9149 -0.0555273 0)
(18.4103 -0.0656889 -2.44803e-21)
(17.6976 -0.0719486 2.65636e-21)
(16.7601 -0.0624519 0)
(15.8951 -0.0229881 0)
(20.037 -0.000688153 0)
(20.0216 -0.00289267 0)
(20.0015 -0.00548578 0)
(19.9728 -0.00786776 -1.07435e-21)
(19.9342 -0.0110754 1.9862e-21)
(19.8812 -0.0150135 -9.06183e-22)
(19.8059 -0.0212678 0)
(19.6969 -0.0305203 0)
(19.5453 -0.0382234 0)
(19.3161 -0.0435017 0)
(18.9927 -0.0530945 0)
(18.4964 -0.0744004 0)
(17.7839 -0.0852851 0)
(16.8342 -0.0721712 -1.0451e-21)
(15.9623 -0.0410161 1.15115e-21)
(12.6861 0.086067 -9.76684e-23)
(14.0908 0.0700647 4.42923e-21)
(15.3417 0.0796882 -3.35243e-21)
(16.2861 0.0660276 1.9378e-20)
(17.0445 0.0554301 -1.63875e-20)
(17.6875 0.04592 0)
(18.2459 0.0373837 0)
(18.7301 0.0295948 6.1722e-21)
(19.1405 0.0227028 -5.55845e-21)
(19.4732 0.0167839 0)
(19.7252 0.0118039 0)
(19.8983 0.00787477 0)
(20.005 0.00492666 0)
(20.0647 0.00276536 8.02936e-21)
(20.0944 0.000965976 -7.22513e-21)
(13.6345 0.0582171 -6.03202e-20)
(14.7622 0.0839684 -4.56235e-20)
(15.9101 0.0876432 7.38506e-20)
(16.8086 0.0757913 -1.17853e-19)
(17.5159 0.0665654 3.49055e-21)
(18.0968 0.0576655 8.61448e-20)
(18.5854 0.0489493 -6.831e-20)
(18.9962 0.0401615 6.16563e-20)
(19.3342 0.031589 0)
(19.601 0.0236526 0)
(19.799 0.0168277 0)
(19.9342 0.011605 0)
(20.0188 0.00813267 2.04778e-20)
(20.0676 0.00599823 -1.85727e-20)
(20.0931 0.00445925 0)
(14.2106 0.0464814 0)
(15.2274 0.0826626 0)
(16.3146 0.0855857 0)
(17.18 0.076935 0)
(17.851 0.0692007 0)
(18.3872 0.0620744 0)
(18.8251 0.0554159 0)
(19.1828 0.0487166 6.04566e-20)
(19.4691 0.0418865 -3.32469e-21)
(19.6898 0.0349753 -3.85039e-21)
(19.8507 0.0282153 -4.03447e-20)
(19.9601 0.0220459 -2.94193e-20)
(20.0292 0.0169123 2.69898e-20)
(20.07 0.0129099 0)
(20.0921 0.00980054 0)
(14.5932 0.0423659 1.41785e-20)
(15.5622 0.079615 -1.16534e-20)
(16.6143 0.0830753 0)
(17.4545 0.0758301 0)
(18.0965 0.0682344 0)
(18.5971 0.061468 -2.42276e-20)
(18.9949 0.0553476 -2.139e-20)
(19.311 0.049398 7.86579e-20)
(19.5579 0.0434968 -3.58998e-20)
(19.7446 0.037635 3.16203e-20)
(19.8796 0.0319214 -2.9248e-20)
(19.9721 0.0265729 0)
(20.0319 0.0218229 1.06342e-20)
(20.0685 0.0177347 -9.8101e-21)
(20.0892 0.0142402 0)
(14.8837 0.0405392 0)
(15.8297 0.0766864 1.73762e-20)
(16.8595 0.0806389 -1.46865e-20)
(17.6792 0.074027 0)
(18.2963 0.0665418 0)
(18.7669 0.0599988 1.90045e-20)
(19.1313 0.0541431 -2.82285e-22)
(19.4134 0.0485443 -1.566e-20)
(19.6285 0.0430734 1.38994e-20)
(19.7881 0.0377354 -2.54791e-20)
(19.9024 0.0326423 3.20376e-22)
(19.9811 0.0279545 3.40911e-22)
(20.0331 0.0237952 9.55992e-21)
(20.0661 0.0201575 0)
(20.0856 0.0169785 0)
(15.1138 0.0395614 0)
(16.0482 0.0745098 0)
(17.0628 0.0787405 0)
(17.8649 0.0724264 0)
(18.4603 0.065078 -2.01265e-20)
(18.9051 0.0587309 3.62089e-20)
(19.2416 0.0531205 -1.64484e-20)
(19.496 0.0478593 1.45427e-20)
(19.6857 0.0428015 -2.66238e-20)
(19.824 0.0379341 4.09584e-22)
(19.9222 0.0333309 2.16784e-20)
(19.9898 0.0290923 -1.94754e-20)
(20.0351 0.0252841 8.9273e-21)
(20.0644 0.0219206 0)
(20.0826 0.0190617 0)
(15.2986 0.0390415 0)
(16.2273 0.0731194 0)
(17.2307 0.0775202 0)
(18.0178 0.0713819 0)
(18.5939 0.064151 0)
(19.0164 0.057919 0)
(19.3293 0.0524537 0)
(19.5608 0.0474112 0)
(19.7302 0.0426487 0)
(19.8519 0.0381456 0)
(19.9376 0.0339387 0)
(19.9968 0.0300674 0)
(20.0367 0.026534 0)
(20.0631 0.0233292 0)
(20.0799 0.020603 0)
(15.4504 0.0387542 0)
(16.3766 0.0723212 6.5595e-21)
(17.3715 0.0769079 -1.68542e-20)
(18.1451 0.0709417 9.92999e-21)
(18.704 0.0638276 -8.40841e-21)
(19.107 0.0576614 2.64753e-22)
(19.3997 0.0522564 2.02656e-20)
(19.6123 0.0473089 -4.51517e-22)
(19.7651 0.042691 -4.21727e-22)
(19.8736 0.0383825 -1.99532e-20)
(19.9495 0.0344007 3.7135e-22)
(20.0019 0.0307521 8.39249e-21)
(20.0376 0.0274047 -3.64671e-21)
(20.0616 0.0243251 3.46187e-21)
(20.0773 0.0216952 0)
(15.5785 0.0387373 -3.6128e-21)
(16.5038 0.0720606 -3.03307e-21)
(17.4915 0.0768996 5.48749e-21)
(18.2529 0.0711574 0)
(18.7962 0.0641786 0)
(19.1818 0.0580379 6.89324e-21)
(19.4572 0.0526112 -3.24814e-22)
(19.6537 0.0476417 -1.11318e-20)
(19.793 0.0430279 9.9483e-21)
(19.8907 0.0387614 -4.57976e-21)
(19.9588 0.0348467 0)
(20.0058 0.0312769 0)
(20.0381 0.0280125 0)
(20.06 0.0250059 -1.50316e-21)
(20.0747 0.0224382 1.44602e-21)
(15.6879 0.0387148 -3.58029e-21)
(16.6131 0.0724957 3.18007e-21)
(17.5946 0.0778996 0)
(18.3448 0.0723991 -4.34812e-21)
(18.874 0.0654082 1.14301e-20)
(19.2441 0.0591239 -6.90539e-21)
(19.5044 0.0535086 -5.5678e-21)
(19.6873 0.0483702 5.23925e-21)
(19.8153 0.0436329 0)
(19.9043 0.0392667 0)
(19.966 0.0352846 -3.45976e-21)
(20.0087 0.0316829 3.30841e-21)
(20.0382 0.0284242 0)
(20.0584 0.025465 0)
(20.0723 0.0230048 0)
(15.7853 0.0396415 0)
(16.7107 0.0739778 0)
(17.6852 0.0798267 0)
(18.424 0.0744155 0)
(18.9396 0.0673971 3.47858e-21)
(19.2959 0.0608721 -3.25031e-21)
(19.543 0.0549135 0)
(19.7146 0.0494377 0)
(19.8332 0.0443674 3.68947e-21)
(19.915 0.0397541 -6.77586e-21)
(19.9716 0.0355897 1.83216e-22)
(20.0108 0.0318761 2.8205e-21)
(20.038 0.0285809 0)
(20.0569 0.0256316 0)
(20.07 0.0231862 0)
(15.8672 0.0388938 2.02397e-21)
(16.7917 0.0772628 -1.8213e-21)
(17.7599 0.0847368 2.54905e-21)
(18.4906 0.0787465 1.66323e-21)
(18.9954 0.0706502 -5.40758e-22)
(19.3389 0.0632169 -2.98745e-21)
(19.5748 0.0564312 0)
(19.7362 0.0504488 -3.5576e-21)
(19.8468 0.0451855 3.3905e-21)
(19.9231 0.0401856 0)
(19.9755 0.0357022 0)
(20.0121 0.0318188 1.10778e-21)
(20.0375 0.0284498 -2.13037e-21)
(20.0553 0.0255461 1.02844e-21)
(20.0678 0.0232123 0)
(15.9614 0.0442633 0)
(16.884 0.0855667 0)
(17.8348 0.0902965 2.23935e-21)
(18.5513 0.0808729 -2.06483e-21)
(19.0414 0.0736027 0)
(19.3739 0.0659411 0)
(19.5995 0.0581818 0)
(19.7551 0.05213 0)
(19.8591 0.0457973 -1.05974e-21)
(19.9297 0.0401191 1.01807e-21)
(19.9791 0.0353226 0)
(20.013 0.0312878 0)
(20.0371 0.0279621 0)
(20.0541 0.0251099 0)
(20.0662 0.0229427 0)
(16.0003 0.0290598 1.6092e-21)
(16.9118 0.0970288 -1.45447e-21)
(17.8517 0.104661 0)
(18.5908 0.0884261 0)
(19.0868 0.0793046 0)
(19.4009 0.0681964 0)
(19.626 0.0582193 0)
(19.7671 0.0517202 0)
(19.861 0.0471963 0)
(19.9329 0.0401677 -6.50578e-22)
(19.9785 0.0348586 1.26959e-21)
(20.0131 0.0305743 -6.23021e-22)
(20.0354 0.0271697 0)
(20.0523 0.024473 0)
(20.0636 0.0228726 0)
(19.3998 0.140114 0)
(19.9632 0.0879912 0)
(20.0667 0.102059 0)
(20.1199 0.111633 0)
(20.1499 0.12125 0)
(20.166 0.129985 0)
(20.1723 0.138192 0)
(20.1712 0.145529 0)
(20.1643 0.151442 0)
(20.1533 0.155262 0)
(20.14 0.1564 0)
(20.1261 0.154588 0)
(20.1134 0.150062 0)
(20.1027 0.143588 0)
(20.0944 0.135324 0)
(17.5777 -0.261773 0)
(19.9021 0.19632 0)
(19.9571 0.109284 0)
(20.0019 0.100109 0)
(20.042 0.103501 0)
(20.074 0.108524 0)
(20.0982 0.113223 0)
(20.1152 0.117701 0)
(20.1256 0.121819 0)
(20.13 0.12531 0)
(20.1294 0.12789 0)
(20.1248 0.129278 0)
(20.1178 0.129223 0)
(20.1097 0.127697 0)
(20.1018 0.123853 0)
(15.6918 -0.145243 -1.25395e-37)
(19.8868 0.217297 0)
(19.9827 0.107395 0)
(19.9971 0.10873 0)
(20.0258 0.111504 0)
(20.0538 0.11254 0)
(20.0773 0.11332 0)
(20.0954 0.11449 0)
(20.1082 0.11581 0)
(20.116 0.116996 0)
(20.1192 0.117836 0)
(20.1188 0.118183 0)
(20.1155 0.11793 0)
(20.1103 0.117125 0)
(20.1043 0.11485 0)
(14.168 -0.0585629 0)
(19.7478 0.146173 0)
(20.0177 0.069736 0)
(20.0275 0.0868351 0)
(20.0434 0.0897849 0)
(20.0633 0.090781 0)
(20.082 0.0921839 0)
(20.0972 0.0943621 0)
(20.1083 0.0969547 0)
(20.1151 0.0997055 0)
(20.118 0.102355 0)
(20.1177 0.10462 0)
(20.115 0.106245 0)
(20.1107 0.107192 0)
(20.1054 0.10672 0)
(14.0825 0.0388741 0)
(19.1299 0.0244539 0)
(19.8707 0.0355341 0)
(19.9964 0.0620098 0)
(20.0304 0.0660513 0)
(20.0514 0.0686829 0)
(20.0695 0.071731 0)
(20.0851 0.075356 0)
(20.0974 0.0793348 0)
(20.106 0.0835284 0)
(20.111 0.0877287 0)
(20.1127 0.0916687 0)
(20.1119 0.0950533 0)
(20.1091 0.0977371 0)
(20.105 0.0990477 0)
(14.7186 0.0719699 0)
(18.3395 -0.0395368 0)
(19.5649 0.0331084 0)
(19.8972 0.0553479 0)
(19.9896 0.0606563 0)
(20.0259 0.0642269 0)
(20.0484 0.0672944 0)
(20.066 0.0703665 0)
(20.0804 0.0736682 0)
(20.0915 0.0772387 0)
(20.0993 0.0809579 0)
(20.1039 0.0846382 0)
(20.1057 0.0880497 0)
(20.1052 0.0910445 0)
(20.1029 0.0930952 0)
(15.0764 0.0320825 4.75257e-36)
(17.8268 -0.0253795 0)
(19.2435 0.0398721 0)
(19.7644 0.0552669 0)
(19.9379 0.0635895 0)
(20.0022 0.0681572 0)
(20.0332 0.0708285 0)
(20.0534 0.0728229 0)
(20.0689 0.0748209 0)
(20.0811 0.0770449 0)
(20.0902 0.0794943 0)
(20.0964 0.0820756 0)
(20.0999 0.0846373 0)
(20.1011 0.0870533 0)
(20.1004 0.089022 0)
(15.1221 0.00748678 0)
(17.5318 0.00123653 0)
(18.9711 0.0394472 0)
(19.6213 0.0537747 0)
(19.878 0.0650203 0)
(19.9783 0.0706016 0)
(20.0226 0.0734085 0)
(20.047 0.0750085 0)
(20.0635 0.0762941 0)
(20.0759 0.0776377 0)
(20.0853 0.0791617 0)
(20.0919 0.0808601 0)
(20.0961 0.0826481 0)
(20.0981 0.0844106 0)
(20.0984 0.086024 0)
(14.9898 0.00275842 -9.29916e-36)
(17.332 0.015359 0)
(18.7495 0.0363789 0)
(19.4801 0.0516955 0)
(19.8096 0.0639625 0)
(19.9489 0.0703311 0)
(20.0105 0.0737054 0)
(20.0414 0.0754844 0)
(20.0599 0.076607 0)
(20.0728 0.0775709 0)
(20.0823 0.0786074 0)
(20.089 0.0797842 0)
(20.0935 0.0810762 0)
(20.096 0.0823922 0)
(20.0968 0.0837697 0)
(14.8048 0.00379672 -9.43343e-36)
(17.1505 0.0191624 0)
(18.561 0.0340219 0)
(19.3466 0.0494861 0)
(19.7364 0.061589 0)
(19.9137 0.0686474 0)
(19.9948 0.0727153 0)
(20.0343 0.0749096 0)
(20.0562 0.0761535 0)
(20.0701 0.0770263 0)
(20.0799 0.0778402 0)
(20.0869 0.0787245 0)
(20.0915 0.0797045 0)
(20.0943 0.0807164 0)
(20.0955 0.0818426 0)
(14.621 0.00467117 0)
(16.9709 0.0186392 0)
(18.3922 0.0321097 0)
(19.22 0.0468981 0)
(19.6608 0.058672 0)
(19.8744 0.0663767 0)
(19.976 0.0710527 0)
(20.0257 0.0737054 0)
(20.0519 0.075199 0)
(20.0675 0.0761391 0)
(20.0779 0.0768887 0)
(20.0851 0.0776257 0)
(20.0899 0.0784149 0)
(20.0929 0.0792189 0)
(20.0944 0.080118 0)
(14.4534 0.00473205 9.4333e-36)
(16.7969 0.0170076 0)
(18.2352 0.0301096 0)
(19.0978 0.0440652 0)
(19.5837 0.0557136 0)
(19.8321 0.0639334 0)
(19.9546 0.0690754 0)
(20.0154 0.0721527 0)
(20.0469 0.0739339 0)
(20.0648 0.0750134 0)
(20.076 0.0757844 0)
(20.0836 0.0764637 0)
(20.0886 0.0771484 0)
(20.0918 0.0778276 0)
(20.0935 0.0785861 0)
(14.3024 0.00441791 0)
(16.6327 0.0154336 0)
(18.0863 0.0280831 0)
(18.9784 0.041346 0)
(19.5053 0.0529788 0)
(19.7874 0.061541 0)
(19.9309 0.0670404 0)
(20.0035 0.0704901 0)
(20.0411 0.0725511 0)
(20.0618 0.0737923 0)
(20.0742 0.0746228 0)
(20.0822 0.0752909 0)
(20.0875 0.0759225 0)
(20.0908 0.0765336 0)
(20.0927 0.0772291 0)
(14.1645 0.00403752 1.8143e-35)
(16.4795 0.0141974 0)
(17.9441 0.0262264 0)
(18.8618 0.0389132 0)
(19.4263 0.0505057 0)
(19.7409 0.0592706 0)
(19.9053 0.0650725 0)
(19.9902 0.0688436 0)
(20.0344 0.0711605 0)
(20.0583 0.0725645 0)
(20.0722 0.0734699 0)
(20.0808 0.0741472 0)
(20.0864 0.0747469 0)
(20.0899 0.0753073 0)
(20.092 0.0759236 0)
(14.0365 0.0037123 -1.78224e-35)
(16.3363 0.013227 0)
(17.8086 0.0245641 0)
(18.7487 0.0366937 0)
(19.3471 0.0481878 0)
(19.6929 0.0570886 0)
(19.8782 0.0632002 0)
(19.9757 0.06725 0)
(20.027 0.0697966 0)
(20.0545 0.0713578 0)
(20.07 0.0723443 0)
(20.0794 0.0730408 0)
(20.0854 0.0736179 0)
(20.0891 0.0741322 0)
(20.0913 0.0746744 0)
(13.9166 0.00345876 0)
(16.2023 0.0123601 0)
(17.6801 0.023008 0)
(18.6397 0.0345732 0)
(19.2676 0.0459139 0)
(19.6431 0.0549614 0)
(19.8497 0.0614083 0)
(19.9602 0.0657047 0)
(20.0188 0.0684632 0)
(20.0503 0.0701779 0)
(20.0678 0.071252 0)
(20.078 0.0719794 0)
(20.0844 0.0725477 0)
(20.0884 0.0730327 0)
(20.0908 0.0735467 0)
(13.8048 0.00324505 0)
(16.0769 0.0115144 0)
(17.5587 0.021519 0)
(18.5346 0.0325468 0)
(19.1879 0.0436928 0)
(19.5918 0.0529102 0)
(19.8199 0.0596765 0)
(19.9436 0.0642 0)
(20.01 0.0671612 0)
(20.0457 0.069028 0)
(20.0653 0.0701959 0)
(20.0766 0.070965 0)
(20.0835 0.0715376 0)
(20.0877 0.0720051 0)
(20.0902 0.0724989 0)
(13.7008 0.00304132 1.7111e-35)
(15.9596 0.0107139 0)
(17.4438 0.0201349 0)
(18.4331 0.0306786 0)
(19.1083 0.0416039 0)
(19.5389 0.050966 0)
(19.7886 0.0580004 0)
(19.926 0.0627392 0)
(20.0005 0.0658966 0)
(20.0407 0.0679123 0)
(20.0627 0.0691766 0)
(20.0751 0.0699936 0)
(20.0825 0.0705771 0)
(20.087 0.0710298 0)
(20.0897 0.0714991 0)
(13.604 0.00284161 -1.68411e-35)
(15.8498 0.0100143 0)
(17.3347 0.0189087 0)
(18.3348 0.0290163 0)
(19.0293 0.0396935 0)
(19.4851 0.0491401 0)
(19.7562 0.056382 0)
(19.9075 0.0613315 0)
(19.9904 0.064677 0)
(20.0353 0.0668361 0)
(20.0598 0.0681961 0)