/*--------------------------------*- C++ -*----------------------------------*\
| =========                 |                                                 |
| \\      /  F ield         | OpenFOAM: The Open Source CFD Toolbox           |
|  \\    /   O peration     | Version:  2.3.0                                 |
|   \\  /    A nd           | Web:      www.OpenFOAM.org                      |
|    \\/     M anipulation  |                                                 |
\*---------------------------------------------------------------------------*/
FoamFile
{
    version     2.0;
    format      ascii;
    class       volScalarField;
    location    "3000";
    object      nut;
}
// * * * * * * * * * * * * * * * * * * * * * * * * * * * * * * * * * * * * * //

dimensions      [0 2 -1 0 0 0 0];

internalField   nonuniform List<scalar> 
38546
(
0.0721306
0.0704576
0.0687717
0.0670792
0.0653816
0.0636804
0.0619767
0.0602715
0.0585658
0.0568606
0.055157
0.053456
0.0517582
0.0500645
0.0483755
0.0466921
0.045015
0.043345
0.0416824
0.0400273
0.0383807
0.0367426
0.0351136
0.0334939
0.031884
0.0302845
0.0286959
0.0271185
0.0255527
0.024
0.0224613
0.0209374
0.0194299
0.0179433
0.0164802
0.0150445
0.0136442
0.0122878
0.0109892
0.00976113
0.00860828
0.00746077
0.00575523
0.073075
0.0715771
0.0700707
0.0685591
0.0670429
0.0655225
0.0639985
0.0624717
0.0609426
0.0594117
0.0578796
0.056347
0.0548141
0.0532813
0.0517493
0.0502182
0.0486892
0.0471624
0.0456378
0.0441161
0.0425976
0.0410825
0.0395716
0.0380652
0.0365641
0.0350687
0.0335805
0.0321002
0.0306296
0.0291712
0.0277271
0.0262996
0.0248941
0.0235167
0.0221727
0.0208718
0.0196259
0.0184473
0.0173523
0.0163572
0.0154815
0.0147413
0.0141471
0.0739535
0.0726129
0.0712641
0.0699101
0.0685509
0.0671867
0.065818
0.0644449
0.0630679
0.061687
0.0603028
0.0589156
0.0575252
0.056132
0.0547363
0.0533386
0.0519392
0.0505383
0.0491364
0.0477338
0.046331
0.0449286
0.0435271
0.042127
0.0407291
0.0393346
0.0379448
0.0365615
0.035187
0.033824
0.0324752
0.0311447
0.0298381
0.0285611
0.0273208
0.0261274
0.0249901
0.0239205
0.0229322
0.0220374
0.0212487
0.0205762
0.0200291
0.0747696
0.0735689
0.0723586
0.0711416
0.0699185
0.0686894
0.0674543
0.0662134
0.0649668
0.0637143
0.0624567
0.0611938
0.0599251
0.0586511
0.0573719
0.0560876
0.0547986
0.0535053
0.0522081
0.0509073
0.0496035
0.0482976
0.0469898
0.0456808
0.0443717
0.0430639
0.0417588
0.0404582
0.0391646
0.0378812
0.0366111
0.0353588
0.0341295
0.032929
0.0317646
0.0306451
0.0295791
0.028578
0.0276529
0.0268129
0.0260683
0.0254279
0.0248974
0.0755341
0.0744513
0.0733605
0.0722624
0.0711573
0.0700447
0.0689246
0.0677971
0.066662
0.0655196
0.0643699
0.0632127
0.0620482
0.0608758
0.0596954
0.0585073
0.0573117
0.0561092
0.0549004
0.0536857
0.0524657
0.0512411
0.0500124
0.0487807
0.047547
0.0463122
0.0450782
0.043847
0.0426213
0.041404
0.0401987
0.0390092
0.037841
0.0366999
0.0355923
0.0345265
0.0335114
0.0325572
0.0316727
0.030867
0.0301501
0.0295281
0.0290072
0.0762431
0.0752626
0.0742754
0.0732807
0.0722776
0.0712658
0.070245
0.0692148
0.0681754
0.0671268
0.0660688
0.0650019
0.0639261
0.0628403
0.0617443
0.060638
0.0595213
0.0583955
0.0572609
0.0561183
0.0549683
0.0538121
0.05265
0.0514836
0.0503134
0.0491401
0.0479651
0.0467914
0.045622
0.0444597
0.0433081
0.0421704
0.0410516
0.0399571
0.0388938
0.0378689
0.0368912
0.0359702
0.035114
0.0343323
0.0336336
0.0330239
0.0325091
0.0768889
0.0760036
0.0751084
0.0742041
0.0732896
0.0723652
0.0714305
0.070484
0.0695269
0.0685582
0.0675783
0.066588
0.0655878
0.0645768
0.0635534
0.0625166
0.0614671
0.0604059
0.0593341
0.0582516
0.05716
0.0560607
0.0549547
0.0538434
0.0527272
0.0516064
0.0504814
0.0493553
0.048232
0.0471157
0.0460094
0.0449159
0.043838
0.0427817
0.0417534
0.0407608
0.0398116
0.038915
0.0380799
0.0373154
0.0366297
0.0360295
0.0355192
0.0774828
0.0766808
0.0758659
0.0750403
0.0742031
0.073354
0.0724957
0.0716198
0.0707346
0.0698342
0.0689212
0.0679949
0.0670587
0.0661126
0.0651534
0.0641762
0.063184
0.0621767
0.0611588
0.0601277
0.0590836
0.0580315
0.0569724
0.0559069
0.0548367
0.0537622
0.0526816
0.0515946
0.0505082
0.0494289
0.0483616
0.0473076
0.0462657
0.0452413
0.0442412
0.0432758
0.042348
0.0414694
0.0406496
0.0398979
0.0392226
0.0386311
0.0381243
0.0780327
0.0773006
0.0765532
0.0757949
0.0750269
0.0742391
0.0734577
0.072634
0.0718158
0.0709701
0.0701161
0.0692415
0.0683559
0.0674619
0.0665637
0.0656387
0.0647005
0.0637356
0.0627632
0.0617801
0.0607717
0.059756
0.0587353
0.0577047
0.05667
0.0556362
0.0545987
0.0535445
0.052485
0.0514328
0.0503963
0.0493811
0.0483764
0.0473817
0.0464037
0.0454621
0.044552
0.043689
0.0428819
0.0421399
0.0414724
0.0408935
0.0403876
0.00489659
0.00532212
0.00596191
0.00663497
0.00731462
0.00799706
0.00868078
0.00936664
0.0100567
0.0107537
0.0114611
0.0121819
0.0129198
0.0136762
0.0144548
0.0152568
0.0160835
0.0169362
0.0178143
0.0187185
0.0196479
0.0206005
0.0215744
0.0225656
0.0235725
0.0245971
0.0256521
0.0267487
0.0278877
0.0290642
0.0302753
0.03152
0.0327979
0.0341066
0.0354437
0.0368076
0.0381971
0.0396114
0.0410492
0.0425099
0.0439932
0.0454991
0.0470291
0.0137092
0.0134272
0.0132951
0.0132979
0.0134247
0.0136589
0.013988
0.0143981
0.0148802
0.015423
0.0160195
0.0166629
0.0173475
0.0180702
0.0188259
0.0196128
0.0204278
0.0212699
0.0221374
0.0230281
0.0239414
0.0248762
0.0258299
0.0268032
0.0277949
0.0288062
0.0298385
0.0308925
0.0319681
0.0330651
0.0341822
0.0353201
0.0364781
0.0376558
0.0388528
0.0400689
0.0413036
0.0425567
0.0438276
0.0451159
0.0464217
0.0477462
0.0490965
0.0196034
0.0192962
0.0191053
0.0190308
0.0190655
0.0192038
0.0194337
0.0197484
0.0201362
0.0205903
0.0211011
0.0216639
0.0222715
0.0229191
0.0236024
0.0243186
0.0250645
0.025837
0.0266346
0.0274551
0.028297
0.0291587
0.0300398
0.0309381
0.0318537
0.0327863
0.0337355
0.0347008
0.0356818
0.0366785
0.0376902
0.0387169
0.0397587
0.040815
0.0418858
0.042971
0.0440707
0.0451844
0.0463118
0.0474523
0.0486056
0.0497711
0.0509485
0.024476
0.0241596
0.0239492
0.0238442
0.0238408
0.0239335
0.0241147
0.0243757
0.024709
0.0251066
0.025562
0.0260685
0.0266196
0.0272107
0.0278381
0.0284972
0.0291847
0.0298991
0.0306366
0.0313956
0.0321744
0.0329711
0.0337846
0.0346134
0.0354567
0.0363143
0.0371846
0.0380678
0.0389626
0.0398695
0.0407879
0.0417175
0.0426582
0.04361
0.0445727
0.0455464
0.046531
0.0475258
0.0485307
0.0495449
0.050568
0.0515981
0.0526324
0.028587
0.0282658
0.0280444
0.0279226
0.027897
0.0279625
0.0281117
0.0283382
0.0286346
0.0289937
0.0294095
0.0298745
0.0303838
0.0309324
0.0315163
0.0321308
0.0327733
0.0334408
0.0341299
0.034839
0.0355654
0.0363077
0.0370642
0.0378338
0.0386155
0.0394083
0.040211
0.0410234
0.0418449
0.0426754
0.0435143
0.0443613
0.0452168
0.0460801
0.0469513
0.0478308
0.0487177
0.0496116
0.0505121
0.0514187
0.0523306
0.0532468
0.054166
0.0320903
0.0317666
0.031539
0.031407
0.0313672
0.0314142
0.0315425
0.0317449
0.0320144
0.0323457
0.0327313
0.033165
0.0336422
0.034158
0.0347079
0.0352883
0.0358951
0.0365249
0.0371746
0.0378421
0.0385254
0.0392218
0.0399309
0.0406507
0.0413803
0.042118
0.0428635
0.0436165
0.0443761
0.0451422
0.0459143
0.0466919
0.0474752
0.048264
0.0490587
0.0498582
0.0506624
0.0514706
0.052282
0.0530967
0.0539135
0.0547315
0.0555512
0.0351015
0.0347763
0.034545
0.0344061
0.034357
0.034392
0.0345049
0.0346887
0.0349379
0.0352475
0.0356103
0.0360202
0.0364718
0.0369611
0.0374862
0.0380401
0.0386181
0.0392161
0.0398322
0.0404654
0.0411124
0.0417706
0.0424397
0.043118
0.0438032
0.0444946
0.0451915
0.0458947
0.0466023
0.0473141
0.0480299
0.0487488
0.0494712
0.0501979
0.050928
0.0516599
0.0523934
0.0531284
0.053864
0.0545998
0.0553346
0.0560677
0.0568002
0.0377073
0.0373806
0.0371477
0.0370043
0.0369509
0.0369777
0.0370773
0.037245
0.0374773
0.0377725
0.0381178
0.0385066
0.0389367
0.0394074
0.0399162
0.0404478
0.0409996
0.0415695
0.0421567
0.0427634
0.0433792
0.044004
0.0446407
0.0452841
0.045931
0.0465819
0.0472374
0.0479016
0.0485634
0.0492295
0.0498983
0.0505671
0.0512381
0.0519138
0.0525894
0.0532629
0.0539365
0.0546084
0.055279
0.0559476
0.0566111
0.0572693
0.0579248
0.0399737
0.0396441
0.0394153
0.0392651
0.039218
0.0392356
0.0393206
0.0394721
0.0396916
0.0399834
0.040308
0.0406752
0.0410898
0.0415492
0.0420557
0.0425538
0.0430836
0.0436266
0.0441888
0.0447802
0.0453595
0.0459591
0.0465742
0.0471829
0.0477953
0.0484123
0.0490333
0.0496723
0.0502826
0.0509199
0.051547
0.0521715
0.0528009
0.0534395
0.054064
0.0546875
0.0553128
0.0559301
0.0565457
0.0571589
0.0577584
0.0583525
0.058944
0.0204471
0.0193383
0.0182735
0.0172508
0.0162692
0.0153278
0.0144253
0.0135608
0.0127332
0.0119413
0.0111846
0.0104621
0.00977293
0.00911672
0.00849264
0.00790015
0.00733893
0.00680869
0.00630984
0.0058435
0.00541173
0.00501823
0.00466932
0.00436911
0.00410831
0.00387542
0.00366196
0.00346218
0.00327213
0.0030885
0.00290888
0.00273064
0.00255161
0.00236971
0.0021828
0.00198873
0.0017854
0.00157095
0.0013436
0.00110117
0.000838647
0.000591385
0.000921813
0.0204195
0.0193932
0.0184047
0.0174522
0.0165346
0.0156508
0.0148
0.0139814
0.0131938
0.0124368
0.0117095
0.0110112
0.0103411
0.00969895
0.00908418
0.00849634
0.00793495
0.00739986
0.00689099
0.00640896
0.00595495
0.00553101
0.00514098
0.00479068
0.00448423
0.00421438
0.00397218
0.00375036
0.00354324
0.00334648
0.00315651
0.00297024
0.00278511
0.0025984
0.0024077
0.00221038
0.00200405
0.00178632
0.00155514
0.00131195
0.00111916
0.00149484
0.00280893
0.0203948
0.0194511
0.0185368
0.0176517
0.0167955
0.0159671
0.015166
0.0143913
0.0136425
0.012919
0.0122201
0.011545
0.0108937
0.0102655
0.00966031
0.00907753
0.00851706
0.00797862
0.00746212
0.00696801
0.00649667
0.00604937
0.00562852
0.00523837
0.00488598
0.00457449
0.00429648
0.00404498
0.00381393
0.00359823
0.00339338
0.00319547
0.00300113
0.0028072
0.00261067
0.00240862
0.00219804
0.00197624
0.00174373
0.00153801
0.00171373
0.00301061
0.00489653
0.0203759
0.0195064
0.0186601
0.0178372
0.0170373
0.0162599
0.0155045
0.0147706
0.0140577
0.0133651
0.0126926
0.0120397
0.0114061
0.0107915
0.0101957
0.00961851
0.00905979
0.00851946
0.00799738
0.00749392
0.00700935
0.00654451
0.00610091
0.00568126
0.00529125
0.00493893
0.00462343
0.00433867
0.00407905
0.00383972
0.00361578
0.00340272
0.00319643
0.00299302
0.00278895
0.00258071
0.00236497
0.00213945
0.001916
0.00184419
0.0026509
0.00464477
0.00684552
0.0203632
0.0195587
0.0187737
0.0180071
0.0172586
0.0165277
0.015814
0.0151172
0.014437
0.0137731
0.0131251
0.0124927
0.0118757
0.011274
0.0106876
0.0101161
0.0095599
0.00901874
0.00849266
0.00798193
0.00748697
0.00700835
0.00654697
0.00610503
0.00568621
0.00529793
0.00494685
0.0046286
0.00433856
0.00407258
0.00382629
0.00359511
0.00337434
0.00315955
0.00294643
0.00273094
0.00250939
0.0022818
0.0020867
0.00227055
0.00373833
0.00616301
0.00859244
0.0203515
0.0196076
0.0188781
0.0181626
0.0174606
0.0167719
0.0160962
0.0154334
0.0147831
0.0141454
0.0135199
0.0129064
0.0123049
0.0117153
0.0111376
0.0105719
0.0100183
0.00947704
0.00894814
0.00843173
0.00792838
0.00743852
0.00696293
0.00650321
0.0060621
0.00564499
0.00526109
0.00491123
0.00459111
0.00429752
0.00402702
0.00377546
0.00353813
0.00331024
0.00308685
0.00286327
0.0026357
0.00240845
0.00226779
0.00279518
0.00481201
0.00751993
0.0101401
0.0203439
0.0196535
0.018974
0.0183047
0.0176451
0.0169946
0.0163535
0.0157216
0.0150989
0.0144851
0.01388
0.013284
0.0126969
0.0121185
0.0115492
0.0109891
0.0104385
0.0098973
0.00936611
0.00884505
0.00833465
0.00783545
0.00734802
0.00687363
0.0064144
0.00597443
0.0055618
0.00518312
0.00483475
0.00451418
0.00421901
0.00394594
0.00369073
0.0034484
0.00321356
0.00298115
0.00274744
0.00252379
0.00246477
0.00336675
0.00580034
0.00872123
0.0115072
0.0203372
0.0196957
0.0190618
0.0184345
0.0178136
0.0171982
0.0165884
0.0159851
0.0153878
0.014796
0.0142099
0.0136301
0.0130562
0.0124881
0.0119264
0.0113719
0.0108246
0.010284
0.00975046
0.00922477
0.00870824
0.00820121
0.00770386
0.00721694
0.00674214
0.00628267
0.00584568
0.00544102
0.00506674
0.00472043
0.00440105
0.00410653
0.00383274
0.00357503
0.00332846
0.00308716
0.00284712
0.00263011
0.00267407
0.00393835
0.00668835
0.00978375
0.0127145
0.0203295
0.0197332
0.0191409
0.018551
0.0179687
0.0173865
0.0168025
0.0162265
0.0156557
0.0150855
0.0145169
0.0139534
0.0133939
0.0128351
0.012279
0.01173
0.0111887
0.0106534
0.0101182
0.00958388
0.00906039
0.00854815
0.00804541
0.00755273
0.00706939
0.00659026
0.00612589
0.00569507
0.00530124
0.00493072
0.0045829
0.00426367
0.00397243
0.00369741
0.00343339
0.0031802
0.0029384
0.00273216
0.00290798
0.00452449
0.00749807
0.0107316
0.0137823
0.00182486
0.00264805
0.00328525
0.00387823
0.00461741
0.00544945
0.00634265
0.00728875
0.00828348
0.00932422
0.0104069
0.0115289
0.0126885
0.0138835
0.0151159
0.0163839
0.0176892
0.019033
0.0204162
0.0218416
0.0233105
0.0248271
0.0263934
0.028013
0.0296895
0.0314278
0.0332324
0.0351079
0.0370606
0.039096
0.0412207
0.0434413
0.0457652
0.0481997
0.0507488
0.0534164
0.0562067
0.0591243
0.0621733
0.0653582
0.0686831
0.0721518
0.0757681
0.00426421
0.00551197
0.00659022
0.00755389
0.00844112
0.00927764
0.0101146
0.0110169
0.0119987
0.013037
0.0141196
0.0152407
0.016398
0.0175898
0.0188144
0.0200719
0.0213623
0.0226862
0.0240458
0.0254421
0.0268777
0.0283549
0.0298769
0.0314462
0.0330675
0.0347435
0.0364789
0.0382782
0.0401459
0.0420873
0.0441078
0.0462131
0.0484093
0.0507023
0.0530949
0.0555897
0.0581899
0.0608984
0.0637182
0.0666524
0.0697041
0.0728758
0.0761697
0.00666324
0.00822938
0.00962374
0.0108769
0.0120188
0.0130767
0.0140773
0.0150451
0.016002
0.0169732
0.0179829
0.0190412
0.0201436
0.0212847
0.0224608
0.0236713
0.0249144
0.0261919
0.0275039
0.0288521
0.0302387
0.0316645
0.0331322
0.0346452
0.036206
0.037818
0.0394842
0.0412084
0.0429944
0.0448468
0.0467695
0.0487673
0.050845
0.0530074
0.0552561
0.0575929
0.0600196
0.0625382
0.0651506
0.0678586
0.0706646
0.0735703
0.0765758
0.00885488
0.0106615
0.0122908
0.0137656
0.0151113
0.016352
0.0175091
0.0186016
0.0196486
0.0206672
0.0216753
0.022689
0.0237237
0.0247921
0.0258991
0.0270443
0.0282269
0.0294461
0.0307026
0.0319969
0.0333298
0.0347028
0.0361173
0.0375751
0.0390789
0.0406307
0.042233
0.0438884
0.0456
0.0473712
0.0492051
0.0511054
0.0530757
0.0551198
0.0572384
0.0594324
0.0617029
0.0640504
0.0664759
0.0689808
0.0715664
0.074235
0.0769861
0.0108068
0.0128123
0.0146308
0.0162832
0.0177925
0.0191807
0.0204677
0.0216729
0.0228104
0.0238969
0.0249463
0.0259722
0.0269897
0.0280135
0.029058
0.030136
0.031254
0.0324127
0.0336133
0.0348546
0.0361369
0.0374604
0.0388259
0.0402342
0.0416867
0.0431847
0.0447299
0.046324
0.0479693
0.0496682
0.0514229
0.053236
0.05511
0.0570479
0.0590501
0.0611166
0.0632472
0.0654414
0.0676991
0.0700209
0.0724088
0.0748655
0.0773966
0.0125336
0.0147089
0.0166864
0.0184865
0.0201305
0.0216403
0.0230353
0.0243334
0.02555
0.026699
0.0277938
0.0288475
0.0298729
0.0308845
0.0318961
0.032924
0.0339842
0.0350876
0.0362363
0.0374297
0.0386663
0.0399464
0.041269
0.0426345
0.0440426
0.0454935
0.0469885
0.0485289
0.050116
0.0517513
0.0534359
0.055171
0.0569589
0.0588023
0.060701
0.0626544
0.064661
0.066718
0.0688244
0.0709809
0.0731894
0.0754512
0.0777642
0.0140586
0.0163818
0.0184963
0.020422
0.0221795
0.0237908
0.0252756
0.0266518
0.0279349
0.0291381
0.0302739
0.0313562
0.0323979
0.0334109
0.0344084
0.035407
0.0364267
0.0374842
0.0385881
0.0397392
0.0409368
0.0421794
0.0434665
0.0447959
0.0461651
0.0475751
0.0490268
0.0505202
0.0520566
0.0536366
0.0552591
0.0569237
0.0586341
0.0603938
0.0622021
0.0640568
0.0659539
0.0678887
0.0698577
0.0718636
0.0739114
0.0760002
0.0781262
0.0154049
0.0178589
0.0200935
0.0221285
0.023983
0.0256799
0.0272395
0.0286818
0.0300217
0.0312713
0.0324427
0.0335517
0.0346099
0.0356276
0.0366202
0.0376064
0.0386033
0.039626
0.0406914
0.041806
0.0429695
0.0441819
0.0454417
0.0467407
0.0480736
0.0494485
0.0508636
0.0523154
0.0538086
0.0553425
0.0569083
0.0585062
0.060147
0.0618343
0.0635651
0.0653355
0.0671379
0.0689631
0.0708038
0.0726711
0.0745763
0.0765149
0.0784787
0.0165937
0.0191636
0.0215066
0.0236391
0.0255763
0.0273461
0.0289657
0.0304651
0.0318564
0.0331463
0.0343456
0.0354749
0.0365442
0.0375655
0.0385574
0.0395541
0.0405347
0.0415285
0.0425615
0.0436448
0.0447797
0.0459693
0.047212
0.0484809
0.0497736
0.051125
0.052508
0.0539203
0.0553825
0.0568808
0.0583876
0.0599173
0.0615018
0.0631308
0.0647984
0.0665009
0.0682233
0.069948
0.0716594
0.0733976
0.0751832
0.0769958
0.0788315
0.000330897
0.00152109
0.00289954
0.00435853
0.00586536
0.00740181
0.00896027
0.0105356
0.0121231
0.0137202
0.0153264
0.0169416
0.0185651
0.0201986
0.0218419
0.0234961
0.0251608
0.0268362
0.0285233
0.0302216
0.0319306
0.0336509
0.035382
0.0371234
0.0388747
0.0406359
0.0424058
0.0441846
0.0459709
0.0477643
0.0495636
0.0513683
0.0531772
0.0549891
0.0568031
0.0586179
0.0604324
0.062245
0.0640549
0.0658605
0.0676603
0.0694538
0.0712377
0.000206379
0.00104767
0.0021161
0.00331085
0.00459548
0.00595024
0.00736173
0.00881948
0.0103169
0.0118473
0.013407
0.0149924
0.0166009
0.0182306
0.01988
0.0215482
0.0232327
0.0249339
0.0266508
0.0283821
0.0301273
0.0318862
0.0336576
0.0354407
0.0372353
0.0390405
0.0408556
0.0426793
0.0445113
0.0463505
0.0481957
0.0500462
0.0519007
0.053758
0.055617
0.0574768
0.0593354
0.0611918
0.063045
0.0648931
0.0667348
0.0685685
0.0703896
0.000158688
0.000853806
0.00173619
0.00275114
0.0038722
0.00508117
0.0063645
0.00771186
0.00911517
0.0105674
0.012063
0.0135967
0.0151652
0.0167652
0.0183938
0.0200482
0.0217268
0.0234278
0.0251495
0.0268903
0.0286489
0.0304243
0.0322154
0.0340213
0.0358403
0.037672
0.0395152
0.0413684
0.0432311
0.0451019
0.0469797
0.0488631
0.0507511
0.0526424
0.0545356
0.0564293
0.0583225
0.0602133
0.0621005
0.0639825
0.0658577
0.0677244
0.0695787
0.000140956
0.00070224
0.001468
0.00236847
0.00337998
0.0044852
0.00567115
0.00692828
0.00824883
0.0096261
0.0110546
0.0125298
0.0140477
0.0156046
0.0171973
0.0188231
0.0204794
0.0221639
0.0238746
0.0256094
0.0273668
0.0291452
0.030943
0.0327587
0.0345906
0.0364377
0.0382984
0.0401715
0.0420557
0.0439497
0.045852
0.0477613
0.0496759
0.0515947
0.0535162
0.0554389
0.0573612
0.0592817
0.0611987
0.0631109
0.0650165
0.0669136
0.0688007
0.000154251
0.000615303
0.00130718
0.00212584
0.00305254
0.00407262
0.00517508
0.00635179
0.0075957
0.00890141
0.0102641
0.0116794
0.0131429
0.0146517
0.0162027
0.0177924
0.0194182
0.0210777
0.0227685
0.0244883
0.0262357
0.028008
0.0298033
0.0316202
0.0334569
0.0353113
0.037182
0.0390679
0.0409669
0.0428774
0.0447982
0.0467274
0.0486633
0.0506046
0.0525498
0.054497
0.0564448
0.0583911
0.0603349
0.0622742
0.0642076
0.0661339
0.0680548
0.000162267
0.000558468
0.00119608
0.00195152
0.00281079
0.00376125
0.00479406
0.00590196
0.00707897
0.00832046
0.00962253
0.0109809
0.0123916
0.0138524
0.0153596
0.0169103
0.0185019
0.0201321
0.0217978
0.023497
0.025228
0.0269878
0.0287745
0.0305864
0.0324212
0.0342768
0.0361521
0.0380449
0.039953
0.0418751
0.0438092
0.0457536
0.0477065
0.0496662
0.051631
0.0535992
0.0555687
0.057538
0.0595054
0.061469
0.0634273
0.065378
0.067316
0.000166508
0.00051389
0.00110833
0.00181365
0.00261872
0.00351254
0.00448743
0.00553707
0.00665645
0.0078415
0.0090889
0.0103946
0.011756
0.0131702
0.0146344
0.0161458
0.0177018
0.0193002
0.0209379
0.0226131
0.0243235
0.0260666
0.0278401
0.0296423
0.0314705
0.0333233
0.035198
0.037093
0.0390059
0.040935
0.0428783
0.0448342
0.0468002
0.0487747
0.0507558
0.0527415
0.0547298
0.0567192
0.0587076
0.0606931
0.0626738
0.0646474
0.0666066
0.00016955
0.000478957
0.00103706
0.00170127
0.00246143
0.00330794
0.00423377
0.00523338
0.00630256
0.00743793
0.0086361
0.00989432
0.0112099
0.0125803
0.0140033
0.0154759
0.0169964
0.0185622
0.0201704
0.0218195
0.0235071
0.0252304
0.0269879
0.0287767
0.0305951
0.0324406
0.0343112
0.0362046
0.0381186
0.0400511
0.0420003
0.0439639
0.0459398
0.0479261
0.0499204
0.0519207
0.0539255
0.0559323
0.0579391
0.0599443
0.0619458
0.0639423
0.0659306
0.000171809
0.000450656
0.000977821
0.0016075
0.0023297
0.00313575
0.00401924
0.00497544
0.00600068
0.00709174
0.00824584
0.00946098
0.0107344
0.0120641
0.0134479
0.0148834
0.0163688
0.0179021
0.0194805
0.0211025
0.0227657
0.0244678
0.0262066
0.02798
0.0297853
0.031621
0.0334844
0.0353732
0.0372853
0.0392185
0.0411704
0.043139
0.0451218
0.0471168
0.0491217
0.0511345
0.0531529
0.0551748
0.0571981
0.0592207
0.0612405
0.0632553
0.0652573
0.000173564
0.000426779
0.000927437
0.00152767
0.00221728
0.00298824
0.00383476
0.00475271
0.00573895
0.00679036
0.0079049
0.00908064
0.0103154
0.0116071
0.0129542
0.0143544
0.0158062
0.0173077
0.0188566
0.0204513
0.0220896
0.0237691
0.0254879
0.027244
0.0290348
0.0308583
0.0327122
0.0345941
0.0365018
0.0384328
0.0403849
0.0423556
0.0443428
0.0463442
0.0483574
0.0503801
0.0524102
0.0544451
0.0564826
0.0585209
0.0605579
0.0625916
0.0646201
0.000174781
0.000405891
0.00088348
0.00145812
0.00211927
0.00285945
0.00367343
0.00455766
0.00550891
0.00652493
0.00760363
0.00874337
0.00994241
0.011199
0.0125116
0.0138786
0.0152986
0.0167694
0.0182893
0.0198568
0.02147
0.0231264
0.0248245
0.0265622
0.0283369
0.0301465
0.0319893
0.0338621
0.0357633
0.0376901
0.0396401
0.041611
0.0436005
0.0456061
0.0476252
0.0496559
0.0516953
0.053741
0.0557911
0.0578431
0.0598948
0.0619442
0.0639856
0.000175827
0.000387899
0.000845165
0.00139704
0.00203305
0.00274592
0.00353092
0.00438477
0.00530465
0.00628855
0.00733475
0.00844158
0.0096077
0.0108317
0.0121121
0.0134477
0.0148373
0.0162787
0.0177706
0.0193114
0.0208996
0.0225331
0.0242099
0.0259283
0.0276859
0.0294809
0.0313108
0.0331733
0.0350661
0.0369869
0.0389332
0.0409023
0.0428922
0.0449
0.0469232
0.0489598
0.0510066
0.0530616
0.0551222
0.0571858
0.0592504
0.0613123
0.0633638
0.000176761
0.000372001
0.000811753
0.00134296
0.00195638
0.00264471
0.00340366
0.00423011
0.00512147
0.00607618
0.00709262
0.00816936
0.00930508
0.0104987
0.0117492
0.0130552
0.0144155
0.0158289
0.017294
0.0188091
0.0203728
0.0219833
0.0236388
0.0253376
0.0270776
0.0288569
0.0306731
0.0325239
0.034407
0.0363203
0.0382612
0.0402269
0.0422154
0.0442236
0.0462495
0.0482901
0.0503428
0.0524051
0.0544745
0.0565486
0.058625
0.0607017
0.0627757
0.000177596
0.000358158
0.000782164
0.00129444
0.0018875
0.00255378
0.00328918
0.00409065
0.00495621
0.00588428
0.00687336
0.0079222
0.00902977
0.0101952
0.0114176
0.0126956
0.0140285
0.0154152
0.0168542
0.0183443
0.0198841
0.0214719
0.0231063
0.0247855
0.0265076
0.0282705
0.0300722
0.0319104
0.0337831
0.0356877
0.0376216
0.0395826
0.0415683
0.0435755
0.0456023
0.0476453
0.0497023
0.0517706
0.0538474
0.0559301
0.0580161
0.0601023
0.0621822
0.000178478
0.000345785
0.000755579
0.00125066
0.00182522
0.00247135
0.00318527
0.00396408
0.00480592
0.00570933
0.00667308
0.00769619
0.00877773
0.00991677
0.0111127
0.0123647
0.0136717
0.0150327
0.0164467
0.0179128
0.0194294
0.020995
0.0226086
0.0242682
0.025972
0.0277184
0.029505
0.03133
0.0331913
0.0350862
0.0370123
0.0389675
0.0409489
0.0429541
0.0449801
0.0470243
0.0490844
0.051157
0.0532397
0.0553295
0.0574236
0.0595191
0.0616117
0.000179236
0.000334499
0.00073132
0.0012108
0.0017685
0.00239635
0.00309051
0.00384851
0.00466843
0.00554911
0.00648947
0.0074886
0.00854578
0.00966017
0.0108313
0.0120586
0.0133409
0.0146776
0.016068
0.0175109
0.0190048
0.0205491
0.0221419
0.023782
0.0254679
0.0271975
0.0289689
0.0307801
0.0326293
0.0345138
0.0364313
0.0383794
0.0403556
0.0423572
0.0443815
0.0464259
0.0484873
0.0505631
0.0526503
0.054746
0.056847
0.0589505
0.0610518
0.000179944
0.000324311
0.000709275
0.00117427
0.00171658
0.00232762
0.00300363
0.00374228
0.00454206
0.00540176
0.0063203
0.00729705
0.00833138
0.00942267
0.0105705
0.0117743
0.0130333
0.0143472
0.0157147
0.0171351
0.0186074
0.0201305
0.0217034
0.0233244
0.0249923
0.0267051
0.0284611
0.0302583
0.0320947
0.0339682
0.0358762
0.0378166
0.0397867
0.0417838
0.0438053
0.0458485
0.0479104
0.049988
0.0520788
0.0541791
0.0562862
0.0583968
0.0605063
0.000180578
0.000314972
0.000689109
0.00114098
0.0016688
0.0022642
0.00292344
0.00364429
0.00442535
0.00526541
0.00616371
0.00711955
0.00813249
0.00920212
0.0103281
0.0115097
0.0127466
0.0140383
0.015384
0.016783
0.0182343
0.0197372
0.0212903
0.0228927
0.0245427
0.0262388
0.0279793
0.0297621
0.0315855
0.0334476
0.0353457
0.0372776
0.0392407
0.0412326
0.0432503
0.0452914
0.0473525
0.0494312
0.0515242
0.0536284
0.0557406
0.0578578
0.0599755
0.000181206
0.000306489
0.000670691
0.0011105
0.00162457
0.00220552
0.00284925
0.00355361
0.00431714
0.00513877
0.00601803
0.00695437
0.00794721
0.0089965
0.0101017
0.0112623
0.0124782
0.0137487
0.0150735
0.016452
0.0178832
0.0193664
0.0209005
0.0224845
0.0241169
0.0257963
0.0275211
0.0292896
0.0311
0.0329502
0.0348378
0.0367607
0.0387164
0.0407022
0.0427154
0.0447533
0.046813
0.0488916
0.050986
0.0530931
0.0552097
0.0573327
0.059458
0.000181783
0.000298604
0.000653601
0.00108224
0.00158354
0.00215102
0.00278025
0.00346912
0.00421636
0.00502088
0.00588237
0.00680016
0.00777402
0.00880391
0.00988939
0.0110303
0.0122261
0.0134766
0.0147816
0.0161401
0.0175519
0.019016
0.0205316
0.0220976
0.0237127
0.0253757
0.0270851
0.0288394
0.0306365
0.0324745
0.0343514
0.0362647
0.0382124
0.0401915
0.0421994
0.0442335
0.0462908
0.0483686
0.0504636
0.0525726
0.0546926
0.0568205
0.0589517
0.000182316
0.000291667
0.000637829
0.00105603
0.00154539
0.00210023
0.00271577
0.00339011
0.00412202
0.00491062
0.00575537
0.00665575
0.00761185
0.00862346
0.0096903
0.0108123
0.011989
0.0132204
0.0145062
0.0158457
0.0172387
0.0186843
0.0201819
0.0217302
0.0233286
0.0249753
0.0266696
0.0284095
0.0301931
0.0320189
0.0338846
0.0357882
0.0377273
0.039699
0.0417012
0.043731
0.0457853
0.0478615
0.0499561
0.0520662
0.0541886
0.0563198
0.0584549
0.000183148
0.000286652
0.000623197
0.0010316
0.00150981
0.00205271
0.00265553
0.0033163
0.00403377
0.00480716
0.00563605
0.00652017
0.00745952
0.00845371
0.00950275
0.0106067
0.0117652
0.0129784
0.0142458
0.0155672
0.016942
0.0183698
0.0198496
0.0213811
0.0229628
0.0245939
0.0262728
0.0279983
0.0297686
0.0315821
0.0334365
0.0353301
0.03726
0.0392242
0.0412201
0.0432448
0.0452955
0.0473693
0.0494631
0.0515734
0.0536974
0.0558309
0.0579687
0.000184613
0.000284966
0.000609672
0.00100884
0.00147641
0.00200819
0.00259911
0.00324708
0.00395088
0.00470991
0.00552384
0.00639256
0.0073158
0.00829349
0.00932573
0.0104125
0.0115537
0.0127494
0.0139993
0.0153029
0.0166603
0.0180707
0.0195338
0.0210485
0.0226141
0.0242295
0.0258935
0.0276048
0.0293619
0.0311629
0.033006
0.0348889
0.0368098
0.0387661
0.0407551
0.0427744
0.0448209
0.0468917
0.0489838
0.0510941
0.053219
0.0553551
0.0574965
0.000186708
0.000285796
0.000597167
0.000987474
0.00144518
0.0019664
0.00254601
0.0031818
0.00387275
0.00461817
0.005418
0.006272
0.00718002
0.00814211
0.0091584
0.0102287
0.0113533
0.0125322
0.0137652
0.0150519
0.0163924
0.0177862
0.0192327
0.0207313
0.0222809
0.0238811
0.0255306
0.0272279
0.0289715
0.0307601
0.0325917
0.0344643
0.0363757
0.0383236
0.0403056
0.0423187
0.0443605
0.046428
0.0485181
0.0506277
0.0527537
0.0548933
0.0570449
0.000189045
0.00028787
0.000585579
0.000967542
0.00141602
0.00192703
0.00249582
0.00312013
0.00379893
0.00453169
0.00531805
0.00615813
0.00705156
0.00799869
0.00899963
0.0100543
0.0111631
0.0123258
0.0135425
0.0148132
0.0161373
0.0175148
0.0189453
0.0204281
0.0219624
0.0235477
0.0251827
0.0268662
0.0285967
0.0303728
0.0321927
0.0340547
0.0359565
0.037896
0.0398702
0.0418772
0.043914
0.0459776
0.048065
0.0501732
0.0522988
0.0544385
0.0565856
0.000191472
0.000290125
0.000574673
0.000948734
0.00138849
0.00188979
0.00244843
0.00306191
0.00372923
0.00444979
0.00522342
0.0060501
0.00692968
0.0078626
0.00884889
0.00988867
0.0109821
0.0121295
0.0133306
0.0145854
0.0158938
0.0172557
0.0186707
0.0201381
0.0216575
0.0232282
0.0248489
0.0265186
0.028236
0.0299998
0.0318084
0.0336596
0.0355517
0.0374823
0.0394489
0.0414493
0.0434805
0.0455398
0.0476241
0.0497303
0.0518552
0.0539954
0.0561479
0.000193905
0.000292402
0.000564691
0.000931173
0.00136252
0.00185458
0.00240352
0.00300664
0.00366296
0.00437192
0.00513341
0.00594733
0.00681391
0.00773329
0.00870559
0.00973099
0.0108099
0.0119423
0.0131282
0.0143679
0.0156613
0.017008
0.0184078
0.0198603
0.0213651
0.0229214
0.0245281
0.0261844
0.0278891
0.0296408
0.0314378
0.0332782
0.0351603
0.0370819
0.0390407
0.0410341
0.0430596
0.0451142
0.0471948
0.0492986
0.0514218
0.0535606
0.0557091
0.00019622
0.00029426
0.000555319
0.000914607
0.00133799
0.0018212
0.00236084
0.0029542
0.00360012
0.00429805
0.00504789
0.00584972
0.00670371
0.00760999
0.00856886
0.0095806
0.0106453
0.0117635
0.012935
0.0141601
0.0154387
0.0167707
0.0181559
0.019594
0.0210845
0.0226267
0.0242198
0.0258629
0.0275549
0.0292942
0.0310797
0.0329095
0.0347817
0.0366943
0.038645
0.0406313
0.0426505
0.0447
0.0467767
0.0488776
0.0509991
0.0531378
0.0552888
0.00019821
0.000295633
0.000546393
0.000898846
0.0013146
0.0017893
0.00232019
0.0029042
0.00354017
0.00422763
0.00496643
0.00575667
0.00659861
0.00749231
0.00843832
0.00943682
0.0104882
0.0115926
0.0127501
0.0139611
0.0152255
0.0165433
0.0179143
0.0193384
0.0208149
0.0223433
0.0239229
0.0255531
0.0272324
0.0289598
0.030734
0.032553
0.0344152
0.0363186
0.0382611
0.0402399
0.0422529
0.0442971
0.0463696
0.0484673
0.050587
0.0527253
0.0548775
0.00019998
0.000296831
0.00053798
0.000883932
0.00129245
0.00175912
0.00228162
0.00285662
0.00348306
0.00416039
0.00488856
0.00566778
0.00649818
0.00738001
0.00831363
0.00929938
0.0103378
0.0114288
0.0125728
0.0137702
0.0150209
0.0163249
0.0176822
0.0190925
0.0205553
0.0220703
0.023637
0.0252542
0.0269214
0.028637
0.0303996
0.032208
0.0340602
0.0359544
0.0378885
0.0398599
0.0418663
0.0439049
0.0459729
0.0480672
0.0501846
0.0523218
0.0544742
0.000201747
0.00029796
0.000529994
0.000869724
0.00127138
0.00173045
0.00224475
0.00281127
0.00342855
0.00409627
0.00481431
0.00558278
0.00640204
0.00727239
0.00819407
0.00916774
0.0101936
0.0112718
0.0124029
0.0135869
0.0148243
0.016115
0.0174589
0.0188558
0.0203054
0.0218075
0.0233612
0.024966
0.0266209
0.0283247