/*--------------------------------*- C++ -*----------------------------------*\
| =========                 |                                                 |
| \\      /  F ield         | OpenFOAM: The Open Source CFD Toolbox           |
|  \\    /   O peration     | Version:  2.3.0                                 |
|   \\  /    A nd           | Web:      www.OpenFOAM.org                      |
|    \\/     M anipulation  |                                                 |
\*---------------------------------------------------------------------------*/
FoamFile
{
    version     2.0;
    format      ascii;
    class       volScalarField;
    location    "3000";
    object      p;
}
// * * * * * * * * * * * * * * * * * * * * * * * * * * * * * * * * * * * * * //

dimensions      [0 2 -2 0 0 0 0];

internalField   nonuniform List<scalar> 
38546
(
-0.000296362
2.44586
4.37401
6.22144
8.0711
9.91303
11.7408
13.5537
15.3525
17.1384
18.9079
20.66
22.3943
24.1086
25.8018
27.4671
29.105
30.7045
32.2638
33.7713
35.2194
36.5928
37.8807
39.0627
40.1229
41.0357
41.7758
42.3017
42.5919
42.5789
42.2242
41.4457
40.1563
38.262
35.5976
32.0135
27.2594
20.8369
12.1569
0.432309
-15.3876
-38.6286
-79.2749
-1.52849
0.592325
2.38931
4.10957
5.84011
7.57537
9.30889
11.0372
12.7618
14.4807
16.1938
17.898
19.592
21.2754
22.9453
24.601
26.2395
27.858
29.4551
31.028
32.572
34.0827
35.5528
36.9739
38.3343
39.619
40.8114
41.8828
42.8084
43.5445
44.0457
44.2563
44.1059
43.5028
42.3469
40.5216
37.8801
34.2531
29.4029
23.0446
14.8604
4.38895
-9.26558
-3.36969
-1.46802
0.071171
1.50932
2.94471
4.37002
5.78068
7.17172
8.54408
9.89418
11.221
12.5204
13.7899
15.0267
16.2251
17.3819
18.4914
19.5483
20.5453
21.4747
22.3257
23.0882
23.7482
24.2914
24.6996
24.9516
25.0242
24.8844
24.4993
23.8239
22.8119
21.4032
19.5298
17.1083
14.0481
10.2444
5.5777
-0.0750652
-6.84276
-14.8383
-24.1475
-34.7696
-46.5118
-5.0083
-3.34561
-2.01778
-0.77363
0.466416
1.69518
2.90985
4.10911
5.29103
6.45699
7.60383
8.72815
9.82899
10.9026
11.9435
12.9486
13.9134
14.8347
15.7053
16.5195
17.2674
17.9384
18.5213
19.0011
19.3618
19.5827
19.6415
19.5128
19.1641
18.5581
17.6532
16.4011
14.746
12.6292
9.98152
6.7305
2.80145
-1.88074
-7.38377
-13.7533
-21.0079
-29.1139
-37.9547
-6.37507
-5.05722
-3.94631
-2.87579
-1.81202
-0.759895
0.275776
1.29454
2.29459
3.2763
4.23569
5.17302
6.08435
6.96573
7.8107
8.61426
9.3706
10.0772
10.7257
11.3117
11.8252
12.256
12.5934
12.8191
12.9184
12.8727
12.6594
12.2533
11.6271
10.7455
9.56964
8.05748
6.15801
3.82779
1.00956
-2.35172
-6.31051
-10.9138
-16.1973
-22.1741
-28.8255
-36.0863
-43.8448
-7.51349
-6.5995
-5.67203
-4.75961
-3.85182
-2.94513
-2.05334
-1.17582
-0.314497
0.53081
1.35102
2.15673
2.93735
3.69275
4.41281
5.09102
5.72288
6.3122
6.84047
7.30995
7.70871
8.02875
8.26271
8.38889
8.38715
8.24707
7.94794
7.45969
6.76794
5.83759
4.62887
3.10015
1.2079
-1.07853
-3.80438
-7.01101
-10.7502
-15.0342
-19.9057
-25.3537
-31.3576
-37.8567
-44.7663
-9.33172
-8.13626
-7.2942
-6.48532
-5.68854
-4.90128
-4.12645
-3.37055
-2.62393
-1.88479
-1.18275
-0.488038
0.190806
0.86075
1.49156
2.05181
2.54903
3.03474
3.45559
3.82803
4.12746
4.3488
4.50034
4.55693
4.4727
4.25019
3.87483
3.29435
2.52842
1.55469
0.325509
-1.2148
-3.12547
-5.40432
-8.09068
-11.1974
-14.8251
-18.904
-23.5282
-28.6281
-34.2167
-40.2276
-46.5965
-10.5742
-9.49143
-8.77733
-8.06344
-7.33129
-6.61847
-5.91212
-5.28464
-4.65102
-4.00273
-3.40973
-2.83893
-2.28717
-1.67149
-1.00352
-0.445548
-0.0713301
0.307294
0.605805
0.909824
1.11582
1.2258
1.31272
1.34284
1.21864
0.971202
0.612927
-0.0171376
-0.842753
-1.83706
-3.03185
-4.49279
-6.36108
-8.5883
-11.2441
-14.1755
-17.7552
-21.6757
-26.1883
-31.002
-36.2627
-41.8906
-47.8709
-11.2345
-10.5326
-10.1526
-9.70341
-9.11163
-8.27894
-7.67128
-6.98748
-6.62825
-6.05145
-5.62324
-5.22467
-4.96797
-4.73519
-4.39859
-3.25549
-2.84857
-2.41649
-2.31598
-2.10808
-1.96641
-2.14464
-2.30168
-2.38667
-2.72326
-3.20498
-3.48274
-4.10634
-4.92506
-5.887
-7.01369
-8.36977
-10.2208
-12.1877
-14.7889
-17.2546
-20.8572
-23.9023
-28.2263
-32.5994
-37.4692
-42.7129
-48.4882
-147.956
-156.651
-154.167
-159.575
-166.991
-172.245
-175.855
-178.665
-180.896
-182.641
-183.976
-185.024
-185.827
-186.459
-186.925
-187.237
-187.447
-187.541
-187.564
-187.502
-187.367
-187.182
-186.945
-186.677
-186.378
-186.059
-185.725
-185.385
-185.044
-184.707
-184.374
-184.056
-183.748
-183.454
-183.174
-182.909
-182.658
-182.423
-182.204
-182.001
-181.816
-181.645
-181.665
-28.8513
-49.7692
-68.2876
-84.7328
-99.1253
-111.381
-121.719
-130.475
-137.835
-144.01
-149.151
-153.43
-156.974
-159.897
-162.313
-164.301
-165.941
-167.292
-168.418
-169.366
-170.171
-170.868
-171.483
-172.03
-172.533
-172.995
-173.426
-173.83
-174.211
-174.571
-174.906
-175.223
-175.517
-175.791
-176.047
-176.284
-176.504
-176.707
-176.896
-177.07
-177.229
-177.345
-177.58
-58.9492
-71.1345
-82.3022
-92.408
-101.536
-109.713
-116.942
-123.311
-128.898
-133.8
-138.094
-141.862
-145.176
-148.104
-150.693
-152.989
-155.042
-156.884
-158.533
-160.025
-161.372
-162.592
-163.7
-164.707
-165.625
-166.462
-167.223
-167.922
-168.559
-169.148
-169.687
-170.188
-170.651
-171.083
-171.489
-171.871
-172.232
-172.573
-172.899
-173.209
-173.51
-173.787
-174.203
-47.3588
-57.0259
-66.6312
-75.9393
-84.7762
-93.0272
-100.631
-107.573
-113.861
-119.526
-124.615
-129.169
-133.243
-136.883
-140.139
-143.05
-145.656
-147.994
-150.094
-151.991
-153.705
-155.263
-156.68
-157.974
-159.163
-160.256
-161.266
-162.205
-163.075
-163.891
-164.647
-165.358
-166.024
-166.646
-167.235
-167.791
-168.315
-168.812
-169.286
-169.736
-170.171
-170.606
-171.137
-51.9322
-60.1912
-68.4245
-76.4501
-84.1326
-91.3775
-98.1244
-104.348
-110.052
-115.25
-119.971
-124.252
-128.13
-131.636
-134.81
-137.693
-140.315
-142.701
-144.877
-146.869
-148.695
-150.377
-151.927
-153.353
-154.677
-155.901
-157.038
-158.099
-159.086
-160.014
-160.876
-161.684
-162.444
-163.158
-163.837
-164.479
-165.088
-165.664
-166.211
-166.732
-167.221
-167.691
-168.004
-51.9585
-59.3258
-66.7219
-73.9888
-81.0282
-87.7465
-94.08
-99.9933
-105.479
-110.541
-115.188
-119.447
-123.341
-126.899
-130.155
-133.127
-135.852
-138.347
-140.629
-142.73
-144.67
-146.454
-148.102
-149.623
-151.036
-152.35
-153.564
-154.708
-155.778
-156.778
-157.708
-158.584
-159.409
-160.187
-160.93
-161.635
-162.303
-162.938
-163.538
-164.112
-164.651
-165.176
-165.462
-53.209
-60.0149
-66.8197
-73.5116
-80.0536
-86.3453
-92.2985
-97.8917
-103.117
-107.972
-112.45
-116.569
-120.374
-123.868
-127.087
-130.032
-132.744
-135.25
-137.521
-139.642
-141.633
-143.453
-145.142
-146.706
-148.154
-149.513
-150.755
-151.955
-153.08
-154.117
-155.086
-156
-156.856
-157.677
-158.466
-159.212
-159.919
-160.589
-161.225
-161.841
-162.412
-162.961
-163.18
-53.9853
-60.4266
-66.828
-73.1123
-79.2977
-85.2657
-90.9129
-96.2575
-101.254
-105.897
-110.255
-114.276
-118.028
-121.427
-124.593
-127.531
-130.243
-132.762
-134.987
-137.191
-139.275
-141.073
-142.757
-144.357
-145.831
-147.222
-148.449
-149.733
-150.904
-151.935
-152.923
-153.852
-154.704
-155.556
-156.394
-157.163
-157.885
-158.575
-159.23
-159.867
-160.44
-160.957
-161.158
-54.1582
-60.4351
-66.8134
-72.9306
-78.8937
-84.6762
-90.0901
-95.2617
-100.118
-104.734
-109.237
-113.289
-116.995
-120.2
-123.476
-126.593
-129.386
-131.94
-134.044
-136.877
-138.722
-140.251
-141.936
-143.557
-144.903
-146.159
-147.198
-148.94
-149.874
-150.762
-151.738
-152.565
-153.301
-154.185
-155.041
-155.712
-156.32
-156.915
-157.509
-158.126
-158.601
-158.9
-158.914
-152.034
-152.489
-152.969
-153.437
-153.899
-154.356
-154.806
-155.249
-155.684
-156.111
-156.529
-156.937
-157.333
-157.717
-158.086
-158.439
-158.774
-159.091
-159.388
-159.664
-159.92
-160.157
-160.379
-160.588
-160.79
-160.991
-161.198
-161.417
-161.657
-161.926
-162.231
-162.583
-162.99
-163.461
-164.006
-164.634
-165.356
-166.182
-167.122
-168.18
-169.353
-170.839
-173.785
-151.471
-151.855
-152.262
-152.66
-153.054
-153.446
-153.833
-154.218
-154.599
-154.978
-155.356
-155.732
-156.108
-156.483
-156.859
-157.236
-157.614
-157.994
-158.376
-158.759
-159.145
-159.531
-159.917
-160.303
-160.687
-161.068
-161.447
-161.823
-162.195
-162.565
-162.933
-163.298
-163.663
-164.027
-164.391
-164.754
-165.112
-165.459
-165.786
-166.088
-166.415
-167.189
-169.819
-150.917
-151.27
-151.629
-151.979
-152.326
-152.672
-153.016
-153.358
-153.7
-154.04
-154.381
-154.722
-155.063
-155.404
-155.748
-156.093
-156.44
-156.789
-157.142
-157.497
-157.855
-158.215
-158.577
-158.94
-159.303
-159.664
-160.022
-160.376
-160.724
-161.064
-161.394
-161.712
-162.016
-162.299
-162.56
-162.791
-162.988
-163.142
-163.246
-163.328
-163.597
-164.947
-168.274
-150.435
-150.754
-151.079
-151.398
-151.715
-152.03
-152.343
-152.656
-152.967
-153.277
-153.586
-153.895
-154.202
-154.509
-154.816
-155.121
-155.426
-155.731
-156.035
-156.338
-156.641
-156.944
-157.247
-157.548
-157.849
-158.149
-158.446
-158.741
-159.033
-159.32
-159.602
-159.877
-160.143
-160.398
-160.638
-160.86
-161.06
-161.232
-161.382
-161.572
-162.178
-164.249
-167.617
-150.025
-150.293
-150.581
-150.867
-151.153
-151.439
-151.724
-152.008
-152.292
-152.576
-152.859
-153.143
-153.427
-153.711
-153.995
-154.28
-154.565
-154.85
-155.135
-155.419
-155.704
-155.987
-156.27
-156.55
-156.829
-157.105
-157.377
-157.646
-157.91
-158.168
-158.42
-158.665
-158.902
-159.131
-159.351
-159.561
-159.761
-159.947
-160.136
-160.43
-161.366
-163.78
-166.901
-149.617
-149.859
-150.119
-150.377
-150.636
-150.896
-151.155
-151.414
-151.675
-151.935
-152.197
-152.459
-152.723
-152.987
-153.253
-153.521
-153.79
-154.061
-154.332
-154.605
-154.878
-155.151
-155.424
-155.696
-155.965
-156.232
-156.494
-156.751
-157.001
-157.244
-157.477
-157.699
-157.912
-158.114
-158.306
-158.489
-158.672
-158.861
-159.085
-159.481
-160.714
-163.229
-166.156
-149.244
-149.461
-149.696
-149.93
-150.167
-150.406
-150.643
-150.881
-151.122
-151.363
-151.605
-151.849
-152.094
-152.341
-152.589
-152.841
-153.095
-153.35
-153.607
-153.866
-154.125
-154.387
-154.65
-154.912
-155.172
-155.43
-155.683
-155.93
-156.172
-156.404
-156.622
-156.825
-157.014
-157.191
-157.354
-157.5
-157.643
-157.839
-158.153
-158.738
-160.256
-162.799
-165.654
-148.909
-149.102
-149.315
-149.526
-149.744
-149.965
-150.183
-150.402
-150.627
-150.848
-151.072
-151.3
-151.53
-151.76
-151.992
-152.23
-152.47
-152.713
-152.959
-153.207
-153.454
-153.708
-153.963
-154.219
-154.475
-154.729
-154.976
-155.217
-155.459
-155.693
-155.908
-156.093
-156.262
-156.416
-156.545
-156.616
-156.67
-156.764
-157.1
-157.773
-159.362
-161.788
-164.652
-148.586
-148.764
-148.954
-149.146
-149.355
-149.572
-149.768
-149.966
-150.187
-150.396
-150.603
-150.82
-151.043
-151.258
-151.472
-151.695
-151.926
-152.161
-152.398
-152.635
-152.856
-153.104
-153.349
-153.596
-153.843
-154.104
-154.347
-154.569
-154.795
-155.037
-155.277
-155.45
-155.583
-155.744
-155.94
-155.975
-155.756
-155.739
-156.457
-158.06
-160.215
-163.167
-166.636
-180.512
-183.626
-184.916
-185.729
-186.389
-186.901
-187.277
-187.558
-187.78
-187.964
-188.12
-188.255
-188.369
-188.462
-188.533
-188.582
-188.605
-188.603
-188.574
-188.517
-188.434
-188.324
-188.188
-188.029
-187.848
-187.649
-187.434
-187.207
-186.971
-186.732
-186.492
-186.257
-186.029
-185.814
-185.614
-185.433
-185.275
-185.142
-185.038
-184.964
-184.923
-184.918
-184.95
-174.8
-178.666
-181.403
-183.278
-184.556
-185.428
-186.027
-186.438
-186.714
-186.883
-186.973
-187.005
-186.994
-186.953
-186.888
-186.806
-186.711
-186.607
-186.498
-186.385
-186.271
-186.158
-186.046
-185.936
-185.828
-185.724
-185.623
-185.524
-185.427
-185.33
-185.234
-185.137
-185.039
-184.938
-184.836
-184.733
-184.628
-184.523
-184.419
-184.317
-184.217
-184.117
-184.027
-172.233
-175.827
-178.8
-181.111
-182.857
-184.167
-185.147
-185.875
-186.404
-186.777
-187.028
-187.183
-187.265
-187.287
-187.264
-187.205
-187.116
-187.004
-186.874
-186.727
-186.569
-186.4
-186.223
-186.04
-185.852
-185.662
-185.47
-185.279
-185.089
-184.902
-184.719
-184.541
-184.368
-184.202
-184.044
-183.894
-183.753
-183.622
-183.5
-183.387
-183.281
-183.176
-183.108
-171.007
-174.179
-176.958
-179.262
-181.102
-182.543
-183.657
-184.506
-185.142
-185.61
-185.943
-186.165
-186.299
-186.357
-186.355
-186.307
-186.221
-186.108
-185.972
-185.819
-185.653
-185.476
-185.294
-185.108
-184.921
-184.734
-184.548
-184.365
-184.184
-184.007
-183.833
-183.663
-183.498
-183.337
-183.182
-183.035
-182.896
-182.766
-182.643
-182.528
-182.423
-182.327
-182.274
-170.004
-172.952
-175.6
-177.859
-179.725
-181.229
-182.419
-183.348
-184.065
-184.604
-185.002
-185.28
-185.462
-185.562
-185.594
-185.568
-185.499
-185.396
-185.264
-185.111
-184.942
-184.761
-184.572
-184.379
-184.185
-183.992
-183.8
-183.609
-183.42
-183.234
-183.053
-182.875
-182.701
-182.533
-182.373
-182.223
-182.084
-181.954
-181.829
-181.709
-181.609
-181.555
-181.39
-169.106
-171.927
-174.467
-176.66
-178.521
-180.045
-181.272
-182.242
-182.992
-183.563
-183.996
-184.317
-184.537
-184.663
-184.71
-184.7
-184.646
-184.555
-184.432
-184.284
-184.115
-183.932
-183.742
-183.553
-183.366
-183.181
-182.994
-182.806
-182.62
-182.437
-182.26
-182.083
-181.909
-181.742
-181.585
-181.441
-181.315
-181.192
-181.068
-180.943
-180.833
-180.753
-180.719
-168.495
-171.194
-173.631
-175.74
-177.584
-179.098
-180.329
-181.298
-182.046
-182.62
-183.077
-183.428
-183.673
-183.808
-183.851
-183.84
-183.796
-183.722
-183.609
-183.461
-183.288
-183.099
-182.913
-182.741
-182.572
-182.402
-182.221
-182.035
-181.855
-181.679
-181.512
-181.334
-181.157
-180.99
-180.837
-180.707
-180.609
-180.498
-180.368
-180.228
-180.11
-180.024
-180.038
-167.481
-170.15
-172.491
-174.456
-176.394
-177.917
-179.181
-180.13
-180.854
-181.436
-181.98
-182.435
-182.726
-182.834
-182.868
-182.892
-182.901
-182.873
-182.761
-182.608
-182.436
-182.263
-182.122
-181.998
-181.877
-181.731
-181.543
-181.353
-181.185
-181.022
-180.857
-180.653
-180.462
-180.293
-180.158
-180.067
-180.014
-179.878
-179.69
-179.516
-179.411
-179.394
-179.541
-169.519
-172.078
-173.866
-175.836
-178.904
-180.916
-181.76
-182.156
-182.557
-183.167
-183.709
-184.146
-184.219
-183.895
-183.653
-183.764
-183.963
-183.656
-183.232
-182.842
-182.514
-182.266
-182.072
-181.905
-181.658
-181.283
-180.961
-180.623
-180.352
-180.097
-179.885
-179.551
-179.336
-179.176
-179.077
-179.012
-178.923
-178.546
-178.395
-178.396
-178.506
-178.801
-179.245
156.591
155.311
149.788
143.522
137.184
130.866
124.681
118.58
112.546
106.701
101.097
95.8133
90.8427
86.1778
81.8115
77.7032
73.8493
70.1947
66.727
63.4163
60.2377
57.1678
54.1934
51.2925
48.4536
45.6669
42.9245
40.2185
37.5446
34.9009
32.2823
29.6882
27.1187
24.5715
22.0439
19.5372
17.0548
14.5895
12.1423
9.72365
7.34167
4.92272
2.18074
122.905
120.397
115.964
111.582
107.543
103.784
100.236
96.857
93.6098
90.4623
87.3875
84.3694
81.3885
78.4386
75.5104
72.6081
69.7281
66.8709
64.0387
61.2393
58.4658
55.7244
53.0163
50.3406
47.6974
45.0858
42.5043
39.9528
37.4223
34.9229
32.4417
29.9829
27.5426
25.121
22.7169
20.3258
17.9517
15.5904
13.2398
10.9081
8.59944
6.26321
3.65604
127.732
126.639
125.075
123.124
120.779
118.081
115.095
111.869
108.459
104.905
101.251
97.5315
93.7845
90.0367
86.3064
82.6227
78.9917
75.4268
71.9325
68.5177
65.1769
61.9126
58.7232
55.6046
52.5528
49.5611
46.6319
43.7585
40.9354
38.1613
35.4327
32.746
30.0989
27.4876
24.9109
22.3649
19.8514
17.3638
14.9015
12.4645
10.0599
7.66525
5.08367
115.581
114.627
113.374
111.852
110.101
108.145
106.012
103.724
101.302
98.7617
96.1224
93.3944
90.5907
87.7237
84.8064
81.846
78.8539
75.8389
72.8106
69.7768
66.7465
63.7247
60.7126
57.7246
54.7593
51.8186
48.9079
46.025
43.1769
40.3568
37.5712
34.8181
32.0948
29.403
26.7442
24.1109
21.5084
18.9324
16.3817
13.8538
11.3509
8.89562
6.3313
104.791
104.506
104.089
103.434
102.556
101.464
100.168
98.6766
97.0009
95.1519
93.1437
90.989
88.7029
86.2994
83.794
81.2005
78.5329
75.8038
73.0281
70.2122
67.3677
64.5092
61.6361
58.7593
55.8866
53.0201
50.1649
47.3241
44.5022
41.6985
38.915
36.1569
33.4216
30.7082
28.0222
25.3593
22.7237
20.1113
17.5259
14.9671
12.4442
9.99026
7.71263
97.67
97.4866
97.1328
96.5902
95.8902
95.0353
94.0282
92.8705
91.566
90.1186
88.5343
86.8191
84.9773
83.017
80.9472
78.7749
76.5081
74.1575
71.7315
69.2375
66.6856
64.0867
61.4465
58.7723
56.0755
53.3584
50.6291
47.8935
45.1567
42.4211
39.6927
36.9723
34.2661
31.5715
28.8946
26.2318
23.5922
20.9664
18.3623
15.7787
13.2282
10.6582
7.68476
90.8636
90.7121
90.4057
89.9672
89.4161
88.7513
87.9712
87.0728
86.0556
84.9183
83.6619
82.2868
80.7945
79.1881
77.4712
75.6485
73.7229
71.7041
69.5963
67.4052
65.1405
62.8083
60.4147
57.9695
55.4786
52.9485
50.3859
47.7973
45.1891
42.5653
39.9318
37.2926
34.652
32.0117
29.3789
26.7501
24.1336
21.5264
18.9305
16.3492
13.8035
11.2002
7.91482
84.3666
84.2644
84.046
83.7231
83.3081
82.7995
82.1943
81.49
80.6844
79.776
78.7628
77.6443
76.4204
75.0902
73.6564
72.1197
70.4823
68.7487
66.9218
65.0051
63.006
60.9283
58.7778
56.5614
54.2836
51.9521
49.5737
47.1526
44.6961
42.2102
39.6972
37.1666
34.6211
32.0628
29.5008
26.9331
24.3671
21.8034
19.2467
16.7067
14.2061
11.6591
8.72327
78.4609
78.3929
78.2258
77.9711
77.6406
77.2335
76.7462
76.1762
75.5213
74.7788
73.9461
73.0222
72.0047
70.892
69.6843
68.3807
66.9815
65.4894
63.905
62.23
60.47
58.6249
56.7019
54.7042
52.6371
50.504
48.3135
46.0681
43.7743
41.4392
39.0648
36.659
34.2257
31.7691
29.2965
26.8082
24.3115
21.8084
19.3008
16.798
14.3183
11.7948
8.80272
73.0084
72.9588
72.8238
72.6152
72.3441
72.009
71.6073
71.1363
70.5939
69.9761
69.2813
68.5068
67.6502
66.7089
65.6817
64.5672
63.3643
62.0735
60.6945
59.2276
57.6762
56.0399
54.3216
52.5265
50.6557
48.7134
46.7052
44.6348
42.5054
40.325
38.0959
35.8249
33.5163
31.1745
28.8043
26.4106
23.997
21.568
19.1263
16.6805
14.2458
11.7684
8.93857
67.8831
67.8499
67.7423
67.5723
67.3493
67.0719
66.7369
66.3438
65.8884
65.3687
64.7819
64.1252
63.3964
62.5926
61.7114
60.751
59.7105
58.5878
57.3823
56.0936
54.7225
53.2696
51.7347
50.1215
48.432
46.6666
44.8315
42.928
40.9614
38.9346
36.8528
34.7198
32.5399
30.3199
28.0614
25.7698
23.452
21.1082
18.7442
16.3661
13.9911
11.5627
8.75603
63.0358
63.0205
62.9377
62.7997
62.6165
62.3858
62.1061
61.7749
61.3902
60.9492
60.4495
59.8881
59.2627
58.5707
57.8095
56.9765
56.0706
55.089
54.0306
52.8943
51.6794
50.3861
49.0137
47.5631
46.037
44.4343
42.7602
41.014
39.2007
37.323
35.3846
33.3895
31.3401
29.2438
27.1013
24.9192
22.7018
20.4503
18.1708
15.8667
13.5596
11.1866
8.19169
58.4697
58.464
58.3974
58.2844
58.1318
57.9377
57.7008
57.4195
57.0906
56.7131
56.2839
55.8002
55.2594
54.6591
53.9968
53.2699
52.4762
51.6135
50.6802
49.6741
48.5943
47.4398
46.2103
44.905
43.5248
42.0702
40.5425
38.9433
37.274
35.5377
33.7373
31.8752
29.9555
27.9821
25.957
23.8873
21.7745
19.6237
17.441
15.2333
13.0249
10.7618
8.12214
54.1181
54.1257
54.0762
53.9843
53.8576
53.6944
53.4938
53.2531
52.9713
52.6461
52.2751
51.8558
51.3853
50.8616
50.2821
49.6441
48.9454
48.1837
47.3569
46.4629
45.5001
44.4668
43.3622
42.1858
40.9366
39.615
38.2212
36.7562
35.2211
33.6175
31.9477
30.2133
28.4188
26.5649
24.6567
22.6973
20.6908
18.6406
16.5511
14.43
12.2981
10.1204
7.53937
49.9834
49.9974
49.9582
49.8829
49.7773
49.6392
49.4679
49.2616
49.0188
48.7372
48.4148
48.0492
47.638
47.1787
46.6689
46.1067
45.4889
44.8133
44.0779
43.2806
42.4194
41.492
40.4978
39.435
38.3027
37.1008
35.8284
34.4857
33.0742
31.5941
30.0465
28.4333
26.7577
25.0198
23.2253
21.3743
19.4722
17.5215
15.5253
13.4895
11.4279
9.32237
6.92509
46.021
46.0431
46.0144
45.9549
45.867
45.751
45.605
45.4279
45.2177
44.973
44.692
44.3721
44.0111
43.6067
43.1566
42.659
42.1106
41.5095
40.8536
40.1401
39.3672
38.533
37.6357
36.6739
35.646
34.5514
33.389
32.158
30.8596
29.4934
28.06
26.5605
24.9973
23.3707
21.6845
19.9394
18.1401
16.2878
14.3863
12.4391
10.4547
8.42168
6.17318
42.2135
42.2431
42.2256
42.1793
42.1085
42.0117
41.888
41.7359
41.5546
41.3423
41.0967
40.8161
40.4984
40.1413
39.743
39.3009
38.8126
38.2764
37.6893
37.0493
36.354
35.6017
34.7903
33.918
32.9836
31.9851
30.922
29.7929
28.5976
27.3364
26.0092
24.6158
23.1585
21.6375
20.0548
18.4126
16.7132
14.9577
13.1508
11.2955
9.40017
7.45472
5.32886
38.5668
38.6006
38.5892
38.5531
38.4953
38.4142
38.3088
38.1782
38.0214
37.8363
37.6214
37.3746
37.0942
36.7782
36.4247
36.031
35.5953
35.1154
34.5886
34.013
33.3862
32.7062
31.9711
31.1788
30.3278
29.4162
28.4424
27.406
26.3051
25.1405
23.9111
22.617
21.2585
19.8373
18.3532
16.8084
15.2054
13.5446
11.8297
10.0638
8.25472
6.38919
4.33432
35.0436
35.0831
35.0791
35.0532
35.007
34.9404
34.8519
34.7406
34.6052
34.444
34.2559
34.0391
33.7914
33.5117
33.1973
32.8461
32.4566
32.0259
31.5525
31.0339
30.4679
29.8522
29.185
28.4643
27.6879
26.8545
25.9618
25.0093
23.9952
22.9191
21.7798
20.5778
19.3121
17.9842
16.5938
15.1422
13.6309
12.0613
10.4357
8.75696
7.03321
5.24999
3.26584
31.6428
31.6853
31.6875
31.6704
31.6352
31.5816
31.5082
31.4139
31.2975
31.1576
30.9934
30.8026
30.584
30.3359
30.0561
29.7429
29.3939
29.0071
28.581
28.1128
27.6009
27.0428
26.4363
25.7799
25.0708
24.3079
23.4888
22.6128
21.6779
20.683
19.6274
18.5103
17.3315
16.0906
14.7884
13.4249
12.0019
10.5193
8.98033
7.38587
5.74517
4.04427
2.13659
28.3363
28.3866
28.3974
28.3904
28.3664
28.3255
28.2657
28.1872
28.0886
27.9685
27.8258
27.6585
27.4658
27.2459
26.9971
26.7174
26.4047
26.0573
25.6734
25.2504
24.7867
24.2799
23.7283
23.1292
22.4812
21.7821
21.0301
20.2238
19.3612
18.4408
17.4624
16.4241
15.326
14.1669
12.9475
11.6677
10.328
8.92894
7.47274
5.96048
4.40048
2.7845
0.957778
25.1531
25.2067
25.2216
25.2205
25.205
25.1734
25.1252
25.0598
24.9761
24.8729
24.7488
24.6026
24.4332
24.2385
24.0169
23.767
23.4867
23.1745
22.8281
22.4458
22.0253
21.565
21.0623
20.5156
19.9226
19.2817
18.5905
17.8476
17.0514
16.2002
15.2925
14.3274
13.3041
12.2216
11.0799
9.87862
8.61822
7.29878
5.92137
4.48684
3.0027
1.46393
-0.288008
22.052
22.1143
22.1348
22.1416
22.134
22.1119
22.0747
22.0216
21.9514
21.8632
21.756
21.6289
21.48
21.3077
21.1108
20.8876
20.6365
20.3558
20.0436
19.6976
19.3164
18.8978
18.4398
17.9403
17.3974
16.8093
16.1738
15.4891
14.7536
13.9656
13.1238
12.2265
11.2729
10.2619
9.19324
8.06603
6.88046
5.63617
4.33406
2.9738
1.56112
0.0883951
-1.60245
19.0611
19.1246
19.1467
19.1569
19.155
19.1402
19.1119
19.0687
19.0103
18.9352
18.8432
18.7326
18.602
18.45
18.2755
18.0763
17.8514
17.5994
17.3178
17.0048
16.6589
16.2782
15.8608
15.4044
14.9069
14.367
13.7825
13.1514
12.4718
11.7421
10.961
10.1265
9.23802
8.29384
7.29337
6.23599
5.12185
3.95033
2.72213
1.43865
0.107436
-1.26899
-2.81129
16.1245
16.1956
16.2239
16.2417
16.2478
16.2418
16.2225
16.1899
16.1429
16.081
16.0028
15.9079
15.7941
15.6608
15.5065
15.3293
15.1285
14.9021
14.6483
14.3656
14.052
13.7057
13.3251
12.9079
12.4523
11.9566
11.4188
10.8366
10.2085
9.53277
8.80776
8.03183
7.2036
6.32204
5.38558
4.39379
3.34622
2.24231
1.0821
-0.134094
-1.40181
-2.72018
-4.21557
13.2754
13.349
13.3803
13.4037
13.4163
13.4175
13.4068
13.3836
13.3475
13.2972
13.2322
13.1512
13.0528
12.9364
12.8004
12.6436
12.4645
12.2617
12.0334
11.7781
11.4939
11.1792
10.8323
10.451
10.0338
9.57874
9.08367
8.54675
7.9663
7.34045
6.66762
5.94588
5.1739
4.35062
3.47408
2.54405
1.55957
0.519926
-0.575003
-1.72468
-2.92468
-4.16837
-5.53388
10.4951
10.5732
10.6089
10.6379
10.6564
10.6647
10.6618
10.6471
10.6205
10.5807
10.5273
10.459
10.3749
10.2741
10.1551
10.0164
9.85737
9.67599
9.47081
9.24058
8.98345
8.69775
8.38162
8.03343
7.65154
7.23376
6.77817
6.28301
5.74675
5.1671
4.54266
3.8714
3.15195
2.383
1.56294
0.690687
-0.234535
-1.21379
-2.24772
-3.33655
-4.47856
-5.67102
-6.96679
7.80297
7.87914
7.91481
7.94622
7.96853
7.98184
7.98451
7.97706
7.95854
7.92816
7.88494
7.82832
7.75722
7.67038
7.56667
7.4451
7.30398
7.14241
6.95859
6.75144
6.51919
6.2599
5.97236
5.65472
5.30512
4.92172
4.50276
4.0464
3.55101
3.01416
2.43473
1.81068
1.14032
0.422257
-0.344696
-1.16252
-2.03194
-2.9538
-3.92953
-4.95927
-6.04233
-7.18089
-8.42461
5.17641
5.24918
5.28531
5.31917
5.34462
5.36172
5.36975
5.36876
5.35762
5.33563
5.30201
5.2558
5.1963
5.12208
5.03257
4.92623
4.80214
4.65883
4.49476
4.30885
4.09927
3.86469
3.60351
3.31419
2.99449
2.6429
2.2578
1.83736
1.37968
0.882901
0.345472
-0.234598
-0.858827
-1.52912
-2.24629
-3.01259
-3.82886
-4.69639
-5.61643
-6.58975
-7.61389
-8.69128
-9.94754
2.56496
2.64429
2.68893
2.73068
2.76334
2.788
2.8038
2.81048
2.80791
2.79498
2.77097
2.73551
2.68735
2.62553
2.5493
2.45748
2.34926
2.22274
2.07703
1.91068
1.72247
1.5108
1.27399
1.01058
0.718582
0.396682
0.0431846
-0.344006
-0.766232
-1.22561
-1.72394
-2.26287
-2.84399
-3.46918
-4.13959
-4.85723
-5.62286
-6.43845
-7.30501
-8.22334
-9.18891
-10.1988
-11.4026
0.0271892
0.109086
0.156199
0.202052
0.239844
0.270403
0.292459
0.306549
0.311411
0.306763
0.291961
0.266128
0.228708
0.178696
0.114822
0.0367639
-0.0570811
-0.167905
-0.296549
-0.444648
-0.613058
-0.803572
-1.01762
-1.25687
-1.5229
-1.81706
-2.14129
-2.4973
-2.88659
-3.31117
-3.77285
-4.27311
-4.81387
-5.39647
-6.02274
-6.69427
-7.41196
-8.17767
-8.99262
-9.85706
-10.7659
-11.7126
-12.8298
-2.42002
-2.34397
-2.29921
-2.25389
-2.21498
-2.18239
-2.15669
-2.13841
-2.12802
-2.12616
-2.13351
-2.15115
-2.17954
-2.21937
-2.27187
-2.33762
-2.41805
-2.51404
-2.62698
-2.75815
-2.9084
-3.07934
-3.27236
-3.48885
-3.73054
-3.99905
-4.29589
-4.62288
-4.98151
-5.37353
-5.80082
-6.26474
-6.7674
-7.31017
-7.89477
-8.52269
-9.19537
-9.91409
-10.6808
-11.4965
-12.3605
-13.2708
-14.3074
-4.859
-4.77796
-4.72749
-4.67655
-4.63223
-4.5943
-4.56295
-4.53885
-4.52219
-4.51333
-4.51312
-4.5226
-4.54174
-4.57176
-4.61362
-4.66792
-4.73591
-4.81833
-4.91653
-5.0317
-5.16482
-5.31759
-5.49101
-5.68644
-5.90555
-6.14998
-6.42132
-6.72107
-7.05076
-7.41237
-7.80732
-8.23724
-8.70404
-9.20939
-9.75467
-10.3413
-10.9711
-11.6448
-12.364
-13.1294
-13.9396
-14.7858
-15.6691
-7.23485
-7.15406
-7.10235
-7.04905
-7.00168
-6.95938
-6.92353
-6.89399
-6.87128
-6.85591
-6.84875
-6.85014
-6.86071
-6.88137
-6.91312
-6.95658
-7.0127
-7.08227
-7.16672
-7.26691
-7.3843
-7.51981
-7.67466
-7.85037
-8.0485
-8.27054
-8.5179
-8.79214
-9.09481
-9.4276
-9.79223
-10.1902
-10.6233
-11.0933
-11.6016
-12.1494
-12.7385
-13.3694
-14.0432
-14.7592
-15.5163
-16.3058
-17.0317
-9.56376
-9.4826
-9.429
-9.37324
-9.32318
-9.27758
-9.23753
-9.20347
-9.17544
-9.15443
-9.14063
-9.13471
-9.13741
-9.14943
-9.17191
-9.20508
-9.25002
-9.3078
-9.37905
-9.46548
-9.56782
-9.68706
-9.82461
-9.98191
-10.1604
-10.3611
-10.5859
-10.8363
-11.1134
-11.4194
-11.7555
-12.1235
-12.5251
-12.9617
-13.4351
-13.9467
-14.4983
-15.0908
-15.7259
-16.405
-17.1318
-17.9138
-18.6929
-11.8555
-11.7729
-11.7164
-11.6577
-11.6043
-11.5551
-11.5105
-11.4716
-11.4386
-11.4116
-11.3917
-11.3789
-11.3741
-11.3779
-11.3911
-11.4146
-11.4494
-11.4957
-11.5551
-11.6284
-11.7166
-11.8205
-11.9418
-12.0819
-12.2416
-12.4226
-12.6263
-12.8541
-13.1073
-13.3879
-13.6972
-14.0369
-14.4086
-14.8138
-15.2543
-15.7317
-16.2476
-16.8035
-17.4011
-18.0422
-18.7291
-19.4685
-20.2398
-14.1096
-14.0253
-13.9661
-13.9036
-13.8467
-13.7932
-13.7444
-13.7009
-13.6625
-13.63
-13.6038
-13.5845
-13.5725
-13.5685
-13.5733
-13.5877
-13.6123
-13.6481
-13.6961
-13.757
-13.8316
-13.9214
-14.0276
-14.1512
-14.2933
-14.4556
-14.6394
-14.846
-15.0766
-15.3333
-15.6173
-15.9303
-16.2735
-16.649
-17.0584
-17.5032
-17.985
-18.5055
-19.0668
-19.6706
-20.3173
-21.0134
-21.8131
-16.3288
-16.2408
-16.1779
-16.1121
-16.0511
-15.9938
-15.9407
-15.8923
-15.8488
-15.8107
-15.7785
-15.7528
-15.7338
-15.7225
-15.7193
-15.725
-15.7404
-15.7661
-15.8031
-15.8523
-15.9143
-15.9906
-16.0823
-16.1906
-16.3164
-16.4609
-16.6259
-16.8123
-17.0217
-17.2557
-17.5158
-17.8033
-18.1199
-18.4674
-18.8471
-19.2607
-19.7096
-20.1955
-20.7203
-21.285
-21.8869
-22.524
-23.2712
-18.4787
-18.3944
-18.3345
-18.2689
-18.2077
-18.1488
-18.0932
-18.0418
-17.9949
-17.9523
-17.9154
-17.884
-17.8591
-17.8409
-17.8301
-17.8278
-17.8343
-17.8505
-17.8774
-17.9154
-17.9658
-18.0293
-18.1075
-18.2011
-18.3112
-18.4392
-18.5863
-18.7538
-18.9431
-19.1557
-19.3929
-19.6564
-19.9478
-20.2684
-20.6199
-21.0037
-21.4215
-21.8745
-22.3648
-22.8931
-23.4581
-24.063
-24.7564
-20.6331
-20.543
-20.4769
-20.4059
-20.3396
-20.2761
-20.2161
-20.1601
-20.1081
-20.0607
-20.0183
-19.9815
-19.9504
-19.9255
-19.9078
-19.8976
-19.8958
-19.9029
-19.92
-19.9476
-19.9867
-20.0384
-20.1038
-20.1834
-20.2788
-20.391
-20.5212
-20.6709
-20.8411
-21.0333
-21.2491
-21.49
-21.7572
-22.0524
-22.3769
-22.7325
-23.1208
-23.5429
-24.0008
-24.4954
-25.0255
-25.5947
-26.2713
-22.7248
-22.6362
-22.5711
-22.4994
-22.4314
-22.3657
-22.3025
-22.2428
-22.187
-22.1353
-22.0881
-22.0457
-22.0088
-21.9777
-21.9531
-21.9358
-21.9258
-21.9244
-21.9323
-21.9501
-21.9786
-22.0189
-22.0719
-22.1384
-22.2199
-22.3172
-22.4315
-22.564
-22.7161
-22.8891
-23.0846
-23.3038
-23.5481
-23.8191
-24.1182
-24.447
-24.8069
-25.1994
-25.6258
-26.087
-26.5834
-27.1173
-27.6811
-24.7812
-24.6932
-24.6281
-24.5555
-24.4859
-24.4181
-24.3528
-24.2903
-24.2313
-24.1758
-24.1243
-24.0771
-24.0348
-23.998
-23.9672
-23.9429
-23.9256
-23.9161
-23.9153
-23.9238
-23.942
-23.9715
-24.0128
-24.0672
-24.1353
-24.2183
-24.3173
-24.4338
-24.5688
-24.7234
-24.8995
-25.0981
-25.3206
-25.5687
-25.8437
-26.147
-26.48
-26.8445
-27.2419
-27.6729
-28.1393
-28.6484
-29.202
-26.8167
-26.7277
-26.6609
-26.5856
-26.5135
-26.4429
-26.3742
-26.3084
-26.2456
-26.1862
-26.1303
-26.0783
-26.0307
-25.9884
-25.9515
-25.9205
-25.896
-25.8789
-25.8698
-25.8691
-25.8779
-25.8971
-25.9274
-25.9698
-26.0253
-26.0949
-26.1796
-26.2807
-26.3994
-26.5367
-26.6944
-26.8733
-27.0752
-27.3014
-27.5534
-27.8324
-28.14
-28.4778
-28.8473
-29.2495
-29.6854
-30.1639
-30.7076
-28.8232
-28.733
-28.6646
-28.5874
-28.5124
-28.4389
-28.3672
-28.2978
-28.2313
-28.1677
-28.1074
-28.0506
-27.9979
-27.9501
-27.9071
-27.8696
-27.8385
-27.8141
-27.7968
-27.7876
-27.7875
-27.7969
-27.8166
-27.8477
-27.891
-27.9479
-28.0188
-28.1053
-28.2084
-28.3293
-28.4693
-28.6297
-28.8118
-29.0172