/*--------------------------------*- C++ -*----------------------------------*\
| =========                 |                                                 |
| \\      /  F ield         | OpenFOAM: The Open Source CFD Toolbox           |
|  \\    /   O peration     | Version:  2.3.0                                 |
|   \\  /    A nd           | Web:      www.OpenFOAM.org                      |
|    \\/     M anipulation  |                                                 |
\*---------------------------------------------------------------------------*/
FoamFile
{
    version     2.0;
    format      ascii;
    class       volVectorField;
    location    "3000";
    object      U;
}
// * * * * * * * * * * * * * * * * * * * * * * * * * * * * * * * * * * * * * //

dimensions      [0 1 -1 0 0 0 0];

internalField   nonuniform List<vector> 
38546
(
(13.2894 -1.937 3.36365e-21)
(13.1369 -2.01602 -1.57978e-20)
(12.986 -2.10441 0)
(12.8328 -2.19488 0)
(12.6773 -2.28771 -2.26211e-20)
(12.5194 -2.38333 0)
(12.3591 -2.48187 0)
(12.1964 -2.58341 0)
(12.0309 -2.68797 0)
(11.8628 -2.79568 7.59515e-21)
(11.6919 -2.90675 -9.55865e-21)
(11.518 -3.02134 2.84686e-20)
(11.3411 -3.13964 -2.63091e-20)
(11.1609 -3.26187 5.98152e-20)
(10.9773 -3.38833 2.76215e-20)
(10.79 -3.51937 6.46711e-20)
(10.5988 -3.65537 3.7248e-21)
(10.4035 -3.79686 -1.03433e-19)
(10.2036 -3.94431 -6.62861e-20)
(9.99886 -4.09842 1.60976e-19)
(9.78876 -4.25993 -1.10787e-19)
(9.5728 -4.42974 0)
(9.35039 -4.60883 -3.10746e-20)
(9.12088 -4.79843 -1.79795e-20)
(8.88361 -4.99988 1.70049e-20)
(8.63785 -5.21478 0)
(8.38284 -5.44512 1.0077e-19)
(8.11774 -5.693 -1.74445e-20)
(7.84161 -5.96088 1.62603e-20)
(7.55391 -6.25219 4.17967e-22)
(7.25395 -6.57028 8.81941e-21)
(6.9411 -6.91979 -6.57786e-20)
(6.61494 -7.30573 1.46364e-21)
(6.27626 -7.73475 5.76042e-20)
(5.92548 -8.21518 -3.82577e-20)
(5.56262 -8.75673 4.1223e-20)
(5.18815 -9.37319 -1.09556e-19)
(4.79832 -10.0787 1.15603e-19)
(4.39624 -10.8967 0)
(3.9874 -11.8592 2.47407e-20)
(3.59308 -13.0194 0)
(3.26008 -14.4569 -6.95491e-19)
(3.07446 -16.1643 7.28823e-19)
(13.3952 -2.09966 5.42371e-21)
(13.2625 -2.17492 -1.08581e-21)
(13.1329 -2.26128 9.75194e-21)
(13.0022 -2.35082 -7.27109e-21)
(12.8702 -2.44307 -7.53636e-21)
(12.7368 -2.53824 -5.66685e-21)
(12.6018 -2.63648 -5.73656e-21)
(12.4652 -2.73786 2.68181e-20)
(12.327 -2.84245 -4.66675e-21)
(12.1871 -2.95042 -1.38211e-20)
(12.0455 -3.06195 1.9557e-20)
(11.9023 -3.17728 1.68357e-20)
(11.7573 -3.29663 1.84757e-20)
(11.6105 -3.42027 0)
(11.4617 -3.54849 -5.39018e-20)
(11.311 -3.68158 7.88375e-20)
(11.1583 -3.81994 1.84477e-21)
(11.0037 -3.96399 2.93119e-20)
(10.847 -4.11415 6.93472e-21)
(10.6883 -4.27099 0)
(10.5276 -4.43513 1.61704e-20)
(10.3648 -4.60729 1.71439e-20)
(10.2 -4.78829 -4.47875e-20)
(10.0333 -4.97906 -1.7561e-21)
(9.86497 -5.1807 6.90275e-20)
(9.69506 -5.39444 -2.13033e-20)
(9.52412 -5.62168 -2.83899e-20)
(9.35262 -5.86413 2.93211e-20)
(9.18135 -6.12356 -1.58413e-20)
(9.01151 -6.40221 1.64257e-20)
(8.84447 -6.70241 8.72327e-21)
(8.68205 -7.02682 -9.07345e-21)
(8.5272 -7.37845 2.68739e-20)
(8.38369 -7.76063 -4.49032e-20)
(8.25597 -8.17678 -6.41032e-20)
(8.15067 -8.63055 9.22164e-20)
(8.07673 -9.12592 1.55681e-19)
(8.04604 -9.66661 -1.77059e-20)
(8.07587 -10.2557 -2.99645e-20)
(8.18946 -10.8942 -1.17714e-19)
(8.42106 -11.5793 0)
(8.81974 -12.2987 2.0315e-20)
(9.45157 -13.0229 1.61959e-19)
(13.491 -2.23674 3.6913e-21)
(13.3765 -2.31172 2.57624e-21)
(13.2638 -2.3976 -4.06187e-21)
(13.15 -2.48659 1.81468e-21)
(13.0351 -2.57838 -2.4932e-21)
(12.919 -2.6732 2.25613e-20)
(12.8016 -2.77117 -1.89193e-20)
(12.6831 -2.87242 -1.76885e-20)
(12.5634 -2.97701 -5.4654e-22)
(12.4424 -3.08512 0)
(12.3203 -3.19694 0)
(12.1972 -3.31274 -5.01755e-21)
(12.0729 -3.43279 -3.11868e-20)
(11.9474 -3.55741 -3.14977e-20)
(11.8208 -3.68696 3.28223e-20)
(11.6931 -3.82178 -2.31707e-20)
(11.5643 -3.96225 0)
(11.4344 -4.10884 -3.8985e-21)
(11.3035 -4.26204 5.41068e-21)
(11.1718 -4.42243 0)
(11.0393 -4.59073 -2.75689e-20)
(10.9063 -4.76764 -1.69566e-20)
(10.7729 -4.95403 -2.93268e-20)
(10.6394 -5.15078 4.34221e-20)
(10.5062 -5.35894 -3.39864e-20)
(10.3737 -5.57968 2.09986e-20)
(10.2426 -5.81419 -1.68527e-20)
(10.1136 -6.064 4.99334e-20)
(9.9881 -6.33054 -3.33553e-20)
(9.86733 -6.61557 0)
(9.75301 -6.92078 0)
(9.64744 -7.24804 1.49771e-20)
(9.55366 -7.59909 -4.10031e-20)
(9.47523 -7.97579 4.11722e-20)
(9.41664 -8.37961 9.18473e-21)
(9.38372 -8.81141 -2.58677e-20)
(9.38308 -9.27158 -1.51679e-20)
(9.4228 -9.7589 5.29104e-21)
(9.51288 -10.2698 5.35909e-21)
(9.6643 -10.7974 1.8263e-21)
(9.88915 -11.3296 1.09654e-19)
(10.1988 -11.8467 -1.30197e-19)
(10.6011 -12.3188 0)
(13.5858 -2.34949 -1.99784e-20)
(13.4866 -2.42609 5.80031e-21)
(13.3885 -2.51027 -4.34305e-21)
(13.2896 -2.59691 -7.0829e-22)
(13.1899 -2.68614 -7.64898e-22)
(13.0894 -2.7783 -5.9549e-21)
(12.9881 -2.87352 1.15217e-20)
(12.8859 -2.97192 3.87518e-21)
(12.7827 -3.07358 0)
(12.6788 -3.17862 7.19872e-21)
(12.5741 -3.28724 -1.93265e-21)
(12.4688 -3.39965 -4.02371e-21)
(12.363 -3.51614 4.22125e-21)
(12.2567 -3.63709 2.38437e-20)
(12.1499 -3.76283 -1.54127e-20)
(12.0426 -3.89368 1.48988e-20)
(11.9349 -4.02999 -1.50054e-20)
(11.8271 -4.17209 3.30672e-21)
(11.7192 -4.32047 -2.48268e-21)
(11.6115 -4.47561 1.95266e-20)
(11.5044 -4.63811 -8.28569e-21)
(11.3982 -4.80862 2.17952e-20)
(11.2931 -4.98787 -2.22371e-20)
(11.1897 -5.17661 -1.34246e-20)
(11.0885 -5.37567 1.39975e-20)
(10.9902 -5.58595 0)
(10.8956 -5.80845 0)
(10.8058 -6.04412 -1.53303e-20)
(10.722 -6.29416 1.55486e-20)
(10.6459 -6.55964 1.67166e-21)
(10.5792 -6.84169 -1.19951e-20)
(10.5241 -7.14123 -1.4838e-20)
(10.4837 -7.4591 0)
(10.4611 -7.79583 9.51732e-21)
(10.4604 -8.15154 -9.82564e-21)
(10.4864 -8.52571 9.66223e-22)
(10.5441 -8.91704 -8.769e-21)
(10.6398 -9.32278 -2.59783e-21)
(10.7795 -9.73849 8.99286e-21)
(10.9691 -10.1579 5.07041e-20)
(11.2136 -10.5718 -5.81664e-20)
(11.5159 -10.9678 1.34792e-19)
(11.8743 -11.3314 -3.07064e-19)
(13.6776 -2.44771 0)
(13.5904 -2.52472 -4.87798e-21)
(13.504 -2.6056 1.19448e-21)
(13.4173 -2.68883 3.75109e-21)
(13.3303 -2.77469 3.19216e-21)
(13.2426 -2.86346 -2.11474e-21)
(13.1543 -2.95527 8.40187e-22)
(13.0652 -3.05021 -3.10474e-21)
(12.9752 -3.1484 -1.00878e-21)
(12.8846 -3.24994 -6.26599e-21)
(12.7933 -3.35493 1.02836e-21)
(12.7016 -3.46354 -1.05761e-20)
(12.6097 -3.57605 1.16795e-20)
(12.5176 -3.69286 -9.68829e-21)
(12.4254 -3.81446 -6.637e-21)
(12.333 -3.9411 0)
(12.2403 -4.07311 0)
(12.1478 -4.21076 4.7806e-21)
(12.0556 -4.3545 -5.03277e-21)
(11.9641 -4.50473 2.72658e-21)
(11.8735 -4.66194 -1.3623e-20)
(11.7844 -4.82672 2.09272e-20)
(11.6971 -4.99976 -2.93061e-20)
(11.6122 -5.18175 -1.01413e-22)
(11.5302 -5.3734 8.24919e-21)
(11.4518 -5.57539 -1.52764e-20)
(11.3778 -5.78855 1.55271e-20)
(11.3094 -6.01365 4.15217e-21)
(11.248 -6.25147 -6.28098e-21)
(11.195 -6.50295 1.12817e-21)
(11.152 -6.76888 5.8899e-21)
(11.121 -7.04981 2.79553e-21)
(11.1043 -7.34592 -2.88573e-21)
(11.105 -7.65716 0)
(11.1262 -7.98301 0)
(11.1719 -8.3224 0)
(11.2462 -8.67337 0)
(11.3534 -9.03272 -6.13163e-21)
(11.4976 -9.3963 0)
(11.6824 -9.75824 1.75977e-20)
(11.9104 -10.1108 -6.39296e-20)
(12.182 -10.4452 6.44431e-20)
(12.4948 -10.7515 0)
(13.7613 -2.54027 0)
(13.6851 -2.61045 -8.04495e-21)
(13.6094 -2.68642 -5.70224e-21)
(13.5336 -2.7654 5.72742e-21)
(13.4574 -2.84725 -3.18132e-21)
(13.3807 -2.93207 2.79338e-21)
(13.3034 -3.01997 3.82092e-21)
(13.2253 -3.11097 2.55775e-21)
(13.1464 -3.20513 9.89701e-22)
(13.0669 -3.30269 8.25113e-22)
(12.9865 -3.40368 -4.78963e-22)
(12.9058 -3.50805 4.79187e-22)
(12.825 -3.61605 1.81272e-21)
(12.7445 -3.72801 4.0423e-22)
(12.6643 -3.84463 4.40529e-21)
(12.5841 -3.96633 8.78216e-22)
(12.5036 -4.09326 6.39402e-21)
(12.4235 -4.22565 5.76176e-21)
(12.3439 -4.36393 -9.95678e-21)
(12.2652 -4.50839 1.27315e-20)
(12.1878 -4.65949 4.44038e-21)
(12.1122 -4.81757 -1.34042e-20)
(12.039 -4.98337 6.35129e-21)
(11.9688 -5.15758 0)
(11.9019 -5.34081 -5.35537e-21)
(11.8391 -5.53354 1.24027e-20)
(11.7813 -5.73655 -4.31033e-21)
(11.7293 -5.95034 -2.68861e-21)
(11.685 -6.17535 -2.14461e-21)
(11.6498 -6.41242 1.50472e-21)
(11.6252 -6.6623 5.34171e-21)
(11.6125 -6.92547 0)
(11.6136 -7.2016 0)
(11.6312 -7.49019 2.04439e-21)
(11.6681 -7.79031 -2.10387e-21)
(11.7277 -8.10073 0)
(11.8131 -8.4194 0)
(11.9281 -8.74316 -1.66286e-20)
(12.0751 -9.06841 3.31139e-20)
(12.257 -9.38956 0)
(12.475 -9.70063 -3.20457e-20)
(12.7288 -9.99492 1.198e-19)
(13.0159 -10.2652 -3.6515e-20)
(13.8376 -2.61208 4.1108e-22)
(13.7713 -2.68001 6.80573e-21)
(13.7052 -2.75333 -8.42489e-21)
(13.6388 -2.8287 0)
(13.5719 -2.90672 4.29062e-21)
(13.5047 -2.98764 2.90121e-21)
(13.4366 -3.07156 1.59012e-21)
(13.3676 -3.15863 -6.8206e-21)
(13.2977 -3.24864 0)
(13.2275 -3.34211 -8.07491e-22)
(13.1561 -3.4393 0)
(13.084 -3.53976 0)
(13.0116 -3.64355 2.87766e-22)
(12.9399 -3.75076 -2.88838e-22)
(12.8692 -3.86231 -9.76841e-22)
(12.7989 -3.97907 -3.71985e-21)
(12.7282 -4.10113 -1.31589e-21)
(12.6578 -4.22839 0)
(12.5877 -4.36151 2.09155e-21)
(12.5187 -4.50062 -1.08396e-20)
(12.451 -4.64627 -6.66926e-22)
(12.3849 -4.7984 7.37608e-21)
(12.3218 -4.9575 -2.79312e-21)
(12.2623 -5.12475 2.85532e-21)
(12.2061 -5.30061 -1.02513e-21)
(12.1543 -5.48511 2.88661e-21)
(12.1079 -5.67933 0)
(12.0671 -5.8837 0)
(12.0339 -6.09795 3.27447e-21)
(12.0105 -6.3227 -2.86742e-21)
(11.9982 -6.55907 2.33921e-23)
(11.9979 -6.80777 -4.03761e-22)
(12.0101 -7.06844 -1.28325e-21)
(12.0376 -7.3395 1.77125e-21)
(12.0827 -7.61992 -8.23431e-21)
(12.1497 -7.90867 -2.71494e-21)
(12.2393 -8.20362 0)
(12.3567 -8.50188 3.83545e-21)
(12.5017 -8.80059 5.64961e-21)
(12.6777 -9.09372 -7.80651e-20)
(12.8854 -9.37679 3.16589e-20)
(13.1244 -9.64423 -3.80093e-20)
(13.392 -9.89041 6.67786e-21)
(13.9126 -2.6771 3.91684e-22)
(13.8523 -2.74052 1.45554e-20)
(13.7933 -2.81017 -4.98131e-21)
(13.7342 -2.88168 0)
(13.6749 -2.9558 -7.17073e-21)
(13.6157 -3.03308 1.71065e-21)
(13.5551 -3.11287 -7.23367e-21)
(13.4942 -3.19643 4.76453e-21)
(13.4314 -3.28215 -6.18261e-21)
(13.3693 -3.37138 0)
(13.3055 -3.46491 0)
(13.2408 -3.56197 -6.95832e-22)
(13.1749 -3.66239 1.23654e-21)
(13.1092 -3.76544 3.04726e-21)
(13.0447 -3.87196 0)
(12.9831 -3.98346 8.22352e-22)
(12.92 -4.10108 1.38165e-21)
(12.8582 -4.22339 -1.33611e-21)
(12.7958 -4.35169 0)
(12.7347 -4.48551 0)
(12.6751 -4.62648 2.33111e-21)
(12.6158 -4.77366 7.07084e-22)
(12.56 -4.92655 8.18355e-22)
(12.5091 -5.0875 3.30853e-22)
(12.4606 -5.25734 -2.19925e-21)
(12.4159 -5.43437 0)
(12.3785 -5.62037 2.06494e-21)
(12.3458 -5.81709 3.06471e-21)
(12.3202 -6.0226 -7.68796e-23)
(12.3049 -6.23702 5.9544e-21)
(12.3018 -6.46147 0)
(12.3111 -6.69771 1.05293e-21)
(12.3307 -6.94582 -1.08241e-21)
(12.3648 -7.20341 8.57418e-21)
(12.4141 -7.46714 0)
(12.4866 -7.7394 1.09904e-20)
(12.5766 -8.0148 1.70996e-20)
(12.6981 -8.29318 2.05918e-20)
(12.8408 -8.5727 2.28943e-20)
(13.0117 -8.84482 2.78787e-20)
(13.2111 -9.10707 1.08768e-19)
(13.4391 -9.35505 1.10721e-20)
(13.6924 -9.58337 -1.3842e-19)
(13.9766 -2.73242 1.36601e-20)
(13.9243 -2.79362 -1.27696e-20)
(13.8735 -2.85899 -6.45814e-21)
(13.8229 -2.92607 -1.66094e-20)
(13.7694 -2.99553 0)
(13.7164 -3.07071 -9.90464e-21)
(13.66 -3.14515 0)
(13.6069 -3.22688 -8.6914e-21)
(13.5491 -3.30793 5.82697e-21)
(13.4962 -3.3924 4.37802e-22)
(13.4394 -3.48191 -7.1859e-21)
(13.3829 -3.5751 0)
(13.3244 -3.67318 1.35024e-21)
(13.2665 -3.77337 3.37789e-22)
(13.206 -3.87481 5.0891e-21)
(13.1502 -3.97953 2.10115e-22)
(13.0897 -4.09319 -3.48142e-21)
(13.0351 -4.21104 1.26659e-21)
(12.9794 -4.33593 0)
(12.9246 -4.46384 0)
(12.8738 -4.60061 -6.11199e-22)
(12.8215 -4.74446 6.2591e-22)
(12.7715 -4.89128 7.24935e-22)
(12.7311 -5.04553 1.67944e-21)
(12.6919 -5.21154 -9.56202e-22)
(12.6525 -5.38166 4.38212e-21)
(12.624 -5.55855 3.79822e-21)
(12.5968 -5.74821 -2.21362e-21)
(12.5756 -5.94748 7.01573e-21)
(12.5653 -6.15493 -5.48074e-21)
(12.5686 -6.37065 -6.56891e-22)
(12.5873 -6.59673 3.61433e-22)
(12.6092 -6.83301 1.97259e-20)
(12.646 -7.08313 -3.22539e-20)
(12.6907 -7.32912 0)
(12.7695 -7.59601 0)
(12.8477 -7.84956 -3.6242e-20)
(12.9749 -8.11403 -4.43033e-20)
(13.1106 -8.38244 0)
(13.2742 -8.64113 9.56482e-20)
(13.4636 -8.88872 -6.71797e-20)
(13.6819 -9.12338 -4.28156e-20)
(13.9238 -9.33607 4.34532e-20)
(4.90161 -16.97 1.89865e-18)
(6.46529 -16.4327 -1.87687e-18)
(7.9149 -15.7718 0)
(9.34648 -15.3293 -7.76977e-20)
(10.6573 -14.9708 0)
(11.8043 -14.635 6.96439e-20)
(12.8056 -14.3325 -1.79846e-18)
(13.6838 -14.0708 1.49828e-18)
(14.4543 -13.845 -1.16738e-19)
(15.1307 -13.6471 -1.5217e-18)
(15.7258 -13.4694 1.35018e-18)
(16.2513 -13.3048 -1.23044e-18)
(16.7173 -13.148 1.35373e-18)
(17.1314 -12.9933 -1.31154e-18)
(17.5015 -12.8379 2.38442e-18)
(17.8334 -12.6795 -1.08094e-18)
(18.1325 -12.5168 0)
(18.4035 -12.3495 0)
(18.65 -12.1775 0)
(18.8756 -12.0014 1.42497e-19)
(19.0831 -11.822 0)
(19.2748 -11.6403 1.0418e-20)
(19.4529 -11.4572 -2.03566e-18)
(19.6191 -11.2734 3.99699e-18)
(19.7746 -11.0898 -1.71442e-18)
(19.9207 -10.907 2.47396e-19)
(20.0583 -10.7254 0)
(20.1882 -10.5453 -1.64499e-18)
(20.3112 -10.3672 2.29733e-19)
(20.4276 -10.1911 2.3138e-18)
(20.5381 -10.0172 0)
(20.6432 -9.84556 9.13656e-19)
(20.7433 -9.67619 -2.28344e-18)
(20.8387 -9.50907 1.59423e-18)
(20.9299 -9.34418 -2.25687e-18)
(21.0172 -9.18153 1.35018e-18)
(21.1009 -9.02109 9.04321e-19)
(21.1813 -8.86285 -9.05001e-19)
(21.2586 -8.7068 4.44835e-19)
(21.3329 -8.55295 0)
(21.4044 -8.40119 -4.43809e-19)
(21.4742 -8.25208 1.33549e-18)
(21.5419 -8.10499 4.30141e-19)
(10.3171 -13.6347 -1.98242e-19)
(11.1512 -14.1112 4.41217e-19)
(11.9196 -14.4384 1.14817e-19)
(12.6488 -14.629 -1.49124e-18)
(13.3383 -14.7002 7.98532e-19)
(13.9765 -14.6753 5.86794e-20)
(14.5625 -14.5785 -9.04693e-19)
(15.0987 -14.4291 -6.4841e-20)
(15.5889 -14.2421 1.20982e-20)
(16.0364 -14.0291 -4.27864e-20)
(16.4454 -13.7998 1.0723e-18)
(16.8198 -13.5613 -1.17403e-18)
(17.1632 -13.319 1.06463e-18)
(17.4789 -13.0768 1.27779e-19)
(17.7696 -12.8375 -9.12388e-19)
(18.0381 -12.603 1.79429e-18)
(18.2863 -12.3743 -1.00444e-18)
(18.5164 -12.1522 1.19809e-19)
(18.7302 -11.9369 9.74843e-19)
(18.9292 -11.7284 -9.51972e-19)
(19.1148 -11.5264 1.05436e-18)
(19.2881 -11.3306 -6.88309e-19)
(19.4504 -11.1407 0)
(19.6026 -10.9561 8.99631e-19)
(19.7457 -10.7763 -6.69516e-19)
(19.8803 -10.6011 2.15582e-19)
(20.0073 -10.4298 0)
(20.1274 -10.2623 0)
(20.2412 -10.0981 -2.22396e-19)
(20.3493 -9.93706 -2.21381e-19)
(20.4521 -9.77894 0)
(20.5502 -9.62353 2.12084e-19)
(20.644 -9.47068 2.1258e-19)
(20.7338 -9.32025 2.20833e-19)
(20.8201 -9.17214 4.42742e-19)
(20.903 -9.02625 -4.44153e-19)
(20.9829 -8.88252 4.32939e-19)
(21.0599 -8.74085 8.81747e-19)
(21.1342 -8.60117 -1.77047e-18)
(21.2057 -8.46338 -8.88156e-19)
(21.2747 -8.32715 8.88503e-19)
(21.342 -8.19288 -4.49015e-19)
(21.407 -8.05473 -4.50511e-19)
(11.0968 -12.7085 2.29701e-20)
(11.6552 -13.0006 3.15231e-20)
(12.2451 -13.2018 7.2371e-19)
(12.8454 -13.3234 -6.73469e-19)
(13.4391 -13.3774 0)
(14.0126 -13.3738 8.45001e-19)
(14.557 -13.3239 -9.38366e-19)
(15.0681 -13.2366 -1.09161e-19)
(15.5436 -13.121 9.08244e-19)
(15.9835 -12.9837 -9.43098e-19)
(16.3888 -12.8309 0)
(16.761 -12.6668 -1.08717e-18)
(17.1027 -12.4954 9.44784e-19)
(17.4161 -12.3195 7.18964e-19)
(17.7038 -12.1413 -9.29176e-19)
(17.9682 -11.9623 9.40135e-19)
(18.2117 -11.784 -1.71692e-18)
(18.4365 -11.607 7.80487e-19)
(18.6444 -11.4321 -1.08233e-19)
(18.8374 -11.2597 1.07055e-19)
(19.017 -11.0901 -8.77852e-19)
(19.1848 -10.9234 6.41295e-19)
(19.342 -10.7597 0)
(19.4897 -10.599 -2.06408e-19)
(19.6289 -10.4413 -2.13522e-19)
(19.7604 -10.2866 -2.1198e-19)
(19.8849 -10.1347 -1.03362e-18)
(20.0032 -9.98551 8.24402e-19)
(20.1158 -9.839 -8.26381e-19)
(20.2232 -9.69505 6.20611e-19)
(20.3257 -9.55354 0)
(20.4239 -9.41439 -2.1002e-19)
(20.5179 -9.27744 -2.10782e-19)
(20.6082 -9.14262 -8.37332e-19)
(20.6951 -9.00984 1.68298e-18)
(20.7787 -8.87903 -8.46322e-19)
(20.8592 -8.75013 -1.49658e-18)
(20.9368 -8.62305 4.33761e-19)
(21.0114 -8.49769 -4.28577e-19)
(21.0832 -8.37394 1.73942e-18)
(21.1523 -8.25166 -8.72231e-19)
(21.2191 -8.13147 4.32798e-19)
(21.282 -8.00883 -4.25236e-19)
(12.282 -11.6485 2.22116e-19)
(12.7268 -11.9114 -5.90575e-20)
(13.1941 -12.1167 -3.04935e-20)
(13.67 -12.2643 3.39641e-20)
(14.1432 -12.3577 4.30261e-19)
(14.6048 -12.4021 -2.52978e-19)
(15.0486 -12.4038 0)
(15.4705 -12.3697 1.05952e-19)
(15.8681 -12.3061 0)
(16.2408 -12.2189 0)
(16.5885 -12.113 0)
(16.9121 -11.9927 9.81313e-19)
(17.2128 -11.8619 -1.71665e-18)
(17.4921 -11.7234 9.59021e-19)
(17.7516 -11.5796 1.04912e-19)
(17.9927 -11.4325 1.10033e-19)
(18.2172 -11.2836 -1.09024e-19)
(18.4263 -11.134 1.02966e-19)
(18.6217 -10.9848 -7.30824e-19)
(18.8045 -10.8365 7.1444e-19)
(18.9759 -10.6897 7.17982e-19)
(19.1369 -10.5447 -6.04514e-19)
(19.2883 -10.4018 0)
(19.4311 -10.261 -6.00345e-19)
(19.566 -10.1226 1.79204e-18)
(19.6936 -9.98636 5.21689e-21)
(19.8147 -9.85237 2.0657e-19)
(19.9297 -9.72056 -1.58474e-18)
(20.0393 -9.59094 7.90847e-19)
(20.1437 -9.4634 9.97978e-19)
(20.2434 -9.33785 3.55324e-21)
(20.3387 -9.21419 -9.97317e-19)
(20.4302 -9.09231 0)
(20.518 -8.97217 8.13171e-19)
(20.6026 -8.85377 -8.16878e-19)
(20.684 -8.73705 8.26682e-19)
(20.7624 -8.62193 -1.6612e-18)
(20.8377 -8.50833 1.26379e-18)
(20.9103 -8.39612 4.24338e-19)
(20.9801 -8.28516 -4.26318e-19)
(21.0476 -8.1754 4.48519e-21)
(21.1128 -8.06709 -8.64976e-19)
(21.1768 -7.95993 8.54991e-19)
(12.8439 -11.0215 2.221e-21)
(13.223 -11.2503 2.54707e-19)
(13.6233 -11.4343 -1.87468e-19)
(14.0349 -11.5724 -7.45572e-20)
(14.4488 -11.6664 -8.1454e-20)
(14.8572 -11.7195 -8.73934e-20)
(15.2544 -11.7364 0)
(15.6361 -11.7218 -9.28083e-20)
(15.9996 -11.6808 0)
(16.3433 -11.6179 -3.09535e-19)
(16.6667 -11.5372 3.96776e-19)
(16.9699 -11.4427 0)
(17.2535 -11.3374 -1.00542e-19)
(17.5183 -11.224 -4.15307e-19)
(17.7654 -11.1045 -1.13547e-19)
(17.9961 -10.9811 5.03977e-19)
(18.2115 -10.8549 -4.09231e-19)
(18.4128 -10.7272 2.97238e-19)
(18.6012 -10.5988 0)
(18.7779 -10.4704 0)
(18.9437 -10.3428 0)
(19.0996 -10.2162 -9.96569e-20)
(19.2463 -10.0908 -3.92145e-19)
(19.3846 -9.9669 -1.95259e-19)
(19.5153 -9.84451 3.80304e-19)
(19.639 -9.72369 0)
(19.7566 -9.6045 5.77437e-19)
(19.8684 -9.48705 -3.84292e-19)
(19.9749 -9.37141 5.78292e-19)
(20.0764 -9.25744 -3.86154e-19)
(20.1733 -9.14507 0)
(20.2661 -9.03423 -1.94374e-19)
(20.3552 -8.92486 -1.78714e-21)
(20.4409 -8.81704 9.90523e-19)
(20.5234 -8.71081 -3.99691e-19)
(20.6026 -8.60611 -2.00354e-19)
(20.6787 -8.50283 4.12868e-19)
(20.7517 -8.40081 -4.11865e-19)
(20.8218 -8.29993 2.06502e-19)
(20.8891 -8.19998 -2.0834e-19)
(20.9541 -8.10082 4.26644e-19)
(21.0166 -8.00168 0)
(21.0787 -7.90401 -4.27894e-19)
(13.3321 -10.5057 -5.13999e-20)
(13.6722 -10.7126 5.89274e-20)
(14.0299 -10.8826 0)
(14.3979 -11.0144 -3.00583e-19)
(14.7689 -11.1091 -2.63126e-20)
(15.1363 -11.169 -2.45475e-20)
(15.495 -11.1971 2.49418e-19)
(15.8414 -11.1969 2.87749e-21)
(16.1731 -11.1726 3.81126e-19)
(16.4885 -11.1277 -4.69121e-19)
(16.7868 -11.066 2.9859e-19)
(17.068 -10.9908 -2.87674e-19)
(17.3323 -10.9047 1.00276e-19)
(17.5803 -10.8101 9.75086e-20)
(17.8127 -10.7092 3.99561e-19)
(18.0306 -10.6037 -8.88498e-19)
(18.2349 -10.4948 2.91954e-19)
(18.4263 -10.3837 0)
(18.6064 -10.2711 0)
(18.7757 -10.1582 9.56534e-20)
(18.9348 -10.0456 0)
(19.0844 -9.93345 3.85139e-19)
(19.2253 -9.82185 -7.62217e-19)
(19.3584 -9.71117 5.69966e-19)
(19.4844 -9.60151 1.88802e-19)
(19.6039 -9.49299 -3.76332e-19)
(19.7178 -9.38575 1.88205e-19)
(19.8261 -9.2802 -1.89299e-19)
(19.929 -9.17625 -3.63017e-21)
(20.027 -9.0736 0)
(20.1205 -8.97223 0)
(20.2103 -8.87211 0)
(20.2967 -8.7733 -5.79374e-19)
(20.3798 -8.67603 3.89773e-19)
(20.4595 -8.58034 -5.8788e-19)
(20.5359 -8.48609 2.00477e-19)
(20.6089 -8.39305 6.05198e-19)
(20.6788 -8.30106 -4.05408e-19)
(20.7458 -8.2101 -2.0681e-19)
(20.8101 -8.12003 2.08735e-19)
(20.8721 -8.03065 0)
(20.9318 -7.94113 2.11884e-19)
(20.9915 -7.85582 -2.08399e-19)
(13.6853 -10.1108 -9.76359e-20)
(13.9979 -10.3023 0)
(14.3259 -10.4611 -6.4731e-20)
(14.6642 -10.5866 7.02917e-20)
(15.0058 -10.6802 0)
(15.3443 -10.7429 0)
(15.6756 -10.7765 5.16457e-19)
(15.9967 -10.7842 -1.65143e-19)
(16.3058 -10.7695 0)
(16.6011 -10.7359 0)
(16.8815 -10.6867 9.51088e-20)
(17.1468 -10.6242 -2.10019e-21)
(17.3969 -10.5511 0)
(17.6329 -10.4696 -2.11623e-21)
(17.8546 -10.3818 0)
(18.0629 -10.2892 -3.89117e-19)
(18.2586 -10.1932 3.82286e-19)
(18.4424 -10.0943 -3.86109e-19)
(18.6164 -9.99373 3.78018e-19)
(18.7799 -9.89327 -9.58621e-20)
(18.9328 -9.79262 1.8725e-19)
(19.0769 -9.69147 -1.86448e-19)
(19.2128 -9.59061 0)
(19.3413 -9.49042 -5.60441e-19)
(19.4632 -9.39091 1.85966e-19)
(19.5789 -9.29213 0)
(19.6899 -9.19459 0)
(19.7946 -9.0992 -1.87669e-19)
(19.8936 -9.0049 -1.88025e-19)
(19.988 -8.91142 0)
(20.0785 -8.81902 1.86617e-19)
(20.1655 -8.72768 0)
(20.2494 -8.63761 1.9196e-19)
(20.3299 -8.54936 5.78769e-19)
(20.4066 -8.46273 -7.73046e-19)
(20.4796 -8.37735 -1.96465e-19)
(20.5493 -8.29296 1.98611e-19)
(20.616 -8.20945 1.9905e-19)
(20.68 -8.12701 0)
(20.7413 -8.04559 -2.06679e-19)
(20.8005 -7.96475 6.17353e-19)
(20.8577 -7.88362 2.09164e-19)
(20.9155 -7.80797 -4.07575e-19)
(13.9698 -9.78952 -1.20485e-20)
(14.2613 -9.96962 1.09533e-19)
(14.568 -10.1202 6.35768e-20)
(14.8863 -10.2398 -6.9077e-20)
(15.2061 -10.3326 -7.3595e-20)
(15.5218 -10.3968 7.7872e-20)
(15.8314 -10.4333 -8.25091e-20)
(16.1328 -10.4457 -8.57941e-20)
(16.4242 -10.4375 1.79415e-19)
(16.7035 -10.4128 -1.75534e-19)
(16.9691 -10.3728 9.0913e-20)
(17.2212 -10.3194 -4.69652e-19)
(17.4593 -10.2556 3.67572e-19)
(17.6856 -10.1837 -2.88309e-19)
(17.8976 -10.1069 3.71547e-19)
(18.0976 -10.0244 1.87561e-19)
(18.2856 -9.93837 -2.84908e-19)
(18.4628 -9.84882 1.84739e-19)
(18.6329 -9.75769 0)
(18.7895 -9.66799 3.75699e-19)
(18.9362 -9.57608 -1.82196e-19)
(19.0754 -9.48318 1.91244e-19)
(19.2068 -9.39124 -5.50878e-19)
(19.3312 -9.29952 1.85476e-19)
(19.4497 -9.20793 3.68145e-19)
(19.5622 -9.11676 3.68537e-19)
(19.6711 -9.02757 -3.65348e-19)
(19.7708 -8.94124 -1.85647e-19)
(19.8661 -8.85434 3.66877e-19)
(19.9576 -8.76821 0)
(20.0453 -8.6832 -5.59249e-19)
(20.1297 -8.59892 -2.16246e-21)
(20.2116 -8.51626 5.62263e-19)
(20.2891 -8.43598 1.88812e-19)
(20.3625 -8.35706 5.76753e-19)
(20.432 -8.27909 -1.91439e-19)
(20.4982 -8.20183 3.93091e-19)
(20.5618 -8.12535 -3.96718e-19)
(20.6232 -8.05029 0)
(20.6814 -7.97666 -2.03575e-19)
(20.7379 -7.90334 -4.10035e-19)
(20.7928 -7.83005 2.05366e-19)
(20.8476 -7.76406 4.04528e-19)
(14.1899 -9.53382 -1.07685e-19)
(14.4614 -9.70294 0)
(14.7596 -9.84549 0)
(15.07 -9.95465 2.73331e-19)
(15.3722 -10.049 -2.17002e-19)
(15.6685 -10.1132 7.2142e-20)
(15.9615 -10.15 1.67664e-19)
(16.2488 -10.1645 -3.36683e-19)
(16.5282 -10.1612 3.42398e-19)
(16.7967 -10.1439 -1.70572e-19)
(17.0526 -10.1075 -9.05316e-20)
(17.2953 -10.0588 -1.87058e-19)
(17.5238 -10.0018 1.82632e-19)
(17.7435 -9.93979 -1.863e-19)
(17.9464 -9.87163 0)
(18.1434 -9.79344 -1.88497e-19)
(18.3254 -9.71603 -1.89326e-19)
(18.4987 -9.63255 5.58781e-19)
(18.6687 -9.54943 -1.80103e-19)
(18.8159 -9.46753 -1.8634e-19)
(18.957 -9.38147 1.87491e-19)
(19.0908 -9.29746 0)
(19.2174 -9.21392 1.85673e-19)
(19.3381 -9.12835 -1.84829e-19)
(19.4521 -9.04345 -1.85145e-19)
(19.561 -8.95901 1.46118e-21)
(19.6687 -8.87853 -1.77665e-19)
(19.7602 -8.79931 -5.55195e-19)
(19.8538 -8.71756 -3.75695e-19)
(19.9412 -8.63887 1.08778e-21)
(20.0258 -8.55991 0)
(20.107 -8.4816 -1.87038e-19)
(20.1862 -8.40606 -2.32343e-21)
(20.2594 -8.33301 -1.97578e-21)
(20.3291 -8.26048 -1.92988e-19)
(20.3938 -8.18921 0)
(20.4554 -8.11809 -2.01275e-19)
(20.5158 -8.04761 8.08289e-22)
(20.5743 -7.97962 2.00642e-19)
(20.6287 -7.91369 0)
(20.6817 -7.8472 0)
(20.733 -7.78121 2.08794e-19)
(20.7812 -7.72181 2.04714e-19)
(21.7709 -1.28884 -7.10365e-19)
(21.7947 -1.31315 -1.85455e-19)
(21.8186 -1.33846 0)
(21.8424 -1.36313 9.35484e-19)
(21.8659 -1.38754 -1.12477e-18)
(21.8889 -1.41167 1.50417e-18)
(21.9114 -1.43547 1.1369e-18)
(21.9333 -1.45893 -1.51788e-18)
(21.9543 -1.48202 1.91735e-19)
(21.9744 -1.50475 0)
(21.9932 -1.52709 5.97969e-22)
(22.0105 -1.54902 -9.89292e-20)
(22.026 -1.57054 1.00385e-19)
(22.0391 -1.59162 0)
(22.0495 -1.61226 -1.04021e-19)
(22.0566 -1.63243 0)
(22.0596 -1.65211 -1.73559e-18)
(22.0576 -1.6713 1.7783e-18)
(22.0497 -1.68996 5.69651e-20)
(22.0347 -1.70807 -1.76782e-18)
(22.0111 -1.7256 -6.36244e-20)
(21.9773 -1.74251 2.00886e-18)
(21.9316 -1.75869 -2.08246e-18)
(21.8722 -1.77405 2.22086e-18)
(21.7973 -1.78843 0)
(21.7052 -1.80169 -7.25644e-20)
(21.5942 -1.81365 0)
(21.4626 -1.8241 -2.52701e-18)
(21.3086 -1.83286 2.56223e-18)
(21.1304 -1.83972 -4.40907e-20)
(20.9262 -1.84443 2.94842e-18)
(20.6937 -1.84679 -3.12743e-18)
(20.4302 -1.84651 -1.7817e-18)
(20.1331 -1.84337 3.60427e-18)
(19.7981 -1.8371 -3.91512e-18)
(19.4196 -1.82743 2.14211e-18)
(18.989 -1.81395 2.38921e-18)
(18.4938 -1.79602 -2.5946e-18)
(17.9135 -1.77261 -4.86327e-20)
(17.2129 -1.7419 5.73083e-20)
(16.32 -1.70971 -6.85783e-20)
(14.8888 -1.71501 0)
(11.5166 -1.71919 -2.90189e-18)
(21.7431 -1.30636 3.95929e-19)
(21.7642 -1.33003 -2.40618e-20)
(21.7852 -1.35399 0)
(21.8062 -1.37738 0)
(21.8269 -1.40053 7.7656e-19)
(21.8474 -1.42345 -7.78183e-19)
(21.8674 -1.44614 -1.95729e-19)
(21.8871 -1.46858 -9.76894e-20)
(21.9062 -1.49079 0)
(21.9246 -1.51273 9.89538e-20)
(21.9422 -1.53442 -1.50471e-18)
(21.9588 -1.55584 1.61965e-18)
(21.9742 -1.57699 0)
(21.9881 -1.59787 0)
(22.0001 -1.61845 -1.05905e-19)
(22.0099 -1.63873 -1.73787e-18)
(22.0168 -1.6587 1.8854e-18)
(22.0204 -1.67834 -1.70944e-18)
(22.0199 -1.69764 1.87032e-18)
(22.0142 -1.71657 -1.99264e-18)
(22.0024 -1.73512 1.99093e-18)
(21.9831 -1.75325 0)
(21.9547 -1.77093 6.65285e-20)
(21.9154 -1.7881 -2.29179e-18)
(21.8633 -1.80468 2.30435e-18)
(21.7965 -1.82053 7.50048e-20)
(21.7127 -1.83556 -7.78382e-20)
(21.61 -1.84964 2.61752e-18)
(21.4859 -1.8626 -5.39187e-18)
(21.3379 -1.87428 2.87671e-18)
(21.1636 -1.88453 -9.44967e-20)
(20.9598 -1.8931 0)
(20.7232 -1.8998 1.77046e-18)
(20.4498 -1.90436 -3.73208e-18)
(20.1344 -1.90646 1.91893e-18)
(19.7702 -1.90566 6.69741e-20)
(19.3481 -1.90125 1.18599e-18)
(18.8543 -1.89219 -1.39846e-18)
(18.2669 -1.87711 9.22834e-20)
(17.5416 -1.85524 0)
(16.5077 -1.8431 2.4233e-19)
(14.4546 -1.89481 0)
(10.9962 -1.87611 0)
(21.717 -1.32236 -1.70782e-19)
(21.736 -1.34441 1.73774e-19)
(21.7548 -1.36674 0)
(21.7735 -1.38874 0)
(21.792 -1.41059 -2.00215e-19)
(21.8104 -1.43231 -3.00202e-19)
(21.8285 -1.45388 0)
(21.8463 -1.4753 9.05898e-19)
(21.8637 -1.4966 -1.71741e-18)
(21.8806 -1.51773 8.12367e-19)
(21.8969 -1.53874 -1.74605e-18)
(21.9125 -1.5596 1.65772e-18)
(21.9273 -1.58033 -1.04774e-19)
(21.9409 -1.60092 1.06359e-19)
(21.9532 -1.62136 1.08987e-19)
(21.9638 -1.64166 0)
(21.9724 -1.66179 0)
(21.9785 -1.68177 1.74462e-18)
(21.9814 -1.70157 -1.96735e-18)
(21.9806 -1.72116 -6.12213e-20)
(21.9751 -1.74053 -1.96912e-18)
(21.9638 -1.75964 2.0332e-18)
(21.9454 -1.77844 -6.83452e-20)
(21.9183 -1.79689 0)
(21.8807 -1.8149 7.31801e-20)
(21.8304 -1.83236 0)
(21.7654 -1.84917 8.01407e-20)
(21.6831 -1.8652 -8.29185e-20)
(21.5809 -1.88027 1.39744e-18)
(21.4559 -1.89418 -1.37243e-18)
(21.305 -1.90675 1.92673e-19)
(21.1245 -1.91767 1.0128e-19)
(20.9105 -1.92663 1.62442e-18)
(20.6579 -1.93323 -1.84413e-18)
(20.3611 -1.93696 1.92121e-18)
(20.0125 -1.93716 -3.27643e-18)
(19.6021 -1.93284 1.16563e-18)
(19.115 -1.92264 0)
(18.5261 -1.90568 6.26462e-19)
(17.7604 -1.88729 -6.98186e-19)
(16.4705 -1.9085 -9.1783e-20)
(14.0193 -1.9899 -1.19772e-20)
(10.9654 -1.94196 0)
(21.6945 -1.33714 1.99222e-19)
(21.7109 -1.35711 -3.07994e-19)
(21.7277 -1.37783 2.05484e-19)
(21.7445 -1.39844 -2.04936e-19)
(21.7612 -1.41901 0)
(21.7779 -1.43955 1.02726e-18)
(21.7943 -1.46001 -1.54216e-18)
(21.8106 -1.48041 1.64902e-18)
(21.8265 -1.50075 -8.26769e-19)
(21.8421 -1.52103 -1.04404e-19)
(21.8573 -1.54126 5.18922e-22)
(21.8719 -1.56144 0)
(21.8859 -1.58157 5.68391e-22)
(21.899 -1.60164 -1.09382e-19)
(21.911 -1.62167 1.77732e-18)
(21.9218 -1.64166 -1.69576e-18)
(21.931 -1.66158 1.15357e-19)
(21.9381 -1.68145 1.18899e-19)
(21.9429 -1.70126 -6.06886e-20)
(21.9446 -1.72099 1.25344e-19)
(21.9427 -1.74062 -6.44435e-20)
(21.9361 -1.76012 -2.14066e-18)
(21.9238 -1.77945 1.10527e-18)
(21.9044 -1.79858 1.14947e-18)
(21.8762 -1.81742 -1.27292e-18)
(21.8374 -1.83591 7.5251e-20)
(21.7856 -1.85388 -2.42684e-21)
(21.7183 -1.87124 1.35453e-18)
(21.6328 -1.88778 1.50634e-18)
(21.5258 -1.90333 -1.83065e-19)
(21.3939 -1.91761 -1.65607e-18)
(21.2331 -1.93031 1.54139e-18)
(21.0388 -1.94105 -1.6277e-18)
(20.8057 -1.94933 0)
(20.5273 -1.9545 2.46861e-19)
(20.1956 -1.9557 0)
(19.8001 -1.95186 -1.4302e-19)
(19.3246 -1.94164 -1.56316e-19)
(18.7366 -1.92539 6.91635e-19)
(17.9035 -1.91867 -1.20689e-18)
(16.3446 -1.97769 3.63343e-19)
(13.7891 -2.06446 0)
(11.0435 -1.98268 0)
(21.6729 -1.3488 -2.33651e-19)
(21.6879 -1.36764 1.31604e-19)
(21.7029 -1.38719 3.3539e-22)
(21.7181 -1.40659 -4.21733e-19)
(21.7332 -1.42599 4.20583e-19)
(21.7483 -1.44539 -3.92934e-22)
(21.7633 -1.4648 7.37756e-19)
(21.7782 -1.48422 -8.43738e-19)
(21.7928 -1.50364 2.11924e-19)
(21.8073 -1.52308 -7.47073e-19)
(21.8214 -1.54255 9.66117e-19)
(21.8351 -1.56204 8.68867e-19)
(21.8484 -1.58156 -1.75693e-18)
(21.861 -1.60111 7.79696e-19)
(21.8728 -1.6207 -1.1309e-19)
(21.8837 -1.64032 -1.15869e-19)
(21.8933 -1.65996 -1.18418e-19)
(21.9014 -1.67964 0)
(21.9076 -1.69933 3.3978e-22)
(21.9114 -1.71903 -1.27766e-19)
(21.9122 -1.73873 6.60799e-20)
(21.9092 -1.75839 3.9018e-22)
(21.9016 -1.77799 -1.05906e-18)
(21.8881 -1.79749 1.24286e-18)
(21.8673 -1.81682 -1.21829e-18)
(21.8373 -1.83591 2.53294e-18)
(21.796 -1.85466 -1.31874e-18)
(21.7409 -1.87293 -1.2918e-18)
(21.6689 -1.89053 -9.2552e-20)
(21.577 -1.90726 1.59786e-18)
(21.4612 -1.92287 0)
(21.3173 -1.93705 1.03312e-19)
(21.1404 -1.9494 0)
(20.9246 -1.95941 1.15293e-19)
(20.6631 -1.96637 -1.23498e-19)
(20.3472 -1.96935 0)
(19.9658 -1.96712 1.42335e-19)
(19.5016 -1.95854 1.54367e-19)
(18.909 -1.94573 0)
(17.9828 -1.95614 0)
(16.2171 -2.04254 -1.63166e-19)
(13.6866 -2.11557 2.95132e-19)
(11.1218 -2.00995 -2.60043e-19)
(21.6533 -1.35939 -1.08293e-19)