/*--------------------------------*- C++ -*----------------------------------*\
| =========                 |                                                 |
| \\      /  F ield         | OpenFOAM: The Open Source CFD Toolbox           |
|  \\    /   O peration     | Version:  2.3.0                                 |
|   \\  /    A nd           | Web:      www.OpenFOAM.org                      |
|    \\/     M anipulation  |                                                 |
\*---------------------------------------------------------------------------*/
FoamFile
{
    version     2.0;
    format      ascii;
    class       surfaceScalarField;
    location    "2000";
    object      phi;
}
// * * * * * * * * * * * * * * * * * * * * * * * * * * * * * * * * * * * * * //

dimensions      [0 3 -1 0 0 0 0];

internalField   nonuniform List<scalar> 
27910
(
-0.010243
-0.0124153
0.0137878
0.00886824
-0.0114351
-0.0113487
0.0125408
-0.0124632
-0.010372
0.0114001
-0.013344
-0.00947643
0.0103572
-0.0140957
-0.00865515
0.00940686
-0.0147311
-0.00790049
0.00853592
-0.0152609
-0.00721069
0.00774048
-0.0156955
-0.00657483
0.00700939
-0.0160393
-0.00599258
0.00633645
-0.0162921
-0.0054564
0.00570915
-0.0164559
-0.00495941
0.00512321
-0.016529
-0.00450171
0.00457483
-0.0165116
-0.0040752
0.00405779
-0.0164025
-0.0036788
0.00356969
-0.0162069
-0.00330723
0.0031117
-0.0159315
-0.00295897
0.0026835
-0.0155805
-0.00263321
0.00228225
-0.0151705
-0.00232363
0.00191359
-0.0147061
-0.00203613
0.0015717
-0.0142037
-0.00176291
0.00126049
-0.0136731
-0.00150491
0.000974271
-0.0131232
-0.00126641
0.0007165
-0.0125835
-0.00104668
0.000507038
-0.000845131
-0.0121764
0.000437961
-0.00915668
-0.0112202
0.00796152
-0.0101804
-0.010325
-0.0110529
-0.00949947
-0.0117851
-0.00874422
-0.0123901
-0.00805017
-0.0128792
-0.00741144
-0.013265
-0.00682483
-0.0135568
-0.00628308
-0.0137654
-0.00578397
-0.013899
-0.00532277
-0.0139611
-0.00489732
-0.0139615
-0.00450129
-0.0139012
-0.00413547
-0.0137854
-0.00379458
-0.0136142
-0.00347849
-0.0133914
-0.00318178
-0.0131171
-0.00290743
-0.012787
-0.00265377
-0.0124067
-0.00241638
-0.0119701
-0.00219958
-0.0114746
-0.00200034
-0.0109206
-0.00182046
-0.0103073
-0.00165999
-0.00151889
-0.00963354
-0.00818103
-0.0101764
0.0071373
-0.0090752
-0.00943082
-0.00982453
-0.00875014
-0.0104501
-0.00811864
-0.0109588
-0.00754143
-0.0113628
-0.00700748
-0.0116709
-0.00651673
-0.0118899
-0.00606402
-0.0120287
-0.00564521
-0.012094
-0.00525741
-0.012093
-0.00489832
-0.0120295
-0.00456487
-0.0119102
-0.00425471
-0.0117394
-0.00396542
-0.0115226
-0.00369529
-0.0112596
-0.00344473
-0.0109591
-0.00320795
-0.0106228
-0.00299005
-0.0102528
-0.00278636
-0.00985399
-0.00259841
-0.00942875
-0.00242557
-0.0089792
-0.00227002
-0.00851135
-0.00212783
-0.00200481
-0.00802543
-0.00731627
-0.00925894
0.0063988
-0.00809405
-0.00865304
-0.00874879
-0.0080954
-0.00928819
-0.00757924
-0.00972395
-0.00710566
-0.0100644
-0.00666703
-0.010319
-0.00626216
-0.0104948
-0.00588818
-0.0106007
-0.00553934
-0.0106401
-0.00521794
-0.010621
-0.00491751
-0.0105485
-0.00463736
-0.0104269
-0.00437624
-0.0102606
-0.00413172
-0.0100531
-0.00390283
-0.00980903
-0.00368876
-0.00952867
-0.00348831
-0.00921904
-0.00329968
-0.00888085
-0.00312455
-0.00851709
-0.00296216
-0.00813171
-0.00281095
-0.00772745
-0.00267428
-0.00730572
-0.00254956
-0.00243893
-0.0068716
-0.00654323
-0.00845201
0.0057363
-0.00723099
-0.00796527
-0.00780545
-0.00752094
-0.0082746
-0.0071101
-0.00865458
-0.00672568
-0.00894691
-0.00637469
-0.0091628
-0.00604627
-0.009309
-0.00574198
-0.00939095
-0.00545739
-0.00941508
-0.00519381
-0.00938613
-0.00494645
-0.00930916
-0.00471433
-0.00918876
-0.00449662
-0.00902889
-0.00429159
-0.00883279
-0.00409893
-0.00860476
-0.00391679
-0.00834888
-0.00374418
-0.00806521
-0.00358335
-0.0077588
-0.00343096
-0.00743188
-0.00328908
-0.007086
-0.00315682
-0.0067248
-0.00303548
-0.00635097
-0.00292338
-0.00282363
-0.00596628
-0.00586078
-0.00773158
0.00514035
-0.00646698
-0.00735907
-0.0069752
-0.00701272
-0.0073925
-0.00669279
-0.0077235
-0.00639468
-0.00798079
-0.00611741
-0.00816725
-0.0058598
-0.00829186
-0.00561738
-0.00835856
-0.00539068
-0.00837413
-0.00517824
-0.00834278
-0.00497779
-0.00826887
-0.00478824
-0.00815621
-0.00460929
-0.00800818
-0.00443962
-0.00782881
-0.00427829
-0.00762091
-0.00412468
-0.00738571
-0.00397939
-0.00712919
-0.00383986
-0.00684976
-0.00371038
-0.00655444
-0.0035844
-0.00624132
-0.00346994
-0.00591599
-0.00336082
-0.0055776
-0.00326177
-0.00317084
-0.00523039
-0.00525298
-0.00709076
0.00461216
-0.00579585
-0.0068162
-0.00624676
-0.00656181
-0.00661629
-0.00632326
-0.00691107
-0.0060999
-0.0071361
-0.00589238
-0.0073013
-0.0056946
-0.00740952
-0.00550916
-0.00746612
-0.00533407
-0.00747683
-0.00516753
-0.00744531
-0.00500931
-0.00737537
-0.00485818
-0.00727079
-0.00471386
-0.00713508
-0.00457533
-0.00697171
-0.00444166
-0.00678227
-0.00431413
-0.00656933
-0.00419233
-0.00633447
-0.00407472
-0.00608356
-0.0039613
-0.00581432
-0.00385365
-0.00553234
-0.00375191
-0.00523666
-0.00365649
-0.00493128
-0.00356715
-0.00348537
-0.00461675
-0.00471492
-0.00652002
0.00414419
-0.00519891
-0.00633221
-0.00560173
-0.00615899
-0.0059338
-0.0059912
-0.00619602
-0.00583768
-0.00639782
-0.00569057
-0.00654266
-0.00554976
-0.00663797
-0.00541385
-0.0066867
-0.00528534
-0.00669488
-0.00515935
-0.006665
-0.00503919
-0.00659978
-0.00492341
-0.00650434
-0.00480929
-0.00638031
-0.00469936
-0.00623074
-0.00459123
-0.00605827
-0.0044866
-0.00586611
-0.00438448
-0.00565495
-0.00428587
-0.00542535
-0.00419089
-0.00518227
-0.00409673
-0.00492497
-0.00400922
-0.00465794
-0.00392352
-0.00438021
-0.00384488
-0.00377019
-0.00409539
-0.0042379
-0.00600582
0.0037237
-0.00467156
-0.00589856
-0.00503476
-0.00579579
-0.00532904
-0.00569692
-0.00556324
-0.00560348
-0.00574411
-0.0055097
-0.0058747
-0.00541916
-0.00595961
-0.00532894
-0.0060027
-0.00524225
-0.00600854
-0.00515351
-0.00598092
-0.00506681
-0.00592138
-0.00498294
-0.00583252
-0.00489815
-0.0057196
-0.00481228
-0.00558377
-0.00472706
-0.00542801
-0.00464235
-0.00525348
-0.00455902
-0.00506209
-0.00447725
-0.00485507
-0.00439792
-0.00463298
-0.00431882
-0.00440141
-0.00424079
-0.00415695
-0.00416797
-0.00390566
-0.00409617
-0.00402927
-0.00364658
-0.00381092
0.00334904
-0.00554395
-0.00420094
-0.00550853
-0.00452561
-0.00547113
-0.0047927
-0.00542983
-0.00500716
-0.00538902
-0.00516654
-0.00535032
-0.00528521
-0.0053005
-0.00535936
-0.00525479
-0.00539908
-0.00520252
-0.00540332
-0.00514927
-0.00537767
-0.00509246
-0.00532434
-0.00503627
-0.00524519
-0.0049773
-0.00513835
-0.00491912
-0.00501543
-0.00484998
-0.00487495
-0.00478284
-0.00471801
-0.00471595
-0.0045423
-0.00465297
-0.00435398
-0.00458623
-0.00415395
-0.00451886
-0.00394224
-0.0044525
-0.00372147
-0.00438873
-0.00349116
-0.00432648
-0.00325612
-0.00426431
-0.0109134
-0.000744546
-0.00051837
-0.00992608
-0.000764037
-0.000223327
-0.00905349
-0.000818134
-5.44429e-05
-0.0082538
-0.000893469
9.37869e-05
-0.00751166
-0.000984961
0.000242837
-0.00681415
-0.00109658
0.000399079
-0.00615923
-0.00122426
0.000569344
-0.00554383
-0.0013698
0.0007544
-0.00496771
-0.00153581
0.000959699
-0.00443332
-0.00171985
0.00118546
-0.00394357
-0.00192494
0.00143518
-0.00350074
-0.00215394
0.00171111
-0.00311091
-0.00240449
0.00201466
-0.00277644
-0.00268282
0.00234834
-0.00250379
-0.0029884
0.00271576
-0.00229731
-0.00332582
0.00311934
-0.00216137
-0.00369756
0.00356162
-0.00210294
-0.00410672
0.00404829
-0.00212786
-0.00455865
0.00458357
-0.00224357
-0.00505651
0.00517222
-0.00245832
-0.0056066
0.00582134
-0.0027832
-0.00621219
0.00653707
-0.00322963
-0.00688026
0.00732668
-0.00761819
0.0081987
-0.00381014
-0.00892436
-0.00145372
-0.00822723
-0.00146117
-0.00756097
-0.00148438
-0.00692898
-0.00152546
-0.00632769
-0.00158624
-0.00576213
-0.00166215
-0.00522988
-0.0017565
-0.00473279
-0.00186689
-0.00427223
-0.00199637
-0.00384861
-0.00214347
-0.00346303
-0.00231052
-0.00311903
-0.00249794
-0.00281694
-0.00270658
-0.00256035
-0.00293941
-0.00235247
-0.00319629
-0.00219684
-0.00348145
-0.00209954
-0.00379486
-0.00206551
-0.00414075
-0.00210196
-0.0045222
-0.00221623
-0.00494224
-0.00241839
-0.00540443
-0.00271703
-0.00591355
-0.00312343
-0.00647386
-0.00709194
-0.00364968
-0.00753145
-0.00194769
-0.00703576
-0.00195687
-0.00654446
-0.00197568
-0.00606128
-0.00200864
-0.00559248
-0.00205504
-0.00513883
-0.0021158
-0.00470443
-0.0021909
-0.00429011
-0.00228121
-0.0039002
-0.00238629
-0.00353636
-0.0025073
-0.00320135
-0.00264553
-0.00289886
-0.00280042
-0.00263166
-0.00297378
-0.00240452
-0.00316655
-0.00222057
-0.00338023
-0.00208518
-0.00361685
-0.00200256
-0.00387748
-0.0019785
-0.00416481
-0.00201895
-0.00448175
-0.00213145
-0.00482974
-0.00232251
-0.00521337
-0.00260083
-0.00563523
-0.00297655
-0.00609814
-0.00660908
-0.00345941
-0.00643348
-0.0023858
-0.0060033
-0.00238705
-0.00558015
-0.00239883
-0.00516791
-0.00242088
-0.00476947
-0.00245347
-0.00438554
-0.00249973
-0.00401897
-0.00255748
-0.00367149
-0.00262868
-0.00334529
-0.00271249
-0.00304279
-0.0028098
-0.00276685
-0.00292147
-0.0025193
-0.00304798
-0.00230361
-0.00318947
-0.00212247
-0.00334769
-0.00197959
-0.00352311
-0.00187979
-0.00371665
-0.00182587
-0.00393139
-0.00182376
-0.00416693
-0.00187914
-0.00442637
-0.00199699
-0.00471189
-0.0021854
-0.00502496
-0.00245131
-0.00536932
-0.00280287
-0.00574658
-0.00616272
-0.00324923
-0.00558065
-0.00277143
-0.00520349
-0.00276421
-0.00483529
-0.00276703
-0.0044782
-0.00277797
-0.00413217
-0.0027995
-0.00380074
-0.00283117
-0.00348423
-0.00287398
-0.00318509
-0.00292782
-0.00290573
-0.00299185
-0.00264673
-0.00306881
-0.00241159
-0.00315661
-0.00220252
-0.00325704
-0.0020219
-0.00337009
-0.00187288
-0.00349671
-0.00175865
-0.00363734
-0.00168224
-0.00379306
-0.00164927
-0.00396437
-0.00166217
-0.00415402
-0.00172621
-0.00436232
-0.00184762
-0.00459048
-0.00203223
-0.00484035
-0.00228621
-0.00511534
-0.00261727
-0.00541552
-0.00574675
-0.00303324
-0.00488327
-0.00311855
-0.00454548
-0.003102
-0.00421687
-0.00309563
-0.00389946
-0.00309538
-0.00359375
-0.00310521
-0.00330099
-0.00312393
-0.0030229
-0.00315208
-0.00276195
-0.00318876
-0.00251728
-0.00323652
-0.00229375
-0.00329235
-0.00209245
-0.00335791
-0.00191463
-0.00343486
-0.00176263
-0.00352209
-0.00163984
-0.0036195
-0.00154957
-0.0037276
-0.00149311
-0.00384952
-0.00147495
-0.00398252
-0.00149975
-0.00412923
-0.00157099
-0.00429109
-0.00169377
-0.0044677
-0.00187328
-0.00466084
-0.00211559
-0.00487302
-0.00242671
-0.0051044
-0.00535912
-0.00281435
-0.00430396
-0.00343134
-0.00399825
-0.00340771
-0.00370383
-0.00339006
-0.00341934
-0.00337987
-0.00314664
-0.00337792
-0.00288535
-0.00338521
-0.0026392
-0.00339823
-0.00240699
-0.00342097
-0.00219339
-0.00345012
-0.00199795
-0.00348779
-0.00182171
-0.00353414
-0.00166824
-0.00358833
-0.00153966
-0.00365067
-0.00143711
-0.00372205
-0.0013631
-0.00380162
-0.00132214
-0.00389049
-0.00131593
-0.00398873
-0.00134764
-0.00409751
-0.00142296
-0.00421577
-0.00154432
-0.00434635
-0.00171748
-0.00448768
-0.00194817
-0.00464233
-0.002241
-0.00481156
-0.00499728
-0.00260284
-0.00381038
-0.00371634
-0.00353448
-0.00368362
-0.0032691
-0.00365544
-0.00301279
-0.00363618
-0.00276673
-0.00362397
-0.00253404
-0.0036179
-0.00231327
-0.00361899
-0.00210765
-0.00362659
-0.00191722
-0.00364055
-0.00174422
-0.00366079
-0.00159034
-0.00368803
-0.00145709
-0.00372158
-0.00134564
-0.00376212
-0.00125929
-0.0038084
-0.00119936
-0.00386155
-0.00116923
-0.00392061
-0.0011712
-0.00398676
-0.0012086
-0.00406012
-0.00128412
-0.00414024
-0.00140276
-0.0042277
-0.00156793
-0.00432251
-0.00178596
-0.00442431
-0.00206032
-0.0045372
-0.00466081
-0.00239679
-0.00338696
-0.00397596
-0.00313769
-0.00393289
-0.00289646
-0.00389666
-0.00266691
-0.00386573
-0.00244482
-0.00384607
-0.00223464
-0.00382809
-0.00203664
-0.00381699
-0.001852
-0.00381123
-0.00168262
-0.00380994
-0.00152942
-0.00381398
-0.00139404
-0.00382341
-0.00127656
-0.00383906
-0.0011804
-0.00385829
-0.00110617
-0.00388263
-0.00105741
-0.00391032
-0.0010347
-0.00394333
-0.0010423
-0.00397915
-0.00108164
-0.00402078
-0.00115707
-0.00406481
-0.00127113
-0.00411365
-0.00142849
-0.00416516
-0.0016326
-0.00422019
-0.00188909
-0.00428071
-0.00434834
-0.00220156
-0.00302143
-0.00421066
-0.00279418
-0.00416013
-0.00257665
-0.0041142
-0.00236991
-0.00407246
-0.00217002
-0.00404596
-0.001981
-0.00401711
-0.00180181
-0.00399617
-0.00163566
-0.00397738
-0.00148402
-0.00396159
-0.00134783
-0.00395017
-0.00122595
-0.00394529
-0.00112305
-0.00394196
-0.0010374
-0.00394394
-0.000974011
-0.00394602
-0.000932901
-0.00395143
-0.000917152
-0.00395908
-0.000927903
-0.0039684
-0.000968494
-0.00398019
-0.00104125
-0.00399205
-0.00114936
-0.00400553
-0.00129819
-0.00401633
-0.00148998
-0.0040284
-0.00172731
-0.00404338
-0.00201567
-0.00405999
0.0015509
0.000464519
-0.000520644
-0.00149477
0.00156969
0.000234715
-0.000253504
0.00156318
6.32701e-05
-5.67565e-05
0.00154274
-6.19012e-05
8.23439e-05
0.00151646
-0.000148694
0.00017498
0.00149069
-0.000205271
0.000231041
0.0014695
-0.000236859
0.000258043
0.00145539
-0.00024893
0.000263044
0.00144869
-0.000245001
0.000251699
0.00144888
-0.000228681
0.000228497
0.00145485
-0.000203013
0.000197035
0.00146361
-0.00016906
0.00016031
0.00147256
-0.00012972
0.000120771
0.00147796
-8.52316e-05
7.984e-05
0.00147499
-3.64225e-05
3.93915e-05
0.00145817
1.67123e-05
1.18453e-07
0.00142081
7.52995e-05
-3.79411e-05
0.00135461
0.000140377
-7.41571e-05
0.00124905
0.00021569
-0.000110136
0.00108902
0.000306713
-0.000146665
0.000852956
0.000422396
-0.00018633
0.000508522
0.000578193
-0.000233734
3.09333e-06
0.000800461
-0.000295029
0.00114256
-0.000768895
-0.000370546
0.00142914
0.000407262
-0.00137188
0.0014479
0.000215964
0.00144291
6.82528e-05
0.00142354
-4.25311e-05
0.00139709
-0.000122242
0.00136835
-0.000176532
0.00134112
-0.000209619
0.00131739
-0.000225204
0.0012984
-0.000226011
0.00128357
-0.000213854
0.00127164
-0.000191081
0.00126087
-0.000158288
0.00124791
-0.000116757
0.0012288
-6.61191e-05
0.00119884
-6.46797e-06
0.00115242
6.31412e-05
0.0010829
0.000144817
0.000982
0.000241281
0.000839949
0.000357738
0.000644894
0.000501779
0.000383337
0.00068395
4.22861e-05
0.000919255
-0.000386013
0.00122876
0.00162387
-0.000867323
0.00130699
0.000363527
-0.00126326
0.00132064
0.000202313
0.00131389
7.50086e-05
0.00129361
-2.22515e-05
0.00126577
-9.44043e-05
0.00123481
-0.000145569
0.00120325
-0.000178055
0.00117288
-0.000194834
0.00114433
-0.000197468
0.00111764
-0.000187161
0.00109161
-0.000165051
0.00106472
-0.000131401
0.0010341
-8.61313e-05
0.000997012
-2.90332e-05
0.00094951
4.10321e-05
0.000887081
0.000125573
0.000804331
0.000227565
0.000694416
0.0003512
0.000550061
0.00050209
0.000362848
0.000688998
0.000124697
0.000922099
-0.000169465
0.00121342
-0.000517567
0.00157686
0.00201469
-0.000908379
0.0011863
0.000328753
-0.00115153
0.00119557
0.000193047
0.00118659
8.39859e-05
0.00116543
-1.08393e-06
0.00113695
-6.59262e-05
0.00110397
-0.000112591
0.00106941
-0.000143497
0.00103448
-0.0001599
0.00100021
-0.000163197
0.000966552
-0.000153504
0.000932516
-0.000131015
0.000897391
-9.62752e-05
0.00085911
-4.78515e-05
0.000815231
1.48473e-05
0.000762899
9.33629e-05
0.000698109
0.000190365
0.000616291
0.000309382
0.000511851
0.000455643
0.000378851
0.000635089
0.00021056
0.000857292
1.90318e-06
0.00113075
-0.000253623
0.00146895
-0.000558143
0.00188138
0.00236741
-0.000910862
0.00107027
0.000302181
-0.0010437
0.00107621
0.000187108
0.00106622
9.39803e-05
0.00104545
1.96854e-05
0.00101735
-3.78219e-05
0.000984804
-8.00471e-05
0.000950135
-0.000108828
0.000914189
-0.000123954
0.000877999
-0.000127006
0.000841631
-0.000117136
0.000805113
-9.44978e-05
0.000766844
-5.80057e-05
0.000726038
-7.04629e-06
0.000680754
6.01322e-05
0.00062822
0.000145896
0.000565447
0.000253139
0.000488191
0.000386637
0.000392403
0.000551432
0.000271773
0.000755718
0.000122199
0.00100687
-6.37576e-05
0.00131671
-0.000291408
0.0016966
-0.000564656
0.00215462
0.00269246
-0.000889701
0.000959556
0.000276456
-0.00093383
0.000964527
0.000182138
0.000955198
0.00010331
0.000935488
3.93954e-05
0.000909184
-1.15169e-05
0.0008787
-4.95629e-05
0.000845051
-7.51798e-05
0.00081041
-8.93126e-05
0.000774812
-9.14083e-05
0.000738849
-8.11724e-05
0.000702074
-5.77239e-05
0.000663999
-1.99301e-05
0.000623602
3.33498e-05
0.00057926
0.000104476
0.00052903
0.000196125
0.000469716
0.000312453
0.000398185
0.000458167
0.00031034
0.000639277
0.00020198
0.000864077
6.65816e-05
0.00114227
-0.000101412
0.0014847
-0.000306184
0.00190138
-0.000555349
0.00240379
0.00299006
-0.000852951
0.000859771
0.000256777
-0.00084009
0.00086316
0.00017875
0.000853986
0.000112486
0.000836484
5.68973e-05
0.000812716
1.22509e-05
0.000784452
-2.12989e-05
0.00075382
-4.4548e-05
0.000721236
-5.67282e-05
0.000687801
-5.79739e-05
0.000653625
-4.69969e-05
0.000618644
-2.27434e-05
0.00058227
1.64441e-05
0.000543682
7.19368e-05
0.000501382
0.000146775
0.000453781
0.000243726
0.000398673
0.000367561
0.0003325
0.00052434
0.000252179
0.000719598
0.000153427
0.000962828
3.07786e-05
0.00126492
-0.000121092
0.00163657
-0.000308743
0.00208903
-0.000536505
0.00263155
0.00326534
-0.000811787
0.000768888
0.000240952
-0.000753062
0.000771539
0.0001761
0.000763765
0.000120261
0.000747824
7.28385e-05
0.000726565
3.35103e-05
0.000701648
3.61797e-06
0.000673618
-1.65176e-05
0.000643773
-2.68839e-05
0.000612955
-2.71556e-05
0.000581429
-1.54723e-05
0.00054904
9.64562e-06
0.000515243
5.02393e-05
0.000479326
0.000107853
0.000439668
0.000186432
0.0003954
0.000287993
0.000344601
0.000418359
0.000283518
0.000585422
0.000209591
0.000793524
0.000120471
0.00105195
8.99664e-06
0.00137639
-0.000130604
0.00177617
-0.000303098
0.00226152
-0.000512329
0.00284078
0.0035152
-0.000762182
0.000687239
0.000226859
-0.000673146
0.000689867
0.000173473
0.000683041
0.000127087
0.000668509
8.73714e-05
0.000650057
5.19641e-05
0.000627824
2.58511e-05
0.000602804
8.50376e-06
0.000575776
1.44723e-07
0.000547982
6.38159e-07
0.00051923
1.32795e-05
0.000490097
3.87776e-05
0.000459016
8.13197e-05
0.000427049
0.00013982
0.000390769
0.000222713
0.000349303
0.000329459
0.000303492
0.000464171
0.000247848
0.000641067
0.000178759
0.000862614
9.79361e-05
0.00113277
-3.64282e-06
0.00147797
-0.000134204
0.00190673
-0.000295554
0.00242287
-0.000486168
0.00303139
0.00374509
-0.000716059
0.000613538
0.000217813
-0.000604491
0.000616498
0.000170514
0.00061087
0.000132716
0.00059791
0.000100333
0.000582086
6.77904e-05
0.00056291
4.50291e-05
0.000541163
3.02523e-05
0.000516208
2.51005e-05
0.000490846
2.60014e-05
0.000464036
4.00908e-05
0.000437705
6.5109e-05
0.00040839
0.000110636
0.000379244
0.000168968
0.000346977
0.000254981
0.000305973
0.000370464
0.000263119
0.000507026
0.000213897
0.000690289
0.000149841
0.000926672
7.60367e-05
0.00120658
-1.34798e-05
0.00156749
-0.000131351
0.00202461
-0.000286807
0.00257833
-0.000468227
0.00321282
-0.000672339
0.0039492
-0.00111126
0.00174675
-0.00140438
-0.00164509
0.00232852
-0.00179468
-0.00224521
0.0026961
-0.00209598
-0.0028384
0.00296557
-0.00237238
-0.0034111
0.00322605
-0.00265335
-0.00395164
0.00348847
-0.00294792
-0.00444995
0.00375991
-0.00326159
-0.00490081
0.00404264
-0.00359178
-0.00529728
0.00434214
-0.00394567
-0.00563506
0.0046584
-0.00432061
-0.00590511
0.00499652
-0.00472647
-0.0061082
0.00535734
-0.00515424
-0.00623364
0.00574322
-0.00561778
-0.0062814
0.00616155
-0.00611379
-0.00624315
0.00661162
-0.00664987
-0.00611476
0.00709902
-0.00722741
-0.00588793
0.00762655
-0.00785338
-0.0055609
0.00819949
-0.00852652
-0.00512181
0.00881661
-0.0092557
-0.00456191
0.00948863
-0.0100485
-0.00387257
0.0102151
-0.0109045
-0.0030469
0.011008
-0.0118337
-0.00207011
0.0118646
-0.0128414
0.0127972
-0.0139338
-0.000933557
-0.00128153
0.00216096
-0.00175592
0.00280291
-0.0023032
0.00324338
-0.00284463
0.003507
-0.00335812
0.00373954
-0.00383496
0.00396531
-0.00427291
0.00419785
-0.00466539
0.00443512
-0.00500523
0.00468198
-0.0052941
0.00494726
-0.00552217
0.0052246
-0.00568989
0.00552506
-0.00579206
0.00584539
-0.00582247
0.00619197
-0.00577874
0.00656788
-0.00565233
0.00697261
-0.0054407
0.00741492
-0.0051336
0.00789239
-0.00472861
0.00841163
-0.00421598
0.008976
-0.00358633
0.00958548
-0.00282831
0.01025
-0.00193708
0.0109734
0.0117577
-0.000897556
-0.00132285
0.00257542
-0.00176167
0.00324174
-0.00225083
0.00373253
-0.00274298
0.00399916
-0.00320466
0.00420123
-0.0036338
0.00439445
-0.00402006
0.00458411
-0.00436735
0.00478241
-0.00466863
0.00498327
-0.00491823
0.00519687
-0.00511899
0.00542535
-0.00526096
0.00566704
-0.0053471
0.00593152
-0.0053699
0.00621478
-0.00532334
0.00652132
-0.00520624
0.00685551
-0.00500878
0.00721747
-0.00472986
0.00761347
-0.00435718
0.00803895
-0.00388529
0.00850411
-0.00331114
0.00901133
-0.00262115
0.00955998
-0.0018036
0.0101558
0.0108095
-0.000855409
-0.00130622
0.00297078
-0.00171829
0.00365382
-0.00216168
0.00417591
-0.00260316
0.00444064
-0.00301669
0.00461476
-0.00339917
0.00477693
-0.00374541
0.00493036
-0.00405323
0.00509023
-0.00431832
0.00524835
-0.00454173
0.00542028
-0.00471775
0.00560138
-0.00484484
0.00579412
-0.00491724
0.00600392
-0.00493551
0.00623305
-0.00489173
0.00647754
-0.00478257
0.00674635
-0.00460167
0.00703658
-0.0043415
0.00735329
-0.0040027
0.00770016
-0.00357552
0.00807692
-0.00304795
0.00848376
-0.00241876
0.00893079
-0.00167825
0.00941532
0.00994192
-0.00081065
-0.00125581
0.00333689
-0.00164379
0.0040418
-0.00204554
0.00457765
-0.00244402
0.00483913
-0.00281596
0.00498669
-0.00315644
0.00511741
-0.00346734
0.00524126
-0.00374058
0.00536347
-0.00397892
0.00548669
-0.00417681
0.00561817
-0.0043324
0.00575696
-0.00444661
0.00590833
-0.00451115
0.00606846
-0.00452231
0.00624421
-0.00448309
0.00643832
-0.00438025
0.00664351
-0.00421725
0.00687358
-0.00398355
0.00711959
-0.00367321
0.00738983
-0.00328104
0.00768475
-0.00280486
0.00800759
-0.00223089
0.00835682
-0.00155367
0.00873811
0.00915144
-0.000763198
-0.00119289
0.00367682
-0.00155131
0.00440023
-0.00191829
0.00494463
-0.00227686
0.0051977
-0.00261239
0.00532222
-0.00291889
0.0054239
-0.00319449
0.00551686
-0.00343967
0.00560866
-0.00365344
0.00570046
-0.00382953
0.00579426
-0.00397077
0.0058982
-0.00407116
0.00600873
-0.00412909
0.00612638
-0.00414049
0.00625561
-0.00410133
0.00639916
-0.00401039
0.00655257
-0.00385912
0.00672231
-0.00364572
0.00690619
-0.00336475
0.00710886
-0.0030096
0.00732959
-0.00257283
0.00757082
-0.00205074
0.00783473
-0.00143543
0.00812279
0.00843497
-0.00071895
-0.00112252
0.00398756
-0.00145215
0.00472986
-0.00178577
0.00527826
-0.00210687
0.00551879
-0.00240717
0.00562252
-0.0026834
0.00570013
-0.00293395
0.00576741
-0.00315312
0.00582783
-0.00334538
0.00589272
-0.00350533
0.00595421
-0.00363307
0.00602595
-0.00372038
0.00609603
-0.0037742
0.0061802
-0.00378411
0.00626552
-0.00374817
0.00636323
-0.00366466
0.00646905
-0.00352751
0.00658516
-0.00333501
0.00671369
-0.00307847
0.00685232
-0.00275455
0.00700568
-0.00235953
0.0071758
-0.00188491
0.00736011
-0.00132299
0.00756087
0.00778212
-0.000670137
-0.00105112
0.00427649
-0.00135299
0.00503173
-0.00165729
0.00558255
-0.00194748
0.00580899
-0.0022171
0.00589214
-0.00246401
0.00594705
-0.00268623
0.00598963
-0.0028864
0.00602799
-0.00305859
0.00606491
-0.00320283
0.00609845
-0.00331557
0.00613868
-0.00339884
0.00617931
-0.00344467
0.00622603
-0.00345522
0.00627607
-0.00342265
0.00633067
-0.00334453
0.00639093
-0.00322154
0.00646216
-0.00304506
0.00653721
-0.00281358
0.00662084
-0.00252093
0.00671303
-0.00216095
0.00681582
-0.00172783
0.00692699
-0.00121962
0.00705265
0.00718688
-0.000624376
-0.000976666
0.0045371
-0.00125702
0.00531209
-0.00152874
0.00585427
-0.00178841
0.00606866
-0.00202974
0.00613347
-0.00225333
0.00617064
-0.00245761
0.00619392
-0.00263784
0.00620822
-0.00279233
0.0062194
-0.00292579
0.0062319
-0.00302772
0.00624062
-0.00310299
0.00625458
-0.00314288
0.00626592
-0.00315015
0.00628335
-0.00312061
0.00630112
-0.00305465
0.00632498
-0.00293908
0.00634659
-0.00277872
0.00637685
-0.00256774
0.00640986
-0.00230189
0.00644718
-0.00197487
0.00648881
-0.00158331
0.00653542
-0.00111876
0.0065881
0.00664741
-0.00057929
-0.000914247
0.00477901
-0.00117388
0.00557172
-0.00141179
0.00609218
-0.00163975
0.00629662
-0.00185977
0.00635349
-0.00206066
0.00637153
-0.00224465
0.00637791
-0.00240736
0.00637093
-0.00254901
0.00636105
-0.00266767
0.00635056
-0.00276096
0.00633391
-0.00282612
0.00631975
-0.00286654
0.00630634
-0.00287234
0.00628914
-0.00284616
0.00627495
-0.00278345
0.00626227
-0.00268194
0.00624507
-0.00253588
0.0062308
-0.00234504
0.00621901
-0.00210185
0.00620399
-0.00180373
0.00619069
-0.00144978
0.00618147
-0.00102826
0.00616659
0.00615803
-0.000538885
0.00129393
-0.00085595
0.00237917
-0.00057817
0.0034332
-0.000337527
0.00449158
-8.41048e-05
0.00554202
0.000210053
0.00655716
0.000556566
0.00751368
0.000957076
0.0083804
0.00141553
0.00913976
0.00192415
0.00977049
0.00248097
0.010264
0.0030762
0.010616
0.00370577
0.0108264
0.00436442
0.0109048
0.00504488
0.0108698
0.00574408
0.0107437
0.00646264
0.0105457
0.00720737
0.0103031
0.00798308
0.0100354
0.00880363
0.00975864
0.00968361
0.00947947
0.0106364
0.00920523
0.0116744
0.00893777
0.0128083
0.0140502
0.00867539
-0.000144834
-0.000711104
5.08496e-05
-0.000773843
0.000454091
-0.000740762
0.00101841
-0.000648419
0.00171821
-0.000489747
0.00253694
-0.000262166
0.00345393
4.00959e-05
0.00444499
0.000424468
0.00546894
0.000900202
0.00648295
0.00146696
0.00743705
0.0021221
0.00828934
0.00285348
0.00900342
0.00365035
0.00955436
0.00449394
0.00993173
0.00536671
0.0101394
0.00625493
0.0101976
0.00714926
0.0101318
0.00804884
0.00997444
0.00896099
0.00975951
0.00989854
0.00951175
0.0108841
0.00925027
0.0119358
0.00898407
0.0130745
0.0143089
0.00872542
-2.40594e-05
-0.000687038
-3.8291e-05
-0.000759613
-6.29524e-06
-0.000772752
9.47599e-05
-0.000749477
0.000295183
-0.000690161
0.000621786
-0.000588774
0.0010967
-0.000434803
0.00173157
-0.000210412
0.00252396
0.000107818
0.00345088
0.000540041
0.0044719
0.00110109
0.00553031
0.00179507
0.00656591
0.00261476
0.00751373
0.00354611
0.00831887
0.00456159
0.00894184
0.00563195
0.00936637
0.00672473
0.00959732
0.00781789
0.00966073
0.00889759
0.00959246
0.00996681
0.00943429
0.0110423
0.0092212
0.0121489
0.0089812
0.0133145
0.0145676
0.00872246
-2.6081e-05
-0.000660973
-1.99163e-05
-0.000765792
1.37051e-05
-0.000806375
7.95298e-05
-0.000815313
0.000185587
-0.000796216
0.000342937
-0.000746132
0.000567109
-0.00065897
0.000879067
-0.000522378
0.0013055
-0.000318611
0.00186996
-2.44246e-05
0.00258639
0.000384673
0.00344698
0.000934466
0.00441804
0.00164371
0.00544542
0.00251873
0.00645745
0.00354956
0.00737927
0.00471012
0.00814344
0.00596057
0.00870915
0.00725218
0.00906264
0.0085441
0.00921974
0.00980971
0.00921783
0.0110442
0.00910346
0.0122633
0.0089194
0.0134985
0.0147912
0.00869586
-3.2203e-07
-0.000660638
5.45418e-06
-0.000771575
2.22562e-05
-0.000823165
5.42702e-05
-0.000847334
0.000107512
-0.000849445
0.000189509
-0.000828137
0.000309088
-0.000778537
0.000480265
-0.000693564
0.000721621
-0.000559958
0.00105725
-0.000360063
0.00151286
-7.09226e-05
0.00211032
0.000336995
0.00285879
0.000895251
0.00374557
0.00163194
0.00472996
0.00256518
0.00574655
0.00369353
0.00671538
0.00499174
0.00755373
0.00641383
0.00819948
0.00789835
0.00862536
0.00938383
0.00883939
0.0108302
0.00887723
0.0122254
0.00878799
0.0135878
0.0149554
0.00862379
-7.50612e-06
-0.000653138
-3.65223e-06
-0.000775445
1.11952e-05
-0.000838007
3.79176e-05
-0.00087407
7.9382e-05
-0.000890901
0.000139159
-0.000887926
0.000222899
-0.000862268
0.000337676
-0.000808351
0.00049518
-0.000717452
0.000710778
-0.000575671
0.00100362
-0.000363755
0.00139779
-5.71832e-05
0.00191894
0.000374103
0.00258468
0.000966195
0.00339636
0.00175351
0.00432772
0.00276216
0.00532041
0.00399905
0.00629312
0.00544112
0.00715672
0.00703474
0.00783533
0.00870521
0.00828983
0.0103757
0.00852444
0.0119908
0.00857644
0.0135358
0.0150367
0.00849512
-1.00282e-06
-0.000652136
4.64876e-06
-0.00078111
1.7123e-05
-0.000850474
3.74024e-05
-0.00089436
6.74616e-05
-0.000920949
0.000110535
-0.000931011
0.000169914
-0.000921635
0.000250668
-0.000889116
0.000360167
-0.000826942
0.000508744
-0.000724258
0.000710784
-0.000565787
0.000984726
-0.000331134
0.00135228
6.55848e-06
0.00183808
0.000480385
0.00246226
0.00112933
0.00323122
0.0019932
0.00412592
0.00310436
0.00509488
0.00447215
0.00605593
0.00607368
0.00691426
0.00784689
0.00758927
0.00970067
0.00803697
0.0115431
0.00826261
0.0133102
0.014992
0.00830727
-1.5584e-06
-0.000650589
3.4338e-06
-0.000786122
1.46263e-05
-0.000861664
3.22645e-05
-0.000912014
5.76481e-05
-0.000946326
9.26148e-05
-0.000965991
0.00013991
-0.000968922
0.000202868
-0.000952085
0.000285901
-0.000909966
0.00039655
-0.000834918
0.000544963
-0.000714192
0.00074439
-0.00053057
0.00101232
-0.00026137
0.00137018
0.000122525
0.00184134
0.000658176
0.00244629
0.00138824
0.00319431
0.00235633
0.00406784
0.00359862
0.0050166
0.00512491
0.0059566
0.00690688
0.00679056
0.0088667
0.00743443
0.0108993
0.00784776
0.0128968
0.0147978
0.00804201
3.99832e-08
-0.000650627
5.28211e-06
-0.000791376
1.56049e-05
-0.000871979
3.09955e-05
-0.000927415
5.25861e-05
-0.000967906
8.14705e-05
-0.000994886
0.000120047
-0.00100749
0.000170327
-0.00100238
0.000236163
-0.000975794
0.000322183
-0.000920947
0.000436151
-0.000828153
0.000588128
-0.000682555
0.000791395
-0.000464632
0.00106288
-0.000148966
0.00142378
0.00029728
0.00189706
0.000914947
0.00250188
0.00175151
0.00324641
0.00285409
0.00411205
0.00425926
0.00504534
0.0059736
0.00595726
0.00795478
0.00674769
0.0101088
0.00733639
0.0123081
0.0144414
0.00769276
1.36412e-07
-0.000650775
5.71447e-06
-0.000796973
1.5348e-05
-0.00088161
2.92064e-05
-0.000941288
4.81149e-05
-0.000986807
7.32518e-05
-0.00102004
0.000105847
-0.00104007
0.000148235
-0.00104478
0.00020252
-0.00103007
0.000272682
-0.00099112
0.000363872
-0.000919336
0.00048383
-0.000802522
0.000643188
-0.000623986