/*--------------------------------*- C++ -*----------------------------------*\
| =========                 |                                                 |
| \\      /  F ield         | OpenFOAM: The Open Source CFD Toolbox           |
|  \\    /   O peration     | Version:  2.3.0                                 |
|   \\  /    A nd           | Web:      www.OpenFOAM.org                      |
|    \\/     M anipulation  |                                                 |
\*---------------------------------------------------------------------------*/
FoamFile
{
    version     2.0;
    format      ascii;
    class       volScalarField;
    location    "1000";
    object      nut;
}
// * * * * * * * * * * * * * * * * * * * * * * * * * * * * * * * * * * * * * //

dimensions      [0 2 -1 0 0 0 0];

internalField   nonuniform List<scalar> 
37616
(
0.0731635
0.0715983
0.0700232
0.0684414
0.0668545
0.0652635
0.0636695
0.062073
0.0604752
0.0588766
0.0572781
0.0556799
0.0540831
0.0524881
0.0508955
0.0493056
0.0477188
0.0461358
0.0445573
0.0429835
0.0414147
0.0398517
0.0382947
0.0367443
0.035201
0.0336651
0.0321376
0.0306183
0.0291089
0.0276099
0.0261235
0.0246511
0.0231947
0.0217589
0.0203485
0.0189707
0.0176344
0.0163516
0.0151347
0.0139866
0.0128669
0.0115883
0.00939235
0.0742134
0.0728198
0.0714214
0.0700188
0.0686124
0.0672028
0.0657903
0.0643754
0.0629584
0.0615399
0.0601204
0.0586999
0.0572789
0.0558578
0.054437
0.0530165
0.0515968
0.0501784
0.0487616
0.0473465
0.0459341
0.0445247
0.0431187
0.0417175
0.0403221
0.0389334
0.0375525
0.0361816
0.0348228
0.0334792
0.0321532
0.0308502
0.0295758
0.0283372
0.0271442
0.0260086
0.024945
0.0239718
0.0231097
0.0223816
0.02181
0.0214115
0.0211917
0.0751846
0.0739413
0.0726952
0.0714459
0.0701932
0.0689373
0.0676781
0.066416
0.065151
0.0638834
0.0626134
0.061341
0.0600666
0.0587903
0.0575122
0.0562328
0.0549522
0.0536706
0.0523883
0.0511056
0.0498232
0.0485418
0.0472621
0.0459853
0.0447131
0.0434466
0.0421881
0.0409394
0.0397039
0.0384853
0.0372869
0.0361136
0.0349728
0.0338716
0.0328196
0.0318273
0.0309075
0.030074
0.029341
0.0287234
0.0282343
0.0278831
0.0276746
0.0760771
0.0749679
0.0738543
0.0727372
0.0716163
0.0704915
0.0693626
0.0682298
0.067093
0.0659523
0.0648077
0.0636592
0.0625071
0.0613514
0.0601921
0.0590299
0.0578645
0.0566961
0.0555251
0.0543519
0.053177
0.0520008
0.0508244
0.0496494
0.0484769
0.0473091
0.0461483
0.0449968
0.043858
0.0427358
0.0416342
0.0405583
0.0395144
0.0385096
0.0375529
0.0366536
0.0358235
0.0350731
0.034414
0.0338576
0.033414
0.0330907
0.0328913
0.0769026
0.0759063
0.0749074
0.0739042
0.0728966
0.071884
0.0708662
0.0698431
0.0688147
0.067781
0.0667418
0.0656972
0.0646474
0.063592
0.0625315
0.0614662
0.0603963
0.059322
0.0582433
0.0571603
0.0560739
0.0549842
0.0538925
0.0527998
0.0517083
0.0506199
0.0495367
0.0484616
0.0473984
0.0463508
0.0453233
0.0443209
0.0433489
0.0424142
0.0415249
0.0406896
0.0399191
0.0392224
0.0386094
0.0380905
0.0376742
0.0373669
0.0371719
0.0776488
0.0767597
0.0758621
0.074958
0.0740476
0.0731312
0.0722083
0.0712786
0.0703422
0.0693991
0.0684489
0.0674914
0.0665271
0.0655562
0.0645781
0.0635929
0.0626021
0.061606
0.060604
0.0595961
0.0585829
0.0575649
0.0565428
0.0555177
0.0544918
0.0534673
0.0524466
0.0514324
0.0504283
0.0494391
0.0484693
0.0475235
0.0466067
0.0457254
0.0448862
0.0440977
0.0433693
0.0427095
0.0421281
0.0416336
0.0412349
0.0409381
0.0407463
0.078344
0.077539
0.0767278
0.0759088
0.0750819
0.0742483
0.073407
0.0725567
0.0716986
0.070832
0.0699578
0.0690737
0.0681811
0.0672817
0.0663733
0.0654545
0.064529
0.0635976
0.0626596
0.0617146
0.0607626
0.0598045
0.0588411
0.0578723
0.0568997
0.0559268
0.0549572
0.0539926
0.0530358
0.0520917
0.0511669
0.0502662
0.0493942
0.0485552
0.0477544
0.0470016
0.0463043
0.0456722
0.0451132
0.0446356
0.0442487
0.0439588
0.0437695
0.0789707
0.0782462
0.0775118
0.0767667
0.0760109
0.0752483
0.0744791
0.0736951
0.072905
0.0721009
0.0712941
0.0704729
0.0696382
0.0687993
0.0679538
0.0670894
0.0662167
0.0653385
0.0644544
0.0635633
0.0626625
0.0617536
0.0608405
0.0599206
0.0589924
0.0580605
0.0571327
0.0562108
0.0552933
0.0543828
0.0534919
0.0526265
0.0517929
0.0509931
0.0502194
0.0494959
0.0488222
0.0482118
0.0476705
0.0472032
0.0468243
0.0465397
0.0463524
0.0795485
0.0788879
0.0782175
0.0775392
0.0768455
0.0761422
0.0754427
0.0747054
0.0739833
0.07322
0.0724744
0.0717096
0.0709231
0.0701268
0.0693477
0.068529
0.0676969
0.0668585
0.0660164
0.0651711
0.0643169
0.0634444
0.0625724
0.0616985
0.0608138
0.0599136
0.0590168
0.058132
0.0572556
0.0563673
0.0555015
0.0546624
0.0538609
0.0531168
0.052352
0.0516577
0.0509967
0.0504035
0.0498825
0.0494171
0.0490432
0.0487628
0.0485768
0.00919633
0.0111403
0.0124253
0.0134937
0.0145452
0.0156385
0.016782
0.0179712
0.0191957
0.0204493
0.0217252
0.0230193
0.0243285
0.0256491
0.0269803
0.0283212
0.0296699
0.0310264
0.0323899
0.0337598
0.0351364
0.0365189
0.0379073
0.0393009
0.0407002
0.0421045
0.0435136
0.0449273
0.0463451
0.0477672
0.0491928
0.0506217
0.0520535
0.0534881
0.0549249
0.0563634
0.0578033
0.0592442
0.0606857
0.0621274
0.0635692
0.0650106
0.0664524
0.0211373
0.0212413
0.0215105
0.0219418
0.0225201
0.0232276
0.024042
0.024944
0.0259163
0.0269448
0.0280179
0.0291257
0.0302607
0.0314189
0.0325948
0.0337851
0.0349873
0.0362002
0.0374206
0.0386486
0.0398819
0.041121
0.0423642
0.0436118
0.044863
0.0461173
0.0473743
0.0486338
0.049896
0.0511601
0.0524262
0.0536938
0.054963
0.0562334
0.0575048
0.0587771
0.0600501
0.0613237
0.0625976
0.0638718
0.0651461
0.0664206
0.0676959
0.0276037
0.027668
0.0278712
0.028207
0.0286677
0.0292408
0.0299118
0.0306677
0.0314945
0.0323801
0.0333143
0.0342875
0.0352939
0.0363267
0.0373797
0.03845
0.039534
0.040629
0.0417328
0.0428431
0.0439594
0.0450801
0.0462041
0.0473311
0.0484597
0.0495899
0.0507213
0.0518537
0.0529866
0.0541199
0.0552536
0.0563874
0.057521
0.0586544
0.0597877
0.0609207
0.0620534
0.0631858
0.0643179
0.0654496
0.066581
0.067712
0.0688428
0.0328129
0.0328548
0.0330182
0.0332986
0.0336897
0.0341815
0.0347642
0.0354262
0.0361558
0.0369432
0.0377791
0.0386557
0.0395659
0.0405024
0.0414612
0.0424372
0.0434274
0.0444283
0.0454376
0.0464535
0.047474
0.0484978
0.049524
0.0505514
0.0515794
0.0526073
0.0536346
0.0546613
0.0556873
0.056712
0.0577356
0.0587576
0.0597781
0.0607966
0.0618134
0.0628288
0.0638428
0.0648555
0.0658669
0.0668769
0.0678857
0.0688933
0.0698996
0.0370889
0.0371169
0.0372553
0.0375011
0.037848
0.0382875
0.0388108
0.0394083
0.0400705
0.0407886
0.0415536
0.0423586
0.043196
0.0440602
0.0449457
0.0458484
0.0467643
0.0476908
0.0486246
0.0495636
0.0505066
0.0514517
0.0523978
0.0533438
0.0542888
0.0552323
0.0561737
0.0571133
0.0580507
0.0589854
0.0599174
0.0608461
0.0617712
0.0626931
0.0636119
0.064528
0.0654416
0.0663525
0.0672609
0.0681666
0.06907
0.0699711
0.0708701
0.04066
0.0406786
0.0408006
0.0410228
0.0413393
0.0417416
0.0422216
0.0427724
0.0433854
0.0440523
0.0447647
0.0455153
0.0462971
0.0471047
0.0479332
0.0487777
0.0496349
0.0505013
0.0513739
0.0522508
0.0531308
0.0540118
0.0548922
0.0557709
0.0566473
0.0575207
0.0583913
0.0592588
0.0601229
0.0609828
0.0618382
0.0626881
0.0635329
0.0643729
0.065209
0.0660414
0.0668699
0.0676942
0.0685144
0.0693306
0.0701432
0.0709524
0.0717583
0.0436812
0.0436929
0.043804
0.0440097
0.0443037
0.0446769
0.0451234
0.0456383
0.0462147
0.046843
0.0475157
0.0482237
0.0489611
0.0497245
0.0505079
0.0513054
0.052115
0.0529328
0.0537553
0.0545814
0.0554097
0.0562387
0.0570644
0.0578862
0.0587054
0.0595209
0.0603326
0.0611408
0.0619438
0.0627411
0.0635316
0.0643147
0.065091
0.065862
0.0666287
0.0673904
0.0681465
0.0688966
0.069641
0.0703802
0.0711146
0.0718441
0.0725686
0.0462634
0.0462699
0.0463734
0.0465672
0.0468458
0.0471919
0.0476097
0.0480988
0.048647
0.0492458
0.0498891
0.0505605
0.0512616
0.0519921
0.0527381
0.0534954
0.0542687
0.0550459
0.0558254
0.0566094
0.0573961
0.0581841
0.058959
0.0597341
0.0605061
0.0612732
0.0620363
0.0627967
0.0635468
0.0642922
0.0650273
0.0657521
0.0664699
0.067183
0.0678924
0.068594
0.0692883
0.0699742
0.0706533
0.0713262
0.0719934
0.0726537
0.0733069
0.0484901
0.0484891
0.0485875
0.0487695
0.0490405
0.0493534
0.0497493
0.0502262
0.0507538
0.0513274
0.0519467
0.0525761
0.0532527
0.0539684
0.0546731
0.0553925
0.0561471
0.0568802
0.0576246
0.058379
0.0591319
0.0598867
0.0606013
0.0613494
0.0620788
0.0628067
0.0635313
0.0642579
0.0649533
0.0656585
0.0663403
0.0670152
0.0676856
0.068354
0.0690194
0.0696679
0.0703112
0.0709392
0.0715621
0.0721785
0.0727898
0.0733914
0.0739854
0.0155542
0.014645
0.0137753
0.0129458
0.0121559
0.0114053
0.0106938
0.0100215
0.00938977
0.00880095
0.00825989
0.00777481
0.00734764
0.00696833
0.00662592
0.00631299
0.00602468
0.00575754
0.00550872
0.00527569
0.0050561
0.0048477
0.00464837
0.00445606
0.00426886
0.00408491
0.00390253
0.00372011
0.00353615
0.00334929
0.00315826
0.00296183
0.00275893
0.00254856
0.00232981
0.00210196
0.00186441
0.001617
0.00136009
0.00109507
0.000824454
0.000549762
0.000307346
0.0154748
0.0146298
0.0138225
0.0130499
0.0123112
0.0116058
0.0109336
0.0102946
0.00968968
0.00912056
0.0085906
0.00810593
0.00767201
0.00728381
0.00693271
0.00661176
0.00631595
0.00604149
0.00578547
0.00554546
0.00531929
0.00510489
0.00490035
0.00470377
0.00451329
0.0043271
0.00414342
0.00396056
0.00377688
0.00359075
0.00340068
0.00320516
0.00300283
0.00279238
0.00257262
0.00234253
0.00210133
0.00184861
0.00158449
0.00130921
0.00102127
0.000711512
0.000463325
0.0154001
0.0146218
0.0138745
0.0131563
0.0124664
0.0118044
0.0111699
0.0105631
0.00998446
0.00943529
0.00891784
0.00843643
0.00799715
0.00760103
0.00724116
0.00691122
0.00660649
0.00632334
0.0060588
0.0058105
0.00557635
0.00535443
0.00514293
0.00494016
0.00474433
0.00455373
0.0043666
0.00418118
0.00399573
0.00380851
0.00361774
0.00342173
0.00321879
0.0030073
0.00278575
0.0025527
0.00230706
0.00204797
0.00177487
0.0014865
0.00117686
0.000834617
0.000583078
0.015329
0.0146148
0.0139231
0.013255
0.0126101
0.0119879
0.0113883
0.0108115
0.0102577
0.00972802
0.00922402
0.00874877
0.00830739
0.0079046
0.00753674
0.00719804
0.00688409
0.00659166
0.00631793
0.00606066
0.00581775
0.00558744
0.00536802
0.0051579
0.00495542
0.00475897
0.00456684
0.00437729
0.00418852
0.00399871
0.00380593
0.00360827
0.00340377
0.00319054
0.00296667
0.0027304
0.00248021
0.00221475
0.0019327
0.00163085
0.00129975
0.000934687
0.000680695
0.0152716
0.0146093
0.0139677
0.0133449
0.0127408
0.012155
0.0115875
0.0110383
0.0105077
0.00999664
0.00950628
0.00903899
0.0085987
0.00819102
0.00781621
0.00746944
0.00714662
0.00684488
0.00656172
0.00629508
0.00604304
0.00580386
0.00557596
0.00535782
0.00514792
0.00494473
0.00474659
0.00455186
0.00435871
0.00416526
0.00396947
0.00376932
0.00356258
0.00334711
0.00312065
0.00288113
0.00262659
0.00235518
0.00206466
0.00175
0.00139887
0.00101709
0.000763541
0.0152176
0.0146048
0.0140082
0.0134266
0.0128595
0.0123068
0.0117685
0.0112447
0.0107357
0.0102422
0.00976523
0.0093067
0.00886969
0.00845927
0.00807874
0.00772478
0.00739379
0.00708311
0.00679064
0.00651458
0.00625321
0.00600496
0.0057683
0.00554182
0.00532409
0.00511362
0.0049089
0.00470831
0.00451006
0.00431225
0.00411282
0.00390955
0.00370009
0.00348206
0.00325291
0.00301022
0.00275162
0.00247475
0.00217652
0.00184994
0.00148061
0.00108595
0.000835463
0.0151677
0.0146006
0.014045
0.0135006
0.0129672
0.0124447
0.0119331
0.0114325
0.0109435
0.0104664
0.0100023
0.0095527
0.00912023
0.00870909
0.00832405
0.00796395
0.0076256
0.00730661
0.00700517
0.00671989
0.00644927
0.00619194
0.00594645
0.0057115
0.00548573
0.00526776
0.00505616
0.00484934
0.0046456
0.00444303
0.00423951
0.00403277
0.00382029
0.00359947
0.00336754
0.00312182
0.00285946
0.00257765
0.00227228
0.00193467
0.00154854
0.00114352
0.00089852
0.0151211
0.0145966
0.0140784
0.0135675
0.0130646
0.0125696
0.0120825
0.0116036
0.0111331
0.0106718
0.0102199
0.00977931
0.00935209
0.00894143
0.00855248
0.00818709
0.00784246
0.00751617
0.00720647
0.00691218
0.0066323
0.00636592
0.00611171
0.00586827
0.00563435
0.00540867
0.00519004
0.00497678
0.00476724
0.00455949
0.00435149
0.00414105
0.00392571
0.00370235
0.00346784
0.00321914
0.00295348
0.00266773
0.00235624
0.00200863
0.00160785
0.00119516
0.000955284
0.0150851
0.014595
0.0141097
0.0136271
0.0131511
0.012681
0.0122178
0.0117588
0.0113076
0.0108633
0.0104259
0.00999354
0.0095747
0.00916667
0.00877258
0.00839972
0.00804887
0.00771777
0.00740315
0.00710236
0.00681281
0.00653657
0.00627446
0.00602328
0.00578164
0.00554835
0.00532124
0.00510307
0.00488619
0.00467392
0.00445885
0.00424002
0.00401711
0.00379003
0.0035534
0.00330271
0.00303127
0.00273713
0.00242115
0.00206581
0.00164864
0.00122483
0.000999984
0.000320564
0.000461579
0.000666351
0.000868001
0.00106932
0.00127139
0.00147504
0.00168086
0.00188939
0.00210109
0.00231648
0.0025363
0.0027614
0.00299298
0.00323288
0.00348323
0.00374682
0.00402652
0.00432556
0.00464675
0.00499272
0.00536505
0.00576474
0.00619179
0.00664628
0.00712822
0.0076379
0.00817568
0.00874197
0.00933741
0.00996261
0.0106185
0.0113057
0.0120253
0.0127782
0.0135656
0.0143883
0.0152478
0.0161452
0.0170816
0.018058
0.0190748
0.0201314
0.000451797
0.000617862
0.000837299
0.00105903
0.00128058
0.00150205
0.00172405
0.0019471
0.00217188
0.00239915
0.00262978
0.00286498
0.00310621
0.00335549
0.00361527
0.00388819
0.00417745
0.00448612
0.00481657
0.00516995
0.00554657
0.00594656
0.00636998
0.00681658
0.00728646
0.00777964
0.00829632
0.00883681
0.00940162
0.00999122
0.0106062
0.0112471
0.0119148
0.01261
0.0133335
0.0140862
0.014869
0.015683
0.0165289
0.0174076
0.0183196
0.0192649
0.0202427
0.000575854
0.000761741
0.000998138
0.00123996
0.00148145
0.00172204
0.00196222
0.00220273
0.0024445
0.00268864
0.00293657
0.00319004
0.0034511
0.00372217
0.00400579
0.00430474
0.00462181
0.0049597
0.00532004
0.00570231
0.00610547
0.00652879
0.00697193
0.00743473
0.00791705
0.00841896
0.0089407
0.0094824
0.0100445
0.0106273
0.0112314
0.0118572
0.0125052
0.0131761
0.0138706
0.0145894
0.0153332
0.0161026
0.0168983
0.0177208
0.0185707
0.0194488
0.0203587
0.000687841
0.000891268
0.00114472
0.00140531
0.0016653
0.00192376
0.0021812
0.00243868
0.00269755
0.00295937
0.00322611
0.0034999
0.00378313
0.00407811
0.00438722
0.0047128
0.00505721
0.0054226
0.00580979
0.00621699
0.00664229
0.00708482
0.00754402
0.0080197
0.00851182
0.00902027
0.00954528
0.0100868
0.0106453
0.0112209
0.0118139
0.0124249
0.0130541
0.013702
0.0143692
0.0150561
0.0157633
0.0164911
0.01724
0.0180104
0.0188026
0.0196164
0.0204492
0.000787784
0.00100753
0.00127742
0.0015553
0.00183228
0.00210732
0.00238118
0.00265524
0.00293128
0.00321144
0.00349804
0.00379334
0.00409967
0.00441913
0.00475361
0.00510491
0.00547487
0.00586538
0.00627631
0.00670473
0.00714857
0.00760701
0.00807948
0.00856572
0.00906555
0.00957894
0.0101059
0.0106464
0.0112008
0.011769
0.0123514
0.0129481
0.0135595
0.0141859
0.0148276
0.0154849
0.0161581
0.0168476
0.0175534
0.0182761
0.0190156
0.0197722
0.0205479
0.000876793
0.00111186
0.00139728
0.00169109
0.00198379
0.00227435
0.00256386
0.00285419
0.00314757
0.00344646
0.00375332
0.00407047
0.00439991
0.0047432
0.00510176
0.00547694
0.00587035
0.00628349
0.00671509
0.00716167
0.00762131
0.00809324
0.00857678
0.00907177
0.00957791
0.0100951
0.0106232
0.0111622
0.0117122
0.0122733
0.0128455
0.0134289
0.0140236
0.01463
0.015248
0.0158779
0.0165199
0.017174
0.0178405
0.0185195
0.0192113
0.0199164
0.0206363
0.000957175
0.00120711
0.00150694
0.00181509
0.00212208
0.0024271
0.00273159
0.00303787
0.00334844
0.00366603
0.00399304
0.00433153
0.0046831
0.00504889
0.00542979
0.0058268
0.00624146
0.00667492
0.00712461
0.00758699
0.0080603
0.00854383
0.00903705
0.00953968
0.0100512
0.0105713
0.0111
0.0116373
0.012183
0.0127373
0.0132998
0.0138705
0.0144496
0.0150372
0.0156334
0.0162381
0.0168514
0.0174731
0.0181033
0.0187426
0.019391
0.0200489
0.0207165
0.00102635
0.00128723
0.00159976
0.00192244
0.00224366
0.00256304
0.00288271
0.00320472
0.00353216
0.00386834
0.00421542
0.00457499
0.00494803
0.0053354
0.00573752
0.00615528
0.00658996
0.00704198
0.00750777
0.00798373
0.00846885
0.00896294
0.00946555
0.00997558
0.0104915
0.0110136
0.0115421
0.0120772
0.0126191
0.0131671
0.0137203
0.014278
0.0148418
0.0154121
0.0159881
0.0165698
0.0171566
0.0177474
0.0183438
0.0189467
0.0195559
0.0201707
0.0207905
0.00110153
0.00138953
0.00172337
0.00205455
0.00238534
0.00271743
0.00304698
0.00338196
0.00373138
0.00409001
0.0044596
0.0048379
0.00523271
0.00564139
0.00606348
0.0065013
0.00695399
0.00741947
0.00789387
0.00837471
0.00886915
0.00937444
0.0098902
0.0104075
0.0109209
0.0114402
0.0119651
0.0124974
0.0130366
0.0135795
0.0141199
0.0146587
0.0152069
0.0157624
0.0163189
0.0168806
0.017442
0.0179991
0.0185624
0.0191327
0.0197078
0.0202846
0.0208633
0.000988635
0.00302226
0.00492103
0.00671275
0.0084416
0.0101333
0.0118022
0.0134567
0.0151026
0.0167429
0.0183802
0.0200164
0.0216523
0.0232895
0.0249295
0.0265725
0.028219
0.0298698
0.0315251
0.0331858
0.0348513
0.0365223
0.0381983
0.0398795
0.0415653
0.0432557
0.0449507
0.0466495
0.0483515
0.0500561
0.0517633
0.0534722
0.0551824
0.0568928
0.0586027
0.0603113
0.0620179
0.0637215
0.0654209
0.0671151
0.0688026
0.0704817
0.0721518
6.79971e-05
0.00114832
0.00258468
0.00409042
0.0056527
0.00725021
0.00887141
0.0105102
0.0121618
0.0138239
0.0154948
0.017173
0.0188586
0.0205499
0.0222478
0.0239519
0.0256619
0.0273774
0.0290992
0.0308262
0.0325591
0.0342977
0.0360411
0.0377894
0.0395422
0.0412991
0.04306
0.044824
0.0465907
0.0483596
0.0501299
0.0519011
0.0536725
0.0554431
0.0572122
0.0589788
0.0607422
0.0625012
0.0642548
0.0660017
0.0677407
0.0694698
0.0711896
7.13051e-07
0.000843271
0.00190751
0.00312119
0.0044437
0.00584618
0.00731034
0.00882339
0.0103763
0.0119629
0.0135776
0.0152167
0.0168766
0.0185545
0.0202493
0.0219589
0.0236814
0.0254161
0.0271618
0.0289173
0.0306823
0.0324558
0.0342367
0.0360246
0.0378189
0.0396188
0.0414233
0.0432323
0.0450444
0.046859
0.0486753
0.0504929
0.0523103
0.0541267
0.0559414
0.0577532
0.0595611
0.0613642
0.063161
0.0649506
0.0667315
0.0685026
0.070266
0.000274053
0.000746172
0.00162845
0.00265856
0.00380597
0.00504713
0.00636594
0.00775028
0.00919104
0.0106809
0.0122135
0.0137841
0.0153878
0.0170213
0.0186819
0.0203665
0.0220725
0.0237982
0.0255416
0.0273008
0.0290745
0.0308611
0.0326595
0.0344682
0.0362863
0.0381127
0.0399463
0.0417859
0.0436306
0.045479
0.0473305
0.049184
0.0510381
0.0528919
0.0547442
0.056594
0.0584399
0.0602807
0.0621153
0.0639426
0.0657613
0.0675707
0.0693729
0.000378873
0.000679454
0.00144969
0.00236235
0.00338903
0.00451118
0.00571591
0.00699294
0.00833451
0.00973353
0.0111845
0.0126822
0.0142221
0.0158006
0.0174143
0.0190601
0.0207348
0.0224361
0.0241617
0.025909
0.0276763
0.0294617
0.0312634
0.0330797
0.0349089
0.03675
0.0386009
0.0404607
0.0423279
0.0442008
0.0460787
0.0479601
0.0498435
0.0517276
0.0536112
0.0554931
0.0573715
0.0592451
0.061113
0.0629739
0.064826
0.0666685
0.0685014
0.000384124
0.000620838
0.00131394
0.00214315
0.00308179
0.00411424
0.00522964
0.00641952
0.00767723
0.00899699
0.0103735
0.0118024
0.0132798
0.0148016
0.0163649
0.0179664
0.0196032
0.0212725
0.0229715
0.0246979
0.0264494
0.0282238
0.030019
0.0318331
0.0336643
0.0355109
0.0373706
0.0392422
0.0411236
0.0430136
0.0449109
0.0468133
0.0487196
0.0506281
0.0525375
0.0544462
0.0563521
0.0582544
0.0601516
0.0620418
0.0639237
0.0657954
0.0676559
0.000373444
0.000571898
0.0012072
0.0019717
0.00284206
0.00380356
0.00484679
0.00596473
0.00715173
0.00840263
0.00971313
0.0110798
0.0124986
0.0139661
0.0154793
0.0170355
0.0186319
0.0202655
0.0219336
0.0236336
0.0253635
0.0271208
0.0289031
0.0307084
0.0325347
0.0343797
0.0362415
0.0381181
0.0400078
0.0419087
0.043819
0.045737
0.0476608
0.0495886
0.0515189
0.0534496
0.0553792
0.0573062
0.0592286
0.0611449
0.0630535
0.0649526
0.0668416
0.000363452
0.000531724
0.00112081
0.00183275
0.00264766
0.00355104
0.00453444
0.00559182
0.00671834
0.00790947
0.00916203
0.0104725
0.0118376
0.0132543
0.01472
0.0162319
0.0177875
0.0193841
0.0210192
0.0226904
0.0243952
0.0261314
0.0278965
0.0296884
0.0315047
0.0333432
0.0352018
0.0370786
0.0389712
0.0408778
0.0427965
0.044725
0.0466616
0.0486045
0.0505513
0.0525004
0.0544498
0.0563976
0.0583421
0.0602815
0.0622142
0.064138
0.0660537
0.000355505
0.000498557
0.00104908
0.00171724
0.00248573
0.00334022
0.00427279
0.00527839
0.00635256
0.00749171
0.0086927
0.00995261
0.0112685
0.0126382
0.0140592
0.0155289
0.0170449
0.0186049
0.0202068
0.0218478
0.0235258
0.0252386
0.0269836
0.0287586
0.0305615
0.03239
0.0342416
0.0361143
0.0380058
0.039914
0.0418369
0.0437721
0.0457176
0.0476715
0.0496315
0.0515954
0.0535611
0.0555267
0.0574902
0.0594499
0.0614037
0.0633497
0.0652876
0.000348946
0.000470888
0.000988917
0.00162018
0.00234845
0.00316079
0.00404962
0.0050102
0.00603862
0.00713149
0.00828649
0.00950085
0.0107723
0.0120988
0.013478
0.0149078
0.0163858
0.0179103
0.0194791
0.0210897
0.0227401
0.024428
0.0261512
0.0279075
0.0296945
0.03151
0.0333517
0.0352173
0.0371044
0.039011
0.0409349
0.0428733
0.0448245
0.0467863
0.048756
0.0507315
0.0527106
0.0546912
0.0566712
0.0586485
0.060621
0.0625865
0.0645434
0.000343341
0.000447543
0.000937762
0.00153711
0.00223022
0.00300596
0.00385648
0.00477731
0.00576506
0.00681695
0.00793048
0.00910371
0.0103346
0.011621
0.0129614
0.0143537
0.0157957
0.017286
0.0188226
0.0204032
0.0220258
0.0236884
0.0253889
0.0271249
0.0288945
0.0306951
0.0325246
0.0343808
0.036261
0.0381634
0.0400853
0.0420244
0.0439783
0.045945
0.0479218
0.0499062
0.0518962
0.0538893
0.0558831
0.0578757
0.059865
0.0618485
0.0638258
0.000338648
0.000429834
0.000893586
0.00146497
0.00212698
0.00287035
0.00368701
0.00457261
0.00552413
0.00653896
0.00761526
0.00875103
0.00994458
0.0111942
0.0124984
0.0138553
0.0152635
0.0167211
0.0182265
0.0197777
0.0213729
0.0230101
0.0246873
0.0264026
0.0281535
0.029938
0.0317538
0.0335987
0.03547
0.0373659
0.0392838
0.041221
0.0431755
0.0451447
0.0471261
0.0491172
0.0511157
0.0531189
0.0551245
0.0571304
0.0591344
0.0611343
0.0631304
0.000335575
0.00042202
0.000855301
0.00140171
0.00203624
0.00275054
0.00353687
0.00439084
0.00530966
0.00629111
0.0073334
0.00843509
0.00959435
0.0108099
0.0120803
0.0134043
0.0147802
0.0162067
0.0176822
0.019205
0.0207734
0.0223854
0.0240393
0.0257332
0.027465
0.0292324
0.0310334
0.0328655
0.0347265
0.0366143
0.0385262
0.0404598
0.0424127
0.0443825
0.0463665
0.0483621
0.0503669
0.0523783
0.0543937
0.0564109
0.0584275
0.0604412
0.062451
0.000333894
0.00042074
0.000821797
0.00134571
0.00195575
0.00264367
0.00340254
0.00422793
0.00511715
0.00606817
0.00707948
0.00814958
0.00927723
0.0104611
0.0117002
0.0129933
0.0143389
0.0157359
0.0171828
0.0186782
0.0202203
0.0218077
0.0234385
0.025111
0.0268232
0.028573
0.0303583
0.0321766
0.0340262
0.0359043
0.0378089
0.0397372
0.041687
0.0436557
0.0456404
0.0476386
0.0496481
0.0516657
0.053689
0.0557157
0.057743
0.0597687
0.0617908
0.000332937
0.000421317
0.000792357
0.00129578
0.00188374
0.00254754
0.00328157
0.00408095
0.00494313
0.00586637
0.00684906
0.00789027
0.00898864
0.0101431
0.011353
0.0126169
0.0139339
0.0153028
0.0167223
0.0181912
0.0197081
0.0212714
0.0228795
0.0245307
0.0262232
0.0279551
0.029724
0.0315282
0.0333651
0.0352328
0.0371288
0.0390504
0.0409956
0.0429617
0.0449455
0.0469451
0.0489573
0.0509795
0.0530093
0.0550436
0.0570802
0.059116
0.0611494
0.000332212
0.000421493
0.000766195
0.00125099
0.00181864
0.00246055
0.00317186
0.00394738
0.00478482
0.0056824
0.00663884
0.00765312
0.00872431
0.00985145
0.0110338
0.0122704
0.0135604
0.0149025
0.016296
0.0177397
0.0192321
0.020772
0.0223578
0.0239879
0.0256608
0.0273745
0.029127
0.0309162
0.03274
0.0345965
0.0364828
0.0383968
0.0403363
0.0422983
0.0442802
0.0462794
0.0482931
0.0503185
0.052353
0.0543936
0.0564377
0.0584824
0.060525
0.000331399
0.000421077
0.000742816
0.00121049
0.00175968
0.00238165
0.00307174
0.0038254
0.00464003
0.00551389
0.00644592
0.00743529
0.00848112
0.00958279
0.0107393
0.0119502
0.0132145
0.0145314
0.0159
0.0173193
0.0187882
0.0203053
0.0218692
0.0234788
0.0251322
0.0268276
0.0285634
0.0303375
0.0321478
0.0339922
0.0358684
0.0377739
0.0397066
0.0416637
0.0436423
0.04564
0.0476539
0.0496812
0.0517191
0.0537648
0.0558153
0.0578676
0.0599195
0.000330473
0.000420036
0.000721609
0.00117369
0.00170592
0.00230955
0.00298001
0.0037134
0.00450683
0.00535875
0.00626814
0.0072343
0.00825643
0.00933406
0.0104663
0.0116528
0.012893
0.0141858
0.0155306
0.0169268
0.0183729
0.0198678
0.0214107
0.0230001
0.0246342
0.0263115
0.0280305
0.0297893
0.0315857
0.0334178
0.035283
0.0371793
0.0391044
0.0410555
0.04303
0.0450253
0.0470382
0.0490663
0.0511065
0.0531561
0.0552119
0.0572714
0.059332
0.000329483
0.00041861
0.000702338
0.00113999
0.00165666
0.00224329
0.00289544
0.00361
0.00438381
0.00521526
0.00610361
0.00704804
0.00804801
0.00910301
0.0102124
0.0113759
0.012593
0.0138629
0.0151852
0.0165589
0.0179831
0.0194569
0.0209793
0.0225487
0.0241639
0.0258235
0.0275258
0.0292691
0.0310514
0.0328705
0.0347246
0.0366112
0.0385279
0.0404723
0.0424419
0.0444337
0.0464449
0.0484727
0.0505142
0.0525667
0.0546272
0.0566927
0.0587617
0.000328444
0.000416988
0.000685111
0.00110912
0.00161127
0.00218202
0.00281727
0.00351424
0.00426966
0.00508209
0.00595062
0.00687463
0.0078538
0.00888747
0.00997533
0.0111172
0.0123125
0.0135606
0.0148612
0.0162134
0.0176165
0.0190698
0.020572
0.0221221
0.023719
0.0253611
0.0270469
0.0287746
0.0305425
0.0323488
0.0341913
0.0360676
0.0379756
0.0399127
0.0418764
0.043864
0.0458726
0.0478992
0.0499412
0.0519959
0.0540599
0.0561307
0.0582067
0.000327451
0.000415534
0.000671571
0.00108081
0.00156935
0.00212546
0.00274489
0.00342516
0.00416339
0.00495796
0.00580798
0.00671289
0.00767235
0.00868595
0.00975357
0.0108747
0.0120491
0.0132765
0.0145564
0.015888
0.0172709
0.0187042
0.0201871
0.0217185
0.0232972
0.0249221
0.0265914
0.0283038
0.0300574
0.0318506
0.0336811
0.0355469
0.0374456
0.0393749
0.0413323
0.043315
0.0453201
0.0473449
0.0493867
0.0514425
0.0535093
0.0555843
0.0576662
0.000326592
0.000414953
0.000663964
0.00105505
0.00153049
0.00207285
0.00267757
0.00334212
0.00406422
0.00484196
0.00567445
0.00656138
0.00750224
0.00849692
0.00954514
0.0106468
0.0118014
0.0130089
0.014269
0.015581
0.0169444
0.0183585
0.0198225
0.0213356
0.0228966
0.0245045
0.0261576
0.0278548
0.0295942
0.031374
0.0331925
0.0350474
0.0369366
0.0388577
0.0408083
0.0427855
0.0447866
0.0468088
0.0488495
0.0509057
0.0529743
0.0550524
0.0571383
0.000325943
0.000415613
0.000661314
0.00103187
0.00149455
0.00202393
0.00261471
0.00326446
0.00397133
0.00473323
0.00554929
0.00641911
0.00734243
0.00831908
0.00934903
0.0104319
0.0115678
0.0127564
0.0139975
0.0152904
0.0166351
0.0180306
0.0194765
0.0209718
0.0225155
0.0241067
0.025744
0.0274261
0.0291512
0.0309179
0.0327241
0.0345679
0.0364472
0.0383598
0.040303
0.0422742
0.0442708
0.0462899
0.0483288
0.0503845
0.052454
0.0545344
0.0566232
0.000325538
0.000417101
0.000661107
0.00101091
0.00146116
0.00197818
0.00255589
0.00319168
0.00388403
0.00463097
0.00543149
0.00628515
0.00719186
0.00815143
0.00916388
0.0102291
0.011347
0.0125175
0.0137402
0.015015
0.0163415
0.0177192
0.0191474
0.0206253
0.0221523
0.0237272
0.0253489
0.027016
0.0287271
0.0304805
0.0322744
0.0341071
0.0359764
0.0378799
0.0398155
0.0417805
0.0437719
0.0457873
0.0478237
0.0498783
0.0519481
0.0540299
0.0561214
0.000325279
0.000418854
0.000661379
0.000991698
0.00142998
0.00193532
0.0025007
0.00312336
0.00380197
0.00453476
0.00532049
0.00615889
0.00704975
0.00799303
0.00898887
0.0100372
0.0111379
0.0122909
0.0134961
0.0147535
0.0160625
0.0174228
0.0188339
0.0202951
0.0218058
0.0233647
0.024971
0.0266234
0.0283205
0.0300608
0.0318424
0.0336639
0.0355228
0.0374174
0.039345
0.0413031
0.0432891
0.0453002
0.0473336
0.0493864
0.0514556
0.053538
0.0556309
0.000324985
0.000420532
0.000661189
0.000973915
0.00140085
0.00189512
0.00244875
0.00305904
0.00372454
0.00444373
0.00521541
0.00603928
0.0069152
0.00784306
0.008823
0.00985514
0.0109394
0.0120757
0.0132642
0.0145047
0.0157969
0.0171404
0.0185349
0.0199798
0.0214744
0.0230177
0.024609
0.0262469
0.0279302
0.0296575
0.031427
0.033237
0.0350857
0.0369708
0.0388902
0.0408411
0.0428212
0.0448278
0.0468577
0.0489082
0.0509761
0.0530579
0.0551492
0.000324754
0.000421871
0.000660618
0.000957394
0.00137358
0.00185727
0.00239985
0.00299839
0.00365134
0.00435768
0.00511602
0.00592602
0.00678762
0.00770071
0.00866551
0.00968202
0.0107505
0.0118709
0.0130433
0.0142675
0.0155435
0.0168708
0.0182492
0.0196783
0.0211573
0.0226854
0.0242619
0.0258855
0.0275553
0.0292696
0.0310268
0.0328256
0.0346637
0.0365395
0.0384503
0.0403941
0.042368
0.0443694
0.0463954
0.0484432
0.0505097
0.0525916
0.0546869
0.000324526
0.000422848
0.00065946
0.000941909
0.00134786
0.00182159
0.00235363
0.00294089
0.00358199
0.00427609
0.00502177
0.00581858
0.00666644
0.00756542
0.00851568
0.00951743
0.0105708
0.0116758
0.0128327
0.0140412
0.0153014
0.0166131
0.017976
0.0193896
0.0208533
0.0223668
0.0239288
0.0255383
0.0271947
0.0288961
0.0306414
0.0324287
0.0342564
0.0361225
0.0380249
0.039961
0.0419283
0.0439243
0.0459462
0.047991
0.0500559
0.0521377
0.0542353
0.000324122
0.000423523
0.000657644
0.000927341
0.00132363
0.00178793
0.0023099
0.00288644
0.00351625
0.00419848
0.00493204
0.00571627
0.00655102
0.00743658
0.00837297
0.00936045
0.0103993
0.0114896
0.0126314
0.0138249
0.0150699
0.0163664
0.0177142
0.0191128
0.0205619
0.0220608
0.0236085
0.0252045
0.0268475
0.0285363
0.0302694
0.0320455
0.0338627
0.0357192
0.0376128
0.0395411
0.0415018
0.0434921
0.0455096
0.0475513
0.0496142
0.0516963
0.0537956
0.000323672
0.000423873
0.000655433
0.00091406
0.00130076
0.00175601
0.00226842
0.00283488
0.00345397
0.00412484
0.0048467
0.00561878
0.00644101
0.0073136
0.00823669
0.00921059
0.0102354
0.0113115
0.0124388
0.0136177
0.0148482
0.01613
0.0174631
0.0188472
0.0202818
0.0217664
0.0233004
0.0248829
0.0265129
0.0281891
0.0299103
0.0316752
0.0334819
0.0353287
0.0372134
0.0391338
0.0410876
0.0430722
0.045085
0.0471231
0.0491842
0.0512658
0.0533673