/*--------------------------------*- C++ -*----------------------------------*\
| =========                 |                                                 |
| \\      /  F ield         | OpenFOAM: The Open Source CFD Toolbox           |
|  \\    /   O peration     | Version:  2.3.0                                 |
|   \\  /    A nd           | Web:      www.OpenFOAM.org                      |
|    \\/     M anipulation  |                                                 |
\*---------------------------------------------------------------------------*/
FoamFile
{
    version     2.0;
    format      ascii;
    class       volScalarField;
    location    "1000";
    object      nuTilda;
}
// * * * * * * * * * * * * * * * * * * * * * * * * * * * * * * * * * * * * * //

dimensions      [0 2 -1 0 0 0 0];

internalField   nonuniform List<scalar> 
37616
(
0.0731635
0.0715983
0.0700232
0.0684414
0.0668545
0.0652635
0.0636695
0.062073
0.0604752
0.0588766
0.0572781
0.0556799
0.0540831
0.0524881
0.0508955
0.0493056
0.0477188
0.0461358
0.0445573
0.0429835
0.0414147
0.0398517
0.0382947
0.0367443
0.035201
0.0336651
0.0321376
0.0306183
0.0291089
0.0276099
0.0261235
0.0246511
0.0231947
0.0217589
0.0203485
0.0189707
0.0176344
0.0163516
0.0151347
0.0139867
0.0128669
0.0115883
0.00939236
0.0742134
0.0728198
0.0714214
0.0700188
0.0686124
0.0672028
0.0657903
0.0643754
0.0629584
0.0615399
0.0601204
0.0586999
0.0572789
0.0558578
0.054437
0.0530165
0.0515968
0.0501784
0.0487616
0.0473465
0.0459341
0.0445247
0.0431187
0.0417175
0.0403221
0.0389334
0.0375525
0.0361816
0.0348228
0.0334792
0.0321532
0.0308502
0.0295758
0.0283372
0.0271442
0.0260086
0.024945
0.0239718
0.0231097
0.0223816
0.02181
0.0214115
0.0211917
0.0751846
0.0739413
0.0726952
0.0714459
0.0701932
0.0689373
0.0676781
0.066416
0.065151
0.0638834
0.0626134
0.061341
0.0600666
0.0587903
0.0575122
0.0562328
0.0549522
0.0536706
0.0523883
0.0511056
0.0498232
0.0485418
0.0472621
0.0459853
0.0447131
0.0434466
0.0421881
0.0409394
0.0397039
0.0384853
0.0372869
0.0361136
0.0349728
0.0338716
0.0328196
0.0318273
0.0309075
0.030074
0.029341
0.0287234
0.0282343
0.0278831
0.0276746
0.0760771
0.0749679
0.0738543
0.0727372
0.0716163
0.0704915
0.0693626
0.0682298
0.067093
0.0659523
0.0648077
0.0636592
0.0625071
0.0613514
0.0601921
0.0590299
0.0578645
0.0566961
0.0555251
0.0543519
0.053177
0.0520008
0.0508244
0.0496494
0.0484769
0.0473091
0.0461483
0.0449968
0.043858
0.0427358
0.0416342
0.0405583
0.0395144
0.0385096
0.0375529
0.0366536
0.0358235
0.0350731
0.0344141
0.0338576
0.033414
0.0330907
0.0328913
0.0769026
0.0759063
0.0749074
0.0739042
0.0728966
0.071884
0.0708662
0.0698431
0.0688147
0.067781
0.0667418
0.0656972
0.0646474
0.063592
0.0625315
0.0614662
0.0603963
0.059322
0.0582433
0.0571603
0.0560739
0.0549842
0.0538925
0.0527998
0.0517083
0.0506199
0.0495367
0.0484616
0.0473984
0.0463508
0.0453233
0.0443209
0.0433489
0.0424142
0.0415249
0.0406896
0.0399191
0.0392224
0.0386094
0.0380905
0.0376742
0.0373669
0.0371719
0.0776488
0.0767597
0.0758621
0.074958
0.0740476
0.0731312
0.0722083
0.0712786
0.0703422
0.0693991
0.0684489
0.0674914
0.0665271
0.0655562
0.0645781
0.0635929
0.0626021
0.061606
0.060604
0.0595961
0.0585829
0.0575649
0.0565428
0.0555177
0.0544918
0.0534673
0.0524466
0.0514324
0.0504283
0.0494391
0.0484693
0.0475235
0.0466067
0.0457254
0.0448862
0.0440977
0.0433693
0.0427095
0.0421281
0.0416336
0.0412349
0.0409381
0.0407463
0.078344
0.077539
0.0767278
0.0759088
0.0750819
0.0742483
0.073407
0.0725567
0.0716986
0.070832
0.0699578
0.0690737
0.0681811
0.0672817
0.0663733
0.0654545
0.064529
0.0635976
0.0626596
0.0617146
0.0607626
0.0598045
0.0588411
0.0578723
0.0568997
0.0559268
0.0549572
0.0539926
0.0530358
0.0520917
0.0511669
0.0502662
0.0493942
0.0485552
0.0477544
0.0470016
0.0463043
0.0456722
0.0451132
0.0446356
0.0442487
0.0439588
0.0437695
0.0789707
0.0782462
0.0775118
0.0767667
0.0760109
0.0752483
0.0744791
0.0736951
0.072905
0.0721009
0.0712941
0.0704729
0.0696382
0.0687993
0.0679538
0.0670894
0.0662167
0.0653385
0.0644544
0.0635633
0.0626625
0.0617536
0.0608405
0.0599206
0.0589924
0.0580605
0.0571327
0.0562108
0.0552933
0.0543828
0.0534919
0.0526265
0.0517929
0.0509931
0.0502194
0.0494959
0.0488222
0.0482118
0.0476705
0.0472032
0.0468243
0.0465397
0.0463524
0.0795485
0.0788879
0.0782175
0.0775392
0.0768455
0.0761422
0.0754427
0.0747054
0.0739833
0.07322
0.0724744
0.0717096
0.0709231
0.0701268
0.0693477
0.068529
0.0676969
0.0668585
0.0660164
0.0651711
0.0643169
0.0634444
0.0625724
0.0616985
0.0608138
0.0599136
0.0590168
0.058132
0.0572556
0.0563673
0.0555015
0.0546624
0.0538609
0.0531168
0.052352
0.0516577
0.0509967
0.0504035
0.0498825
0.0494171
0.0490432
0.0487628
0.0485768
0.00919634
0.0111403
0.0124253
0.0134937
0.0145452
0.0156386
0.016782
0.0179712
0.0191957
0.0204493
0.0217252
0.0230193
0.0243285
0.0256491
0.0269803
0.0283212
0.0296699
0.0310264
0.0323899
0.0337598
0.0351364
0.0365189
0.0379073
0.0393009
0.0407002
0.0421045
0.0435136
0.0449273
0.0463451
0.0477672
0.0491928
0.0506217
0.0520535
0.0534881
0.0549249
0.0563634
0.0578033
0.0592442
0.0606857
0.0621274
0.0635692
0.0650106
0.0664524
0.0211374
0.0212413
0.0215105
0.0219418
0.0225201
0.0232276
0.024042
0.024944
0.0259163
0.0269448
0.0280179
0.0291257
0.0302607
0.0314189
0.0325948
0.0337851
0.0349873
0.0362002
0.0374206
0.0386486
0.0398819
0.041121
0.0423642
0.0436118
0.044863
0.0461173
0.0473743
0.0486338
0.049896
0.0511601
0.0524262
0.0536938
0.054963
0.0562334
0.0575048
0.0587771
0.0600501
0.0613237
0.0625976
0.0638718
0.0651461
0.0664206
0.0676959
0.0276037
0.027668
0.0278712
0.028207
0.0286677
0.0292408
0.0299118
0.0306677
0.0314945
0.0323801
0.0333143
0.0342875
0.0352939
0.0363267
0.0373797
0.03845
0.039534
0.040629
0.0417328
0.0428431
0.0439594
0.0450801
0.0462041
0.0473311
0.0484597
0.0495899
0.0507213
0.0518537
0.0529866
0.0541199
0.0552536
0.0563874
0.057521
0.0586544
0.0597877
0.0609207
0.0620534
0.0631858
0.0643179
0.0654496
0.066581
0.067712
0.0688428
0.0328129
0.0328548
0.0330182
0.0332986
0.0336897
0.0341815
0.0347642
0.0354262
0.0361558
0.0369432
0.0377791
0.0386557
0.0395659
0.0405024
0.0414612
0.0424372
0.0434274
0.0444284
0.0454376
0.0464535
0.047474
0.0484978
0.049524
0.0505514
0.0515794
0.0526073
0.0536346
0.0546613
0.0556873
0.056712
0.0577356
0.0587576
0.0597781
0.0607966
0.0618134
0.0628288
0.0638428
0.0648555
0.0658669
0.0668769
0.0678857
0.0688933
0.0698996
0.0370889
0.0371169
0.0372553
0.0375011
0.037848
0.0382875
0.0388108
0.0394083
0.0400705
0.0407886
0.0415536
0.0423586
0.043196
0.0440602
0.0449457
0.0458484
0.0467643
0.0476908
0.0486246
0.0495636
0.0505066
0.0514517
0.0523978
0.0533438
0.0542888
0.0552323
0.0561737
0.0571133
0.0580507
0.0589854
0.0599174
0.0608461
0.0617712
0.0626931
0.0636119
0.064528
0.0654416
0.0663525
0.0672609
0.0681666
0.06907
0.0699711
0.0708701
0.04066
0.0406786
0.0408006
0.0410228
0.0413393
0.0417416
0.0422216
0.0427724
0.0433854
0.0440523
0.0447647
0.0455153
0.0462971
0.0471047
0.0479332
0.0487777
0.0496349
0.0505013
0.0513739
0.0522508
0.0531308
0.0540118
0.0548922
0.0557709
0.0566473
0.0575207
0.0583913
0.0592588
0.0601229
0.0609828
0.0618382
0.0626881
0.0635329
0.0643729
0.065209
0.0660414
0.0668699
0.0676942
0.0685144
0.0693306
0.0701432
0.0709524
0.0717583
0.0436812
0.0436929
0.043804
0.0440097
0.0443037
0.0446769
0.0451234
0.0456383
0.0462147
0.046843
0.0475157
0.0482237
0.0489611
0.0497245
0.0505079
0.0513054
0.052115
0.0529328
0.0537553
0.0545814
0.0554097
0.0562387
0.0570644
0.0578862
0.0587054
0.0595209
0.0603326
0.0611408
0.0619438
0.0627411
0.0635316
0.0643147
0.065091
0.065862
0.0666287
0.0673904
0.0681465
0.0688966
0.069641
0.0703802
0.0711146
0.0718441
0.0725686
0.0462634
0.0462699
0.0463734
0.0465672
0.0468458
0.0471919
0.0476097
0.0480988
0.048647
0.0492458
0.0498891
0.0505605
0.0512616
0.0519921
0.0527381
0.0534954
0.0542687
0.0550459
0.0558254
0.0566094
0.0573961
0.0581841
0.058959
0.0597341
0.0605061
0.0612732
0.0620363
0.0627967
0.0635468
0.0642922
0.0650273
0.0657521
0.0664699
0.067183
0.0678924
0.068594
0.0692883
0.0699742
0.0706533
0.0713262
0.0719934
0.0726537
0.0733069
0.0484901
0.0484891
0.0485875
0.0487695
0.0490405
0.0493534
0.0497493
0.0502262
0.0507538
0.0513274
0.0519467
0.0525761
0.0532527
0.0539684
0.0546731
0.0553925
0.0561471
0.0568802
0.0576246
0.058379
0.0591319
0.0598867
0.0606013
0.0613494
0.0620788
0.0628067
0.0635313
0.0642579
0.0649533
0.0656585
0.0663403
0.0670152
0.0676856
0.068354
0.0690194
0.0696679
0.0703112
0.0709392
0.0715621
0.0721785
0.0727898
0.0733914
0.0739854
0.0155542
0.014645
0.0137753
0.0129458
0.0121559
0.0114054
0.0106938
0.0100216
0.00938978
0.00880096
0.00825991
0.00777484
0.00734766
0.00696836
0.00662595
0.00631302
0.00602472
0.00575758
0.00550876
0.00527574
0.00505615
0.00484776
0.00464844
0.00445613
0.00426893
0.00408499
0.00390262
0.00372021
0.00353626
0.00334941
0.00315839
0.00296199
0.00275911
0.00254877
0.00233007
0.00210227
0.00186481
0.00161752
0.00136084
0.00109622
0.000826469
0.000554218
0.000320257
0.0154748
0.0146298
0.0138225
0.0130499
0.0123112
0.0116058
0.0109336
0.0102946
0.00968969
0.00912058
0.00859062
0.00810595
0.00767203
0.00728384
0.00693273
0.00661179
0.00631598
0.00604153
0.00578551
0.0055455
0.00531934
0.00510495
0.00490041
0.00470383
0.00451336
0.00432717
0.0041435
0.00396065
0.00377697
0.00359086
0.0034008
0.0032053
0.00300299
0.00279255
0.00257283
0.00234278
0.00210164
0.00184902
0.00158504
0.00131002
0.00102259
0.000714207
0.000469502
0.0154001
0.0146218
0.0138745
0.0131563
0.0124665
0.0118044
0.0111699
0.0105631
0.00998448
0.00943531
0.00891786
0.00843645
0.00799717
0.00760105
0.00724119
0.00691125
0.00660652
0.00632337
0.00605884
0.00581054
0.00557639
0.00535447
0.00514298
0.00494021
0.00474439
0.0045538
0.00436667
0.00418126
0.00399582
0.00380861
0.00361784
0.00342184
0.00321893
0.00300746
0.00278593
0.00255291
0.00230732
0.0020483
0.00177531
0.00148713
0.00117786
0.000836584
0.000587055
0.015329
0.0146148
0.0139232
0.0132551
0.0126101
0.0119879
0.0113883
0.0108115
0.0102577
0.00972804
0.00922404
0.00874879
0.00830741
0.00790463
0.00753676
0.00719806
0.00688412
0.00659169
0.00631797
0.00606069
0.00581779
0.00558748
0.00536807
0.00515796
0.00495547
0.00475903
0.00456691
0.00437736
0.0041886
0.0039988
0.00380602
0.00360838
0.00340389
0.00319067
0.00296683
0.00273058
0.00248043
0.00221503
0.00193307
0.00163137
0.00130057
0.000936259
0.000683635
0.0152716
0.0146094
0.0139677
0.0133449
0.0127408
0.012155
0.0115875
0.0110383
0.0105077
0.00999665
0.0095063
0.00903901
0.00859872
0.00819104
0.00781624
0.00746947
0.00714665
0.00684491
0.00656175
0.00629511
0.00604307
0.0058039
0.00557601
0.00535787
0.00514798
0.00494478
0.00474666
0.00455192
0.00435878
0.00416534
0.00396956
0.00376942
0.00356269
0.00334723
0.0031208
0.0028813
0.00262679
0.00235543
0.00206498
0.00175045
0.00139957
0.00101842
0.000765886
0.0152176
0.0146048
0.0140082
0.0134266
0.0128595
0.0123069
0.0117685
0.0112447
0.0107357
0.0102422
0.00976524
0.00930671
0.00886971
0.00845929
0.00807876
0.00772481
0.00739381
0.00708314
0.00679067
0.00651461
0.00625324
0.006005
0.00576834
0.00554187
0.00532413
0.00511367
0.00490896
0.00470837
0.00451012
0.00431232
0.0041129
0.00390964
0.00370019
0.00348217
0.00325304
0.00301037
0.00275181
0.00247497
0.00217681
0.00185034
0.00148124
0.00108712
0.000837426
0.0151677
0.0146006
0.014045
0.0135006
0.0129672
0.0124447
0.0119331
0.0114325
0.0109435
0.0104664
0.0100023
0.00955272
0.00912024
0.00870911
0.00832407
0.00796397
0.00762562
0.00730663
0.00700519
0.00671992
0.0064493
0.00619197
0.00594649
0.00571155
0.00548577
0.00526781
0.00505621
0.0048494
0.00464566
0.0044431
0.00423959
0.00403286
0.00382038
0.00359958
0.00336766
0.00312196
0.00285963
0.00257786
0.00227254
0.00193504
0.00154911
0.00114458
0.000900219
0.0151211
0.0145966
0.0140784
0.0135675
0.0130646
0.0125696
0.0120825
0.0116036
0.0111331
0.0106718
0.01022
0.00977932
0.00935211
0.00894144
0.00855249
0.00818711
0.00784248
0.0075162
0.0072065
0.00691221
0.00663233
0.00636595
0.00611175
0.00586831
0.00563439
0.00540872
0.00519009
0.00497683
0.0047673
0.00455955
0.00435156
0.00414113
0.0039258
0.00370245
0.00346795
0.00321927
0.00295364
0.00266792
0.00235649
0.00200898
0.00160838
0.00119612
0.000956789
0.0150851
0.014595
0.0141097
0.0136271
0.0131511
0.012681
0.0122178
0.0117588
0.0113076
0.0108633
0.010426
0.00999355
0.00957471
0.00916668
0.0087726
0.00839974
0.00804889
0.00771779
0.00740317
0.00710239
0.00681284
0.00653661
0.0062745
0.00602332
0.00578168
0.00554839
0.00532129
0.00510312
0.00488625
0.00467398
0.00445892
0.0042401
0.0040172
0.00379013
0.00355351
0.00330284
0.00303142
0.00273731
0.00242138
0.00206614
0.00164915
0.00122575
0.00100136
0.000332586
0.0004678
0.000669416
0.000869821
0.00107052
0.00127224
0.00147567
0.00168135
0.00188978
0.0021014
0.00231673
0.00253651
0.00276158
0.00299313
0.00323301
0.00348335
0.00374692
0.00402661
0.00432564
0.00464681
0.00499278
0.0053651
0.00576479
0.00619183
0.00664631
0.00712825
0.00763792
0.0081757
0.00874199
0.00933743
0.00996263
0.0106185
0.0113058
0.0120253
0.0127783
0.0135656
0.0143883
0.0152478
0.0161452
0.0170816
0.018058
0.0190748
0.0201314
0.000458274
0.000621415
0.000839253
0.00106026
0.00128142
0.00150267
0.00172451
0.00194746
0.00217218
0.00239939
0.00262997
0.00286515
0.00310636
0.00335562
0.00361537
0.00388828
0.00417753
0.00448619
0.00481663
0.00517
0.00554661
0.0059466
0.00637001
0.00681661
0.00728649
0.00777966
0.00829634
0.00883683
0.00940163
0.00999124
0.0106062
0.0112471
0.0119148
0.01261
0.0133335
0.0140862
0.014869
0.015683
0.0165289
0.0174076
0.0183196
0.0192649
0.0202427
0.000579927
0.000764097
0.000999518
0.00124086
0.00148207
0.00172251
0.00196258
0.00220302
0.00244473
0.00268883
0.00293673
0.00319018
0.00345121
0.00372227
0.00400588
0.00430481
0.00462187
0.00495975
0.00532009
0.00570235
0.00610551
0.00652883
0.00697196
0.00743476
0.00791707
0.00841898
0.00894071
0.00948242
0.0100445
0.0106274
0.0112314
0.0118572
0.0125052
0.0131761
0.0138706
0.0145894
0.0153332
0.0161026
0.0168983
0.0177208
0.0185707
0.0194489
0.0203587
0.000690721
0.000892995
0.00114577
0.001406
0.00166579
0.00192414
0.00218149
0.00243892
0.00269774
0.00295953
0.00322624
0.00350001
0.00378323
0.00407819
0.00438729
0.00471286
0.00505727
0.00542264
0.00580984
0.00621703
0.00664232
0.00708485
0.00754404
0.00801972
0.00851184
0.00902029
0.0095453
0.0100868
0.0106453
0.0112209
0.0118139
0.0124249
0.0130541
0.013702
0.0143692
0.0150561
0.0157633
0.0164911
0.01724
0.0180104
0.0188026
0.0196165
0.0204492
0.000789988
0.00100888
0.00127827
0.00155587
0.00183269
0.00210763
0.00238143
0.00265543
0.00293144
0.00321158
0.00349815
0.00379343
0.00409975
0.0044192
0.00475368
0.00510496
0.00547492
0.00586542
0.00627634
0.00670476
0.0071486
0.00760704
0.00807951
0.00856574
0.00906556
0.00957896
0.0101059
0.0106465
0.0112008
0.011769
0.0123514
0.0129481
0.0135596
0.0141859
0.0148276
0.0154849
0.0161581
0.0168476
0.0175534
0.0182761
0.0190156
0.0197722
0.0205479
0.000878576
0.00111298
0.00139798
0.00169157
0.00198414
0.00227462
0.00256407
0.00285436
0.00314771
0.00344658
0.00375342
0.00407056
0.00439998
0.00474326
0.00510182
0.00547699
0.00587039
0.00628353
0.00671512
0.0071617
0.00762134
0.00809326
0.0085768
0.00907179
0.00957793
0.0100951
0.0106232
0.0111622
0.0117122
0.0122733
0.0128455
0.0134289
0.0140236
0.01463
0.015248
0.0158779
0.0165199
0.017174
0.0178405
0.0185195
0.0192113
0.0199164
0.0206363
0.000958673
0.00120805
0.00150755
0.00181551
0.00212239
0.00242733
0.00273177
0.00303802
0.00334856
0.00366614
0.00399312
0.00433161
0.00468317
0.00504895
0.00542983
0.00582684
0.00624149
0.00667495
0.00712464
0.00758701
0.00806033
0.00854385
0.00903707
0.0095397
0.0100512
0.0105713
0.0111001
0.0116373
0.012183
0.0127373
0.0132998
0.0138705
0.0144496
0.0150372
0.0156334
0.0162381
0.0168514
0.0174731
0.0181033
0.0187426
0.019391
0.0200489
0.0207165
0.00102766
0.00128806
0.00160029
0.00192282
0.00224394
0.00256325
0.00288288
0.00320485
0.00353227
0.00386843
0.0042155
0.00457506
0.00494808
0.00533545
0.00573756
0.00615531
0.00658999
0.00704201
0.00750779
0.00798375
0.00846887
0.00896296
0.00946557
0.0099756
0.0104916
0.0110136
0.0115421
0.0120772
0.0126191
0.0131671
0.0137203
0.0142781
0.0148418
0.0154121
0.0159881
0.0165698
0.0171566
0.0177474
0.0183438
0.0189467
0.0195559
0.0201707
0.0207905
0.00110266
0.00139025
0.00172383
0.00205488
0.00238558
0.00271761
0.00304713
0.00338208
0.00373147
0.00409009
0.00445967
0.00483796
0.00523277
0.00564143
0.00606352
0.00650133
0.00695402
0.0074195
0.00789389
0.00837473
0.00886917
0.00937446
0.00989022
0.0104075
0.0109209
0.0114402
0.0119651
0.0124974
0.0130366
0.0135795
0.0141199
0.0146587
0.0152069
0.0157625
0.0163189
0.0168806
0.017442
0.0179991
0.0185624
0.0191327
0.0197078
0.0202846
0.0208633
0.000990024
0.00302241
0.00492108
0.00671278
0.00844162
0.0101333
0.0118023
0.0134567
0.0151026
0.016743
0.0183802
0.0200164
0.0216524
0.0232895
0.0249295
0.0265725
0.028219
0.0298698
0.0315251
0.0331858
0.0348513
0.0365223
0.0381983
0.0398795
0.0415653
0.0432557
0.0449507
0.0466495
0.0483515
0.0500561
0.0517633
0.0534722
0.0551824
0.0568928
0.0586027
0.0603113
0.0620179
0.0637215
0.0654209
0.0671151
0.0688026
0.0704817
0.0721518
7.22902e-05
0.00114934
0.00258489
0.0040905
0.00565274
0.00725023
0.00887143
0.0105102
0.0121618
0.0138239
0.0154948
0.017173
0.0188586
0.0205499
0.0222478
0.0239519
0.0256619
0.0273774
0.0290992
0.0308262
0.0325591
0.0342977
0.0360411
0.0377894
0.0395422
0.0412991
0.04306
0.044824
0.0465907
0.0483596
0.0501299
0.0519011
0.0536725
0.0554431
0.0572122
0.0589788
0.0607422
0.0625012
0.0642548
0.0660017
0.0677407
0.0694698
0.0711896
8.30514e-05
0.000845299
0.00190789
0.00312134
0.00444377
0.00584622
0.00731037
0.00882341
0.0103763
0.011963
0.0135776
0.0152167
0.0168766
0.0185545
0.0202493
0.0219589
0.0236814
0.0254161
0.0271618
0.0289173
0.0306823
0.0324558
0.0342367
0.0360246
0.0378189
0.0396188
0.0414233
0.0432323
0.0450444
0.046859
0.0486753
0.0504929
0.0523103
0.0541267
0.0559414
0.0577532
0.0595611
0.0613642
0.063161
0.0649506
0.0667315
0.0685026
0.070266
0.000288278
0.000748662
0.00162897
0.00265875
0.00380606
0.00504719
0.00636598
0.0077503
0.00919106
0.0106809
0.0122135
0.0137841
0.0153878
0.0170213
0.0186819
0.0203665
0.0220725
0.0237982
0.0255416
0.0273008
0.0290745
0.0308611
0.0326595
0.0344682
0.0362863
0.0381127
0.0399463
0.0417859
0.0436306
0.045479
0.0473305
0.049184
0.0510381
0.0528919
0.0547442
0.056594
0.0584399
0.0602807
0.0621153
0.0639426
0.0657613
0.0675707
0.0693729
0.000388091
0.00068243
0.00145034
0.00236259
0.00338915
0.00451125
0.00571595
0.00699297
0.00833453
0.00973354
0.0111845
0.0126822
0.0142221
0.0158006
0.0174143
0.0190601
0.0207348
0.0224361
0.0241617
0.025909
0.0276763
0.0294617
0.0312634
0.0330797
0.0349089
0.03675
0.0386009
0.0404607
0.0423279
0.0442008
0.0460787
0.0479601
0.0498435
0.0517276
0.0536112
0.0554931
0.0573715
0.0592451
0.061113
0.0629739
0.064826
0.0666685
0.0685014
0.000392983
0.000624367
0.00131474
0.00214346
0.00308193
0.00411432
0.00522969
0.00641955
0.00767726
0.008997
0.0103735
0.0118024
0.0132798
0.0148017
0.0163649
0.0179665
0.0196032
0.0212725
0.0229715
0.0246979
0.0264494
0.0282238
0.030019
0.0318331
0.0336643
0.0355109
0.0373706
0.0392422
0.0411236
0.0430136
0.0449109
0.0468133
0.0487196
0.0506281
0.0525375
0.0544462
0.0563521
0.0582544
0.0601516
0.0620418
0.0639237
0.0657954
0.0676559
0.000382719
0.000576034
0.00120815
0.00197206
0.00284223
0.00380365
0.00484685
0.00596477
0.00715176
0.00840265
0.00971315
0.0110798
0.0124986
0.0139661
0.0154793
0.0170355
0.0186319
0.0202655
0.0219336
0.0236336
0.0253636
0.0271208
0.0289031
0.0307084
0.0325347
0.0343797
0.0362415
0.0381181
0.0400078
0.0419087
0.043819
0.045737
0.0476608
0.0495886
0.0515189
0.0534496
0.0553792
0.0573062
0.0592286
0.0611449
0.0630535
0.0649526
0.0668416
0.000373137
0.000536481
0.00112191
0.00183316
0.00264786
0.00355115
0.0045345
0.00559187
0.00671837
0.00790949
0.00916205
0.0104726
0.0118376
0.0132543
0.01472
0.0162319
0.0177875
0.0193841
0.0210192
0.0226904
0.0243952
0.0261314
0.0278965
0.0296884
0.0315047
0.0333432
0.0352018
0.0370786
0.0389712
0.0408778
0.0427965
0.044725
0.0466616
0.0486045
0.0505513
0.0525004
0.0544498
0.0563976
0.0583421
0.0602815
0.0622142
0.064138
0.0660537
0.000365559
0.000503935
0.00105033
0.0017177
0.00248595
0.00334035
0.00427286
0.00527844
0.00635259
0.00749173
0.00869272
0.00995262
0.0112685
0.0126383
0.0140592
0.0155289
0.0170449
0.0186049
0.0202068
0.0218478
0.0235258
0.0252386
0.0269836
0.0287586
0.0305616
0.03239
0.0342416
0.0361143
0.0380058
0.039914
0.0418369
0.0437721
0.0457176
0.0476715
0.0496315
0.0515954
0.0535611
0.0555267
0.0574902
0.0594499
0.0614037
0.0633497
0.0652876
0.000359329
0.00047688
0.000990322
0.0016207
0.00234871
0.00316093
0.0040497
0.00501026
0.00603866
0.00713151
0.00828651
0.00950087
0.0107723
0.0120988
0.013478
0.0149078
0.0163859
0.0179103
0.0194791
0.0210897
0.0227401
0.024428
0.0261512
0.0279075
0.0296945
0.03151
0.0333517
0.0352173
0.0371044
0.039011
0.0409349
0.0428733
0.0448245
0.0467863
0.048756
0.0507315
0.0527106
0.0546912
0.0566712
0.0586485
0.060621
0.0625865
0.0645434
0.00035402
0.000454137
0.000939324
0.00153769
0.0022305
0.00300611
0.00385657
0.00477737
0.0057651
0.00681698
0.00793051
0.00910372
0.0103347
0.011621
0.0129614
0.0143537
0.0157957
0.017286
0.0188226
0.0204032
0.0220258
0.0236884
0.0253889
0.0271249
0.0288945
0.0306951
0.0325246
0.0343808
0.036261
0.0381634
0.0400853
0.0420244
0.0439783
0.045945
0.0479218
0.0499062
0.0518962
0.0538893
0.0558831
0.0578757
0.059865
0.0618485
0.0638258
0.000349586
0.000436944
0.000895304
0.00146561
0.00212729
0.00287052
0.00368711
0.00457268
0.00552418
0.00653899
0.00761528
0.00875105
0.0099446
0.0111943
0.0124984
0.0138553
0.0152635
0.0167211
0.0182265
0.0197777
0.0213729
0.0230101
0.0246873
0.0264026
0.0281535
0.029938
0.0317538
0.0335987
0.03547
0.0373659
0.0392838
0.041221
0.0431755
0.0451447
0.0471261
0.0491172
0.0511157
0.0531189
0.0551245
0.0571304
0.0591344
0.0611343
0.0631304
0.000346687
0.000429376
0.000857175
0.00140241
0.00203657
0.00275073
0.00353699
0.00439091
0.00530971
0.00629114
0.00733343
0.00843511
0.00959436
0.0108099
0.0120803
0.0134043
0.0147802
0.0162067
0.0176822
0.019205
0.0207734
0.0223854
0.0240393
0.0257332
0.027465
0.0292324
0.0310334
0.0328655
0.0347265
0.0366143
0.0385262
0.0404598
0.0424127
0.0443825
0.0463665
0.0483621
0.0503669
0.0523783
0.0543937
0.0564109
0.0584275
0.0604412
0.062451
0.000345104
0.000428138
0.000823825
0.00134647
0.00195611
0.00264387
0.00340266
0.00422801
0.0051172
0.00606821
0.00707951
0.0081496
0.00927724
0.0104611
0.0117003
0.0129934
0.0143389
0.0157359
0.0171828
0.0186782
0.0202203
0.0218078
0.0234386
0.025111
0.0268232
0.028573
0.0303583
0.0321766
0.0340262
0.0359043
0.0378089
0.0397372
0.041687
0.0436557
0.0456404
0.0476386
0.0496481
0.0516657
0.053689
0.0557157
0.057743
0.0597687
0.0617908
0.000344202
0.000428696
0.000794536
0.0012966
0.00188413
0.00254775
0.00328169
0.00408104
0.00494319
0.00586641
0.00684908
0.00789029
0.00898865
0.0101432
0.011353
0.0126169
0.0139339
0.0153028
0.0167223
0.0181912
0.0197081
0.0212714
0.0228795
0.0245307
0.0262232
0.0279551
0.029724
0.0315282
0.0333651
0.0352328
0.0371288
0.0390504
0.0409956
0.0429617
0.0449455
0.0469451
0.0489573
0.0509795
0.0530093
0.0550436
0.0570802
0.059116
0.0611494
0.00034352
0.000428866
0.000768524
0.00125187
0.00181906
0.00246078
0.003172
0.00394747
0.00478488
0.00568244
0.00663887
0.00765314
0.00872433
0.00985147
0.0110338
0.0122704
0.0135604
0.0149025
0.016296
0.0177397
0.0192321
0.020772
0.0223578
0.0239879
0.0256608
0.0273745
0.029127
0.0309162
0.03274
0.0345965
0.0364828
0.0383968
0.0403363
0.0422983
0.0442803
0.0462794
0.0482931
0.0503185
0.052353
0.0543936
0.0564377
0.0584824
0.060525
0.000342755
0.000428464
0.000745291
0.00121143
0.00176013
0.00238189
0.00307188
0.00382549
0.00464009
0.00551394
0.00644595
0.00743532
0.00848114
0.0095828
0.0107393
0.0119502
0.0132145
0.0145314
0.0159
0.0173193
0.0187882
0.0203053
0.0218692
0.0234788
0.0251322
0.0268276
0.0285634
0.0303375
0.0321478
0.0339922
0.0358684
0.0377739
0.0397066
0.0416637
0.0436423
0.04564
0.0476539
0.0496812
0.0517191
0.0537648
0.0558153
0.0578676
0.0599195
0.000341883
0.000427456
0.00072423
0.00117469
0.0017064
0.00230981
0.00298016
0.0037135
0.00450689
0.00535879
0.00626818
0.00723433
0.00825645
0.00933408
0.0104663
0.0116528
0.012893
0.0141858
0.0155306
0.0169268
0.0183729
0.0198679
0.0214107
0.0230001
0.0246342
0.0263115
0.0280306
0.0297893
0.0315857
0.0334178
0.035283
0.0371793
0.0391044
0.0410555
0.04303
0.0450253
0.0470382
0.0490663
0.0511065
0.0531561
0.0552119
0.0572714
0.059332
0.000340953
0.000426077
0.000705103
0.00114105
0.00165717
0.00224356
0.0028956
0.00361011
0.00438388
0.00521531
0.00610364
0.00704807
0.00804804
0.00910303
0.0102124
0.0113759
0.012593
0.013863
0.0151852
0.0165589
0.0179831
0.0194569
0.0209793
0.0225487
0.0241639
0.0258235
0.0275258
0.0292691
0.0310514
0.0328705
0.0347246
0.0366112
0.0385279
0.0404723
0.0424419
0.0444337
0.0464449
0.0484727
0.0505142
0.0525667
0.0546272
0.0566927
0.0587617
0.000339977
0.000424509
0.000688013
0.00111024
0.0016118
0.00218231
0.00281744
0.00351435
0.00426973
0.00508214
0.00595066
0.00687466
0.00785382
0.00888748
0.00997534
0.0111172
0.0123125
0.0135607
0.0148612
0.0162134
0.0176165
0.0190698
0.020572
0.0221221
0.023719
0.0253611
0.0270469
0.0287746
0.0305425
0.0323488
0.0341913
0.0360676
0.0379756
0.0399127
0.0418764
0.043864
0.0458726
0.0478992
0.0499412
0.0519959
0.0540599
0.0561307
0.0582067
0.000339044
0.000423104
0.000674589
0.00108199
0.00156991
0.00212577
0.00274508
0.00342528
0.00416347
0.00495802
0.00580802
0.00671292
0.00767237
0.00868597
0.00975359
0.0108748
0.0120491
0.0132765
0.0145564
0.015888
0.0172709
0.0187042
0.0201871
0.0217185
0.0232972
0.0249221
0.0265914
0.0283038
0.0300574
0.0318506
0.0336811
0.0355469
0.0374456
0.0393749
0.0413323
0.043315
0.0453201
0.0473449
0.0493867
0.0514425
0.0535093
0.0555843
0.0576662
0.000338237
0.000422543
0.00066705
0.00105628
0.00153108
0.00207317
0.00267776
0.00334225
0.0040643
0.00484202
0.0056745
0.00656141
0.00750227
0.00849694
0.00954516
0.0106468
0.0118014
0.0130089
0.014269
0.015581
0.0169444
0.0183585
0.0198226
0.0213356
0.0228966
0.0245045
0.0261576
0.0278548
0.0295942
0.031374
0.0331925
0.0350474
0.0369366
0.0388577
0.0408083
0.0427855
0.0447866
0.0468088
0.0488495
0.0509057
0.0529743
0.0550524
0.0571383
0.000337628
0.00042318
0.000664425
0.00103316
0.00149516
0.00202427
0.00261491
0.00326459
0.00397141
0.00473329
0.00554934
0.00641914
0.00734245
0.0083191
0.00934904
0.0104319
0.0115678
0.0127564
0.0139975
0.0152905
0.0166351
0.0180306
0.0194765
0.0209718
0.0225155
0.0241067
0.025744
0.0274261
0.0291512
0.0309179
0.0327241
0.0345679
0.0364472
0.0383598
0.040303
0.0422742
0.0442708
0.0462899
0.0483288
0.0503845
0.052454
0.0545344
0.0566232
0.000337249
0.000424618
0.00066422
0.00101225
0.00146181
0.00197853
0.0025561
0.00319181
0.00388413
0.00463103
0.00543153
0.00628519
0.00719189
0.00815145
0.0091639
0.0102291
0.011347
0.0125175
0.0137402
0.015015
0.0163415
0.0177192
0.0191474
0.0206253
0.0221523
0.0237272
0.0253489
0.027016
0.0287271
0.0304805
0.0322744
0.0341071
0.0359764
0.0378799
0.0398155
0.0417805
0.0437719
0.0457873
0.0478237
0.0498783
0.0519481
0.0540299
0.0561214
0.000337006
0.000426313
0.00066449
0.000993095
0.00143066
0.00193569
0.00250092
0.0031235
0.00380206
0.00453482
0.00532054
0.00615893
0.00704977
0.00799305
0.00898889
0.0100372
0.0111379
0.0122909
0.0134962
0.0147535
0.0160625
0.0174228
0.0188339
0.0202951
0.0218058
0.0233647
0.024971
0.0266234
0.0283205
0.0300608
0.0318424
0.0336639
0.0355228
0.0374174
0.039345
0.0413031
0.0432891
0.0453002
0.0473336
0.0493864
0.0514556
0.053538
0.0556309
0.00033673
0.000427936
0.000664301
0.000975363
0.00140155
0.0018955
0.00244898
0.00305919
0.00372464
0.0044438
0.00521546
0.00603932
0.00691523
0.00784308
0.00882302
0.00985516
0.0109394
0.0120758
0.0132642
0.0145047
0.0157969
0.0171404
0.0185349
0.0199798
0.0214744
0.0230177
0.024609
0.0262469
0.0279302
0.0296575
0.031427
0.033237
0.0350857
0.0369708
0.0388902
0.0408411
0.0428212
0.0448278
0.0468577
0.0489082
0.0509761
0.0530579
0.0551492
0.000336513
0.000429232
0.000663736
0.000958892
0.00137431
0.00185767
0.00240009
0.00299854
0.00365145
0.00435775
0.00511607
0.00592606
0.00678765
0.00770073
0.00866552
0.00968204
0.0107505
0.0118709
0.0130433
0.0142676
0.0155435
0.0168708
0.0182492
0.0196783
0.0211573
0.0226854
0.024262
0.0258855
0.0275553
0.0292696
0.0310268
0.0328256
0.0346637
0.0365395
0.0384503
0.0403941
0.042368
0.0443694
0.0463954
0.0484432
0.0505097
0.0525916
0.0546869
0.000336299
0.000430177
0.000662588
0.000943457
0.00134862
0.00182201
0.00235388
0.00294105
0.0035821
0.00427616
0.00502183
0.00581862
0.00666647
0.00756544
0.0085157
0.00951744
0.0105708
0.0116758
0.0128327
0.0140412
0.0153014
0.0166131
0.017976
0.0193896
0.0208533
0.0223668
0.0239288
0.0255383
0.0271947
0.0288961
0.0306414
0.0324287
0.0342564
0.0361225
0.0380249
0.039961
0.0419283
0.0439243
0.0459462
0.047991
0.0500559
0.0521377
0.0542353
0.000335921
0.000430831
0.000660789
0.000928937
0.00132442
0.00178836
0.00231016
0.0028866
0.00351636
0.00419856
0.00493209
0.00571631
0.00655105
0.0074366
0.00837299
0.00936047
0.0103993
0.0114896
0.0126314
0.0138249
0.0150699
0.0163664
0.0177142
0.0191128
0.0205619
0.0220608
0.0236085
0.0252045
0.0268475
0.0285363
0.0302694
0.0320455
0.0338627
0.0357192
0.0376128
0.0395411
0.0415018
0.0434921
0.0455096
0.0475513
0.0496142
0.0516963
0.0537956
0.000335499
0.000431169
0.000658599
0.000915702
0.00130158
0.00175646
0.00226868
0.00283505
0.00345408
0.00412492
0.00484675
0.00561882
0.00644104
0.00731363
0.00823671
0.00921061
0.0102354
0.0113115
0.0124388
0.0136177
0.0148482
0.01613
0.0174631
0.0188472
0.0202818
0.0217664
0.0233004
0.0248829
0.0265129
0.0281891
0.0299104
0.0316752
0.0334819
0.0353287
0.0372134
0.0391338
0.0410876
0.0430722
0.045085
0.0471231
0.0491842
0.0512658
0.0533673