/*--------------------------------*- C++ -*----------------------------------*\
| =========                 |                                                 |
| \\      /  F ield         | OpenFOAM: The Open Source CFD Toolbox           |
|  \\    /   O peration     | Version:  2.3.0                                 |
|   \\  /    A nd           | Web:      www.OpenFOAM.org                      |
|    \\/     M anipulation  |                                                 |
\*---------------------------------------------------------------------------*/
FoamFile
{
    version     2.0;
    format      ascii;
    class       surfaceScalarField;
    location    "1000";
    object      phi;
}
// * * * * * * * * * * * * * * * * * * * * * * * * * * * * * * * * * * * * * //

dimensions      [0 3 -1 0 0 0 0];

internalField   nonuniform List<scalar> 
74892
(
0.000263016
-0.00619272
0.00674222
-0.00081253
-0.000244121
-0.00596692
0.00647406
-0.00071076
-0.00574968
0.00621632
-0.00113777
-0.00554113
0.00596814
-0.00152709
-0.00534043
0.00572975
-0.00188045
-0.00514747
0.00550082
-0.00219864
-0.00496255
0.00528075
-0.00248351
-0.00478443
0.0050693
-0.00273623
-0.00461321
0.00486593
-0.00295849
-0.00444853
0.00467078
-0.00315113
-0.00429063
0.00448327
-0.00331577
-0.00413844
0.00430309
-0.00345246
-0.00399279
0.00412948
-0.00356312
-0.00385209
0.00396275
-0.00364936
-0.00371696
0.0038032
-0.003711
-0.00358752
0.00364916
-0.00374995
-0.00346257
0.00350152
-0.00376654
-0.00334274
0.00335933
-0.0037618
-0.00322724
0.0032225
-0.00373649
-0.0031165
0.00309119
-0.0036917
-0.00300965
0.00296486
-0.00362762
-0.00290747
0.00284339
-0.0035457
-0.0028085
0.00272658
-0.00344584
-0.00271389
0.00261403
-0.00332905
-0.00262247
0.00250568
-0.00319563
-0.0025348
0.00240138
-0.00304643
-0.00245029
0.00230109
-0.00288121
-0.00236929
0.00220406
-0.0027018
-0.00229055
0.00211115
-0.00250704
-0.00221563
0.00202086
-0.00229775
-0.00214303
0.00193374
-0.00207455
-0.00207349
0.00185029
-0.00183719
-0.0020066
0.00176924
-0.00158573
-0.00194226
0.0016908
-0.00132084
-0.00188046
0.00161556
-0.00104149
-0.00182155
0.0015422
-0.000748531
-0.00176526
0.0014723
-0.0004408
-0.00171213
0.00140441
-0.000118976
-0.00166175
0.00133993
0.000218573
-0.00161596
0.00127842
0.000572558
-0.00157463
0.00122065
0.000949434
-0.00154122
0.00116435
-0.00152056
0.00137656
0.00109342
0.000249176
-0.00569461
-0.000747282
-0.00020999
-0.00550775
-0.000632368
-0.0053273
-0.00101928
-0.00515422
-0.00137192
-0.00498778
-0.00169152
-0.00482787
-0.00198029
-0.00467378
-0.00223862
-0.0045261
-0.0024678
-0.00438402
-0.00266923
-0.0042471
-0.00284389
-0.00411597
-0.00299278
-0.00398956
-0.00311768
-0.00386789
-0.00321843
-0.00375133
-0.00329643
-0.00363897
-0.00335285
-0.00353109
-0.00338844
-0.00342698
-0.00340417
-0.00332701
-0.00340038
-0.00323102
-0.00337813
-0.00313875
-0.00333828
-0.00304949
-0.00328157
-0.00296418
-0.00320798
-0.00288209
-0.00311938
-0.00280249
-0.00301544
-0.00272642
-0.00289697
-0.00265326
-0.00276431
-0.00258294
-0.00261856
-0.00251504
-0.00245911
-0.00245
-0.00228759
-0.00238715
-0.00210311
-0.0023275
-0.00190682
-0.00226978
-0.00169888
-0.00221454
-0.00147914
-0.002162
-0.00124801
-0.00211159
-0.00100534
-0.00206422
-0.000751712
-0.00201888
-0.000487004
-0.00197684
-0.00021106
-0.0019377
7.44264e-05
-0.00190144
0.000368637
-0.00186885
0.000667573
-0.00184016
-0.00181478
0.000961794
0.000235093
-0.00524365
-0.000686049
-0.000181313
-0.00509135
-0.000564136
-0.00494448
-0.000914572
-0.00480378
-0.00123422
-0.00466813
-0.00152397
-0.00453812
-0.00178532
-0.00441243
-0.00201956
-0.00429187
-0.00222736
-0.00417622
-0.0024101
-0.00406437
-0.00256866
-0.00395741
-0.00270389
-0.00385433
-0.00281668
-0.0037551
-0.00290836
-0.00365964
-0.00297921
-0.00356812
-0.00303089
-0.00347942
-0.00306291
-0.00339496
-0.00307695
-0.00331298
-0.00307365
-0.00323432
-0.00305396
-0.00315844
-0.00301757
-0.00308588
-0.00296607
-0.00301568
-0.00289988
-0.00294828
-0.00281919
-0.00288317
-0.00272456
-0.00282106
-0.00261727
-0.00276055
-0.00249736
-0.00270285
-0.00236501
-0.0026474
-0.00222122
-0.00259379
-0.00206601
-0.00254236
-0.00190015
-0.00249336
-0.00172382
-0.00244611
-0.0015372
-0.00240116
-0.00134128
-0.00235792
-0.00113586
-0.002317
-0.000921936
-0.00227815
-0.000699346
-0.00224147
-0.000468879
-0.00220731
-0.000231404
-0.00217517
1.31388e-05
-0.00214599
0.000262982
-0.00211869
0.000516839
-0.00209402
-0.00207147
0.000773528
0.00022036
-0.00483492
-0.000629092
-0.000157022
-0.00471396
-0.000503906
-0.00459759
-0.000821665
-0.00448602
-0.00111167
-0.00437812
-0.00137481
-0.00427498
-0.00161185
-0.0041754
-0.00182416
-0.00407956
-0.00201302
-0.00398736
-0.00217868
-0.0038987
-0.00232262
-0.00381347
-0.00244569
-0.00373126
-0.00254844
-0.00365235
-0.00263172
-0.00357636
-0.00269659
-0.00350325
-0.00274318
-0.00343283
-0.00277304
-0.00336509
-0.00278621
-0.00329981
-0.00278373
-0.0032368
-0.00276584
-0.00317634
-0.00273387
-0.00311784
-0.00268745
-0.0030621
-0.00262802
-0.00300772
-0.0025553
-0.00295589
-0.00247061
-0.00290575
-0.00237387
-0.00285729
-0.00226569
-0.00281103
-0.00214671
-0.00276638
-0.00201711
-0.00272339
-0.00187749
-0.00268198
-0.00172799
-0.00264286
-0.00156948
-0.00260463
-0.00140181
-0.00256883
-0.00122564
-0.00253409
-0.00104102
-0.00250162
-0.000848897
-0.00247027
-0.000649387
-0.00244098
-0.000442941
-0.00241375
-0.000229759
-0.00238835
-1.12106e-05
-0.00236453
0.000212873
-0.00234277
0.000441552
-0.00232269
-0.00230404
0.000674123
0.000205816
-0.00446411
-0.000576622
-0.000136582
-0.00437157
-0.000451069
-0.00428311
-0.000739611
-0.00419748
-0.00100248
-0.00411525
-0.00124105
-0.00403641
-0.00145648
-0.00395997
-0.00164924
-0.0038868
-0.00182058
-0.00381602
-0.00197136
-0.00374792
-0.00210213
-0.0036827
-0.00221373
-0.00361966
-0.00230712
-0.00355897
-0.00238293
-0.00350054
-0.00244201
-0.00344418
-0.00248469
-0.00339015
-0.00251211
-0.00333767
-0.0025246
-0.00328732
-0.0025223
-0.00323911
-0.00250662
-0.00319202
-0.00247722
-0.00314724
-0.00243591
-0.0031034
-0.00238184
-0.00306179
-0.00231661
-0.00302112
-0.00224007
-0.00298229
-0.00215254
-0.00294482
-0.00205474
-0.00290883
-0.00194718
-0.00287394
-0.00182999
-0.00284058
-0.00170379
-0.00280818
-0.00156909
-0.00277756
-0.00142562
-0.00274809
-0.00127448
-0.00271998
-0.00111562
-0.00269295
-0.000949446
-0.00266779
-0.000776343
-0.00264338
-0.000596636
-0.00262069
-0.000410719
-0.00259967
-0.000219226
-0.00257985
-2.20694e-05
-0.00256169
0.000179827
-0.00254467
0.000386272
-0.00252914
-0.00251473
0.000596958
0.000191626
-0.00412773
-0.000528008
-0.000118798
-0.00406114
-0.000404615
-0.00399729
-0.000666079
-0.00393601
-0.000904727
-0.0038766
-0.00112152
-0.00381962
-0.001317
-0.00376448
-0.00149232
-0.00371148
-0.00164785
-0.00366049
-0.00178462
-0.00361115
-0.00190338
-0.00356394
-0.00200494
-0.00351809
-0.00208998
-0.00347393
-0.00215922
-0.0034313
-0.00221289
-0.00339051
-0.00225192
-0.00335113
-0.00227675
-0.00331284
-0.00228829
-0.00327577
-0.00228669
-0.00324071
-0.00227266
-0.00320605
-0.00224672
-0.00317318
-0.00220893
-0.0031412
-0.00216038
-0.00311034
-0.00210131
-0.00308019
-0.00203185
-0.00305175
-0.00195273
-0.00302394
-0.00186456
-0.002997
-0.00176717
-0.00297133
-0.00166138
-0.00294637
-0.00154721
-0.00292235
-0.00142519
-0.00289958
-0.00129543
-0.00287785
-0.0011588
-0.0028566
-0.00101516
-0.00283659
-0.000864942
-0.00281801
-0.000708396
-0.00279992
-0.000545634
-0.00278345
-0.000377728
-0.00276758
-0.000204253
-0.00275332
-2.60178e-05
-0.00273993
0.000156883
-0.00272757
0.000343903
-0.00271616
-0.00270581
0.000534988
0.000177621
-0.00382212
-0.000483231
-0.000103944
-0.00377958
-0.000363194
-0.00373804
-0.000600705
-0.0036985
-0.000817598
-0.00365971
-0.00101425
-0.00362297
-0.0011917
-0.00358703
-0.00135097
-0.00355221
-0.00149234
-0.00351912
-0.00161653
-0.00348697
-0.0017246
-0.00345588
-0.00181712
-0.00342557
-0.00189417
-0.00339688
-0.00195701
-0.00336846
-0.00200602
-0.00334149
-0.00204182
-0.00331533
-0.00206477
-0.00328989
-0.00207498
-0.00326556
-0.00207376
-0.00324192
-0.00206105
-0.00321877
-0.00203785
-0.00319637
-0.00200401
-0.00317504
-0.00196025
-0.0031541
-0.00190648
-0.00313396
-0.00184363
-0.0031146
-0.00177211
-0.00309546
-0.00169198
-0.00307713
-0.00160403
-0.00305928
-0.0015081
-0.0030423
-0.00140451
-0.00302593
-0.00129438
-0.00300972
-0.00117703
-0.00299519
-0.00105296
-0.00298068
-0.000922685
-0.00296686
-0.00078669
-0.002954
-0.00064469
-0.00294192
-0.000497799
-0.00293034
-0.00034547
-0.0029199
-0.000188519
-0.00291027
-2.6949e-05
-0.0029015
0.000138973
-0.00289349
0.000308984
-0.00288617
-0.00287921
0.00048238
0.00016489
-0.00354554
-0.000441476
-9.13299e-05
-0.00352336
-0.000326344
-0.00350303
-0.000542326
-0.00348252
-0.000739084
-0.00346295
-0.000917988
-0.00344406
-0.00107928
-0.00342574
-0.00122316
-0.00340833
-0.0013519
-0.00339038
-0.00146482
-0.00337405
-0.00156352
-0.00335718
-0.00164713
-0.00334196
-0.00171764
-0.00332637
-0.00177473
-0.00331137
-0.00181937
-0.00329685
-0.00185178
-0.00328292
-0.00187258
-0.00326908
-0.00188228
-0.00325586
-0.00188168
-0.00324253
-0.0018704
-0.00323005
-0.00184885
-0.00321792
-0.00181837
-0.00320553
-0.0017786
-0.00319386
-0.00173012
-0.00318244
-0.00167335
-0.00317138
-0.00160851
-0.00316029
-0.00153607
-0.00314958
-0.00145622
-0.00313912
-0.00136919
-0.00312933
-0.0012754
-0.00311973
-0.00117481
-0.00311031
-0.00106869
-0.00310131
-0.000956528
-0.00309284
-0.000838497
-0.00308489
-0.000714991
-0.00307751
-0.000586348
-0.00307056
-0.000452982
-0.00306371
-0.000314883
-0.003058
-0.000172282
-0.00305287
-2.57007e-05
-0.00304808
0.000124623
-0.00304382
0.000278775
-0.00304032
-0.00303724
0.000436807
0.000152117
-0.000404373
-0.00329328
-7.99159e-05
-0.00329132
-0.000293856
-0.00328909
-0.000489976
-0.0032864
-0.000668536
-0.00328439
-0.000830627
-0.00328197
-0.000977413
-0.00327895
-0.00110895
-0.00327679
-0.00122541
-0.00327392
-0.00132816
-0.00327129
-0.00141747
-0.00326787
-0.00149403
-0.0032654
-0.00155776
-0.00326264
-0.0016099
-0.00325924
-0.00165053
-0.00325621
-0.00168007
-0.00325338
-0.00169929
-0.00324987
-0.00170805
-0.0032471
-0.00170724
-0.00324334
-0.00169725
-0.00324004
-0.00167799
-0.00323719
-0.00165027
-0.00323325
-0.0016145
-0.00322963
-0.00157035
-0.00322658
-0.00151917
-0.00322257
-0.00146028
-0.00321918
-0.0013943
-0.00321555
-0.00132185
-0.00321158
-0.00124301
-0.00320817
-0.00115797
-0.00320477
-0.0010673
-0.00320098
-0.000970761
-0.00319785
-0.000868721
-0.00319488
-0.000761449
-0.00319217
-0.000649495
-0.00318946
-0.000532944
-0.00318712
-0.000411763
-0.00318489
-0.000286531
-0.00318324
-0.000157171
-0.00318223
-2.4165e-05
-0.00318108
0.000112543
-0.00318052
0.000252794
-0.00318057
0.000395874
-0.00318032
0.00162312
-0.00154955
0.00130298
0.00184803
-0.00161657
0.00139166
0.00207797
-0.00167454
0.00144459
0.00230626
-0.00172762
0.00149932
0.00253066
-0.00177907
0.00155467
0.00275024
-0.00182956
0.00160998
0.00296381
-0.00188044
0.00166686
0.00317139
-0.00193208
0.00172449
0.00337163
-0.00198523
0.001785
0.00356432
-0.00203967
0.00184698
0.0037481
-0.00209586
0.00191207
0.00392282
-0.00215447
0.00197975
0.00408832
-0.00221535
0.00204985
0.00424263
-0.00227803
0.00212372
0.00438588
-0.00234402
0.00220077
0.00451708
-0.00241165
0.00228045
0.00463591
-0.00248301
0.00236418
0.0047409
-0.00255608
0.00245108
0.0048323
-0.00263317
0.00254177
0.00490837
-0.00271235
0.00263629
0.00496926
-0.00279554
0.00273465
0.00501373
-0.00288137
0.00283689
0.00504179
-0.00297136
0.00294329
0.00505173
-0.00306396
0.00305402
0.0050436
-0.00316096
0.00316909
0.00501596
-0.00326135
0.00328899
0.00496845
-0.00336598
0.00341349
0.00490068
-0.00347485
0.00354262
0.00481114
-0.00358771
0.00367725
0.00469975
-0.00370506
0.00381646
0.00456482
-0.00382687
0.00396179
0.00440619
-0.00395426
0.0041129
0.00422231
-0.00408558
0.00426946
0.00401272
-0.00422254
0.00443213
0.00377659
-0.00436502
0.00460115
0.0035126
-0.00451299
0.00477699
0.00321953
-0.00466644
0.0049595
0.00289677
-0.00482638
0.00514914
0.00254292
-0.00499221
0.00534606
0.00215688
-0.00516477
0.0055508
0.00173711
-0.00534383
0.0057636
0.00128296
-0.00553013
0.00598428
-0.00572373
0.00621375
0.000792946
0.00123733
-0.00182508
0.00149046
-0.00186971
0.00172978
-0.00191386
0.00196016
-0.00195799
0.00218244
-0.00200135
0.00239805
-0.00204518
0.00260688
-0.00208926
0.00280839
-0.00213359
0.00300206
-0.00217891
0.00318788
-0.00222549
0.00336512
-0.0022731
0.00353316
-0.00232252
0.00369084
-0.00237303
0.00383803
-0.00242521
0.003974
-0.00248
0.00409858
-0.00253623
0.00421022
-0.00259464
0.00430978
-0.00265564
0.00439536
-0.00271875
0.00446787
-0.00278486
0.00452512
-0.00285279
0.00456748
-0.00292372
0.00459395
-0.00299783
0.00460434
-0.00307434
0.00459789
-0.00315451
0.0045739
-0.00323736
0.00453175
-0.00332383
0.00447006
-0.00341316
0.00438921
-0.00350686
0.0042881
-0.00360396
0.00416605
-0.00370482
0.00402133
-0.00380954
0.0038546
-0.00391885
0.00366432
-0.00403226
0.00344906
-0.00414976
0.00320855
-0.00427248
0.00294192
-0.00439982
0.0026476
-0.00453205
0.00232529
-0.0046699
0.00197322
-0.00481271
0.00159094
-0.00496155
0.0011764
-0.00511559
-0.00527619
0.000728854
0.00102641
-0.00207797
0.00126883
-0.00211213
0.00150195
-0.00214698
0.00172623
-0.00218227
0.00194204
-0.00221716
0.00214955
-0.0022527
0.00234857
-0.00228828
0.00253952
-0.00232454
0.00272199
-0.00236137
0.00289565
-0.00239915
0.00306036
-0.00243781
0.00321529
-0.00247744
0.00336046
-0.00251821
0.0034962
-0.00256095
0.00362085
-0.00260465
0.00373494
-0.00265031
0.00383769
-0.00269739
0.00392834
-0.0027463
0.00400722
-0.00279763
0.00407259
-0.00285023
0.00412527
-0.00290547
0.00416422
-0.00296267
0.0041884
-0.00302202
0.00419836
-0.0030843
0.00419248
-0.00314863
0.00417082
-0.00321569
0.00413246
-0.00328548
0.00407727
-0.00335796
0.00400385
-0.00343345
0.00391199
-0.00351209
0.00380079
-0.00359362
0.00366982
-0.00367858
0.00351785
-0.00376687
0.00334407
-0.00385849
0.00314848
-0.00395417
0.00292963
-0.00405363
0.00268656
-0.00415675
0.0024187
-0.00426419
0.0021249
-0.0043761
0.00180422
-0.00449203
0.00145516
-0.00461249
0.00107781
-0.00473823
-0.00486865
0.000670269
0.000904196
-0.00230804
0.00112642
-0.00233435
0.00134066
-0.00236121
0.00154681
-0.00238843
0.00174579
-0.00241614
0.00193689
-0.00244379
0.00212027
-0.00247165
0.00229593
-0.00250021
0.00246413
-0.00252956
0.00262372
-0.00255875
0.00277508
-0.00258917
0.00291756
-0.00261993
0.0030517
-0.00265234
0.00317577
-0.00268502
0.00329059
-0.00271946
0.00339529
-0.00275502
0.00348971
-0.00279181
0.00357328
-0.00282988
0.00364545
-0.0028698
0.00370634
-0.00291113
0.00375473
-0.00295385
0.00379092
-0.00299886
0.0038139
-0.003045
0.00382322
-0.00309362
0.00381873
-0.00314414
0.00379941
-0.00319638
0.00376512
-0.00325119
0.00371514
-0.00330798
0.00364884
-0.00336715
0.00356542
-0.00342867
0.00346454
-0.00349274
0.00334531
-0.00355935
0.00320732
-0.00362888
0.00304986
-0.00370103
0.00287205
-0.00377636
0.00267264
-0.00385421
0.00245167
-0.00393579
0.00220792
-0.00402043
0.00193994
-0.00410813
0.00164789
-0.00419997
0.00133035
-0.00429495
0.000986364
-0.00439425
-0.00449684
0.000614554
0.000806053
-0.00251713
0.00100873
-0.00253703
0.0012049
-0.00255737
0.00139392
-0.00257745
0.00157616
-0.00259837
0.00175145
-0.00261909
0.00192038
-0.00264059
0.00208158
-0.00266141
0.00223516
-0.00268314
0.00238183
-0.00270542
0.00252063
-0.00272797
0.0026516
-0.0027509
0.00277373
-0.00277447
0.00288792
-0.00279921
0.00299314
-0.00282468
0.00308903
-0.00285091
0.00317524
-0.00287802
0.00325189
-0.00290652
0.00331813
-0.00293604
0.00337371
-0.0029667
0.00341826
-0.0029984
0.00345134
-0.00303194
0.00347279
-0.00306645
0.00348178
-0.00310261
0.00347749
-0.00313986
0.00346063
-0.00317951
0.0034295
-0.00322006
0.00338433
-0.00326281
0.00332411
-0.00330693
0.00324861
-0.00335316
0.00315701
-0.00340114
0.00304905
-0.0034514
0.0029234
-0.00350323
0.00278027
-0.00355789
0.00261838
-0.00361448
0.00243724
-0.00367306
0.00223621
-0.00373476
0.00201387
-0.00379809
0.00177044
-0.0038647
0.00150476
-0.00393428
0.00121548
-0.00400568
0.000902019
-0.00408078
-0.00415841
0.00056359
0.000725483
-0.00270763
0.000909836
-0.00272139
0.00108819
-0.00273572
0.00126099
-0.00275025
0.00142728
-0.00276467
0.00158774
-0.00277955
0.00174119
-0.00279403
0.00188891
-0.00280914
0.00202959
-0.00282382
0.00216337
-0.0028392
0.00228991
-0.00285451
0.00240956
-0.00287055
0.00252169
-0.0028866
0.00262566
-0.00290318
0.0027216
-0.00292062
0.00280914
-0.00293845
0.0028884
-0.00295729
0.00295827
-0.00297639
0.00301895
-0.00299672
0.0030698
-0.00301755
0.00311064
-0.00303925
0.00314113
-0.00306243
0.00316056
-0.00308587
0.00316902
-0.00311107
0.00316598
-0.00313682
0.00315052
-0.00316405
0.00312274
-0.00319228
0.00308156
-0.00322163
0.00302717
-0.00325255
0.00295877
-0.00328476
0.00287591
-0.00331828
0.00277762
-0.00335311
0.00266409
-0.0033897
0.00253369
-0.00342749
0.00238644
-0.00346722
0.0022218
-0.00350843
0.00203854
-0.0035515
0.00183676
-0.0035963
0.00161537
-0.00364332
0.00137286
-0.00369177
0.00110961
-0.00374243
0.000824219
-0.00379539
-0.00385037
0.000516175
0.000655334
-0.00288058
0.000823364
-0.00288942
0.000985762
-0.00289812
0.00114301
-0.0029075
0.00129471
-0.00291638
0.00144066
-0.00292549
0.00158143
-0.0029348
0.00171542
-0.00294313
0.00184398
-0.00295238
0.00196603
-0.00296124
0.00208182
-0.0029703
0.00219034
-0.00297907
0.00229258
-0.00298884
0.00238779
-0.0029984
0.00247545
-0.00300828
0.00255546
-0.00301846
0.00262746
-0.00302929
0.00269149
-0.00304041
0.00274651
-0.00305174
0.00279311
-0.00306415
0.00283083
-0.00307697
0.00285841
-0.00309001
0.00287679
-0.00310425
0.00288468
-0.00311896
0.0028819
-0.00313404
0.002868
-0.00315015
0.0028429
-0.00316718
0.00280606
-0.00318479
0.00275656
-0.00320305
0.00269442
-0.00322263
0.00261885
-0.00324271
0.00252969
-0.00326395
0.00242593
-0.00328594
0.00230757
-0.00330913
0.00217381
-0.00333346
0.0020243
-0.00335892
0.00185796
-0.00338516
0.00167409
-0.00341243
0.00147258
-0.0034418
0.00125209
-0.00347128
0.00101272
-0.00350306
0.00075297
-0.00353565
-0.0035699
0.000472501
0.000593802
-0.00303757
0.000746341
-0.00304196
0.000894317
-0.0030461
0.00103728
-0.00305046
0.00117567
-0.00305477
0.00130877
-0.00305859
0.00143611
-0.00306214
0.00155903
-0.00306605
0.00167592
-0.00306927
0.001787
-0.00307232
0.00189212
-0.00307543
0.00199172
-0.00307868
0.00208474
-0.00308185
0.00217141
-0.00308507
0.00225139
-0.00308826
0.00232429
-0.00309136
0.00238994
-0.00309494
0.00244818
-0.00309865
0.00249912
-0.00310268
0.00254165
-0.00310668
0.00257565
-0.00311097
0.00260145
-0.00311581
0.00261794
-0.00312074
0.00262506
-0.00312608
0.00262265
-0.00313163
0.00261052
-0.00313801
0.00258762
-0.00314428
0.00255402
-0.00315119
0.00250932
-0.00315835
0.00245275
-0.00316605
0.00238452
-0.00317448
0.00230343
-0.00318286
0.00220956
-0.00319207
0.002102
-0.00320157
0.00198033
-0.00321179
0.00184406
-0.00322265
0.00169272
-0.00323382
0.0015259
-0.00324562
0.00134209
-0.00325799
0.00114189
-0.00327108
0.000923916
-0.00328509
0.000687502
-0.00329923
-0.00331442
0.000432024
0.000538745
-0.00318045
0.000677692
-0.0031809
0.000812264
-0.00318067
0.0009423
-0.0031805
0.00106814
-0.0031806
0.00118916
-0.00317962
0.00130553
-0.00317851
0.00141711
-0.00317762
0.00152335
-0.00317551
0.00162467
-0.00317364
0.00172097
-0.00317173
0.00181133
-0.00316904
0.00189605
-0.00316656
0.00197491
-0.00316393
0.00204748
-0.00316082
0.0021141
-0.00315798
0.00217413
-0.00315498
0.00222727
-0.0031518
0.002273
-0.00314841
0.00231181
-0.00314549
0.0023429
-0.00314207
0.0023662
-0.0031391
0.00238145
-0.003136
0.00238835
-0.00313298
0.00238646
-0.00312974
0.00237553
-0.00312708
0.00235476
-0.00312352
0.00232418
-0.00312061
0.00228377
-0.00311794
0.00223247
-0.00311475
0.00217
-0.00311201
0.00209686
-0.00310972
0.0020113
-0.00310651
0.00191368
-0.00310396
0.00180331
-0.00310142
0.00167921
-0.00309854
0.00154167
-0.00309628
0.00138988
-0.00309383
0.001223
-0.00309111
0.00104074
-0.00308882
0.000842242
-0.00308658
0.000627251
-0.00308424
0.000394742
-0.00308191
-0.000206202
0.00620922
-0.00676391
0.000760886
0.000306131
0.00598431
-0.00649665
0.00077825
0.00576786
-0.00623998
0.00121091
0.00555982
-0.00599249
0.00160598
0.00535929
-0.00575435
0.00196503
0.00516609
-0.00552514
0.00228868
0.00498046
-0.00530411
0.00257858
0.00480104
-0.00509095
0.00283569
0.00462783
-0.00488495
0.00306151
0.00446038
-0.0046862
0.0032566
0.00429885
-0.00449393
0.00342233
0.00414201
-0.00430775
0.00355846
0.00399066
-0.00412679
0.00366676
0.00384305
-0.00395134
0.00374868
0.00369979
-0.00378171
0.00380387
0.00356096
-0.00361615
0.00383424
0.00342525
-0.00345561
0.00384011
0.00329329
-0.00329916
0.00382263
0.0031643
-0.00314682
0.00378284
0.00303867
-0.00299888
0.00372209
0.00291563
-0.00285488
0.00364107
0.00279596
-0.00271494
0.00354185
0.00267823
-0.002579
0.00342494
0.00256377
-0.00244686
0.00329222
0.00245137
-0.00231865
0.00314473
0.00234181
-0.00219431
0.00298447
0.00223443
-0.00207417
0.00281206
0.00212982
-0.00195741
0.00263065
0.00202661
-0.0018452
0.00244006
0.00192657
-0.00173598
0.00224255
0.00182799
-0.00163049
0.00203997
0.00173179
-0.0015292
0.00183345
0.00163729
-0.00143078
0.00162457
0.00154426
-0.00133537
0.00141557
0.00145239
-0.0012434
0.00120714
0.00136163
-0.00115319
0.00100201
0.001271
-0.00106587
0.00080113
0.00118003
-0.000979154
0.00060784
0.00108645
-0.000893159
0.000423415
0.000989523
-0.000805098
0.00025035
0.00088491
-0.000711846
7.88546e-05
0.000777777
-0.000606283
0.000751936
-0.000185926
-0.000487155
-0.000193787
0.00570658
0.000696428
0.000269872
0.00552065
0.000696963
0.00534077
0.00108874
0.00516804
0.00144632
0.00500171
0.00177082
0.00484159
0.00206437
0.00468691
0.00232722
0.00453819
0.0025605
0.00439456
0.00276547
0.00425541
0.0029429
0.00412142
0.00309363
0.00399129
0.00321929
0.003865
0.0033195
0.00374284
0.0033955
0.00362378
0.0034484
0.00350807
0.00347879
0.00339486
0.00348762
0.00328446
0.00347521
0.0031767
0.00344267
0.00307121
0.00339113
0.00296717
0.00332148
0.00286561
0.00323396
0.00276575
0.00313104
0.00266669
0.00301275
0.00256965
0.00288065
0.0024739
0.00273566
0.00237942
0.00257981
0.00228567
0.00241326
0.00219316
0.00223869
0.00210114
0.00205611
0.00201057
0.00186801
0.00191988
0.0016757
0.00182961
0.00148031
0.00173965
0.00128374
0.00164897
0.00108734
0.00155803
0.000893474
0.00146487
0.000703836
0.00136967
0.000520128
0.00127016
0.000345876
0.00116378
0.000180445
0.00105034
9.71375e-06
0.000948509
0.000993622
-0.000231973
-0.000182055
0.00525197
0.000636664
0.000238276
0.00510032
0.000625156
0.00495389
0.000979761
0.00481344
0.00130367
0.00467781
0.00159765
0.00454761
0.00186316
0.00442139
0.00210141
0.00429995
0.00231295
0.00418301
0.00249902
0.00406935
0.00266041
0.00396002
0.00279779
0.00385391
0.00291194
0.00375084
0.00300405
0.00365073
0.00307424
0.00355359
0.00312414
0.00345817
0.00315305
0.00336594
0.00316265
0.00327486
0.00315354
0.00318581
0.00312673
0.00309802
0.00308186
0.00301204
0.00302075
0.00292671
0.00294405
0.00284245
0.00285213
0.00275861
0.00274595
0.00267583
0.00262725
0.00259259
0.00249662
0.00251005
0.00235472
0.00242757
0.00220333
0.00234455
0.00204324
0.00226122
0.00187604
0.00217778
0.00170273
0.0020932
0.00152449
0.00200785
0.00134343
0.00192071
0.0011604
0.001832
0.00097766
0.00174076
0.000796342
0.00164618
0.00061878
0.00154723
0.00044752
0.00144142
0.000283841
0.00132746
0.00012741
0.00120677
-3.8694e-05
0.00111461
0.00121907
-0.000264137
-0.000170235
0.00483988
0.000582329
0.000210467
0.00471962
0.000560753
0.00460361
0.000881972
0.00449222
0.00117549
0.00438429
0.00144214
0.00428096
0.00168261
0.00418092
0.00189822
0.00408433
0.00209018
0.00399106
0.00225863
0.0039009
0.00240494
0.0038137
0.00252994
0.00372891
0.00263395
0.00364683
0.0027178
0.00356689
0.00278241
0.00348898
0.0028278
0.00341278
0.00285546
0.00333828
0.00286536
0.00326497
0.00285848
0.00319269
0.00283504
0.00312146
0.00279643
0.00305065
0.00274227
0.00298088
0.00267417
0.00291054
0.00259204
0.00284075
0.00249744
0.00277043
0.00239059
0.00269945
0.00227248
0.00262816
0.00214432
0.00255573
0.00200675
0.00248212
0.00186097
0.002407
0.00170794
0.00233081
0.00154931
0.00225183
0.00138574
0.00217141
0.00121888
0.00208757
0.0010498
0.00200108
0.000880642
0.00190992
0.000712827
0.001814
0.000548318
0.00171174
0.000389004
0.00160073
0.000237444
0.00147901
9.09043e-05
0.00135331
-6.77588e-05
0.00127328
0.00142669
-0.000275383
-0.000158666
0.00446668
0.000531862
0.000186438
0.00437452
0.000503683
0.00428636
0.000795065
0.00420084
0.00106079
0.00411856
0.00130222
0.00403953
0.00152049
0.00396265
0.00171597
0.00388886
0.0018899
0.00381713
0.00204307
0.00374773
0.00217591
0.00368086
0.00228919
0.00361563
0.0023838
0.00355222
0.0024603
0.0034904
0.00251942
0.00342985
0.0025614
0.0033708
0.00258741
0.00331227
0.00259757
0.0032548
0.00259203
0.00319823
0.00257215
0.00314135
0.00253757
0.00308523
0.0024902
0.00302824
0.00242913
0.00297161
0.00235615
0.00291373
0.00227129
0.0028553
0.00217504
0.00279569
0.00206848
0.00273473
0.00195239
0.00267181
0.00182745
0.00260706
0.00169477
0.00253968
0.00155552
0.00247006
0.00141
0.00239735
0.00126021
0.00232121
0.00110694
0.00224084
0.000951595
0.00215643
0.000795628
0.00206588
0.000640648
0.00196898
0.00048855
0.00186384
0.000341657
0.00174762
0.000201032
0.00161964
6.4835e-05
0.00148951
-8.41863e-05
0.0014223
0.00161742
-0.000274914
-0.000147683
0.0041281
0.000486262
0.000164951
0.00406188
0.000453054
0.00399826
0.000716817
0.00393707
0.000957797
0.00387758
0.00117693
0.0038204
0.00137473
0.00376485
0.00155233
0.00371126
0.00171001
0.00365944
0.00184876
0.00360898
0.00196928
0.00356034
0.00207234
0.00351257
0.00215851
0.00346605
0.00222848
0.00342043
0.00228234
0.00337599
0.00232101
0.00333214
0.00234483
0.00328845
0.0023547
0.00324493
0.00235066
0.00320228
0.00233341
0.0031586
0.0023034
0.00311523
0.00226069
0.00307096
0.00220645
0.00302585
0.00214096
0.00297922
0.00206442
0.00293183
0.00197778
0.00288233
0.00188187
0.00283064
0.00177684
0.00277685
0.00166381
0.00272009
0.00154326
0.00266023
0.00141616
0.00259716
0.00128336
0.00253015
0.00114647
0.0024581
0.00100614
0.00238116
0.000863695
0.00229888
0.000720374
0.00220921
0.000577499
0.00211185
0.00043765
0.00200369
0.000301992
0.00188328
0.000172402
0.00174923
4.62044e-05
0.00161571
-9.29006e-05
0.0015614
0.00179298
-0.000268466
-0.000136586
0.00382101
0.00044368
0.000146651
0.00377865
0.000407687
0.00373722
0.000647013
0.00369775
0.000865803
0.00365879
0.00106432
0.00362188
0.00124364
0.00358554
0.00140477
0.00355012
0.00154793
0.00351628
0.00167381
0.00348311
0.00178338
0.00345076
0.00187722
0.00341873
0.00195532
0.00338796
0.00201882
0.00335693
0.00206806
0.00332674
0.00210374
0.00329647
0.00212601
0.00326618
0.00213497
0.00323596
0.00213192
0.00320533
0.00211667
0.00317385
0.00209027
0.00314163
0.00205247
0.00310875
0.00200407
0.00307426
0.00194494
0.00303834
0.00187612
0.00300066
0.00179815
0.00296029
0.00171128
0.00291752
0.00161655
0.00287158
0.00151405
0.00282259
0.00140443
0.00276984
0.00128934
0.00271226
0.00116843
0.00265106
0.00104301
0.00258352
0.000914473
0.00250969
0.000784179
0.00242917
0.000652764
0.00234062
0.000522258
0.00224236
0.000393301
0.00213264
0.000268469
0.00200811
0.000148689
0.00186901
3.11629e-05
0.00173323
-9.90892e-05
0.00169165
0.00195329
-0.000259397
-0.000126946
0.00354299
0.000404966
0.000130672
0.00352103
0.000367091
0.0035008
0.00058448
0.00348036
0.00078278
0.00346049
0.000963156
0.0034415
0.00112597
0.00342272
0.0012713
0.0034048
0.00140154
0.00338604
0.00151588
0.00336877
0.00161586
0.00335078
0.00170056
0.00333403
0.00177207
0.00331645
0.00182981
0.00329918
0.00187467
0.00328189
0.00190701
0.00326412
0.00192735
0.00324584
0.00193612
0.00322719
0.00193413
0.00320732
0.00192087
0.00318712
0.00189668
0.00316582
0.00186293
0.0031425
0.00181931
0.00311788
0.00176632
0.00309133
0.00170441
0.00306257
0.001634
0.00303071
0.00155562
0.00299589
0.00146974
0.00295746
0.00137692
0.00291541
0.00127734
0.00286942
0.00117214
0.00281746
0.00106236
0.00276084
0.000948499
0.00269738
0.000831435
0.00262676
0.000712298
0.00254831
0.000592306
0.00246061
0.000473113
0.00236155
0.000355469
0.00225029
0.000240846
0.00212274
0.000130876
0.00197898
2.28443e-05
0.00184126
-9.91175e-05
0.00181362
0.00210209
-0.000247915
-0.00011705
0.00328969
0.000370352
0.000115997
0.00328798
0.000331064
0.00328574
0.000528129
0.00328329
0.000708052
0.00328057
0.000871286
0.00327827
0.00101925
0.00327476
0.00115203
0.00327201
0.00126963
0.00326844
0.00137375
0.00326465
0.00146405
0.00326048
0.00154147
0.00325661
0.0016061
0.00325183
0.00165912
0.00324616
0.00169983
0.00324118
0.00172939
0.00323456
0.00174825
0.00322698
0.00175633
0.00321912
0.0017545
0.00320915
0.00174309
0.00319853
0.00172167
0.00318723
0.00169118
0.003173
0.00165243
0.00315663
0.00160469
0.00313907
0.00154913
0.00311813
0.00148551
0.00309433
0.00141413
0.00306728
0.00133656
0.00303503
0.00125275
0.00299922
0.00116274
0.00295944
0.00106797
0.00291222
0.000967093
0.00286172
0.000862093
0.00280238
0.00075492
0.00273393
0.000646359
0.00265687
0.00053797
0.002569
0.000428785
0.00247074
0.000320054
0.00235902
0.000214788
0.002228
0.000113563
0.00208021
9.9547e-06
0.00194487
-0.00010999
0.00193356
-0.000237792
0.00222989
-0.000431484
0.00108105
-0.000835493
-0.000706802
0.00127006
-0.000994741
-0.000988384
0.00138282
-0.00110124
-0.0012688
0.00146761
-0.00118719
-0.00154535
0.00154201
-0.00126546
-0.00181625
0.00161071
-0.00133981
-0.00207983
0.00167716
-0.00141359
-0.00233586
0.00174253
-0.0014865
-0.00258274
0.00180817
-0.00156129
-0.0028202
0.001874
-0.00163653
-0.00304682
0.00194081
-0.00171419
-0.00326265
0.00200959
-0.00179376
-0.00346762
0.00208008
-0.0018751
-0.00365972
0.00215187
-0.00195977
-0.00383919
0.00222671
-0.00204724
-0.00400517
0.00230281
-0.00213683
-0.00415732
0.00238243
-0.00223027
-0.00429424
0.00246336
-0.00232645
-0.00441614
0.00254822
-0.00242631
-0.00452128
0.00263479
-0.00252965
-0.00460991
0.00272526
-0.00263664
-0.00468065