/*--------------------------------*- C++ -*----------------------------------*\
| =========                 |                                                 |
| \\      /  F ield         | OpenFOAM: The Open Source CFD Toolbox           |
|  \\    /   O peration     | Version:  2.3.0                                 |
|   \\  /    A nd           | Web:      www.OpenFOAM.org                      |
|    \\/     M anipulation  |                                                 |
\*---------------------------------------------------------------------------*/
FoamFile
{
    version     2.0;
    format      ascii;
    class       volScalarField;
    location    "7000";
    object      nuTilda;
}
// * * * * * * * * * * * * * * * * * * * * * * * * * * * * * * * * * * * * * //

dimensions      [0 2 -1 0 0 0 0];

internalField   nonuniform List<scalar> 
6617
(
0.0491016
0.0448509
0.04101
0.0373531
0.0340109
0.0309569
0.0281636
0.0256189
0.0233184
0.0212593
0.0194757
0.0183008
0.0567975
0.0530296
0.049709
0.0469345
0.0447059
0.0429982
0.0417737
0.0409842
0.0405795
0.0405087
0.0407192
0.041162
0.0641697
0.0614668
0.0591526
0.0572644
0.055787
0.0546915
0.0539423
0.0535008
0.0533274
0.0533814
0.0536268
0.054027
0.0703273
0.0683672
0.0667157
0.0653813
0.0643462
0.0635861
0.0630737
0.0627836
0.0626897
0.0627681
0.0629968
0.0633543
0.0754422
0.0739908
0.0727721
0.0717881
0.0710244
0.070463
0.0700874
0.0698808
0.0698276
0.0699143
0.0701272
0.0704526
0.0796995
0.0785959
0.0776671
0.0769134
0.0763245
0.0758893
0.075598
0.0754415
0.0754106
0.0754978
0.0756953
0.0759947
0.0832691
0.0823936
0.0816633
0.0810667
0.0805958
0.0802451
0.0800103
0.079887
0.0798704
0.0799567
0.0801415
0.0804196
0.0862406
0.0855444
0.0849584
0.0844739
0.0840867
0.0837952
0.0835997
0.0835003
0.083495
0.0835809
0.0837556
0.0840162
0.0887505
0.088181
0.0877027
0.0872995
0.0869747
0.0867268
0.0865581
0.0864775
0.0864817
0.0865701
0.0867384
0.086984
0.0908885
0.0904018
0.0900122
0.0896651
0.0893876
0.0891782
0.089021
0.0889564
0.0889696
0.0890633
0.0892348
0.0894696
0.0200257
0.0236475
0.0261776
0.0288791
0.0320767
0.0358688
0.0402657
0.0452275
0.0506948
0.0565955
0.06284
0.069292
0.0417629
0.0425809
0.0437369
0.0452828
0.0472661
0.0497226
0.0526708
0.0561097
0.0600177
0.0643541
0.0690616
0.074035
0.0545491
0.0552308
0.0561412
0.0573105
0.0587687
0.0605443
0.06266
0.0651314
0.0679649
0.0711532
0.0746714
0.078433
0.0638228
0.0644251
0.0651997
0.0661635
0.0673345
0.0687302
0.0703662
0.0722565
0.0744114
0.0768353
0.0795242
0.0824402
0.0708806
0.0714248
0.0721073
0.0729374
0.0739244
0.0750774
0.0764056
0.0779178
0.0796222
0.081525
0.0836298
0.0859276
0.0763895
0.0768882
0.0775034
0.0782388
0.0790985
0.0800857
0.0812044
0.0824584
0.0838524
0.0853907
0.0870761
0.0888941
0.0807871
0.0812492
0.0818125
0.0824775
0.0832442
0.0841118
0.0850798
0.0861486
0.0873198
0.0885953
0.089977
0.091452
0.0843604
0.084792
0.0853138
0.0859243
0.086621
0.0873994
0.0882542
0.089185
0.0901909
0.0912699
0.0924165
0.0936095
0.0873065
0.0877126
0.0882009
0.0887677
0.0894098
0.0901219
0.0908868
0.091713
0.0925928
0.0935265
0.0944968
0.0954844
0.0897656
0.0901513
0.0906126
0.0911439
0.0917395
0.0924039
0.0930893
0.0938461
0.0946247
0.0954549
0.0962898
0.0971683
0.0842003
0.071609
0.0601922
0.0500054
0.0410995
0.0334332
0.0269735
0.0218159
0.0182284
0.0149985
0.0117155
0.00812307
0.0948203
0.0843115
0.0746875
0.0661198
0.0586313
0.0519902
0.0458677
0.0400456
0.0344289
0.0288606
0.0231674
0.017171
0.106854
0.0982111
0.0899965
0.0822267
0.0748718
0.0678427
0.0610053
0.0542218
0.0473631
0.0403227
0.0329992
0.0253014
0.116994
0.109309
0.101755
0.0943359
0.0870247
0.0797597
0.0724558
0.0650176
0.0573423
0.0493331
0.040903
0.0319715
0.124978
0.117905
0.110784
0.103609
0.0963524
0.0889596
0.0813614
0.0734762
0.0652152
0.0564882
0.047209
0.0372944
0.131268
0.124659
0.117878
0.110914
0.10373
0.0962735
0.0884779
0.0802661
0.071554
0.0622524
0.0522728
0.0415315
0.136275
0.130051
0.123567
0.116796
0.109697
0.102214
0.0942792
0.0858143
0.0767359
0.0669536
0.0563774
0.0449217
0.140297
0.134417
0.1282
0.121612
0.114603
0.107118
0.0990802
0.0904106
0.0810239
0.0708284
0.059732
0.0476501
0.143544
0.137985
0.132022
0.125608
0.118688
0.111217
0.103104
0.0942654
0.084612
0.074052
0.0624897
0.0498457
0.146214
0.140934
0.135202
0.128969
0.122116
0.114679
0.106516
0.0975413
0.087653
0.0767625
0.0647657
0.0515833
0.00406905
0.0015831
0.00188309
0.00254989
0.00349511
0.00490325
0.00675298
0.00907744
0.0119537
0.0154633
0.0196982
0.0247488
0.0105501
0.00430301
0.00255798
0.00339306
0.00460274
0.00616694
0.00812258
0.0104842
0.0133138
0.0166795
0.0206508
0.0252557
0.0169375
0.00820012
0.00372537
0.00436754
0.0057946
0.00751645
0.00956563
0.0119538
0.0147276
0.0179388
0.0216359
0.0258508
0.0222788
0.0119774
0.00530655
0.0054007
0.00700064
0.00886552
0.0109932
0.0133964
0.0161084
0.0191689
0.0226303
0.0266085
0.0265289
0.0151217
0.0070052
0.00646369
0.00819119
0.0101741
0.0123648
0.0147735
0.0174255
0.0203555
0.0236146
0.0272646
0.0298625
0.0176043
0.00859792
0.00752887
0.00934132
0.0114207
0.0136615
0.0160707
0.0186679
0.0214815
0.0245467
0.0278912
0.0324742
0.019533
0.00999063
0.00856661
0.0104353
0.0125936
0.014875
0.0172824
0.0198295
0.022535
0.0254175
0.02849
0.0345261
0.0210309
0.0111753
0.00955573
0.0114653
0.0136882
0.0160033
0.0184072
0.0209069
0.0235109
0.0262263
0.0290628
0.0361256
0.0221963
0.0121978
0.0104761
0.0124214
0.0147058
0.0170508
0.019448
0.0219006
0.0244094
0.0269721
0.0295929
0.0372215
0.0227402
0.012755
0.0113576
0.0133837
0.0156566
0.0179691
0.0203545
0.0227797
0.0252041
0.0276356
0.0301192
0.000730529
0.00246971
0.00551719
0.00903266
0.0127168
0.0166299
0.0207644
0.0250867
0.0295598
0.0341584
0.0388193
0.0436024
0.000557727
0.0013882
0.00348737
0.00662388
0.00998735
0.0135078
0.0172006
0.0211649
0.0254203
0.0299427
0.034677
0.0395816
0.000306485
0.000835392
0.00212892
0.00420706
0.00728045
0.0116075
0.0159076
0.0201106
0.0242748
0.028468
0.0327618
0.0372583
0.000326138
0.000663179
0.00168147
0.00331947
0.00578974
0.009379
0.0140883
0.0189133
0.0236878
0.0282576
0.0325444
0.0366889
0.00028936
0.000582368
0.00145271
0.00284081
0.00493463
0.00797201
0.0122826
0.0174796
0.0227583
0.0279533
0.0328156
0.0372018
0.000282902
0.00052532
0.00129864
0.00252463
0.00437607
0.00705576
0.0108553
0.0160582
0.0216793
0.0273638
0.0328869
0.0379308
0.000274892
0.000493632
0.00120582
0.00233134
0.00403308
0.00648924
0.00996806
0.0148284
0.0206664
0.0267179
0.0327558
0.0384727
0.000273057
0.000476014
0.00113827
0.0021924
0.00378735
0.00608362
0.00932726
0.0138534
0.0197636
0.0260967
0.0325336
0.0387932
0.000272709
0.000469688
0.00108877
0.00209079
0.00360693
0.00578823
0.00886331
0.013145
0.0189647
0.0255146
0.0322814
0.0389927
0.000273498
0.000466769
0.00104871
0.00200879
0.00345914
0.00554906
0.00849404
0.0125927
0.0182281
0.0249385
0.0319915
0.0390896
0.000274545
0.000465311
0.00101486
0.00193853
0.00333157
0.00534093
0.00817086
0.0121077
0.0175333
0.0243306
0.0316238
0.0390529
0.000275843
0.000464789
0.000986718
0.00187925
0.00322263
0.00516084
0.00788736
0.0116769
0.0168995
0.0236949
0.0311803
0.0389032
0.000277346
0.000464959
0.000963737
0.00183034
0.00313195
0.00500941
0.00764613
0.0113053
0.0163432
0.0230554
0.0306852
0.0386676
0.000279068
0.000465579
0.000945262
0.00179068
0.00305803
0.00488535
0.0074471
0.010996
0.0158748
0.0224508
0.0301729
0.0383762
0.000280991
0.00046651
0.000930484
0.00175868
0.00299814
0.00478442
0.00728437
0.0107418
0.0154882
0.0219201
0.0296973
0.0380884
0.000283095
0.000467619
0.000918792
0.0017331
0.00295007
0.00470314
0.00715266
0.0105345
0.0151699
0.0214628
0.0292598
0.0377994
0.000285359
0.000468813
0.000909514
0.00171254
0.00291125
0.00463738
0.00704578
0.0103657
0.0149089
0.0210784
0.0288734
0.0375402
0.000287757
0.000470055
0.000902259
0.00169609
0.00287999
0.00458428
0.00695925
0.0102285
0.0146964
0.0207623
0.0285474
0.037343
0.000290238
0.000471337
0.000896589
0.00168278
0.00285455
0.00454093
0.00688838
0.0101157
0.0145206
0.0204972
0.0282627
0.037191
0.000292785
0.000472651
0.000892259
0.00167201
0.00283363
0.00450509
0.0068297
0.0100223
0.0143743
0.0202733
0.0280016
0.0370152
0.000295381
0.000474027
0.000889122
0.00166341
0.00281645
0.00447519
0.00678033
0.00994351
0.0142515
0.0200869
0.0277825
0.036885
0.000298008
0.000475492
0.000887096
0.00165685
0.00280265
0.00445036
0.00673847
0.00987601
0.0141461
0.0199264
0.0275853
0.0367638
0.000300658
0.00047708
0.000886103
0.00165228
0.00279212
0.00443024
0.00670305
0.00981722
0.014053
0.0197851
0.0274116
0.0366743
0.000303325
0.000478802
0.000886076
0.00164975
0.00278505
0.00441527
0.00667463
0.00976727
0.0139703
0.0196556
0.0272452
0.0365972
0.000306007
0.00048068
0.00088688
0.00164914
0.00278142
0.00440565
0.0066539
0.00972743
0.0138994
0.0195365
0.0270706
0.0364508
0.000308706
0.000482684
0.000888438
0.00165043
0.0027812
0.00440156
0.00664165
0.00969987
0.0138452
0.0194395
0.0269248
0.036344
0.000311444
0.000484824
0.000890742
0.00165355
0.00278422
0.00440278
0.00663788
0.00968532
0.0138098
0.0193659
0.0267951
0.0362099
0.000314241
0.000487105
0.000893881
0.0016586
0.00279049
0.00440902
0.00664194
0.00968321
0.0137943
0.0193236
0.0267086
0.0361087
0.000317095
0.000489536
0.000897985
0.00166583
0.00280034
0.00442047
0.00665338
0.00969222
0.0137967
0.0193129
0.0266789
0.0360948
0.000320042
0.000492123
0.000903295
0.00167551
0.00281412
0.00443751
0.00667238
0.009711
0.0138124
0.0193221
0.0266864
0.0361683
0.000323079
0.000494972
0.000910042
0.00168789
0.00283225
0.004461
0.00670009
0.00974043
0.0138396
0.0193424
0.0266991
0.0362269
0.000326189
0.000498024
0.000918147
0.00170294
0.00285504
0.00449156
0.00673789
0.00978322
0.0138826
0.0193783
0.0267263
0.036336
0.000329357
0.000501256
0.000927738
0.0017208
0.00288258
0.00452943
0.00678637
0.00984136
0.0139463
0.0194368
0.0267535
0.0363078
0.000332628
0.000504567
0.000938911
0.00174158
0.00291504
0.00457487
0.00684613
0.00991584
0.0140347
0.0195366
0.0268626
0.0364567
0.000335992
0.00050793
0.00095171
0.00176536
0.00295261
0.00462836
0.00691767
0.0100065
0.0141443
0.0196644
0.0270148
0.0367109
0.000339344
0.000511259
0.000965827
0.00179185
0.00299502
0.00468959
0.00700087
0.0101138
0.0142752
0.0198141
0.027171
0.0368764
0.000342664
0.000514469
0.000981238
0.00182089
0.00304188
0.00475806
0.0070953
0.010238
0.0144311
0.0199994
0.0273761
0.0370992
0.000345963
0.000517472
0.000997919
0.00185238
0.00309286
0.00483305
0.00719999
0.0103781
0.0146109
0.0202201
0.0276332
0.0373923
0.000349206
0.000520217
0.00101584
0.00188617
0.00314764
0.00491407
0.00731391
0.0105319
0.0148116
0.0204726
0.0279379
0.0377529
0.000352301
0.000522665
0.00103484
0.00192206
0.00320598
0.00500058
0.007436
0.010698
0.0150301
0.0207513
0.0282817
0.0381748
0.00035522
0.000524744
0.00105501
0.00196012
0.00326779
0.00509235
0.0075656
0.0108745
0.0152637
0.0210519
0.0286552
0.0386056
0.000357959
0.000526352
0.00107633
0.0020003
0.00333298
0.00518912
0.00770239
0.011061
0.0155108
0.0213723
0.0290674
0.0391618
0.000360482
0.000527459
0.00109892
0.00204273
0.0034017
0.00529106
0.00784656
0.0112574
0.0157701
0.0217044
0.0294783
0.0396375
0.000362688
0.000528229
0.00112267
0.0020871
0.00347356
0.00539791
0.00799786
0.0114638
0.0160429
0.0220553
0.0299195
0.040191
0.000364584
0.000528279
0.0011472
0.00213309
0.00354832
0.00550939
0.00815594
0.0116797
0.0163287
0.0224226
0.0303759
0.0407341
0.000366195
0.000528089
0.00117316
0.00218131
0.00362634
0.0056255
0.00832045
0.0119048
0.0166273
0.0228081
0.0308588
0.0413021
0.00036762
0.000528133
0.00120034
0.0022315
0.00370736
0.00574619
0.00849158
0.0121388
0.0169382
0.0232104
0.0313735
0.0419962
0.000369113
0.000530024
0.00122878
0.00228356
0.00379122
0.00587116
0.00866894
0.0123814
0.0172596
0.0236224
0.0318749
0.0425248
0.00037089
0.000535316
0.00125802
0.0023375
0.00387811
0.00600029
0.00885214
0.0126321
0.0175933
0.0240576
0.0324353
0.0432486
0.000372825
0.000544792
0.0012887
0.0023938
0.00396846
0.0061341
0.00904108
0.0128898
0.0179345
0.0244994
0.032998
0.0439734
0.000374699
0.000556795
0.00132058
0.0024524
0.00406219
0.00627283
0.00923654
0.0131552
0.0182845
0.0249472
0.0335521
0.0446136
0.000376132
0.000569963
0.0013538
0.0025132
0.00415932
0.00641669
0.00943927
0.0134301
0.0186459
0.0254103
0.0341335
0.0453425
0.00037701
0.000583686
0.00138818
0.00257631
0.00426034
0.00656581
0.00964907
0.0137142
0.019018
0.0258836
0.0347174
0.046045
0.000377266
0.000598011
0.00142415
0.00264206
0.00436508
0.00672043
0.00986597
0.0140072
0.0194017
0.0263708
0.0353138
0.0467217
0.000377176
0.000613125
0.00146176
0.0027106
0.00447386
0.00688062
0.0100904
0.0143102
0.0197983
0.026876
0.0359458
0.0475207
0.000376473
0.000629133
0.00150104
0.0027818
0.00458663
0.00704667
0.0103229
0.0146229
0.0202049
0.0273886
0.0365709
0.0482491
0.000374989
0.000645764
0.00154185
0.00285585
0.00470406
0.007219
0.0105635
0.0149459
0.0206235
0.0279148
0.0372108
0.0489971
0.000372718
0.000663315
0.00158481
0.00293341
0.0048264
0.00739853
0.0108134
0.0152801
0.0210563
0.0284579
0.037871
0.0497733
0.000369687
0.000681923
0.00162984
0.00301441
0.00495391
0.00758513
0.0110727
0.0156264
0.0215034
0.0290163
0.0385462
0.0505621
0.000365728
0.00070159
0.0016771
0.00309947
0.00508736
0.00777985
0.0113428
0.0159859
0.0219654
0.0295908
0.0392365
0.0513595
0.000360599
0.000722554
0.00172737
0.00318946
0.00522813
0.00798402
0.0116249
0.01636
0.0224438
0.0301827
0.0399439
0.0521755
0.000354311
0.000745068
0.00178085
0.00328508
0.00537733
0.00819888
0.0119208
0.0167512
0.0229423
0.030795
0.0406682
0.0529952
0.000346464
0.000769391
0.00183797
0.00338682
0.00553582
0.00842637
0.0122332
0.0171629
0.0234646
0.0314331
0.0414163
0.0538291
0.000336201
0.000795675
0.00189955
0.00349645
0.00570647
0.00867043
0.0125656
0.0175992
0.024016
0.0321044
0.0421999
0.0546989
0.000322004
0.000823916
0.00196653
0.00361585
0.00589234
0.00893666
0.012924
0.0180657
0.0246027
0.0328159
0.0430279
0.0556167
0.000301448
0.000854352
0.00203972
0.00374674
0.00609622
0.00922929
0.0133188
0.0185727
0.0252352
0.0335782
0.0439104
0.0565863
0.000271171
0.000887248
0.00212006
0.00389094
0.00632142
0.00955322
0.0137575
0.0191369
0.0259282
0.0344044
0.0448605
0.0576337
0.000233323
0.000924056
0.00220958
0.00405159
0.00657283
0.0099151
0.014249
0.0197717
0.0267091
0.0353184
0.0458945
0.0587468
0.000214887
0.000971742
0.00231243
0.0042335
0.00685659
0.0103244
0.0148051
0.0204912
0.0275981
0.0363642
0.0470567
0.0599926
0.000218278
0.00103425
0.00243244
0.00444356
0.00718417
0.0107966
0.0154466
0.0213207
0.028622
0.0375673
0.0483961
0.0614069
0.000219123
0.00109653
0.00257296
0.00469402
0.00757609
0.0113617
0.0162145
0.0223133
0.0298442
0.0389955
0.0499556
0.0629514
0.00023136
0.00117625
0.00275336
0.00501219
0.008071
0.0120722
0.0171766
0.0235542
0.0313737
0.0407935
0.051955
0.0650121
0.000248601
0.00128419
0.00300118
0.00544857
0.00874462
0.0130298
0.0184586
0.025191
0.0333764
0.0431426
0.054586
0.0677961
0.00027472
0.00139887
0.00330965
0.00603511
0.00968574
0.0143911
0.0202875
0.0275058
0.036159
0.0463461
0.0581114
0.0714723
0.000310845
0.00194256
0.00440907
0.0077163
0.0119303
0.0172032
0.0236636
0.031424
0.0405754
0.051156
0.0631623
0.0765599
0.000748632
0.00357504
0.00740355
0.0119437
0.0171443
0.022908
0.0291458
0.0357918
0.0427852
0.0500515
0.0575177
0.0650834
0.000443048
0.00222559
0.00497889
0.00858134
0.0130045
0.0182137
0.0241564
0.0307594
0.0379276
0.0455439
0.0534767
0.0615761
0.000667269
0.00186395
0.00414187
0.00718036
0.0110182
0.0156804
0.02117
0.0274565
0.0344698
0.042101
0.0502113
0.0586513
0.000621778
0.00154967
0.00352197
0.00618712
0.00961873
0.0138712
0.018981
0.0249532
0.0317498
0.0392839
0.0474189
0.055962
0.000608558
0.00133078
0.00308455
0.00548043
0.00860597
0.012531
0.0173139
0.0229871
0.0295422
0.0369194
0.0449984
0.053587
0.000602373
0.00118496
0.00278008
0.00497284
0.007857
0.0115122
0.0160119
0.0214094
0.0277224
0.0349192
0.0429094
0.0515445
0.000601414
0.00108289
0.00255013
0.00458263
0.00727155
0.0107022
0.0149585
0.0201089
0.0261918
0.0332
0.0410658
0.0496391
0.000603165
0.00100432
0.00236593
0.00426781
0.00679517
0.0100369
0.0140832
0.0190136
0.0248828
0.0317042
0.0394326
0.0479479
0.000606188
0.00094106
0.00221423
0.00400735
0.00639862
0.00947879
0.0133423
0.0180763
0.0237483
0.0303878
0.0379674
0.0463751
0.000609328
0.000888662
0.00208635
0.00378747
0.00606219
0.00900231
0.0127049
0.0172631
0.0227538
0.0292204
0.0366544
0.0449752
0.00061247
0.000845077
0.00197931
0.00359843
0.00577187
0.00858918
0.0121491
0.016549
0.0218731
0.0281763
0.0354651
0.0436686
0.000615566
0.000808334
0.00188745
0.00343348
0.00551775
0.00822629
0.0116586
0.0159152
0.0210859
0.027236
0.0343863
0.0424909
0.000618565
0.000776842
0.00180707
0.00328785
0.0052928
0.007904
0.0112212
0.0153468
0.0203753
0.026378
0.0333811
0.0413242
0.000621442
0.000749435
0.00173578
0.00315794
0.00509172
0.00761515
0.0108278
0.0148333
0.0197295
0.025594
0.032466
0.0403358
0.000624144
0.000725317
0.00167196
0.00304111
0.00491063
0.00735436
0.0104714
0.0143663
0.0191391
0.0248721
0.0316082
0.0393124
0.000626765
0.000704925
0.00161452
0.00293554
0.0047464
0.00711731
0.0101465
0.0139388
0.0185961
0.024204
0.0308115
0.0384056
0.000630189
0.00069453
0.00156282
0.00284074
0.00459668
0.00690067
0.00984883
0.0135461
0.0180961
0.0235893
0.0300893
0.0376313
0.000635056
0.000696196
0.00151618
0.00275479
0.00445952
0.00670177
0.00957503
0.0131842
0.0176348
0.0230219
0.0294168
0.036843
0.000640759
0.00070344
0.00147395
0.00267623
0.00433333
0.00651848
0.00932241
0.01285
0.0172082
0.0224964
0.0287923
0.036136
0.000646507
0.000711457
0.00143554
0.00260396
0.00421672
0.00634897
0.0090886
0.0125404
0.0168126
0.0220077
0.0282084
0.0354567
0.000651916
0.000718588
0.00140046
0.00253723
0.00410866
0.00619178
0.00887162
0.0122527
0.0164443
0.0215507
0.0276565
0.0347988
0.000656908
0.000724542
0.00136825
0.00247537
0.00400817
0.00604554
0.00866958
0.0119844
0.0160995
0.02112
0.0271297
0.0341588
0.000661491
0.000729461
0.00133859
0.00241784
0.00391439
0.00590908
0.00848082
0.0117331
0.0157755
0.0207137
0.0266346
0.0335902
0.000665728
0.000733535
0.00131123
0.00236436
0.0038274
0.00578136
0.0083039
0.0114972
0.015471
0.0203328
0.0261775
0.0330826
0.000669676
0.000736939
0.0012862
0.00231473
0.00374659
0.0056616
0.00813769
0.0112752
0.0151839
0.0199723
0.025735
0.0325197
0.000673396
0.000740056
0.00126521
0.00226858
0.00367114
0.00554908
0.00798129
0.0110662
0.0149136
0.0196345
0.0253332
0.0321202
0.000677068
0.000743996
0.00125341
0.00222581
0.00360041
0.00544314
0.00783389
0.0108691
0.0146589
0.0193155
0.0249432
0.0316043
0.000680848
0.000749544
0.0012525
0.00218625
0.00353397
0.00534324
0.00769484
0.0106833
0.0144187
0.0190148
0.0245807
0.0312172
0.00068482
0.000756928
0.0012586
0.00214978
0.00347141
0.00524896
0.00756348
0.0105075
0.014191
0.0187278
0.0242214
0.0307197
0.000689018
0.00076516
0.0012672
0.00211606
0.00341242
0.00515968
0.00743916
0.010341
0.0139749
0.0184548
0.0238883
0.0303778
0.000693183
0.000773421
0.00127575
0.00208474
0.00335672
0.00507507
0.00732112
0.0101828
0.0137692
0.018194
0.0235631
0.0299408
0.000697257
0.000781193
0.00128316
0.00205545
0.00330413
0.00499488
0.00720921
0.0100326
0.0135734
0.0179446
0.023252
0.029576
0.000701205
0.00078837
0.00128937
0.00202807
0.00325442
0.00491902
0.00710302
0.00988982
0.0133867
0.0177069
0.0229572
0.0292253
0.000705018
0.000794854
0.00129429
0.00200235
0.00320745
0.00484742
0.00700203
0.0097538
0.013209
0.0174805
0.0226769
0.028889
0.000708719
0.000800698
0.00129805
0.00197816
0.00316311
0.0047797
0.00690572
0.00962395
0.0130391
0.017264
0.0224085
0.0285634
0.000712308
0.000805967
0.00130077
0.00195532
0.00312122
0.00471546
0.0068138
0.00949981
0.0128766
0.0170568
0.0221504
0.0282493
0.000715792
0.000810826
0.00130274
0.00193379
0.00308148
0.00465442
0.00672633
0.00938153
0.0127212
0.0168588
0.0219074
0.0279788
0.000719189
0.000815282
0.00130405
0.00191355
0.00304375
0.00459623
0.00664276
0.00926836
0.0125732
0.016671
0.0216779
0.027705
0.000722535
0.000819434
0.00130485
0.00189463
0.003008
0.00454083
0.00656276
0.00916025
0.012432
0.016492
0.0214574
0.0274326
0.000725839
0.000823313
0.00130535
0.0018778
0.00297413
0.00448796
0.00648654
0.00905712
0.0122972
0.0163209
0.0212448
0.0271699
0.000729125
0.000827063
0.00130601
0.0018643
0.00294191
0.00443749
0.00641362
0.00895876
0.0121684
0.016157
0.0210406
0.0269202
0.000732418
0.000830901
0.00130767
0.0018563
0.00291158
0.00438956
0.00634415
0.00886467
0.0120455
0.0159999
0.0208422
0.0266656
0.000735654
0.000834772
0.00131089
0.00185439
0.00288337
0.00434374
0.00627756
0.00877465
0.0119276
0.0158491
0.0206548
0.0264594
0.000738939
0.000839307
0.00131592
0.00185733
0.002857
0.00430006
0.00621407
0.00868865
0.0118147
0.0157049
0.020476
0.0262415
0.00074262
0.00084418
0.00132262
0.00186346
0.00283262
0.00425873
0.00615361
0.00860675
0.0117074
0.0155683
0.0203099
0.0260586
0.000746266
0.000849598
0.0013307
0.00187124
0.00280998
0.0042195
0.00609633
0.00852859
0.011605
0.0154379
0.0201461
0.0258295
0.000750008
0.000855033
0.00133945
0.00187952
0.00278918
0.00418237
0.00604196
0.00845415
0.0115076
0.0153143
0.0199955
0.0256813
0.000753768
0.000860814
0.00134838
0.00188759
0.00276972
0.00414729
0.00599065
0.00838367
0.0114151
0.0151961
0.0198445
0.0254483
0.00075788
0.000866457
0.00135721
0.0018953
0.00275165
0.00411438
0.00594217
0.0083166
0.0113272
0.0150834
0.0197034
0.0253102
0.000761911
0.00087225
0.00136602
0.00190253
0.00273492
0.00408343
0.00589619
0.0082528
0.0112434
0.0149765
0.0195725
0.0251595
0.000766079
0.000877698
0.00137429
0.00190923
0.00271925
0.00405408
0.00585281
0.0081924
0.0111639
0.0148753
0.0194477
0.0250019
0.000770285
0.000883003
0.00138212
0.00191527
0.00270461
0.00402637
0.00581152
0.0081352
0.0110887
0.0147793
0.0193277
0.0248462
0.000774514
0.000888101
0.00138957
0.00192086
0.00269097
0.00400053
0.0057728
0.00808106
0.0110176
0.0146881
0.0192109
0.0246888
0.000778814
0.000893255
0.00139677
0.00192605
0.00267855
0.0039764
0.00573632
0.00802994
0.0109502
0.0146016
0.0191018
0.0245699
0.000783214
0.000898122
0.00140344
0.00193072
0.00266686
0.00395373
0.00570229
0.00798205
0.0108868
0.0145199
0.0189982
0.0244337
0.000787766
0.000902911
0.0014098
0.00193506
0.00265615
0.00393262
0.00567032
0.00793734
0.0108279
0.0144439
0.0189034
0.0243294
0.00079242
0.000907651
0.00141596
0.00193924
0.00264651
0.00391339
0.00564095
0.00789575
0.0107728
0.0143728
0.0188131
0.0242024
0.000797124
0.000912186
0.00142193
0.00194328
0.00263815
0.00389587
0.00561387
0.00785727
0.0107218
0.0143072
0.0187311
0.0241188
0.000801963
0.000916946
0.00142769
0.0019472
0.0026309
0.00387992
0.00558941
0.00782251
0.0106755
0.0142475
0.018657
0.0240229
0.000807371
0.000921657
0.00143332
0.00195119
0.00262513
0.0038659
0.0055674
0.00779095
0.0106338
0.0141937
0.0185873
0.0239229
0.000812859
0.000926509
0.00143915
0.00195551
0.00262122
0.00385383
0.00554804
0.00776306
0.0105967
0.0141459
0.0185287
0.0238724
0.000818569
0.000931254
0.00144489
0.00196018
0.00261918
0.00384368
0.00553139
0.00773885
0.0105645
0.014104
0.0184723
0.0237633
0.000824603
0.000936139
0.00145076
0.00196534
0.00261924
0.00383559
0.00551793
0.00771916
0.0105378
0.0140692
0.0184315
0.0237688
0.000830979
0.000941167
0.00145685
0.00197118
0.00262152
0.00383002
0.00550774
0.00770392
0.0105171
0.0140424
0.0183957
0.0236668
0.000837778
0.000946495
0.00146342
0.00197786
0.00262605
0.00382708
0.00550102
0.00769349
0.0105025
0.0140227
0.0183667
0.0236418
0.000845081
0.000951928
0.00147021
0.00198528
0.00263248
0.00382689
0.00549845
0.00768858
0.0104945
0.0140108
0.0183471
0.0236003
0.000852995
0.00095766
0.0014774
0.00199348
0.00264071
0.00382987
0.0055003
0.00768991
0.0104947
0.0140082
0.0183377
0.0235799
0.000861594
0.000963787
0.0014852
0.00200256
0.00265054
0.0038366
0.00550751
0.00769811
0.0105034
0.0140163
0.0183414
0.0235773
0.00087098
0.000970083
0.00149345
0.0020124
0.00266218
0.00384767
0.00552078
0.00771436
0.0105223
0.0140365
0.0183609
0.0236053
0.000881344
0.000976971
0.00150218
0.00202299
0.00267556
0.00386402
0.00554184
0.00774081
0.0105536
0.0140719
0.018401
0.0236575
0.000893557
0.000984433
0.00151147
0.00203437
0.00269105
0.00388695
0.00557233
0.00777972
0.0106007
0.0141269
0.0184629
0.0237147
0.000907713
0.000993541
0.00152283
0.00204807
0.00271123
0.00392047
0.00561708
0.00783619
0.0106688
0.0142062
0.0185548
0.023837
0.000923374
0.000997999
0.00153047
0.00205888
0.00273099
0.003959
0.00567177
0.0079082
0.0107582
0.0143124
0.018673
0.02392
0.000962381
0.00103449
0.00156336
0.00209739
0.00279708
0.00405722
0.00579228
0.00804789
0.0109128
0.0144765
0.0188456
0.0241611
0.000717962
0.000915148
0.00150388
0.00203035
0.00272429
0.00400307
0.00575719
0.0080393
0.0109392
0.0145501
0.0189769
0.0242972
0.119284
0.10239
0.158791
0.256512
0.0786777
0.0566529
0.138664
0.0576603
0.13644
0.0928437
0.239118
0.136528
0.182371
0.0806115
0.169989
0.0953222
0.0902669
0.157511
0.13692
0.138763
0.109872
0.136437
0.0923651
0.164774
0.133364
0.206373
0.19289
0.0976713
0.0594969
0.166414
0.11689
0.134569
0.0886176
0.101038
0.137677
0.126851
0.420093
0.131749
0.0928977
0.114021
0.0904061
0.127855
0.0657773
0.135654
0.140829
0.180103
0.136398
0.127078
0.0991731
0.164725
0.136321
0.13167
0.1672
0.0819836
0.0483642
0.0774009
0.137753
0.139383
0.140065
0.137542
0.0512841
0.0410323
0.107808
0.193728
0.12024
0.0696164
0.139196
0.129894
0.109711
0.0379067
0.130978
0.127841
0.128305
0.0994789
0.129951
0.104726
0.0456864
0.137081
0.0764196
0.0505324
0.0502654
0.140053
0.137682
0.204815
0.135947
0.126463
0.14009
0.129159
0.140113
0.068873
0.218097
0.148713
0.0890855
0.138706
0.138616
0.234428
0.139804
0.134034
0.248948
0.138455
0.135458
0.0686522
0.0992594
0.176358
0.138397
0.202306
0.138593
0.0766724
0.117679
0.139216
0.14007
0.139241
0.125094
0.220769
0.202704
0.116103
0.0934795
0.0497419
0.0915388
0.134614
0.103275
0.152663
0.134785
0.0943185
0.154801
0.0665631
0.0680312
0.0956267
0.147911
0.139489
0.139582
0.0612572
0.17162
0.139168
0.136247
0.0313949
0.0606698
0.133783
0.0329419
0.137321
0.0397847
0.0889596
0.102388
0.140053
0.139911
0.139872
0.135656
0.12214
0.140053
0.0794715
0.132304
0.0748392
0.111479
0.112044
0.137137
0.156782
0.127107
0.115353
0.187647
0.136344
0.134291
0.12199
0.141769
0.0833266
0.0823976
0.207413
0.139779
0.0346399
0.103024
0.162514
0.18401
0.0204552
0.130037
0.158997
0.13813
0.131686
0.132333
0.0827602
0.137152
0.0839484
0.0994865
0.0669708
0.134518
0.139071
0.0505228
0.0717059
0.13791
0.161256
0.136679
0.137521
0.138133
0.137736
0.253723
0.135178
0.142842
0.216759
0.137535
0.154086
0.0960764
0.0997773
0.152493
0.0303631
0.0435724
0.100809
0.132661
0.126211
0.139347
0.22251
0.137491
0.0294194
0.13422
0.0543542
0.12335
0.0978026
0.0619872
0.132802
0.137874
0.136936
0.138808
0.168475
0.224045
0.138473
0.131232
0.0478879
0.139871
0.14726
0.0772372
0.0957343
0.10905
0.0981184
0.0806305
0.0949135
0.135549
0.047355
0.111912
0.151265
0.0909743
0.0413192
0.0705702
0.129957
0.139998
0.264242
0.138223
0.110356
0.120514
0.0725242
0.0518364
0.138847
0.108147
0.12488
0.139788
0.0450113
0.071842
0.104291
0.179453
0.242083
0.0478503
0.12553
0.200978
0.133799
0.0629958
0.13123
0.108493
0.180703
0.147706
0.139984
0.187975
0.193178
0.131753
0.110621
0.137903
0.117476
0.140013
0.136863
0.12576
0.134152
0.126418
0.101086
0.0966554
0.0995253
0.130836
0.137743
0.135737
0.0640186
0.115747
0.0838457
0.131367
0.135115
0.20871
0.138416
0.133106
0.118588
0.137872
0.0802821
0.125033
0.103262
0.129274
0.0945307
0.139388
0.139173
0.0928305
0.0535877
0.206314
0.0744005
0.261278
0.0821878
0.134982
0.138996
0.136135
0.0303942
0.0993786
0.239467
0.0789341
0.152148
0.125642
0.0935261
0.139721
0.0725771
0.0539038
0.0768815
0.131328
0.0987723
0.134112
0.137961
0.161043
0.1413
0.0478346
0.139407
0.128109
0.134166
0.128304
0.137501
0.127066
0.135647
0.139988
0.11949
0.0697431
0.0428776
0.116018
0.0836802
0.0835582
0.131712
0.109456
0.0970643
0.151276
0.128041
0.145242
0.0976458
0.135675
0.129911
0.139497
0.105267
0.0759167
0.130873
0.137052
0.10427
0.121054
0.12834
0.112274
0.12919
0.0945979
0.140029
0.126242
0.23291
0.132295
0.138085
0.138773
0.104209
0.117127
0.138613
0.135119
0.0857612
0.133461
0.130242
0.102083
0.137754
0.126231
0.0809914
0.138623
0.133751
0.134859
0.100288
0.139771
0.0930277
0.108496
0.0597966
0.0352401
0.0608809
0.120314
0.132604
0.138279
0.139882
0.0937082
0.134961
0.221759
0.106893
0.167468
0.0377769
0.0494463
0.131665
0.0494093
0.146572
0.11881
0.131108
0.135223
0.0541557
0.0993574
0.0355012
0.19559
0.0967671
0.139228
0.10621
0.123659
0.140052
0.106113
0.113797
0.207868
0.119905
0.134849
0.0985418
0.0888164
0.137538
0.179835
0.0725559
0.187799
0.0454066
0.0652327
0.137713
0.0927766
0.132486
0.0626747
0.138297
0.0848603
0.138913
0.139037
0.133961
0.137498
0.114721
0.0627662
0.0714374
0.135044
0.11821
0.14991
0.0990515
0.184612
0.136784
0.123763
0.135436
0.136053
0.154365
0.133244
0.138287
0.113036
0.0306544
0.206801
0.123666
0.128332
0.19273
0.148671
0.1495
0.177541
0.137083
0.109709
0.0930378
0.139179
0.207902
0.0620656
0.13971
0.0360668
0.13439
0.0820989
0.131479
0.0725806
0.108172
0.0444723
0.069321
0.0432236
0.121249
0.13596
0.100822
0.0594284
0.138041
0.138533
0.136409
0.05502
0.0763252
0.126479
0.11783
0.140095
0.140099
0.227536
0.0648609
0.109129
0.136424
0.102178
0.172262
0.0650989
0.0989238
0.126821
0.0460333
0.129996
0.103542
0.200368
0.140218
0.110454
0.138572
0.126384
0.116566
0.10407
0.142756
0.108845
0.0969195
0.210586
0.142664
0.139955
0.103741
0.0451886
0.0564528
0.124689
0.10574
0.139689
0.0925838
0.130435
0.129283
0.125822
0.138352
0.137786
0.138322
0.11908
0.0575418
0.132945
0.133138
0.102429
0.125029
0.135548
0.0631802
0.075264
0.128542
0.121746
0.118922
0.138124
0.136786
0.221673
0.139858
0.137717
0.116384
0.139872
0.13706
0.121457
0.158909
0.0546391
0.136429
0.130495
0.137774
0.0475916
0.0629166
0.0651347
0.157098
0.146565
0.136436
0.0820452
0.139104
0.071427
0.12057
0.132672
0.04588
0.133338
0.199557
0.101513
0.148995
0.0296217