/*--------------------------------*- C++ -*----------------------------------*\
| =========                 |                                                 |
| \\      /  F ield         | OpenFOAM: The Open Source CFD Toolbox           |
|  \\    /   O peration     | Version:  2.3.0                                 |
|   \\  /    A nd           | Web:      www.OpenFOAM.org                      |
|    \\/     M anipulation  |                                                 |
\*---------------------------------------------------------------------------*/
FoamFile
{
    version     2.0;
    format      ascii;
    class       surfaceScalarField;
    location    "7000";
    object      phi;
}
// * * * * * * * * * * * * * * * * * * * * * * * * * * * * * * * * * * * * * //

dimensions      [0 3 -1 0 0 0 0];

internalField   nonuniform List<scalar> 
13119
(
-0.0268005
-0.0188028
0.0214058
0.0241981
-0.0285887
-0.015127
0.0169153
-0.0296316
-0.0121253
0.0131682
-0.0300109
-0.00964815
0.0100274
-0.0298495
-0.00761156
0.00745023
-0.029302
-0.00594027
0.00539278
-0.0285051
-0.00458672
0.00378982
-0.027585
-0.00349318
0.00257311
-0.0266233
-0.00262232
0.00166061
-0.0256976
-0.00194237
0.00101679
-0.0248829
-0.00142073
0.000605945
-0.00102057
-0.0243853
0.000523051
-0.0231345
-0.0168123
0.021144
-0.0245031
-0.0137584
-0.0253563
-0.0112721
-0.0257613
-0.00924312
-0.0257825
-0.00759038
-0.0254698
-0.0062529
-0.0248843
-0.00517227
-0.0240727
-0.00430468
-0.023081
-0.00361398
-0.021955
-0.00306838
-0.0207383
-0.00263743
-0.00229845
-0.0194603
-0.0200989
-0.0152345
0.0185212
-0.021099
-0.0127584
-0.0216374
-0.0107337
-0.0218044
-0.00907614
-0.0216775
-0.00771721
-0.0213215
-0.00660895
-0.0207888
-0.00570496
-0.020127
-0.00496645
-0.0193699
-0.00437103
-0.0185493
-0.00388898
-0.0176882
-0.00349854
-0.00319181
-0.0167948
-0.0176356
-0.0139237
0.0163248
-0.018468
-0.0119259
-0.0189149
-0.0102869
-0.0190477
-0.00894338
-0.0189317
-0.00783323
-0.0186196
-0.00692101
-0.018154
-0.00617058
-0.0175686
-0.00555185
-0.0168979
-0.00504174
-0.0161611
-0.00462571
-0.0153764
-0.00428329
-0.00400447
-0.0145637
-0.0155226
-0.0127892
0.0143881
-0.0162366
-0.0112119
-0.0166123
-0.00991123
-0.0167246
-0.00883107
-0.0166201
-0.00793773
-0.0163481
-0.00719298
-0.0159452
-0.00657349
-0.0154392
-0.00605782
-0.0148539
-0.0056271
-0.0142128
-0.00526679
-0.0135255
-0.00497059
-0.00472393
-0.012806
-0.0137387
-0.0117943
0.0127438
-0.0143706
-0.01058
-0.0147118
-0.00957003
-0.0148159
-0.008727
-0.0147312
-0.00802238
-0.014498
-0.00742618
-0.0141471
-0.00692437
-0.0137015
-0.00650343
-0.0131821
-0.00614654
-0.0126058
-0.00584304
-0.0119878
-0.00558865
-0.00537546
-0.0113363
-0.0122091
-0.0108964
0.0113112
-0.0127791
-0.01001
-0.013088
-0.00926112
-0.0131883
-0.00862671
-0.0131224
-0.00808828
-0.01292
-0.00762862
-0.0126092
-0.00723514
-0.0122155
-0.00689712
-0.011754
-0.00660809
-0.0112372
-0.00635979
-0.0106773
-0.00614864
-0.00596656
-0.0100862
-0.0108948
-0.0100968
0.0100952
-0.0114067
-0.00949809
-0.011691
-0.00897675
-0.0117876
-0.0085302
-0.0117339
-0.00814191
-0.0115587
-0.00780384
-0.0112854
-0.00750848
-0.0109341
-0.00724839
-0.0105183
-0.00702392
-0.0100528
-0.00682523
-0.00954749
-0.00665399
-0.00650558
-0.00900846
-0.00974123
-0.00937491
0.00901937
-0.0102129
-0.00902637
-0.0104731
-0.00871657
-0.0105682
-0.00843515
-0.0105258
-0.00818433
-0.0103707
-0.00795892
-0.0101267
-0.00775247
-0.00981029
-0.00756478
-0.00943635
-0.00739786
-0.00901614
-0.00724545
-0.00855654
-0.00711359
-0.00699369
-0.00806844
-0.00873348
0.0080754
-0.00871683
-0.00916037
-0.00859949
-0.00940486
-0.00847208
-0.00949469
-0.00834533
-0.00946185
-0.00821717
-0.0093239
-0.00809687
-0.00910635
-0.00797002
-0.00882192
-0.00784922
-0.00848521
-0.00773457
-0.00810188
-0.00762878
-0.0076859
-0.00752957
-0.00724059
-0.00743901
-0.0220907
-0.00087286
-0.00142189
-0.020157
-0.0010007
-0.000933047
-0.01835
-0.00121876
-0.000588321
-0.016619
-0.00152191
-0.000209177
-0.0149681
-0.00192948
0.000278476
-0.0134274
-0.0024678
0.000927108
-0.0120488
-0.00316982
0.00179117
-0.010896
-0.00407775
0.00292492
-0.0100413
-0.00524137
0.00438664
-0.00955656
-0.00672352
0.00623875
-0.00951043
-0.00860304
0.00855691
-0.0109689
0.0114558
-0.0099973
-0.0181364
-0.00219684
-0.0168294
-0.0023076
-0.0155698
-0.00247845
-0.0143664
-0.00272525
-0.0132361
-0.00305982
-0.0121975
-0.00350647
-0.0112751
-0.0040922
-0.0105036
-0.00484925
-0.00992383
-0.00582119
-0.0095885
-0.00705886
-0.00956875
-0.00862281
-0.0105779
-0.00995979
-0.0158861
-0.0031056
-0.0149659
-0.00322779
-0.0140446
-0.00339975
-0.0131373
-0.0036325
-0.0122591
-0.00393804
-0.0114316
-0.00433397
-0.010681
-0.00484276
-0.0100434
-0.00548692
-0.00956302
-0.00630157
-0.00929463
-0.00732725
-0.00930314
-0.0086143
-0.0102158
-0.00966517
-0.0137452
-0.00392416
-0.0129476
-0.0040253
-0.0121764
-0.00417101
-0.0114403
-0.00436856
-0.0107503
-0.00462804
-0.0101199
-0.00496436
-0.00956965
-0.00539302
-0.00912419
-0.00593238
-0.00881533
-0.00661044
-0.00868697
-0.00745562
-0.00879474
-0.00850654
-0.00980857
-0.00920202
-0.0120863
-0.00464392
-0.0113925
-0.00471908
-0.0107301
-0.00483341
-0.0101082
-0.00499048
-0.00953383
-0.0052024
-0.00902196
-0.00547623
-0.00858993
-0.00582506
-0.00825748
-0.00626484
-0.00805419
-0.00681374
-0.00801524
-0.00749457
-0.00818556
-0.00833622
-0.00936589
-0.00862824
-0.0106842
-0.00529598
-0.0100639
-0.00533933
-0.00947949
-0.00541787
-0.00893664
-0.00553332
-0.00844708
-0.00569195
-0.00802212
-0.00590119
-0.00767578
-0.0061714
-0.00742756
-0.00651306
-0.00730225
-0.00693905
-0.00732882
-0.00746799
-0.00754565
-0.00811939
-0.0089148
-0.00799674
-0.00949759
-0.00588455
-0.00893881
-0.00589811
-0.00841598
-0.0059407
-0.00793811
-0.00601119
-0.0075129
-0.00611717
-0.00714994
-0.00626414
-0.0068655
-0.00645584
-0.00667615
-0.0067024
-0.00660272
-0.00701249
-0.00667237
-0.00739834
-0.00691913
-0.00787263
-0.00844892
-0.00738501
-0.00847186
-0.00642115
-0.00796637
-0.0064036
-0.00749889
-0.00640818
-0.00707295
-0.00643713
-0.00669753
-0.00649259
-0.0063843
-0.00657736
-0.00614703
-0.00669312
-0.00599926
-0.00685018
-0.00596254
-0.0070492
-0.00605959
-0.00730129
-0.00632017
-0.00761205
-0.00798677
-0.00678232
-0.00758084
-0.00690875
-0.00712287
-0.00686157
-0.00670092
-0.00683013
-0.00632026
-0.00681779
-0.00598638
-0.00682647
-0.00571305
-0.00685069
-0.00551104
-0.00689513
-0.00539615
-0.00696507
-0.00538536
-0.00705999
-0.00549918
-0.00718747
-0.00576454
-0.00734669
-0.00753731
-0.00621401
-0.00679852
-0.00735082
-0.00638199
-0.0072781
-0.00599863
-0.00721349
-0.00565746
-0.00715896
-0.00536165
-0.00712229
-0.00512013
-0.00709221
-0.00494756
-0.00706771
-0.00485367
-0.00705896
-0.00486293
-0.00705073
-0.00498468
-0.00706572
-0.00524992
-0.00708146
-0.00568184
-0.00710538
0.00466284
-0.00282067
0.00330464
-0.00514681
0.00435851
-0.00158564
0.00188998
0.00416101
-0.000653991
0.000851488
0.00400149
3.21019e-05
0.000127414
0.0038208
0.000529554
-0.000348864
0.00357005
0.000892647
-0.000641897
0.00320857
0.00116852
-0.000807032
0.00269464
0.001406
-0.000892069
0.00197851
0.00165127
-0.000935134
0.000990163
0.00195691
-0.000968563
-0.000384951
0.00239248
-0.00101737
0.00305877
-0.00236526
-0.00107847
0.00396374
-0.00234307
-0.00444134
0.00363609
-0.001258
0.00338825
-0.000406156
0.00315886
0.000261492
0.00289398
0.000794431
0.00254866
0.00123797
0.00208144
0.00163574
0.00145907
0.00202837
0.000650864
0.00245948
-0.000363695
0.00297147
-0.00157696
0.00360574
0.00436761
-0.00288579
0.0032011
-0.00186659
-0.00367758
0.00284978
-0.000906672
0.00256324
-0.000119624
0.00228923
0.000535505
0.0019845
0.00109917
0.00161156
0.00161091
0.00114118
0.00210612
0.000548144
0.00262141
-0.000183004
0.00319062
-0.00105646
0.00384492
-0.0020533
0.00460258
0.00544951
-0.0031352
0.00249918
-0.00141086
-0.0029549
0.00215253
-0.00056003
0.00186456
0.00016835
0.00159229
0.000807779
0.00129877
0.00139268
0.0009533
0.00195637
0.000531371
0.00252804
1.27019e-05
0.00314007
-0.000618047
0.00382137
-0.00136599
0.00459287
-0.00223197
0.00546856
0.00642994
-0.00321239
0.0019057
-0.000997813
-0.00231875
0.00158684
-0.000241169
0.00132194
0.000433246
0.00107376
0.00105596
0.000810735
0.00165571
0.000507125
0.00225999
0.000139088
0.00289608
-0.000310316
0.00358948
-0.000857082
0.00436814
-0.00151503
0.00525082
-0.00228875
0.00624228
0.00732606
-0.00318487
0.00142487
-0.000633303
-0.00178938
0.00114479
3.89155e-05
0.0009121
0.000665936
0.000695204
0.00127285
0.000467025
0.00188389
0.000203325
0.00252369
-0.000116779
0.00321618
-0.000511736
0.00398444
-0.00099465
0.00485105
-0.00158177
0.00583794
-0.00228305
0.00694355
0.00814433
-0.00310132
0.00104423
-0.000321243
-0.00135629
0.000805198
0.000277944
0.000606753
0.000864381
0.000420843
0.00145876
0.000224524
0.00208021
-4.69524e-06
0.0027529
-0.00028558
0.00349707
-0.000635027
0.00433388
-0.00106829
0.00528432
-0.00159616
0.00636581
-0.00223232
0.00757971
0.00889317
-0.00298116
0.000744952
-6.13547e-05
-0.00100484
0.000545999
0.000476897
0.000379956
0.00103042
0.000222041
0.00161668
5.4594e-05
0.00224765
-0.00014557
0.00295307
-0.000395404
0.0037469
-0.000708965
0.00464744
-0.00109794
0.00567329
-0.00157705
0.00684492
-0.00215771
0.00816037
0.00957662
-0.00284116
0.000509941
0.00014729
-0.000718586
0.000346888
0.00063995
0.000210374
0.00116694
7.72533e-05
0.0017498
-6.31585e-05
0.00238806
-0.000237771
0.00312768
-0.000459477
0.00396861
-0.000745641
0.00493361
-0.00109648
0.00602414
-0.00153145
0.00727989
-0.00206132
0.00869024
0.0102034
-0.00268813
0.00033504
0.000318202
-0.000505952
0.000198316
0.000776674
8.40555e-05
0.0012812
-2.61308e-05
0.00185999
-0.000138603
0.00250054
-0.000289288
0.00327837
-0.000486181
0.0041655
-0.000746072
0.0051935
-0.00106533
0.0063434
-0.00146431
0.00767887
-0.00194549
0.00917142
-0.00251327
0.0107712
-0.00332225
0.00446724
-0.00351025
-0.00464328
0.00611238
-0.00479135
-0.0059512
0.0073455
-0.00603759
-0.00707125
0.00851774
-0.00739769
-0.00795497
0.0098279
-0.00894418
-0.00855821
0.0113339
-0.0107306
-0.008846
0.0130974
-0.0128096
-0.00875516
0.0151655
-0.0152563
-0.00823035
0.0176151
-0.0181399
-0.00719517
0.0205073
-0.0215425
-0.00556741
0.0239331
-0.0255608
0.027981
-0.0303008
-0.00324765
-0.00399181
0.00557326
-0.00515078
0.00727135
-0.00632115
0.00851587
-0.00729604
0.00949263
-0.00803997
0.0105718
-0.00852388
0.0118178
-0.00871185
0.0132854
-0.00856303
0.0150167
-0.00801857
0.0170706
-0.00701335
0.0195021
-0.00546834
0.0223881
0.0258135
-0.00330087
-0.00423132
0.00666938
-0.00527103
0.00831106
-0.00628914
0.00953398
-0.00714744
0.0103509
-0.00779726
0.0112217
-0.00821535
0.0122359
-0.00836242
0.0134324
-0.00820138
0.0148556
-0.00767996
0.0165492
-0.00673581
0.018558
-0.00529286
0.0209451
0.0237725
-0.00325182
-0.00424583
0.00770282
-0.00520869
0.00927392
-0.00610821
0.0104335
-0.00686506
0.0111078
-0.00743704
0.0117936
-0.00780073
0.0125996
-0.0079229
0.0135546
-0.0077642
0.0146969
-0.00727147
0.0160565
-0.00639431
0.0176808
-0.00506206
0.0196129
0.0219064
-0.00319596
-0.00414088
0.00865882
-0.00503567
0.0101687
-0.00583488
0.0112327
-0.00651052
0.0117834
-0.00702066
0.0123038
-0.0073411
0.01292
-0.00744252
0.013656
-0.00728794
0.0145423
-0.00683387
0.0156024
-0.00602664
0.0168736
-0.00479956
0.0183858
0.0201919
-0.00308508
-0.00397746
0.00953497
-0.00479628
0.0109875
-0.00551706
0.0119535
-0.00612106
0.0123874
-0.00657592
0.0127586
-0.00686043
0.0132045
-0.00695113
0.0137467
-0.00680527
0.0143965
-0.00638697
0.0151841
-0.00564267
0.0161293
-0.00452277
0.0172659
0.0186238
-0.00295472
-0.00378402
0.0103378
-0.00453023
0.0117337
-0.00517818
0.0126014
-0.0057147
0.0129239
-0.00612257
0.0131665
-0.00637915
0.0134611
-0.00645474
0.0138223
-0.00632193
0.0142637
-0.00593821
0.0148004
-0.00526256
0.0154536
-0.00423812
0.0162414
0.0171937
-0.002808
-0.00356932
0.011066
-0.0042444
0.0124088
-0.00482631
0.0131833
-0.00531353
0.0134112
-0.00567961
0.0135326
-0.00590815
0.0136896
-0.00597633
0.0138905
-0.00584994
0.0141373
-0.00550169
0.0144521
-0.00488483
0.0148368
-0.00395543
0.015312
0.0158878
-0.00264952
-0.00335195
0.0117298
-0.00396247
0.0130193
-0.00448444
0.0137053
-0.0049197
0.0138464
-0.00525189
0.0138648
-0.00545734
0.0138951
-0.0055141
0.0139472
-0.00540207
0.0140253
-0.00508348
0.0141335
-0.00452527
0.0142785
-0.00367619
0.014463
0.0147032
-0.0024916
-0.00310942
0.012326
-0.00364579
0.0135557
-0.00412696
0.0141865
-0.00453575
0.0142552
-0.00484172
0.0141708
-0.00502806
0.0140814
-0.00507995
0.0139991
-0.00497552
0.0139208
-0.00468723
0.0138453
-0.00417969
0.013771
-0.00341031
0.0136936
0.0136232
-0.00233029
0.00192851
-0.00140536
0.00371543
-0.00118083
0.00570249
-0.000970294
0.00799725
-0.000634102
0.0106193
-4.89234e-05
0.0134444
0.00096471
0.0163039
0.00253328
0.0189635
0.00479068
0.021178
0.00781288
0.0227238
0.0116225
0.0234716
0.0161675
0.0214281
0.0234492
-0.000392147
-0.00101307
-0.000266545
-0.00130626
0.000254314
-0.00149114
0.0011997
-0.00157942
0.00264593
-0.00149516
0.00468505
-0.00107439
0.00736874
-0.000150414
0.0106351
0.00152431
0.0141973
0.0042507
0.0175928
0.00822693
0.0203079
0.0134525
0.019745
0.021991
-0.000102375
-0.000910648
-0.000216423
-0.00119214
-0.000263907
-0.00144365
-0.00018426
-0.00165901
0.000125709
-0.00180512
0.000853897
-0.00180255
0.00221785
-0.00151436
0.00443593
-0.000693767
0.00760078
0.00108585
0.0114943
0.00433341
0.0155313
0.00941548
0.0163018
0.0189745
-3.68088e-05
-0.00087378
-4.96709e-05
-0.00117922
-4.19914e-05
-0.00145131
2.84986e-06
-0.00170382
0.000120952
-0.00192322
0.000384667
-0.00206624
0.00092059
-0.00205028
0.0019419
-0.00171506
0.00377479
-0.000747039
0.00670703
0.00140118
0.0106554
0.00546711
0.0119489
0.0150083
-2.43621e-05
-0.000849409
-4.56654e-05
-0.0011579
-5.35517e-05
-0.00144342
-3.85621e-05
-0.00171879
1.94001e-05
-0.00198118
0.000156362
-0.00220318
0.000434305
-0.00232821
0.000969805
-0.00225055
0.00198068
-0.0017579
0.00382037
-0.000438517
0.00684395
0.00244353
0.00779678
0.010996
-1.27214e-05
-0.000836659
-1.68432e-05
-0.00115375
-9.64368e-06
-0.00145061
1.35264e-05
-0.00174194
6.24328e-05
-0.00203008
0.000156853
-0.00229759
0.000332009
-0.00250336
0.000654695
-0.00257323
0.00125735
-0.00236055
0.00238275
-0.00156391
0.00443296
0.000393318
0.00443903
0.00779072
-4.32184e-06
-0.000832336
-3.33497e-06
-0.00115473
6.86937e-06
-0.00146081
2.97368e-05
-0.0017648
7.25031e-05
-0.00207284
0.00014729
-0.00237236
0.0002774
-0.00263346
0.000502695
-0.00279851
0.000902254
-0.0027601
0.00163438
-0.00229603
0.00298657
-0.000958872
0.00205699
0.00536861
1.2183e-07
-0.000832445
6.06341e-06
-0.00116067
2.0072e-05
-0.00147482
4.52609e-05
-0.00178998
8.57366e-05
-0.00211331
0.000150938
-0.00243756
0.000256145
-0.00273866
0.000428578
-0.00297094
0.000718237
-0.00304975
0.001229
-0.00280678
0.00215837
-0.00188824
0.000373031
0.00384233
2.9407e-06
-0.000835389
1.0864e-05
-0.00116859
2.56244e-05
-0.00148958
4.97581e-05
-0.00181411
8.71728e-05
-0.00215072
0.000144205
-0.00249459
0.00023245
-0.00282691
0.000371222
-0.00310971
0.000595574
-0.0032741
0.000974644
-0.00318585
0.00164918
-0.00256278
-0.000846535
0.00286875
4.1894e-06
-0.000839573
1.22542e-05
-0.00117665
2.68934e-05
-0.00150421
4.9937e-05
-0.00183715
8.40763e-05
-0.00218486
0.00013441
-0.00254491
0.00020906
-0.00290155
0.000322609
-0.00322325
0.000500231
-0.00345172
0.000790097
-0.00347571
0.00129015
-0.00306283
-0.00173481
0.00217842
4.54214e-06
-0.00084412
1.27647e-05
-0.00118487
2.69397e-05
-0.00151839
4.86098e-05
-0.00185882
7.99192e-05
-0.00221617
0.000124365
-0.00258936
0.00018897
-0.00296616
0.000284788
-0.00331907
0.000430356
-0.00359729
0.000661191
-0.00370654
0.00104895
-0.00345058
-0.00242667
0.00174081
4.7991e-06
-0.000848918
1.33293e-05
-0.0011934
2.73666e-05
-0.00153243
4.82707e-05
-0.00187973
7.76025e-05
-0.0022455
0.000118539
-0.00263029
0.000176234
-0.00302385
0.000259451
-0.00340229
0.000383021
-0.00372086
0.000573967
-0.00389749
0.000888002
-0.00376462
-0.00295611
0.00141743
5.31349e-06
-0.000854238
1.44147e-05
-0.00120251
2.88158e-05
-0.00154683
4.94073e-05
-0.00190032
7.79248e-05
-0.00227402
0.000116853
-0.00266922
0.000170718
-0.00307772
0.000247015
-0.00347858
0.000358411
-0.00383225
0.000528779
-0.00406786
0.000807732
-0.00404357
-0.00346574
0.00131737
5.92066e-06
-0.000860158
1.57658e-05
-0.00121235
3.05179e-05
-0.00156158
5.12407e-05
-0.00192104
7.92404e-05
-0.00230202
0.000116791
-0.00270677
0.000167641
-0.00312857
0.000237947
-0.00354889
0.000337992
-0.00393229
0.00048628
-0.00421614
0.000721816
-0.00427911
-0.00386898
0.00112505
6.66726e-06
-0.000866829
1.73453e-05
-0.00122303
3.26081e-05
-0.00157685
5.3734e-05
-0.00194217
8.16938e-05
-0.00232998
0.000118651
-0.00274373
0.000167959
-0.00317788
0.000235074
-0.003616
0.000329146
-0.00402637
0.000465804
-0.0043528
0.000676374
-0.00448967
-0.00421933
0.00102673
7.29703e-06
-0.000874127
1.85948e-05
-0.00123433
3.44135e-05
-0.00159267
5.565e-05
-0.0019634
8.34662e-05
-0.0023578
0.000119749
-0.00278001
0.000167446
-0.00322557
0.000231288
-0.00367984
0.000318881
-0.00411396
0.000442701
-0.00447662
0.000627085
-0.00467406
-0.0045167
0.000924455
8.0742e-06
-0.000882206
1.98424e-05
-0.0012461
3.61631e-05
-0.00160899
5.7567e-05
-0.00198481
8.53096e-05
-0.00238554
0.000121066
-0.00281577
0.000167644
-0.00327215
0.000229239
-0.00374144
0.000312397
-0.00419711
0.000428016
-0.00459224
0.000596142
-0.00484218
-0.00477838
0.000857821
8.55109e-06
-0.000890757
2.08346e-05
-0.00125839
3.72958e-05
-0.00162545
5.88919e-05
-0.0020064
8.64263e-05
-0.00241308
0.000121636
-0.00285098
0.000166971
-0.00331749
0.000226449
-0.00380092
0.000305888
-0.00427655
0.000414764
-0.00470111
0.000570023
-0.00499744
-0.00501283
0.000804465
8.94827e-06
-0.00089971
2.14626e-05
-0.0012709
3.81084e-05
-0.0016421
5.95299e-05
-0.00202783
8.67244e-05
-0.00244027
0.000121222
-0.00288548
0.000165443
-0.00336171
0.000222789
-0.00385826
0.000298664
-0.00435243
0.000401479
-0.00480393
0.000546015
-0.00514198
-0.00523291
0.000766101
9.22267e-06
-0.000908933
2.18968e-05
-0.00128358
3.85478e-05
-0.00165875
5.97762e-05
-0.00204906
8.65055e-05
-0.002467
0.000120148
-0.00291912
0.000162951
-0.00340451
0.000218065
-0.00391338
0.000290171
-0.00442454
0.000386159
-0.00489992
0.000517625
-0.00527345
-0.00541892
0.000703627
9.42304e-06
-0.000918359
2.21367e-05
-0.00129629
3.87211e-05
-0.00167534
5.97165e-05
-0.00207005
8.59063e-05
-0.00249319
0.000118829
-0.00295204
0.00016043
-0.00344611
0.000213763
-0.00396671
0.000283399
-0.00449417
0.000376006
-0.00499253
0.000502564
-0.00540001
-0.00560068
0.000684329
9.47871e-06
-0.000927838
2.222e-05
-0.00130904
3.86531e-05
-0.00169177
5.92503e-05
-0.00209065
8.48361e-05
-0.00251878
0.000116747
-0.00298395
0.000156932
-0.0034863
0.000208221
-0.004018
0.000274535
-0.00456049
0.000361649
-0.00507964
0.000478438
-0.00551679
-0.00576342
0.000641175
9.53448e-06
-0.000937375
2.2179e-05
-0.00132168
3.85232e-05
-0.00170812
5.86946e-05
-0.00211082
8.37017e-05
-0.00254379
0.000114724
-0.00301498
0.000153722
-0.0035253
0.000203307
-0.00406759
0.00026726
-0.00462444
0.000351166
-0.00516355
0.000463731
-0.00562936
-0.00591958
0.000619894
9.47957e-06
-0.000946855
2.22016e-05
-0.0013344
3.81756e-05
-0.00172409
5.8003e-05
-0.00213065
8.22941e-05
-0.00256808
0.000112413
-0.00304509
0.000150024
-0.00356291
0.000197694
-0.00411526
0.00025886
-0.00468561
0.000338542
-0.00524323
0.000444807
-0.00573563
-0.00606953
0.000594757
9.47894e-06
-0.000956336
2.20825e-05
-0.00134701
3.79762e-05
-0.00173999
5.74747e-05
-0.00215015
8.12199e-05
-0.00259182
0.000110393
-0.00307427
0.000146808
-0.00359932
0.000192718
-0.00416117
0.000251173
-0.00474406
0.000326297
-0.00531835
0.000424289
-0.00583362
-0.00619991
0.000554664
9.43948e-06
-0.000965775
2.21475e-05
-0.00135972
3.79448e-05
-0.00175578
5.7063e-05
-0.00216927
8.0299e-05
-0.00261506
0.000108836
-0.00310281
0.000144399
-0.00363489
0.000189143
-0.00420591
0.000246088
-0.00480101
0.000319364
-0.00539163
0.000415074
-0.00592933
-0.00632985
0.000545012
9.61864e-06
-0.000975395
2.23601e-05
-0.00137246
3.81647e-05
-0.00177159
5.69424e-05
-0.00218805
7.96667e-05
-0.00263779
0.000107791
-0.00313093
0.000142368
-0.00366946
0.00018575
-0.00424929
0.000240707
-0.00485597
0.00031049
-0.00546141
0.000399546
-0.00601838
-0.00644687
0.000516572
9.67775e-06
-0.000985073
2.27074e-05
-0.00138549
3.84277e-05
-0.00178731
5.72743e-05
-0.00220689
8.00031e-05
-0.00266052
0.000107345
-0.00315827
0.000141429
-0.00370355
0.000184333
-0.0042922
0.000238687
-0.00491032
0.000307687
-0.00553041
0.000395436
-0.00610613
-0.00655802
0.000506587
9.93377e-06
-0.000995009
2.29797e-05
-0.00139854
3.89012e-05
-0.00180323
5.7897e-05
-0.00222589
8.00785e-05
-0.0026827
0.000107248
-0.00318544
0.000141102
-0.0037374
0.000183817
-0.00433491
0.00023772
-0.00496422
0.000307157
-0.00559985
0.000395745
-0.00619472
-0.00667111
0.000508831
1.02599e-05
-0.00100527
2.38945e-05
-0.00141217
3.9949e-05
-0.00181929
5.82678e-05
-0.00224421
8.03948e-05
-0.00270482
0.00010728
-0.00321233
0.000140618
-0.00377074
0.000182688
-0.00437698
0.000236406
-0.00501794
0.000304962
-0.00566841
0.000393636
-0.0062834
-0.00678836
0.000510878
1.04397e-05
-0.00101571
2.42061e-05
-0.00142594
4.01964e-05
-0.00183528
5.87269e-05
-0.00226274
8.06004e-05
-0.0027267
0.000107429
-0.00323916
0.000140182
-0.00380349
0.000181254
-0.00441805
0.000233856
-0.00507054
0.000301321
-0.00573587
0.000388291
-0.00637037
-0.00689868
0.000498617
1.06105e-05
-0.00102632
2.45478e-05
-0.00143988
4.06443e-05
-0.00185137
5.91114e-05
-0.00228121
8.09718e-05
-0.00274856
0.000106742
-0.00326493
0.000139089
-0.00383584
0.000179639
-0.0044586
0.000231338
-0.00512224
0.000297667
-0.0058022
0.000383573
-0.00645627
-0.00701574
0.000500633
1.07647e-05
-0.00103709
2.49662e-05
-0.00145408
4.1231e-05
-0.00186764
5.97418e-05
-0.00229972
8.08629e-05
-0.00276968
0.000106615
-0.00329068
0.0001384
-0.00386763
0.000178586
-0.00449879
0.000228701
-0.00517236
0.000292142
-0.00586564
0.000371149
-0.00653528
-0.00711033
0.000465737
1.15517e-05
-0.00104864
2.60896e-05
-0.00146862
4.22801e-05
-0.00188383
6.02625e-05
-0.0023177
8.1494e-05
-0.00279091
0.000107091
-0.00331628
0.000138816
-0.00389935
0.000178911
-0.00453889
0.000230446
-0.00522389
0.000296466
-0.00593166
0.000381277
-0.00662009
-0.00721699
0.000487935
1.16394e-05
-0.00106028
2.62198e-05
-0.0014832
4.24212e-05
-0.00190003
6.05107e-05
-0.00233579
8.14005e-05
-0.0028118
0.000106576
-0.00334145
0.000138104
-0.00393088
0.000177452
-0.00457823
0.000228541
-0.00527498
0.000295042
-0.00599817
0.000382712
-0.00670776
-0.00733816
0.000503882
1.18051e-05
-0.00107208
2.63733e-05
-0.00149777
4.23861e-05
-0.00191604
6.0025e-05
-0.00235343
8.06552e-05
-0.00283243
0.000105164
-0.00336596
0.000135342
-0.00396106
0.000173958
-0.00461685
0.000223602
-0.00532462
0.000287519
-0.00606208
0.000370014
-0.00679026
-0.00744613
0.000477985
1.17833e-05
-0.00108387
2.64364e-05
-0.00151242
4.21284e-05
-0.00193174
5.94414e-05
-0.00237074
7.88589e-05
-0.00285185
0.000102562
-0.00338966
0.000132081
-0.00399058
0.000170002
-0.00465477
0.000218142
-0.00537276
0.000280795
-0.00612474
0.00036143
-0.00687089
-0.00754654
0.000461835
1.22623e-05
-0.00109613
2.65442e-05
-0.0015267
4.16998e-05
-0.00194689
5.78756e-05
-0.00238692
7.66515e-05
-0.00287063
9.92986e-05
-0.00341231
0.000127553
-0.00401883
0.000163839
-0.00469106
0.000211201
-0.00542012
0.000272624
-0.00618616
0.00035206
-0.00695033
-0.00764838
0.000453901
1.19398e-05
-0.00110807
2.5799e-05
-0.00154056
4.02567e-05
-0.00196135
5.5693e-05
-0.00240236
7.33377e-05
-0.00288827
9.46651e-05
-0.00343364
0.000121822
-0.00404599
0.000156074
-0.00472531
0.000201393
-0.00546544
0.000260914
-0.00624568
0.00033891
-0.00702832
-0.00774896
0.000439492
1.17958e-05
-0.00111987
2.50162e-05
-0.00155378
3.86328e-05
-0.00197497
5.2826e-05
-0.00241655
6.93566e-05
-0.0029048
8.90696e-05
-0.00345335
0.000113755
-0.00407067
0.000146274
-0.00475783
0.000189022
-0.00550819
0.000245758
-0.00630242
0.00032066
-0.00710323
-0.00784889
0.000420588
1.12539e-05
-0.00113112
2.39059e-05
-0.00156644
3.62923e-05
-0.00198735
4.92037e-05
-0.00242946
6.38576e-05
-0.00291946
8.17805e-05
-0.00347127
0.000104508
-0.0040934
0.000134476
-0.0047878
0.000174428
-0.00554814
0.000227852
-0.00635584
0.000298986
-0.00717436
-0.00793875
0.000388847
1.1459e-05
-0.00114258
2.26303e-05
-0.00157761
3.39731e-05
-0.0019987
4.53449e-05
-0.00244083
5.78235e-05
-0.00293193
7.34057e-05
-0.00348686
9.37704e-05
-0.00411377
0.000121118
-0.00481515
0.000158116
-0.00558514
0.00020863
-0.00640635
0.000277872
-0.0072436
-0.00803616
0.000375284
1.04032e-05
-0.00115298
2.17021e-05
-0.00158891
3.09121e-05
-0.00200791
4.0395e-05
-0.00245032
5.05119e-05
-0.00294205
6.35628e-05
-0.00349991
8.11072e-05
-0.00413131
0.000104525
-0.00483856
0.000137158
-0.00561777
0.000182524
-0.00645172
0.000244442
-0.00730552
-0.0081151
0.00032338
9.81853e-06
-0.0011628
1.82434e-05
-0.00159733
2.60203e-05
-0.00201568
3.33102e-05
-0.00245761
4.17158e-05
-0.00295046
5.24794e-05
-0.00351067
6.62454e-05
-0.00414508
8.61485e-05
-0.00485847
0.00011467
-0.00564629
0.000155432
-0.00649248
0.000213599
-0.00736369
-0.00820336
0.000301855
9.0291e-06
-0.00117183
1.65468e-05
-0.00160485
2.22907e-05
-0.00202143
2.72248e-05
-0.00246254
3.28749e-05
-0.00295611
3.92219e-05
-0.00351702
4.98096e-05
-0.00415566
6.52041e-05
-0.00487386
8.83733e-05
-0.00566946
0.000122436
-0.00652654
0.000171448
-0.0074127
-0.00826876
0.000236853
8.33403e-06
-0.00118017
1.38703e-05
-0.00161039
1.74503e-05
-0.00202501
2.01332e-05
-0.00246522
2.22845e-05
-0.00295826
2.59369e-05
-0.00352067
3.17004e-05
-0.00416143
4.33313e-05
-0.00488549
6.16566e-05
-0.00568779
9.05709e-05
-0.00655546
0.000133543
-0.00745567
-0.00832438
0.000189162
7.10139e-06
-0.00118727
1.16203e-05
-0.00161491
1.25962e-05
-0.00202598
1.10254e-05
-0.00246365
1.08295e-05
-0.00295806
1.05704e-05
-0.00352041
1.24058e-05
-0.00416326
1.80141e-05
-0.0048911
3.04243e-05
-0.0057002
5.29413e-05
-0.00657798
9.09883e-05
-0.00749372
-0.00839609
0.000162702
6.05369e-06
-0.00119332
6.70909e-06
-0.00161556
5.14178e-06
-0.00202442
2.40155e-06
-0.00246091
-2.81149e-06
-0.00295285
-6.18639e-06
-0.00351704
-9.24104e-06
-0.00416021
-9.47397e-06
-0.00489087
-4.24065e-06
-0.00570543
9.60857e-06
-0.00659182
3.49909e-05
-0.0075191
-0.00842749
6.63915e-05
4.46394e-06
-0.00119779
3.45713e-06
-0.00161456
-8.66889e-07
-0.00202009
-7.59425e-06
-0.00245419
-1.55721e-05
-0.00294487
-2.54076e-05
-0.0035072
-3.27846e-05
-0.00415283
-3.84334e-05
-0.00488522
-3.94796e-05
-0.00570439
-3.1229e-05
-0.00660007
-9.78183e-06
-0.00754055
-0.00846849
3.12197e-05
1.80158e-06
-0.00119959
-1.00819e-06
-0.00161175
-8.29962e-06
-0.0020128
-1.83565e-05
-0.00244413
-3.11512e-05
-0.00293208
-4.49819e-05
-0.00349337
-5.97099e-05
-0.0041381
-7.19387e-05
-0.00487299
-8.00313e-05
-0.00569629
-8.1058e-05
-0.00659905
-6.92828e-05
-0.00755232
-0.00850744
-3.03399e-05
3.51824e-07
-0.00119994
-5.94173e-06
-0.00160545
-1.5884e-05
-0.00200286
-3.12467e-05
-0.00242877
-4.84504e-05
-0.00291487
-6.69953e-05
-0.00347483
-8.73475e-05
-0.00411775
-0.000107259
-0.00485308
-0.00012423
-0.00567932
-0.000135812
-0.00658747
-0.000137492
-0.00755064
-0.00851185
-0.000133081
-2.67762e-06
-0.00119726
-1.12639e-05
-0.00159687
-2.6203e-05
-0.00198792
-4.3985e-05
-0.00241098
-6.612e-05
-0.00289274
-9.16705e-05
-0.00344928
-0.00011802
-0.0040914
-0.000145907
-0.00482519
-0.000171743
-0.00565349
-0.000192082
-0.00656713
-0.000201213
-0.00754151
-0.0085274
-0.000185666
-5.24768e-06
-0.00119201
-1.71479e-05
-0.00158497
-3.53349e-05
-0.00196973
-5.85558e-05
-0.00238776
-8.59388e-05
-0.00286536
-0.000117743
-0.00341747
-0.00015244
-0.00405671
-0.000189753
-0.00478788
-0.000226199
-0.00561704
-0.000259225
-0.0065341
-0.000283351
-0.00751739
-0.00852108
-0.000289668
-8.59006e-06
-0.00118342
-2.3355e-05
-0.0015702
-4.58151e-05
-0.00194727
-7.38169e-05
-0.00235976
-0.000107636
-0.00283154
-0.000146097
-0.00337901
-0.000189584
-0.00401322
-0.00023459
-0.00474287
-0.000282052
-0.00556958
-0.000327389
-0.00648876
-0.000366234
-0.00747854
-0.00848795
-0.00039936
-1.00811e-05
-0.00117334
-3.03095e-05
-0.00154997
-5.68399e-05
-0.00192074
-9.16407e-05
-0.00232496
-0.000131679
-0.0027915
-0.000176972
-0.00333372
-0.000228491
-0.0039617
-0.000284522
-0.00468684
-0.000342867
-0.00551123
-0.000400507
-0.00643112
-0.000451287
-0.00742776
-0.00845944
-0.000479803
-1.42333e-05
-0.00115911
-3.79094e-05
-0.0015263
-7.08235e-05
-0.00188783
-0.000109797
-0.00228599
-0.000156759
-0.00274454
-0.000211652
-0.00327882
-0.000271854
-0.0039015
-0.000339418
-0.00461928
-0.00041196
-0.00543869
-0.000485261
-0.00635782
-0.000554782
-0.00735824
-0.00840045
-0.000613765
-1.77669e-05
-0.00114134
-4.60413e-05
-0.00149802
-8.36984e-05
-0.00185017
-0.000129804
-0.00223988
-0.00018406
-0.00269028
-0.000247065
-0.00321582
-0.000318741
-0.00382982
-0.000398675
-0.00453934
-0.000483535
-0.00535383
-0.000572383
-0.00626897
-0.000659448
-0.00727118
-0.00832313
-0.000736771
-2.20187e-05
-0.00111932
-5.47478e-05
-0.00146529
-9.83813e-05
-0.00180654
-0.00015192
-0.00218634
-0.000214163
-0.00262804
-0.000286737
-0.00314325
-0.000370008
-0.00374655
-0.000461271
-0.00444808
-0.000561771
-0.00525333
-0.000667221
-0.00616352
-0.000772395
-0.007166
-0.0082263
-0.000869223
-2.58047e-05
-0.00109352
-6.51894e-05
-0.00142591
-0.000115151
-0.00175658
-0.000175252
-0.00212624
-0.000247369
-0.00255592
-0.000329564
-0.00306105
-0.000424151
-0.00365197
-0.000530208
-0.00434202
-0.000646166
-0.00513738
-0.00076932
-0.00604037
-0.000893967
-0.00704136
-0.00810938
-0.00101089
-3.08094e-05
-0.00106271
-7.54138e-05
-0.00138131
-0.000132282
-0.00169971
-0.000200947
-0.00205758
-0.000281728
-0.00247514
-0.000376462
-0.00296632
-0.000483494
-0.00354493
-0.000605508
-0.00422001
-0.000738898
-0.00500398
-0.000881281
-0.00589799
-0.00102649
-0.00689614
-0.0079717
-0.00116417
-3.64287e-05
-0.00102629
-8.68582e-05
-0.00133088
-0.000151263
-0.0016353
-0.00022879
-0.00198005
-0.000320216
-0.00238371
-0.000426506
-0.00286003
-0.000549076
-0.00342237
-0.000686095
-0.00408299