/*--------------------------------*- C++ -*----------------------------------*\
| =========                 |                                                 |
| \\      /  F ield         | OpenFOAM: The Open Source CFD Toolbox           |
|  \\    /   O peration     | Version:  2.3.0                                 |
|   \\  /    A nd           | Web:      www.OpenFOAM.org                      |
|    \\/     M anipulation  |                                                 |
\*---------------------------------------------------------------------------*/
FoamFile
{
    version     2.0;
    format      ascii;
    class       volScalarField;
    location    "3000";
    object      nut;
}
// * * * * * * * * * * * * * * * * * * * * * * * * * * * * * * * * * * * * * //

dimensions      [0 2 -1 0 0 0 0];

internalField   nonuniform List<scalar> 
38075
(
0.0502732
0.048552
0.0468591
0.0451902
0.0435454
0.0419254
0.0403312
0.0387651
0.0372285
0.0357233
0.0342522
0.0328196
0.0314282
0.0300821
0.0287828
0.02753
0.0263146
0.0251245
0.0239553
0.0228089
0.02169
0.0206009
0.0195448
0.0185222
0.0175343
0.0165793
0.015656
0.0147624
0.0138961
0.013054
0.0122346
0.011438
0.010663
0.0099097
0.00917781
0.00846529
0.00777099
0.00709352
0.00643824
0.00581033
0.00522469
0.00471604
0.0044399
0.0522008
0.0506945
0.0492067
0.0477365
0.0462846
0.0448512
0.0434373
0.0420437
0.0406708
0.0393193
0.0379908
0.0366855
0.0354039
0.034148
0.0329169
0.031712
0.0305316
0.029375
0.0282409
0.0271298
0.0260428
0.0249804
0.0239454
0.0229398
0.0219632
0.0210192
0.0201089
0.0192341
0.018395
0.0175896
0.0168144
0.0160678
0.015355
0.0146861
0.0140747
0.0135364
0.0130828
0.0127219
0.0124573
0.0123022
0.0122684
0.0123675
0.0126102
0.0539543
0.0526274
0.0513131
0.0500112
0.0487231
0.0474486
0.0461892
0.0449445
0.0437154
0.0425025
0.0413057
0.0401259
0.0389636
0.0378191
0.0366929
0.0355854
0.0344964
0.0334269
0.0323774
0.0313475
0.030338
0.0293501
0.0283855
0.0274454
0.0265301
0.0256415
0.0247835
0.0239556
0.0231617
0.0224035
0.0216841
0.021008
0.0203793
0.0198049
0.0192907
0.0188464
0.0184794
0.0181989
0.0180125
0.0179285
0.0179534
0.0180943
0.0183504
0.0555425
0.0543696
0.0532028
0.0520444
0.0508954
0.0497567
0.0486284
0.0475109
0.0464047
0.0453101
0.0442273
0.0431561
0.0420978
0.0410532
0.0400221
0.0390052
0.0380026
0.0370148
0.0360427
0.0350879
0.0341501
0.0332307
0.0323314
0.0314529
0.0305968
0.0297654
0.0289598
0.0281835
0.0274382
0.0267283
0.026056
0.0254268
0.0248452
0.0243174
0.0238495
0.0234492
0.0231225
0.0228783
0.022723
0.0226629
0.022705
0.0228503
0.0231008
0.0569843
0.0559396
0.054898
0.0538618
0.0528317
0.0518084
0.050792
0.0497826
0.0487808
0.0477867
0.0468003
0.0458219
0.0448524
0.0438923
0.0429427
0.0420032
0.0410745
0.0401565
0.039251
0.0383591
0.0374817
0.0366197
0.0357747
0.0349479
0.0341413
0.0333565
0.0325961
0.0318623
0.0311573
0.030485
0.0298503
0.0292566
0.0287087
0.0282127
0.0277747
0.0274009
0.0270996
0.0268756
0.0267371
0.0266891
0.0267369
0.0268826
0.027127
0.0582886
0.0573529
0.0564182
0.0554863
0.0545578
0.0536331
0.052712
0.0517952
0.0508822
0.0499733
0.0490691
0.0481694
0.0472744
0.0463854
0.0455043
0.0446303
0.0437642
0.0429057
0.0420562
0.041217
0.040389
0.0395744
0.0387747
0.0379907
0.0372248
0.0364787
0.0357546
0.0350552
0.0343835
0.0337427
0.0331372
0.032571
0.0320481
0.031575
0.0311581
0.0308039
0.0305187
0.0303086
0.0301794
0.0301373
0.0301862
0.0303296
0.0305671
0.0594692
0.0586252
0.0577809
0.0569386
0.0560974
0.0552572
0.0544175
0.0535789
0.0527423
0.051906
0.0510721
0.0502405
0.0494088
0.0485792
0.0477542
0.046936
0.0461231
0.0453159
0.0445137
0.0437188
0.0429322
0.0421569
0.041394
0.0406452
0.0399123
0.039198
0.0385041
0.0378332
0.0371881
0.0365727
0.035992
0.035448
0.0349448
0.0344887
0.0340879
0.0337481
0.0334749
0.0332738
0.0331513
0.033112
0.0331609
0.0332997
0.033531
0.0605286
0.0597697
0.0590026
0.0582373
0.0574706
0.0567042
0.055934
0.055161
0.0543916
0.053617
0.0528403
0.0520701
0.0512955
0.0505142
0.0497361
0.0489621
0.0481951
0.0474323
0.0466721
0.0459143
0.045163
0.0444194
0.0436878
0.0429681
0.0422619
0.041572
0.0409046
0.0402586
0.0396345
0.0390382
0.038478
0.0379561
0.0374712
0.0370249
0.0366378
0.036307
0.0360432
0.0358501
0.0357327
0.0356961
0.0357428
0.0358765
0.0361015
0.0614859
0.0608062
0.0600996
0.0594015
0.0586927
0.0579889
0.0572818
0.0565591
0.0558521
0.0551352
0.0543956
0.0536794
0.0529624
0.0522231
0.0514862
0.0507425
0.0500093
0.0492856
0.0485641
0.0478392
0.0471208
0.0464008
0.0456951
0.0450014
0.0443204
0.0436446
0.0429985
0.0423757
0.0417758
0.0411887
0.0406446
0.0401418
0.0396922
0.0392375
0.0388683
0.0385385
0.0382861
0.0380995
0.0379853
0.0379537
0.0379999
0.0381254
0.0383442
0.00524513
0.00676971
0.00781797
0.00888498
0.0100218
0.0112222
0.0124734
0.0137625
0.0150809
0.0164221
0.0177823
0.019159
0.0205496
0.0219535
0.0233696
0.0247975
0.0262362
0.0276851
0.0291444
0.0306134
0.0320923
0.0335805
0.0350781
0.0365849
0.0381004
0.0396245
0.0411571
0.0426978
0.0442466
0.0458027
0.047366
0.0489361
0.0505126
0.0520948
0.053682
0.055274
0.0568698
0.0584689
0.0600705
0.061674
0.0632787
0.0648841
0.0664885
0.0130118
0.0135712
0.0142638
0.0150793
0.0160013
0.017013
0.0180984
0.0192441
0.020438
0.0216702
0.0229328
0.0242195
0.0255256
0.0268477
0.0281825
0.029528
0.0308825
0.0322443
0.033613
0.0349877
0.0363676
0.0377524
0.0391419
0.0405357
0.0419336
0.0433354
0.0447407
0.0461497
0.0475621
0.0489778
0.0503965
0.051818
0.0532425
0.0546695
0.0560984
0.057529
0.0589613
0.0603947
0.0618289
0.0632636
0.0646988
0.0661349
0.0675698
0.018721
0.0192093
0.0198149
0.020531
0.0213455
0.0222463
0.0232216
0.0242599
0.0253503
0.0264829
0.0276501
0.028845
0.0300621
0.0312968
0.0325448
0.0338034
0.0350702
0.0363436
0.0376221
0.0389045
0.0401895
0.0414767
0.0427656
0.0440557
0.0453465
0.0466381
0.0479302
0.0492224
0.0505146
0.0518071
0.0530996
0.0543918
0.055684
0.056976
0.0582677
0.0595587
0.0608491
0.0621388
0.0634276
0.0647151
0.0660013
0.067286
0.0685646
0.0234554
0.0239134
0.0244768
0.0251393
0.0258925
0.0267267
0.0276321
0.0285983
0.0296157
0.0306753
0.0317702
0.032893
0.0340377
0.0351996
0.036375
0.03756
0.0387522
0.0399494
0.0411499
0.0423522
0.043555
0.044758
0.0459602
0.0471606
0.0483593
0.0495561
0.0507506
0.0519423
0.0531313
0.0543179
0.055502
0.0566834
0.0578624
0.0590385
0.060212
0.0613829
0.0625509
0.0637162
0.0648789
0.0660385
0.0671952
0.0683482
0.0694945
0.0274682
0.0279078
0.0284446
0.0290724
0.0297858
0.0305748
0.0314311
0.0323453
0.0333087
0.0343131
0.0353514
0.0364168
0.037503
0.0386057
0.0397209
0.0408447
0.041974
0.0431066
0.0442407
0.045375
0.0465082
0.0476393
0.0487674
0.0498919
0.0510123
0.0521282
0.0532393
0.0543454
0.0554465
0.0565428
0.0576344
0.0587211
0.0598032
0.0608804
0.0619526
0.06302
0.0640825
0.0651406
0.0661941
0.0672431
0.0682876
0.0693281
0.0703658
0.0308991
0.0313251
0.0318427
0.032447
0.0331315
0.0338877
0.0347071
0.0355822
0.0365045
0.0374656
0.0384593
0.039479
0.0405186
0.0415731
0.0426385
0.043711
0.0447876
0.0458663
0.0469449
0.0480222
0.0490965
0.0501668
0.0512325
0.0522928
0.0533467
0.0543938
0.0554342
0.0564676
0.0574939
0.0585134
0.0595261
0.0605321
0.0615317
0.0625243
0.0635095
0.0644876
0.0654592
0.0664248
0.0673843
0.0683372
0.069284
0.0702257
0.0711677
0.0338551
0.0342702
0.0347742
0.0353611
0.0360235
0.0367541
0.0375449
0.0383892
0.0392789
0.0402052
0.0411629
0.0421461
0.0431481
0.044163
0.0451868
0.0462161
0.0472487
0.048282
0.0493136
0.0503425
0.0513674
0.0523867
0.0533997
0.0544053
0.0554026
0.0563911
0.0573711
0.0583427
0.0593053
0.0602589
0.0612044
0.0621423
0.0630721
0.0639919
0.0649013
0.0658021
0.0666957
0.0675821
0.0684602
0.0693292
0.0701903
0.0710441
0.0718936
0.0364179
0.0368245
0.037318
0.037892
0.0385381
0.0392467
0.0400138
0.0408335
0.0416976
0.042594
0.0435221
0.0444766
0.0454486
0.0464298
0.0474173
0.0484102
0.0494066
0.0504007
0.0513916
0.0523802
0.0533634
0.0543399
0.0553079
0.0562674
0.0572157
0.0581537
0.0590822
0.0600016
0.0609094
0.0618059
0.0626942
0.0635753
0.0644468
0.0653022
0.0661447
0.0669787
0.0678059
0.068625
0.069433
0.0702269
0.0710138
0.0717911
0.0725651
0.0386525
0.039052
0.0395384
0.0401053
0.0407411
0.0414244
0.0421718
0.0429705
0.0438128
0.0446763
0.0455858
0.0465215
0.0474674
0.0484141
0.049369
0.0503315
0.0513009
0.0522562
0.053212
0.0541704
0.0551169
0.0560591
0.0569871
0.0579083
0.0588119
0.0597065
0.0605915
0.0614677
0.062326
0.0631734
0.064017
0.064852
0.0656743
0.0664674
0.0672515
0.0680308
0.0688049
0.0695674
0.0703144
0.0710364
0.0717636
0.0724697
0.0731861
0.0856257
0.0817957
0.0780581
0.0744131
0.0708621
0.0674069
0.0640485
0.0607872
0.057623
0.0545565
0.0515868
0.0487133
0.0459356
0.0432523
0.0406626
0.0381646
0.0357579
0.0334404
0.0312104
0.0290662
0.0270061
0.0250288
0.0231326
0.0213159
0.019577
0.0179151
0.0163282
0.0148147
0.0133749
0.012006
0.010709
0.00948123
0.00832406
0.00723725
0.0062205
0.00527468
0.00440179
0.00360405
0.00288378
0.0022505
0.00176088
0.00128247
0.000743421
0.087485
0.0839483
0.0804874
0.0771
0.0737874
0.0705502
0.06739
0.0643066
0.0613003
0.058371
0.0555181
0.0527428
0.0500439
0.0474208
0.0448725
0.0423997
0.0400004
0.0376742
0.0354202
0.033237
0.0311238
0.0290806
0.0271062
0.0252002
0.0233613
0.0215885
0.0198824
0.0182433
0.0166692
0.0151624
0.0137219
0.0123494
0.0110454
0.00981168
0.00865015
0.00756455
0.00655884
0.00564461
0.00486296
0.00409318
0.00330463
0.00244883
0.00143765
0.0893181
0.0860516
0.0828462
0.0796983
0.0766087
0.0735783
0.0706076
0.0676961
0.0648441
0.0620521
0.0593198
0.056648
0.0540363
0.0514838
0.0489908
0.0465571
0.0441824
0.0418667
0.0396094
0.0374094
0.0352676
0.033183
0.0311561
0.0291864
0.0272729
0.0254177
0.0236208
0.021882
0.0202036
0.0185853
0.0170304
0.015539
0.0141165
0.0127656
0.011492
0.0103057
0.00923652
0.00819934
0.00715318
0.00606805
0.00490435
0.00359803
0.00209592
0.0911075
0.0880931
0.0851232
0.0821966
0.0793139
0.0764757
0.0736815
0.0709309
0.0682255
0.0655642
0.0629482
0.0603775
0.0578525
0.0553731
0.0529387
0.0505504
0.0482083
0.0459119
0.0436616
0.0414581
0.0393013
0.0371912
0.0351283
0.033113
0.0311461
0.0292286
0.0273614
0.025547
0.0237865
0.022083
0.0204383
0.0188586
0.0173475
0.0159154
0.0145804
0.0133005
0.0120293
0.0107365
0.00939389
0.00797061
0.0064232
0.00468031
0.00272205
0.0928528
0.090064
0.0873095
0.0845862
0.0818938
0.0792322
0.0766009
0.0740008
0.0714319
0.0688938
0.0663871
0.0639127
0.0614717
0.0590633
0.056688
0.0543476
0.0520412
0.0497694
0.0475328
0.0453335
0.0431711
0.0410461
0.0389597
0.0369128
0.0349069
0.0329426
0.0310235
0.0291514
0.0273289
0.0255599
0.0238505
0.0222069
0.0206405
0.0191378
0.0176613
0.0161829
0.0146776
0.013121
0.0114851
0.00973688
0.00782752
0.00568533
0.00331259
0.0945268
0.0919522
0.0893966
0.0868592
0.0843405
0.0818411
0.079361
0.0769001
0.074457
0.0720331
0.0696286
0.0672446
0.0648825
0.0625424
0.0602253
0.057931
0.0556611
0.0534162
0.0511975
0.0490068
0.0468452
0.0447132
0.0426125
0.0405447
0.038511
0.0365133
0.0345561
0.032641
0.0307727
0.0289577
0.0272024
0.0255038
0.0238415
0.0221943
0.0205398
0.018857
0.0171237
0.0153157
0.0134039
0.0113522
0.00911004
0.00660736
0.00386123
0.0961414
0.0937568
0.0913801
0.0890108
0.0866506
0.0843004
0.0819594
0.0796253
0.0772988
0.0749807
0.0726696
0.0703683
0.0680797
0.0658045
0.0635423
0.0612935
0.0590603
0.056843
0.0546435
0.0524639
0.0503061
0.0481727
0.0460646
0.0439841
0.0419322
0.0399117
0.0379258
0.0359804
0.0340788
0.032221
0.0303991
0.0285995
0.0268075
0.0250059
0.0231779
0.0213026
0.0193583
0.0173186
0.0151505
0.0128173
0.0102711
0.00744307
0.0043629
0.0976913
0.0954731
0.093256
0.0910397
0.0888233
0.0866084
0.0843944
0.0821779
0.0799578
0.0777405
0.075513
0.0732852
0.0710631
0.0688495
0.0666404
0.064434
0.0622363
0.0600476
0.0578679
0.0556995
0.0535476
0.0514144
0.0493028
0.0472165
0.0451558
0.0431188
0.0411097
0.0391327
0.0371851
0.0352591
0.0333461
0.0314348
0.0295102
0.0275614
0.0255726
0.0235227
0.0213879
0.0191389
0.0167372
0.0141421
0.0113122
0.00818734
0.00481717
0.0991666
0.0970938
0.09502
0.0929447
0.0908567
0.0887637
0.0866675
0.0845652
0.0824315
0.0803201
0.0781683
0.0760021
0.0738346
0.0716806
0.0695265
0.0673542
0.0651907
0.063032
0.0608732
0.0587163
0.0565676
0.0544376
0.0523209
0.0502315
0.0481669
0.0461168
0.0440698
0.0420444
0.0400363
0.0380338
0.0360253
0.0340081
0.0319558
0.0298691
0.0277346
0.025528
0.023222
0.0207906
0.0181864
0.0153442
0.0122339
0.00880037
0.00511988
0.000472314
0.00052453
0.000708422
0.000879956
0.00104717
0.00122043
0.00141243
0.00163783
0.0019062
0.00220985
0.0025437
0.00290545
0.00329386
0.00370814
0.00414859
0.00461495
0.00510815
0.00562824
0.00617602
0.00675195
0.00735674
0.00799107
0.00865564
0.00935089
0.0100775
0.0108363
0.0116281
0.0124538
0.0133144
0.0142104
0.0151429
0.0161127
0.0171208
0.0181678
0.0192549
0.0203828
0.0215521
0.0227641
0.0240194
0.0253191
0.0266641
0.0280558
0.0294988
0.000698237
0.000682887
0.000870471
0.00106082
0.00126102
0.00148386
0.00173937
0.00203347
0.00236902
0.00273606
0.00312951
0.00354776
0.00399005
0.00445583
0.00494504
0.00545792
0.00599435
0.00655472
0.00713936
0.00774852
0.00838251
0.00904158
0.00972645
0.0104375
0.0111751
0.0119398
0.0127326
0.0135537
0.014404
0.015284
0.0161945
0.0171364
0.0181102
0.0191166
0.0201562
0.02123
0.0223386
0.0234826
0.0246632
0.0258808
0.0271364
0.0284306
0.0297633
0.000948913
0.000832089
0.00103451
0.00125775
0.00150627
0.00178921
0.00210968
0.00246696
0.002863
0.00328667
0.00373416
0.00420437
0.00469621
0.00520954
0.00574387
0.00629911
0.00687534
0.00747209
0.00808972
0.00872847
0.00938843
0.0100695
0.010772
0.0114963
0.0122426
0.0130116
0.0138034
0.0146188
0.0154579
0.0163215
0.0172099
0.0181236
0.0190636
0.02003
0.0210235
0.0220445
0.0230938
0.0241721
0.0252798
0.0264175
0.0275857
0.0287843
0.0300133
0.00120021
0.000973202
0.00120131
0.00146795
0.0017711
0.0021137
0.00249311
0.00290713
0.00335702
0.00383127
0.00432742
0.00484415
0.00538074
0.00593639
0.00651101
0.00710394
0.00771509
0.00834407
0.00899081
0.00965524
0.010337
0.0110365
0.0117537
0.0124888
0.0132419
0.014013
0.0148028
0.0156114
0.0164391
0.0172862
0.0181532
0.0190402
0.0199481
0.0208768
0.021827
0.0227989
0.0237931
0.0248101
0.0258504
0.0269137
0.0280005
0.0291104
0.0302433
0.00144406
0.0011104
0.0013722
0.00168717
0.00204471
0.0024419
0.00287342
0.00333903
0.00383663
0.00435631
0.004896
0.00545477
0.00603137
0.00662532
0.00723559
0.00786206
0.00850396
0.00916112
0.00983293
0.0105195
0.0112204
0.0119354
0.0126649
0.0134086
0.0141667
0.0149389
0.0157257
0.0165272
0.0173434
0.0181746
0.0190213
0.0198834
0.0207613
0.0216552
0.0225652
0.0234919
0.0244353
0.0253959
0.0263737
0.0273689
0.028381
0.02941
0.0304553
0.00167714
0.00124566
0.00154564
0.00190944
0.00231737
0.00276302
0.00324098
0.00375429
0.00429463
0.00485518
0.00543421
0.00603061
0.00664335
0.00727129
0.00791371
0.00856972
0.00923899
0.00992091
0.0106149
0.0113205
0.0120378
0.0127664
0.013506
0.0142568
0.0150186
0.0157911
0.0165744
0.0173686
0.0181739
0.0189903
0.0198176
0.0206565
0.0215066
0.0223683
0.0232415
0.0241264
0.0250233
0.0259322
0.0268531
0.0277857
0.0287299
0.0296856
0.0306528
0.00189574
0.00138076
0.00172066
0.0021306
0.00258371
0.00307231
0.00359258
0.004148
0.00472683
0.00532462
0.00593934
0.00656974
0.00721466
0.00787294
0.00854402
0.00922661
0.00992027
0.0106242
0.0113378
0.0120606
0.0127921
0.0135321
0.0142806
0.0150369
0.0158014
0.0165736
0.0173533
0.0181404
0.0189354
0.0197379
0.0205479
0.0213651
0.0221897
0.0230214
0.0238604
0.0247068
0.0255608
0.0264225
0.0272915
0.0281676
0.0290503
0.0299402
0.030838
0.00211194
0.00151125
0.00188535
0.00233805
0.00283348
0.00336233
0.00392364
0.00451752
0.00513191
0.00576307
0.00640974
0.00707107
0.00774547
0.00843132
0.0091286
0.009836
0.010552
0.0112757
0.0120067
0.0127439
0.0134877
0.0142378
0.0149935
0.0157547
0.0165213
0.0172929
0.0180685
0.0188487
0.0196349
0.020425
0.0212183
0.0220161
0.022817
0.0236202
0.0244264
0.0252371
0.0260521
0.0268712
0.0276933
0.0285178
0.0293451
0.0301752
0.0310112
0.00221629
0.00164644
0.00208466
0.00258175
0.00310996
0.00367127
0.00426292
0.00488126
0.00551718
0.00617277
0.00685414
0.0075477
0.00824409
0.00895765
0.00968697
0.0104187
0.0111534
0.011893
0.0126374
0.0133837
0.0141356
0.0148944
0.0156552
0.0164189
0.0171883
0.0179597
0.0187262
0.0195009
0.0202851
0.021062
0.0218374
0.0226207
0.0233985
0.0241703
0.0249433
0.0257202
0.0265009
0.0272831
0.0280631
0.0288405
0.0296169
0.0303904
0.0311633
0.000157853
0.000668476
0.00145709
0.00226197
0.00305316
0.00383082
0.00459913
0.00536577
0.00613845
0.00691768
0.0077055
0.00850342
0.00931389
0.0101401
0.0109834
0.0118469
0.0127333
0.0136455
0.0145864
0.0155601
0.0165689
0.0176148
0.0186979
0.0198185
0.0209746
0.0221623
0.0233791
0.0246219
0.0258903
0.0271832
0.0285037
0.0298886
0.0313489
0.0328704
0.0344409
0.0360541
0.0377081
0.0393985
0.0411226
0.0428778
0.0446627
0.0464779
0.048332
8.70236e-05
0.000406004
0.00091777
0.00158736
0.00239298
0.00317323
0.00393907
0.00469063
0.00541954
0.00613428
0.00684299
0.0075538
0.00827234
0.00900324
0.00975028
0.0105175
0.0113084
0.012127
0.0129777
0.0138641
0.0147901
0.0157589
0.0167729
0.0178337
0.0189405
0.0200922
0.0212861
0.0225189
0.0237863
0.0250862
0.0264208
0.027803
0.0292409
0.0307283
0.0322563
0.0338427
0.0355008
0.0372148
0.0389751
0.040777
0.0426159
0.0444894
0.0463957
5.9351e-06
0.000242478
0.000582346
0.00103473
0.00161106
0.0023046
0.00311613
0.0040142
0.00487898
0.00570492
0.00649715
0.00725997
0.0079998
0.00872293
0.00943615
0.0101459
0.0108593
0.0115834
0.0123256
0.0130934
0.0138943
0.014735
0.0156216
0.0165595
0.017552
0.0186012
0.0197074
0.0208688
0.0220822
0.0233451
0.0246562
0.0260182
0.0274334
0.0289011
0.0304178
0.0319863
0.0336066
0.0352717
0.0370028
0.0388048
0.0406618
0.0425672
0.0445186
8.30637e-06
0.000214455
0.000501873
0.000873528
0.00134399
0.00191436
0.00258817
0.00337
0.00425841
0.00515907
0.00603821
0.00689032
0.00771607
0.00851686
0.00929327
0.0100471
0.010782
0.0115025
0.0122145
0.0129257
0.0136451
0.0143823
0.0151476
0.0159511
0.0168019
0.0177082
0.0186762
0.0197097
0.0208098
0.0219764
0.0232089
0.0245065
0.0258685
0.0272939
0.0287803
0.0303254
0.0319254
0.0335761
0.0352799
0.0370347
0.0388495
0.0407425
0.0426925
5.75037e-06
0.000198451
0.00044117
0.000767037
0.00117549
0.00167326
0.00226079
0.00294161
0.00372008
0.00460029
0.00553452
0.00645864
0.00735868
0.00823355
0.00908316
0.00990799
0.0107086
0.011485
0.0122389
0.012973
0.0136917
0.0144018
0.0151122
0.0158332
0.0165771
0.0173562
0.0181828
0.0190676
0.0200195
0.0210451
0.0221483
0.0233314
0.0245944
0.0259367
0.0273562
0.0288489
0.0304101
0.0320349
0.0337181
0.035456
0.0372478
0.0390971
0.0409992
5.76628e-06
0.00019012
0.000407946
0.000704749
0.00107397
0.00152312
0.00205352
0.00266825
0.00337151
0.00416799
0.00506236
0.00601484
0.00696692
0.00790083
0.00881256
0.00970166
0.0105675
0.011409
0.0122259
0.0130175
0.0137839
0.0145269
0.0152501
0.0159598
0.0166646
0.0173757
0.0181063
0.0188712
0.0196848
0.0205609
0.0215114
0.0225452
0.0236687
0.024885
0.0261946
0.0275959
0.029084
0.0306529
0.0322959
0.0340063
0.0357777
0.037603
0.0394604
5.38597e-06
0.000186969
0.000382236
0.000658652
0.00100073
0.00141489
0.00190499
0.00247261
0.00312131
0.00385545
0.00468052
0.00559948
0.00657365
0.00755114
0.0085138
0.009457
0.0103793
0.0112792
0.0121557
0.0130076
0.0138333
0.0146316
0.0154023
0.0161468
0.0168687
0.0175739
0.0182715
0.018974
0.0196962
0.0204549
0.0212672
0.0221496
0.0231164
0.0241783
0.0253431
0.0266137
0.0279892
0.0294655
0.0310359
0.0326922
0.034425
0.0362247
0.0380807
5.29999e-06
0.000183579
0.000364697
0.000625826
0.0009478
0.00133636
0.00179645
0.00232891
0.0029369
0.00362468
0.00439702
0.00525887
0.00621032
0.00720673
0.00820649
0.00919388
0.0101636
0.0111139
0.0120433
0.0129499
0.0138321
0.0146876
0.0155144
0.0163116
0.0170785
0.0178166
0.0185298
0.0192252
0.0199129
0.0206073
0.0213256
0.0220872
0.0229119
0.0238183
0.0248225
0.025936
0.0271657
0.0285129
0.0299741
0.0315425
0.0332088
0.0349633
0.0368006
5.2141e-06
0.000181756
0.000352056
0.000600405
0.000906985
0.00127608
0.00171272
0.00221811
0.00279471
0.00344645
0.00417776
0.00499308
0.00589795
0.00688409
0.00790397
0.00892517
0.00993474
0.0109284
0.0119037
0.0128587
0.0137915
0.0146999
0.0155813
0.0164335
0.0172539
0.0180412
0.0187956
0.0195192
0.0202169
0.0208975
0.0215738
0.0222626
0.0229844
0.0237614
0.0246159
0.0255684
0.0266349
0.0278258
0.0291452
0.0305914
0.0321586
0.0338379
0.0356233
5.2251e-06
0.000181045
0.000344269
0.000580698
0.000874894
0.00122866
0.00164651
0.00213044
0.0026821
0.00330531
0.00400366
0.00478198
0.00564577
0.00659791
0.0076172
0.00865994
0.00970163
0.0107322
0.0117475
0.0127451
0.0137232
0.0146792
0.0156108
0.0165148
0.0173883
0.0182288
0.019034
0.0198028
0.0205361
0.0212376
0.0219142
0.0225775
0.0232439
0.023934
0.0246718
0.0254826
0.0263904
0.0274157
0.0285725
0.0298684
0.0313046
0.0328801
0.0346054
5.27371e-06
0.000181226
0.000339818
0.000564796
0.000848638
0.00118985
0.00159235
0.0020589
0.0025905
0.00319045
0.00386226
0.00461052
0.00544001
0.00635552
0.00735537
0.00840517
0.00947002
0.0105316
0.0115819
0.0126175
0.0136357
0.0146345
0.0156115
0.016563
0.0174865
0.0183786
0.019236
0.0200558
0.0208363
0.0215774
0.0222816
0.0229547
0.0236074
0.0242552
0.0249191
0.0256243
0.0263985
0.0272689
0.0282598
0.0293896
0.0306696
0.0321065
0.0337055
5.35594e-06
0.00018175
0.000337204
0.000551751
0.000826913
0.00115766
0.00154735
0.00199952
0.00251448
0.00309511
0.00374492
0.00446815
0.00526927
0.00615352
0.00712412
0.00816685
0.00924487
0.0103309
0.0114115
0.0124807
0.0135353
0.0145727
0.0155905
0.0165858
0.0175552
0.0184955
0.0194031
0.0202741
0.0211054
0.0218944
0.0226406
0.0233454
0.024014
0.0246562
0.0252872
0.0259283
0.0266058
0.0273491
0.028189
0.0291535
0.0302649
0.0315385
0.032978
5.45228e-06
0.000182379
0.000335418
0.000540823
0.000808557
0.00113055
0.00150944
0.00194934
0.00245028
0.00301465
0.0036459
0.00434789
0.00512516
0.00598265
0.00692449
0.00794936
0.00902991
0.010133
0.011239
0.0123382
0.0134257
0.0144982
0.0155533
0.0165884
0.0176003
0.0185853
0.0195399
0.0204599
0.0213415
0.022181
0.0229755
0.0237235
0.0244261
0.0250881
0.0257188
0.0263333
0.0269533
0.0276063
0.0283242
0.0291406
0.0300869
0.0311894
0.0324669
5.55835e-06
0.000182989
0.000333982
0.000531477
0.000792887
0.00110747
0.00147734
0.00190637
0.00239518
0.00294577
0.00356117
0.00424505
0.00500191
0.00583622
0.00675271
0.00775451
0.00882805
0.00994062
0.0110669
0.0121922
0.0133094
0.0144142
0.0155037
0.0165754
0.0176262
0.0186527
0.019651
0.0206173
0.0215473
0.0224364
0.0232808
0.0240771
0.0248235
0.025521
0.0261738
0.026791
0.0273883
0.0279882
0.0286196
0.0293169
0.0301164
0.0310532
0.0321545
5.67348e-06
0.000183549
0.000332725
0.000523364
0.000779173
0.00108732
0.00144936
0.00186898
0.0023472
0.0028857
0.00348731
0.00415566
0.00489485
0.00570919
0.00660354
0.00758211
0.00864121
0.00975585
0.0108968
0.0120443
0.0131883
0.0143228
0.0154441
0.0165497
0.0176367
0.0187017
0.0197408
0.0207504
0.021726
0.0226629
0.0235564
0.0244023
0.025197
0.0259384
0.0266271
0.0272674
0.0278689
0.0284479
0.0290282
0.0296405
0.0303221
0.0311131
0.0320563
5.79742e-06
0.000184062
0.000331595
0.000516309
0.000767086
0.00106947
0.00142461
0.00183593
0.0023049
0.00283277
0.00342232
0.00407692
0.00480051
0.00559727
0.00647199
0.0074294
0.00847034
0.00958042
0.0107304
0.0118959
0.0130634
0.0142251
0.0153762
0.0165136
0.0176344
0.0187352
0.0198125
0.0208627
0.0218813
0.0228636
0.0238045
0.0246993
0.0255433
0.0263326
0.027065
0.0277412
0.0283658
0.0289492
0.0295087
0.0300697
0.0306661
0.0313392
0.0321379
5.92726e-06
0.000184507
0.000330548
0.000510176
0.000756292
0.00105351
0.00140252
0.00180648
0.00226717
0.00278559
0.0033644
0.00400698
0.0047168
0.00549796
0.00635531
0.00729345
0.00831565
0.00941583
0.0105689
0.0117481
0.0129361
0.0141227
0.0153015
0.0164688
0.0176211
0.0187555
0.0198687
0.0209571
0.0220163
0.0230415
0.0240278
0.0249698
0.0258624
0.0267007
0.0274806
0.0282003
0.0288603
0.0294659
0.0300287
0.0305677
0.0311111
0.0316969
0.0323728
6.06909e-06
0.000184942
0.00032964
0.000504908
0.000746674
0.00103922
0.00138265
0.00178001
0.00223326
0.00274331
0.00331248
0.00394419
0.00464177
0.00540911
0.0062508
0.00717149
0.00817595
0.00926246
0.0104135
0.0116022
0.0128074
0.0140163
0.0152209
0.0164162
0.0175985
0.0187647
0.0199118
0.0210361
0.0221334
0.0231991
0.0242286
0.025216
0.0261558
0.0270428
0.0278716
0.0286384
0.0293412
0.0299812
0.0305647
0.0311049
0.0316236
0.0321531
0.0327371
6.21436e-06
0.000185372
0.000328838
0.000500406
0.00073805
0.00102629
0.0013647
0.00175606
0.00220262
0.00270501
0.00326551
0.00388731
0.00457365
0.00532847
0.00615622
0.00706175
0.00804941
0.00912072
0.0102655
0.0114593
0.0126782
0.0139069
0.0151351
0.0163567
0.0175674
0.0187639
0.0199432
0.0211016
0.0222351
0.0233392
0.0244095
0.0254403
0.0264257
0.0273601
0.0282376
0.0290531
0.0298025
0.0304844
0.0311008
0.0316595
0.0321764
0.0326771
0.0331999
6.36491e-06
0.00018574
0.000328124
0.00049655
0.000730248
0.00101452
0.00134836
0.00173426
0.00217469
0.00267013
0.00322272
0.00383545
0.00451172
0.00525517
0.00607035
0.00696186
0.00793382
0.00898974
0.0101253
0.0113199
0.0125496
0.0137952
0.015045
0.0162912
0.0175288
0.0187542
0.0199641
0.021155
0.0223231
0.0234639
0.0245729
0.0256448
0.0266741
0.0276544
0.0285797
0.0294439
0.0302419
0.0309698
0.0316269
0.0322165
0.032749
0.0332433
0.0337293
6.52498e-06
0.000186138
0.000327544
0.00049328
0.000723169
0.00100381
0.00133341
0.00171434
0.00214917
0.0026382
0.00318352
0.00378799
0.00445493
0.00518821
0.00599181
0.00687029
0.00782789
0.00886893
0.00999292
0.0111852
0.012422
0.0136821
0.0149511
0.0162203
0.0174837
0.0187365
0.0199757
0.0211978
0.0223987
0.0235745
0.0247207
0.0258321
0.0269031
0.0279277
0.0288993
0.0298115
0.0306584
0.0314346
0.0321368
0.0327654
0.0333255
0.0338295
0.0342974
6.68389e-06
0.000186476
0.000326978
0.000490405
0.000716691
0.000993947
0.00131968
0.00169598
0.00212561
0.00260876
0.00314735
0.00374422
0.00440268
0.00512635
0.00591922
0.00678574
0.00773033
0.00875748
0.00986895
0.0110557
0.0122962
0.013568
0.0148546
0.0161452
0.0174325
0.0187117
0.0199789
0.0212305
0.022463
0.0236723
0.0248542
0.0260035
0.0271145
0.0281816
0.029198
0.0301571
0.0310523
0.0318774
0.0326273
0.0332997
0.0338956
0.0344216
0.0348905
6.84427e-06
0.00018677
0.000326421
0.000487826
0.000710704
0.000984821
0.00130695
0.001679
0.00210383
0.00258147
0.00311387
0.00370372
0.00435419
0.00506901
0.00585209
0.00670748
0.00763985
0.00865396
0.00975274
0.0109316
0.0121726
0.0134533
0.0147555
0.0160659
0.017376
0.01868
0.019974
0.0212542
0.0225173
0.0237588
0.0249747
0.0261603
0.0273099
0.0284177
0.0294774
0.030482
0.0314246
0.0322982
0.0330967
0.0338156
0.0344529
0.0350106
0.035496
7.00589e-06
0.00018698
0.000325862
0.000485514
0.00070518
0.00097636
0.00129512
0.00166323
0.00208358
0.00255614
0.00308269
0.00366598
0.00430908
0.0050156
0.00578943
0.00663456
0.00755553
0.00855722
0.00964364
0.0108131
0.0120522
0.0133392
0.0146541
0.0159826
0.0173141
0.0186419
0.019962
0.0212698
0.022562
0.0238346
0.0250834
0.0263038
0.0274905
0.0286375
0.0297388
0.0307874
0.0317761
0.0326976
0.0335447
0.0343114
0.0349936
0.0355895
0.0361016
7.17073e-06
0.000187157
0.000325301
0.000483353
0.000700034
0.000968498
0.00128418
0.00164862
0.00206469
0.0025324
0.00305353
0.00363062
0.00426681
0.00496557
0.00573075
0.00656631
0.00747687
0.00846689
0.0095409
0.0106999
0.0119348
0.0132255
0.0145512
0.0158959
0.0172474
0.0185981
0.0199431
0.0212776
0.0225977
0.0239002
0.0251809
0.0264348
0.0276572
0.0288422
0.0299835
0.0310746
0.032108
0.0330762
0.0339714
0.0347865
0.0355154
0.036154
0.0366999
7.33594e-06
0.000187287
0.000324736
0.000481348
0.000695244
0.000961199
0.00127399
0.00163499
0.00204699
0.00251012
0.00302612
0.00359742
0.00422703
0.00491853
0.00567554
0.00650217
0.00740274
0.00838194
0.00944426
0.0105921
0.0118206
0.0131126
0.0144471
0.0158061
0.0171763
0.0185486
0.0199171
0.0212773
0.022625
0.0239564
0.0252675
0.0265538
0.0278107
0.0290324
0.0302125
0.0313446
0.0324216
0.0334351
0.0343774
0.0352405
0.0360168
0.0367003
0.0372861
7.49845e-06
0.000187384
0.000324171
0.000479466
0.000690759
0.000954321
0.00126438
0.00162211
0.00203028
0.00248911
0.00300018
0.00356598
0.00418945
0.004874
0.00562337
0.00644143
0.00733249
0.0083015
0.00935274
0.0104896
0.0117102
0.0130011
0.0143419
0.0157132
0.0171003
0.0184932
0.0198847
0.0212695
0.0226438
0.0240033
0.0253441
0.026662
0.0279519
0.0292087
0.0304264
0.0315983
0.0327169
0.0337747
0.0347631
0.0356735
0.0364974
0.0372268
0.0378545
7.66291e-06
0.000187412
0.000323567
0.000477621
0.000686498
0.000947795
0.00125524
0.0016099
0.00201443
0.00246919
0.0029756
0.00353614
0.00415371
0.00483174
0.00557377
0.00638373
0.00726592
0.00822503
0.00926558
0.0103916
0.0116034
0.0128911
0.0142361
0.0156177
0.0170201
0.0184322
0.0198459
0.0212546
0.0226542
0.024041
0.0254106
0.026759
0.0280812
0.029372
0.0306259
0.0318361
0.0329953
0.034096
0.0351291
0.0360861
0.0369575
0.0377334
0.0384028
7.82394e-06
0.000187386
0.00032293
0.000475829
0.000682418
0.000941573
0.00124657
0.00159825
0.00199929
0.00245014
0.00295209
0.00350761
0.00411963
0.00479133
0.00552643
0.00632867
0.00720237
0.00815208
0.00918233
0.0102976
0.0114998
0.0127826
0.0141293
0.0155197
0.0169362
0.018366
0.0198004
0.0212322
0.0226567
0.0240696
0.0254672
0.026845
0.0281984
0.0295226
0.0308114
0.0320587
0.0332574
0.0343996
0.0354767
0.0364794
0.0373982
0.0382229
0.0389448
7.9734e-06
0.000187301
0.000322231
0.000474036
0.000678507
0.000935596
0.00123822
0.00158713
0.00198482
0.00243187
0.0029296
0.00348033
0.00408695
0.00475264
0.00548096
0.00627583
0.00714134
0.00808199
0.00910246
0.0102071
0.0113993
0.0126756
0.0140219
0.015419
0.0168478
0.0182945
0.0197483
0.0212023
0.0226508
0.0240892
0.0255137
0.0269202
0.0283039
0.0296603
0.0309832
0.0322665
0.0335033
0.0346859
0.0358057
0.0368536
0.0378197
0.0386938
0.039465
8.12038e-06
0.00018717
0.000321512
0.000472269
0.000674695
0.000929836
0.00123016
0.00157639
0.0019709
0.00241431
0.0029079
0.00345404