/*--------------------------------*- C++ -*----------------------------------*\
| =========                 |                                                 |
| \\      /  F ield         | OpenFOAM: The Open Source CFD Toolbox           |
|  \\    /   O peration     | Version:  2.3.0                                 |
|   \\  /    A nd           | Web:      www.OpenFOAM.org                      |
|    \\/     M anipulation  |                                                 |
\*---------------------------------------------------------------------------*/
FoamFile
{
    version     2.0;
    format      ascii;
    class       volScalarField;
    location    "3000";
    object      p;
}
// * * * * * * * * * * * * * * * * * * * * * * * * * * * * * * * * * * * * * //

dimensions      [0 2 -2 0 0 0 0];

internalField   nonuniform List<scalar> 
38075
(
-0.0499225
-0.662692
-1.34955
-2.10959
-2.91472
-3.75845
-4.6406
-5.55633
-6.51039
-7.50012
-8.52292
-9.58067
-10.6764
-11.8111
-12.9718
-14.1622
-15.38
-16.6111
-17.8542
-19.1004
-20.3436
-21.5762
-22.7798
-23.9531
-25.0758
-26.1373
-27.1165
-28.009
-28.7987
-29.4386
-29.959
-30.228
-30.2664
-29.9989
-29.2297
-27.8334
-25.7153
-22.7495
-17.8964
-10.6289
-5.91335
-10.4072
-2.28175
6.61537
5.9928
5.74108
5.49338
5.26424
5.05078
4.84792
4.65927
4.48645
4.32578
4.18591
4.06013
3.95433
3.86195
3.7978
3.74751
3.72205
3.73614
3.7787
3.87096
4.02712
4.27052
4.6309
5.13837
5.83302
6.77915
8.02795
9.65454
11.735
14.3719
17.6802
21.7675
26.7656
32.8425
40.162
48.9463
59.3839
71.729
86.2922
103.311
122.601
143.997
167.363
11.5674
11.4475
11.4871
11.4948
11.5134
11.5428
11.5861
11.6461
11.7261
11.8262
11.9579
12.1121
12.312
12.5429
12.8294
13.1616
13.5515
14.0186
14.5626
15.1975
15.9313
16.7841
17.7685
18.8947
20.1989
21.6929
23.4132
25.3997
27.6922
30.3389
33.3976
36.955
41.089
45.8947
51.4721
57.9267
65.3863
73.9449
83.6997
94.6746
106.892
120.494
135.336
16.3567
16.3856
16.6213
16.8463
17.0909
17.3662
17.6674
18.0039
18.3752
18.7844
19.236
19.7325
20.2812
20.8827
21.548
22.2875
23.1007
24.0065
25.0116
26.1342
27.3867
28.7908
30.3707
32.1515
34.1562
36.4339
39.0025
41.9133
45.1993
48.928
53.1393
57.8899
63.2335
69.2294
75.9388
83.4138
91.6728
100.735
110.57
121.09
132.152
143.569
155.049
20.5138
20.6833
21.0502
21.4082
21.7956
22.2147
22.6641
23.1529
23.6742
24.248
24.8595
25.5303
26.2567
27.0463
27.8989
28.8325
29.846
30.9525
32.1674
33.4925
34.9444
36.5474
38.3058
40.2485
42.3921
44.7694
47.4135
50.3548
53.6231
57.2629
61.3259
65.8506
70.8838
76.4676
82.6434
89.4507
96.9007
105
113.705
122.965
132.645
142.567
152.523
24.1764
24.4625
24.9127
25.3616
25.8481
26.3654
26.9291
27.5346
28.1674
28.8732
29.6083
30.4036
31.2741
32.2075
33.2057
34.2866
35.4524
36.7187
38.0993
39.6006
41.2394
43.0264
44.971
47.1115
49.4605
52.027
54.8627
57.9884
61.4276
65.2221
69.4099
74.0219
79.0919
84.6406
90.6882
97.2668
104.362
111.979
120.065
128.567
137.366
146.29
155.2
27.26
27.7195
28.2365
28.7563
29.3292
29.9139
30.5568
31.243
31.9373
32.7284
33.5471
34.4076
35.3821
36.4097
37.4812
38.6752
39.9382
41.3108
42.7835
44.3691
46.0952
47.9843
49.9994
52.206
54.6148
57.2494
60.1188
63.2583
66.6889
70.453
74.5692
79.0902
84.0237
89.4077
95.2243
101.537
108.289
115.517
123.139
131.106
139.326
147.587
155.81
29.8418
30.5701
31.1433
31.6739
32.2872
32.8731
33.5633
34.3318
35.0533
35.942
36.7973
37.6343
38.7264
39.8789
40.9584
42.2134
43.519
44.9874
46.5649
48.227
50.0094
52.0021
54.0601
56.3145
58.7666
61.429
64.3258
67.5243
71.0054
74.7269
78.7428
83.2682
88.2242
93.4158
98.9291
104.994
111.371
118.24
125.462
133
140.842
148.651
156.386
33.1759
33.3981
34.2841
34.1886
34.5588
34.9238
35.5505
36.7537
36.9953
38.0168
39.3627
39.5016
40.5457
42.3612
43.2319
44.3214
45.3266
46.604
48.2128
49.9614
51.8037
53.8666
55.9046
58.163
60.5898
63.1707
65.9481
69.1385
72.8818
76.7771
80.7812
85.5246
91.1604
96.612
101.86
107.847
113.662
119.832
126.139
132.859
140.342
148.052
155.686
76.4392
129.122
161.44
184.678
202.43
216.089
226.713
235.025
241.535
246.616
250.572
253.699
256.158
258.06
259.506
260.559
261.295
261.754
261.984
262.022
261.888
261.621
261.23
260.737
260.161
259.512
258.798
258.032
257.217
256.364
255.473
254.551
253.599
252.62
251.616
250.589
249.537
248.465
247.371
246.259
245.13
243.989
242.715
188.754
203.92
216.253
226.484
234.913
241.773
247.243
251.504
254.787
257.288
259.165
260.54
261.504
262.127
262.475
262.596
262.534
262.323
261.988
261.552
261.031
260.44
259.789
259.087
258.34
257.553
256.732
255.88
254.999
254.093
253.164
252.215
251.247
250.263
249.265
248.253
247.229
246.193
245.148
244.099
243.05
241.923
240.595
150.332
164.489
177.437
188.978
199.104
207.891
215.441
221.878
227.321
231.908
235.755
238.959
241.616
243.802
245.588
247.028
248.175
249.066
249.737
250.216
250.532
250.702
250.746
250.679
250.515
250.264
249.937
249.543
249.089
248.582
248.027
247.43
246.794
246.122
245.419
244.686
243.925
243.136
242.325
241.498
240.655
239.68
238.329
166.217
176.797
186.599
195.512
203.483
210.521
216.659
221.962
226.505
230.373
233.641
236.384
238.673
240.57
242.124
243.384
244.391
245.178
245.775
246.207
246.498
246.665
246.723
246.688
246.57
246.378
246.121
245.808
245.445
245.036
244.587
244.104
243.588
243.042
242.466
241.864
241.236
240.584
239.909
239.218
238.503
237.7
236.642
162.305
171.719
180.604
188.841
196.338
203.074
209.056
214.323
218.917
222.901
226.335
229.279
231.792
233.924
235.721
237.225
238.472
239.497
240.325
240.984
241.49
241.865
242.122
242.278
242.341
242.323
242.235
242.084
241.877
241.621
241.319
240.98
240.606
240.198
239.757
239.285
238.784
238.262
237.715
237.149
236.556
235.95
235.538
163.93
172.346
180.331
187.776
194.617
200.817
206.37
211.306
215.646
219.447
222.749
225.607
228.07
230.179
231.974
233.492
234.768
235.833
236.711
237.424
237.988
238.427
238.751
238.977
239.112
239.172
239.163
239.095
238.975
238.807
238.592
238.35
238.073
237.763
237.417
237.036
236.626
236.201
235.746
235.273
234.756
234.276
234.198
163.855
171.649
179.062
186.003
192.44
198.298
203.57
208.303
212.49
216.167
219.38
222.195
224.653
226.768
228.581
230.133
231.45
232.569
233.501
234.269
234.894
235.396
235.79
236.09
236.294
236.424
236.491
236.502
236.456
236.352
236.205
236.061
235.882
235.649
235.367
235.043
234.696
234.364
233.991
233.604
233.158
232.801
233.271
163.909
171.229
178.218
184.755
190.889
196.494
201.527
206.147
210.212
213.716
216.794
219.579
222.047
224.132
225.927
227.495
228.831
229.968
230.92
231.722
232.39
232.939
233.384
233.727
233.951
234.123
234.242
234.302
234.281
234.204
234.135
234.137
234.03
233.796
233.523
233.24
232.973
232.78
232.467
232.116
231.699
231.413
231.725
163.083
170.22
177.022
183.353
189.426
194.912
199.733
204.236
208.028
211.548
214.578
217.388
219.758
221.671
223.425
225.025
226.274
227.405
228.415
229.272
229.979
230.524
230.951
231.245
231.421
231.641
231.831
231.917
231.938
232.018
232.195
232.37
231.963
231.873
231.805
231.722
231.668
231.648
231.066
230.877
230.397
230.375
230.724
-76.3398
-76.2598
-76.2144
-76.1521
-76.0723
-75.9769
-75.8672
-75.7442
-75.6085
-75.4604
-75.3
-75.1292
-74.9472
-74.7555
-74.5543
-74.3462
-74.1307
-73.9086
-73.6808
-73.4496
-73.2161
-72.9811
-72.747
-72.5143
-72.2864
-72.0629
-71.8462
-71.638
-71.4401
-71.2532
-71.0793
-70.9188
-70.7735
-70.6435
-70.5274
-70.4237
-70.3255
-70.2168
-70.0612
-69.7945
-69.2915
-68.1902
-65.701
-76.8109
-76.6223
-76.4788
-76.3214
-76.149
-75.9656
-75.7753
-75.5807
-75.382
-75.1811
-74.9807
-74.7811
-74.584
-74.3908
-74.2006
-74.0154
-73.8347
-73.6609
-73.4928
-73.3296
-73.1715
-73.0193
-72.8714
-72.7272
-72.5859
-72.4475
-72.3134
-72.1812
-72.0503
-71.9212
-71.7918
-71.6612
-71.5248
-71.3783
-71.2129
-71.0141
-70.7554
-70.4012
-69.8751
-68.9721
-67.252
-64.2387
-60.1497
-77.3377
-77.1556
-77.0616
-76.9626
-76.8541
-76.7393
-76.6185
-76.493
-76.3648
-76.234
-76.0997
-75.9633
-75.8241
-75.6822
-75.5388
-75.3939
-75.2474
-75.0996
-74.9509
-74.8014
-74.6507
-74.4996
-74.347
-74.1933
-74.0385
-73.8819
-73.7218
-73.5588
-73.3909
-73.2156
-73.0302
-72.8301
-72.6089
-72.3545
-72.049
-71.666
-71.1627
-70.4575
-69.4009
-67.7098
-64.9204
-60.6481
-55.013
-77.7329
-77.5785
-77.5091
-77.4357
-77.3515
-77.259
-77.159
-77.0517
-76.9405
-76.828
-76.7128
-76.5934
-76.4694
-76.343
-76.2136
-76.0828
-75.951
-75.8174
-75.6838
-75.5502
-75.415
-75.2773
-75.1366
-74.9926
-74.8437
-74.6879
-74.5236
-74.3484
-74.1592
-73.9518
-73.7199
-73.455
-73.1442
-72.7708
-72.3083
-71.715
-70.9228
-69.8207
-68.2194
-65.8172
-62.2718
-57.428
-51.5962
-77.9852
-77.8771
-77.8604
-77.8194
-77.7637
-77.6955
-77.6166
-77.5289
-77.4377
-77.3445
-77.2484
-77.1526
-77.0485
-76.9393
-76.8264
-76.709
-76.5862
-76.4599
-76.3321
-76.2019
-76.0691
-75.934
-75.7941
-75.6481
-75.4921
-75.3257
-75.1453
-74.9457
-74.7224
-74.471
-74.18
-73.8368
-73.4243
-72.9192
-72.2858
-71.4708
-70.3903
-68.9107
-66.8332
-63.8906
-59.8406
-54.6423
-48.824
-78.3768
-78.1895
-78.167
-78.1359
-78.095
-78.0456
-77.9856
-77.9058
-77.817
-77.7386
-77.6548
-77.5792
-77.4887
-77.3919
-77.289
-77.1792
-77.0629
-76.9369
-76.8078
-76.677
-76.5402
-76.4008
-76.2552
-76.1028
-75.9366
-75.7567
-75.559
-75.3346
-75.0762
-74.7809
-74.432
-74.0155
-73.5109
-72.8927
-72.113
-71.1113
-69.7913
-68.0175
-65.5845
-62.2333
-57.8091
-52.3671
-46.5138
-78.6165
-78.4107
-78.3994
-78.3798
-78.3535
-78.3227
-78.286
-78.2154
-78.1203
-78.0514
-77.9586
-77.9128
-77.8322
-77.7413
-77.6515
-77.558
-77.451
-77.3197
-77.1825
-77.0476
-76.8995
-76.754
-76.5948
-76.4355
-76.2566
-76.0573
-75.8408
-75.5944
-75.2917
-74.9574
-74.5563
-74.0757
-73.4834
-72.7633
-71.8538
-70.6969
-69.1819
-67.1885
-64.4872
-60.7083
-55.8171
-50.0217
-44.0705
-78.7436
-78.5302
-78.5991
-78.5942
-78.5817
-78.566
-78.5495
-78.4922
-78.3334
-78.2729
-78.1114
-78.1324
-78.0781
-77.9668
-77.8542
-77.7673
-77.6949
-77.5488
-77.3648
-77.226
-77.0525
-76.9008
-76.7143
-76.5595
-76.3626
-76.1268
-75.8945
-75.6526
-75.2882
-74.9408
-74.5149
-73.9994
-73.322
-72.5203
-71.4784
-70.2233
-68.602
-66.5885
-64.0918
-60.1709
-55.0557
-48.9704
-42.7225
-77.9251
-77.9978
-78.4211
-78.579
-78.7968
-78.9894
-79.264
-79.0983
-78.8328
-78.7213
-78.3906
-78.6294
-78.8705
-78.894
-78.6474
-78.5298
-78.5979
-78.5899
-78.2958
-78.1506
-77.9064
-77.751
-77.4875
-77.339
-77.1593
-76.8244
-76.5223
-76.3701
-75.7589
-75.2626
-74.7959
-74.1605
-73.3528
-72.568
-71.4046
-70.0332
-68.1655
-65.9937
-62.9519
-56.4315
-48.831
-42.102
-36.4509
-57.2249
-50.4119
-43.9713
-38.3462
-33.2276
-28.5955
-24.3684
-20.4824
-16.8829
-13.5178
-10.3493
-7.33633
-4.45658
-1.68796
0.986008
3.57905
6.10292
8.5647
10.9727
13.3332
15.6489
17.9266
20.1679
22.3759
24.5525
26.7015
28.8235
30.9216
32.9946
35.0466
37.0768
39.0884
41.0793
43.0522
45.0081
46.9469
48.8685
50.7753
52.6686
54.5452
56.397
58.2596
60.2775
-54.1214
-49.9208
-45.127
-40.3308
-35.5255
-30.8911
-26.4607
-22.2576
-18.2809
-14.5164
-10.9529
-7.57329
-4.36161
-1.30205
1.62226
4.423
7.11249
9.70011
12.1971
14.6095
16.9484
19.2173
21.4244
23.5742
25.6717
27.7216
29.7277
31.6926
33.6226
35.5204
37.3862
39.2246
41.0382
42.8278
44.5966
46.3472
48.0789
49.7947
51.4984
53.1865
54.8483
56.5132
58.3187
-48.956
-44.6922
-40.2911
-36.059
-31.8454
-27.7558
-23.7939
-19.9832
-16.328
-12.8325
-9.49248
-6.30167
-3.25163
-0.332808
2.46405
5.15008
7.73515
10.223
12.6272
14.9526
17.2069
19.3941
21.5217
23.5937
25.6161
27.5909
29.5239
31.4168
33.2731
35.0946
36.884
38.6427
40.3756
42.0796
43.7599
45.417
47.0531
48.6683
50.2669
51.8469
53.3989
54.954
56.6388
-46.0471
-41.9069
-37.782
-33.788
-29.8231
-25.9805
-22.2593
-18.6744
-15.228
-11.9204
-8.74854
-5.70549
-2.78666
0.0178099
2.71275
5.3066
7.80758
10.2206
12.5533
14.8133
17.005
19.1349
21.2079
23.2256
25.194
27.1148
28.994
30.8334
32.6339
34.3996
36.1343
37.8353
39.5075
41.1511
42.7704
44.3655
45.9381
47.4912
49.0233
50.5371
52.0245
53.5094
55.0901
-43.6251
-39.722
-35.9161
-32.1414
-28.3705
-24.6891
-21.1056
-17.6396
-14.2968
-11.0801
-7.98755
-5.01527
-2.16032
0.582954
3.22178
5.76272
8.21072
10.5748
12.8581
15.0699
17.2127
19.2913
21.3113
23.2745
25.1886
27.0513
28.8682
30.6441
32.381
34.08
35.7432
37.3721
38.9696
40.5368
42.0761
43.5939
45.0881
46.5616
48.0128
49.4444
50.85
52.2491
53.7338
-41.4137
-37.6167
-34.0017
-30.3838
-26.7786
-23.2457
-19.7954
-16.4468
-13.206
-10.0789
-7.0676
-4.16986
-1.38063
1.29986
3.87776
6.35748
8.74996
11.0578
13.2871
15.4457
17.538
19.5649
21.5312
23.4424
25.3029
27.1079
28.8653
30.5858
32.264
33.8976
35.4959
37.058
38.583
40.0748
41.5394
42.9841
44.4062
45.8005
47.1683
48.5154
49.8379
51.1448
52.538
-39.1653
-35.6194
-32.2059
-28.7429
-25.2915
-21.8944
-18.5661
-15.3248
-12.1761
-9.13162
-6.20206
-3.37837
-0.653448
1.9605
4.47165
6.88992
9.22862
11.4851
13.6659
15.7789
17.8305
19.8125
21.7292
23.5973
25.4198
27.1669
28.8683
30.549
32.1766
33.7461
35.2877
36.7902
38.2492
39.6734
41.0759
42.4615
43.8232
45.1473
46.4379
47.7087
48.9597
50.184
51.5118
-37.8644
-34.3089
-30.8763
-27.4517
-24.0741
-20.7682
-17.5252
-14.3689
-11.2915
-8.30271
-5.43986
-2.67449
0.00980155
2.57175
5.03425
7.40647
9.71047
11.9266
14.0662
16.1462
18.1776
20.1141
21.9795
23.8184
25.6195
27.2673
28.9169
30.601
32.1809
33.6776
35.1874
36.6374
38.0214
39.3618
40.6988
42.0309
43.3413
44.5872
45.7918
46.9842
48.1725
49.3065
50.6016
-34.2807
-32.4481
-29.4053
-26.1928
-22.9822
-19.8242
-16.6621
-13.583
-10.5237
-7.51392
-4.77867
-2.07438
0.666331
3.11387
5.45995
7.74806
10.0481
12.1959
14.2875
16.3662
18.4236
20.2523
22.0598
23.9222
25.7546
27.1402
28.8742
30.7319
32.1164
33.452
35.0171
36.34
37.5908
38.886
40.2517
41.6249
42.9563
44.1092
45.2234
46.3869
47.627
48.6711
49.9716
-127.593
-127.853
-128.336
-127.7
-125.21
-121.23
-116.296
-110.786
-104.89
-98.7959
-92.6165
-86.5475
-80.722
-75.0489
-69.6762
-64.5916
-59.7908
-55.3208
-51.1601
-47.3064
-43.7563
-40.4798
-37.4703
-34.7085
-32.1653
-29.824
-27.6553
-25.6426
-23.7668
-22.0105
-20.3639
-18.8155
-17.358
-15.9813
-14.6759
-13.4346
-12.2531
-11.1261
-10.0496
-9.01684
-8.0128
-7.00948
-6.05569
-100.764
-100.557
-99.9604
-99.0781
-98.0754
-97.1483
-96.3886
-95.8007
-95.3696
-95.0114
-94.4746
-93.5849
-92.2826
-90.5191
-88.3507
-85.7997
-82.8884
-79.6988
-76.2768
-72.6752
-68.95
-65.1936
-61.4306
-57.7266
-54.1161
-50.633
-47.2944
-44.1104
-41.0922
-38.226
-35.5174
-32.9598
-30.5484
-28.2761
-26.1334
-24.1098
-22.2009
-20.397
-18.6907
-17.0748
-15.5449
-14.0998
-12.9421
-107.263
-107.187
-107.223
-107.279
-107.328
-107.314
-107.146
-106.739
-106.041
-105.085
-103.909
-102.59
-101.161
-99.6109
-97.8771
-95.8888
-93.6576
-91.1586
-88.4231
-85.4672
-82.2675
-78.9218
-75.4105
-71.8196
-68.1623
-64.5117
-60.8881
-57.334
-53.8841
-50.5483
-47.3429
-44.2705
-41.3452
-38.558
-35.9112
-33.3963
-31.0131
-28.7539
-26.6135
-24.5836
-22.6565
-20.8178
-19.137
-103.855
-103.814
-103.707
-103.562
-103.393
-103.205
-102.999
-102.769
-102.502
-102.185
-101.804
-101.335
-100.742
-99.9985
-99.1333
-98.1614
-97.0337
-95.6742
-94.0695
-92.199
-90.0362
-87.6097
-84.8916
-81.9503
-78.774
-75.4513
-71.993
-68.4691
-64.9172
-61.3968
-57.9239
-54.5315
-51.2516
-48.0855
-45.0506
-42.1467
-39.3782
-36.7405
-34.2341
-31.8533
-29.5993
-27.476
-25.6817
-104.4
-104.394
-104.383
-104.356
-104.313
-104.251
-104.166
-104.052
-103.901
-103.703
-103.443
-103.112
-102.701
-102.195
-101.578
-100.83
-99.9568
-98.9603
-97.8244
-96.4968
-94.9655
-93.2187
-91.2208
-88.9797
-86.4801
-83.7284
-80.7664
-77.6057
-74.2977
-70.8947
-67.4244
-63.9426
-60.4943
-57.099
-53.7895
-50.582
-47.4916
-44.5215
-41.6811
-38.9621
-36.3688
-33.8821
-31.6537
-103.83
-103.815
-103.784
-103.734
-103.671
-103.593
-103.5
-103.392
-103.267
-103.121
-102.948
-102.742
-102.495
-102.198
-101.839
-101.407
-100.885
-100.25
-99.5017
-98.6247
-97.5916
-96.383
-94.9687
-93.3294
-91.47
-89.3489
-86.9897
-84.3721
-81.5347
-78.502
-75.3047
-71.9876
-68.6009
-65.1802
-61.7717
-58.4066
-55.1127
-51.9072
-48.8061
-45.8097
-42.9267
-40.1264
-37.6412
-103.862
-103.853
-103.834
-103.803
-103.762
-103.709
-103.644
-103.567
-103.474
-103.364
-103.234
-103.079
-102.894
-102.672
-102.408
-102.092
-101.715
-101.265
-100.73
-100.09
-99.3403
-98.4615
-97.4275
-96.2177
-94.8184
-93.2008
-91.3541
-89.2754
-86.9476
-84.3862
-81.5929
-78.6124
-75.4708
-72.2064
-68.866
-65.4938
-62.128
-58.7999
-55.5378
-52.3573
-49.288
-46.3129
-43.7801
-103.799
-103.788
-103.767
-103.735
-103.693
-103.642
-103.581
-103.51
-103.429
-103.335
-103.227
-103.103
-102.959
-102.792
-102.596
-102.367
-102.098
-101.778
-101.398
-100.944
-100.405
-99.769
-99.0163
-98.1244
-97.0769
-95.8562
-94.4325
-92.7988
-90.9292
-88.8382
-86.4908
-83.9224
-81.1281
-78.1505
-75.0233
-71.7803
-68.4702
-65.1306
-61.8045
-58.5187
-55.3131
-52.1897
-49.6174
-103.864
-103.854
-103.835
-103.807
-103.771
-103.727
-103.675
-103.615
-103.545
-103.465
-103.374
-103.27
-103.151
-103.013
-102.855
-102.673
-102.46
-102.212
-101.922
-101.579
-101.173
-100.691
-100.12
-99.4481
-98.6563
-97.7231
-96.6241
-95.3513
-93.8696
-92.1784
-90.2463
-88.0932
-85.6956
-83.0705
-80.2408
-77.232
-74.0874
-70.843
-67.5442
-64.2318
-60.944
-57.7037
-55.0025
-103.95
-103.939
-103.921
-103.894
-103.86
-103.819
-103.771
-103.715
-103.652
-103.581
-103.5
-103.41
-103.308
-103.192
-103.06
-102.909
-102.737
-102.54
-102.311
-102.043
-101.729
-101.36
-100.924
-100.407
-99.7965
-99.0751
-98.2232
-97.2235
-96.0506
-94.6948
-93.121
-91.3339
-89.3116
-87.0524
-84.5641
-81.8613
-78.9612
-75.9023
-72.7128
-69.4388
-66.0903
-62.666
-58.2264
-104.082
-104.071
-104.053
-104.028
-103.997
-103.958
-103.914
-103.863
-103.806
-103.742
-103.67
-103.589
-103.499
-103.398
-103.284
-103.156
-103.01
-102.845
-102.656
-102.439
-102.187
-101.892
-101.546
-101.138
-100.659
-100.094
-99.4226
-98.6319
-97.6996
-96.6127
-95.3423
-93.8732
-92.1891
-90.2718
-88.1222
-85.7418
-83.1295
-80.3201
-77.3276
-74.2001
-70.9477
-67.7212
-63.2553
-104.238
-104.227
-104.209
-104.186
-104.155
-104.119
-104.078
-104.03
-103.977
-103.918
-103.853
-103.78
-103.699
-103.609
-103.508
-103.395
-103.27
-103.129
-102.969
-102.788
-102.579
-102.338
-102.058
-101.73
-101.344
-100.891
-100.357
-99.726
-98.9801
-98.1013
-97.0689
-95.8615
-94.4668
-92.8603
-91.0268
-88.96
-86.6584
-84.1312
-81.3936
-78.4826
-75.4197
-72.408
-68.5812
-104.419
-104.407
-104.39
-104.367
-104.338
-104.304
-104.264
-104.22
-104.17
-104.116
-104.055
-103.989
-103.915
-103.834
-103.744
-103.643
-103.532
-103.408
-103.269
-103.113
-102.937
-102.735
-102.502
-102.232
-101.916
-101.546
-101.111
-100.601
-99.9941
-99.2784
-98.4376
-97.4486
-96.2937
-94.9488
-93.3959
-91.6234
-89.6237
-87.3837
-84.9112
-82.229
-79.3507
-76.3957
-72.8382
-104.618
-104.606
-104.589
-104.566
-104.538
-104.505
-104.467
-104.425
-104.378
-104.327
-104.271
-104.209
-104.141
-104.067
-103.984
-103.894
-103.794
-103.683
-103.561
-103.425
-103.272
-103.098
-102.901
-102.674
-102.412
-102.106
-101.747
-101.323
-100.828
-100.244
-99.551
-98.7336
-97.7726
-96.6497
-95.3401
-93.8287
-92.0945
-90.1291
-87.9266
-85.4887
-82.8303
-79.9363
-77.736
-104.828
-104.816
-104.8
-104.778
-104.751
-104.719
-104.683
-104.643
-104.599
-104.551
-104.498
-104.441
-104.378
-104.309
-104.234
-104.152
-104.061
-103.961
-103.851
-103.729
-103.595
-103.444
-103.274
-103.079
-102.855
-102.596
-102.296
-101.945
-101.533
-101.046
-100.472
-99.7944
-98.9932
-98.0527
-96.951
-95.663
-94.1758
-92.4664
-90.5256
-88.3335
-85.9142
-83.1034
-81.4843
-105.053
-105.041
-105.024
-105.003
-104.976
-104.945
-104.911
-104.872
-104.83
-104.784
-104.734
-104.68
-104.621
-104.558
-104.488
-104.412
-104.328
-104.237
-104.138
-104.029
-103.909
-103.775
-103.626
-103.457
-103.264
-103.044
-102.788
-102.49
-102.142
-101.734
-101.253
-100.687
-100.017
-99.2245
-98.2918
-97.1996
-95.9284
-94.4531
-92.7603
-90.831
-88.7058
-86.1633
-85.7546
-105.286
-105.274
-105.256
-105.235
-105.209
-105.179
-105.146
-105.109
-105.068
-105.024
-104.977
-104.926
-104.871
-104.811
-104.747
-104.677
-104.6
-104.517
-104.425
-104.326
-104.217
-104.098
-103.964
-103.816
-103.649
-103.457
-103.238
-102.985
-102.689
-102.343
-101.936
-101.456
-100.892
-100.224
-99.4367
-98.5057
-97.4126
-96.1395
-94.6684
-92.9668
-91.0732
-88.7114
-87.9272
-105.524
-105.512
-105.495
-105.474
-105.448
-105.419
-105.387
-105.351
-105.312
-105.27
-105.225
-105.177
-105.125
-105.069
-105.008
-104.943
-104.871
-104.794
-104.711
-104.62
-104.522
-104.414
-104.295
-104.163
-104.013
-103.845
-103.654
-103.435
-103.181
-102.886
-102.539
-102.132
-101.652
-101.083
-100.411
-99.6174
-98.6861
-97.5891
-96.3093
-94.8145
-93.1339
-91.0117
-90.4752
-105.767
-105.754
-105.737
-105.717
-105.692
-105.663
-105.632
-105.597
-105.56
-105.519
-105.476
-105.43
-105.381
-105.328
-105.272
-105.211
-105.144
-105.073
-104.995
-104.912
-104.821
-104.723
-104.615
-104.497
-104.366
-104.218
-104.051
-103.86
-103.639
-103.383
-103.086
-102.737
-102.325
-101.84
-101.268
-100.586
-99.7856
-98.8382
-97.7306
-96.4258
-94.9487
-93.086
-92.99
-106.012
-105.999
-105.982
-105.962
-105.937
-105.909
-105.878
-105.845
-105.809
-105.77
-105.729
-105.685
-105.638
-105.588
-105.535
-105.478
-105.417
-105.35
-105.279
-105.202
-105.119
-105.029
-104.931
-104.824
-104.706
-104.574
-104.425
-104.257
-104.065
-103.843
-103.586
-103.286
-102.933
-102.516
-102.023
-101.439
-100.75
-99.935
-98.976
-97.8422
-96.56
-94.944
-95.8286
-106.258
-106.244
-106.227
-106.207
-106.183
-106.156
-106.126
-106.093
-106.058
-106.021
-105.982
-105.94
-105.895
-105.848
-105.798
-105.744
-105.687
-105.625
-105.558
-105.487
-105.41
-105.327
-105.239
-105.142
-105.036
-104.918
-104.787
-104.638
-104.47
-104.276
-104.051
-103.788
-103.483
-103.124
-102.699
-102.194
-101.595
-100.884
-100.044
-99.0343
-97.8488
-96.253
-96.235
-106.501
-106.488
-106.471
-106.451
-106.428
-106.401
-106.372
-106.34
-106.307
-106.271
-106.233
-106.193
-106.151
-106.106
-106.058
-106.008
-105.954
-105.897
-105.835
-105.769
-105.699
-105.623
-105.541
-105.452
-105.356
-105.251
-105.134
-105.002
-104.853
-104.682
-104.487
-104.261
-103.994
-103.682
-103.314
-102.877
-102.359
-101.741
-101.002
-100.113
-99.0632
-97.6751
-97.6392
-106.745
-106.731
-106.714
-106.694
-106.671
-106.645
-106.616
-106.585
-106.553
-106.518
-106.482
-106.443
-106.403
-106.361
-106.316
-106.268
-106.218
-106.165
-106.107
-106.045
-105.98
-105.911
-105.836
-105.756
-105.669
-105.574
-105.469
-105.352
-105.22
-105.07
-104.898
-104.699
-104.467
-104.195
-103.873
-103.492
-103.04
-102.502
-101.866
-101.099
-100.198
-99.0545
-99.2039
-106.983
-106.969
-106.952
-106.933
-106.91
-106.884
-106.856
-106.826
-106.794
-106.761
-106.726
-106.689
-106.651
-106.61
-106.568
-106.524
-106.476
-106.427
-106.373
-106.316
-106.256
-106.192
-106.124
-106.051
-105.972
-105.886
-105.791
-105.686
-105.57
-105.437
-105.285
-105.111
-104.909
-104.672
-104.393
-104.062
-103.668
-103.195
-102.63
-101.945
-101.129
-100.065
-99.685
-107.218
-107.204
-107.186
-107.167
-107.144
-107.118
-107.091
-107.062
-107.031
-106.998
-106.965
-106.93
-106.893
-106.855
-106.814
-106.772
-106.728
-106.682
-106.633
-106.58
-106.525
-106.465
-106.402
-106.335
-106.264
-106.187
-106.103
-106.009
-105.906
-105.789
-105.657
-105.503
-105.324
-105.115
-104.87
-104.579
-104.232
-103.818
-103.323
-102.721
-101.996
-101.088
-101.069
-107.443
-107.429
-107.412
-107.392
-107.37
-107.345
-107.318
-107.29
-107.26
-107.229
-107.196
-107.163
-107.128
-107.091
-107.053
-107.014
-106.973
-106.929
-106.883
-106.835
-106.784
-106.729
-106.672
-106.611
-106.546
-106.476
-106.401
-106.319
-106.226
-106.122
-106.004
-105.869
-105.714
-105.531
-105.315
-105.059
-104.754
-104.389
-103.952
-103.418
-102.778
-101.99
-101.952
-107.66
-107.646
-107.629
-107.61
-107.588
-107.564
-107.538
-107.51
-107.481
-107.451
-107.42
-107.388
-107.354
-107.32
-107.284
-107.247
-107.208
-107.168
-107.125
-107.08
-107.033
-106.983
-106.931
-106.876
-106.818
-106.755
-106.686
-106.612
-106.53
-106.439
-106.334
-106.215
-106.078
-105.918
-105.728
-105.503
-105.234
-104.909
-104.516
-104.033
-103.437
-102.644
-101.878
-107.87
-107.856
-107.839
-107.82
-107.799
-107.775
-107.749
-107.722
-107.694
-107.664
-107.634
-107.603
-107.571
-107.538
-107.505
-107.47
-107.433
-107.396
-107.356
-107.315
-107.272
-107.226
-107.178
-107.128
-107.074
-107.018
-106.957
-106.892
-106.819
-106.738
-106.646
-106.542
-106.42
-106.277
-106.111
-105.912
-105.672
-105.385
-105.037
-104.614
-104.106
-103.444
-102.807
-108.07
-108.056
-108.039
-108.02
-107.999
-107.975
-107.95
-107.923
-107.896
-107.868
-107.838
-107.809
-107.778
-107.747
-107.715
-107.682
-107.648
-107.613
-107.576
-107.538
-107.498
-107.456
-107.413
-107.367
-107.319
-107.269
-107.215
-107.155
-107.09
-107.019
-106.939
-106.846
-106.74
-106.615
-106.466
-106.29
-106.079
-105.823
-105.512
-105.136
-104.707
-104.197
-102.934
-108.259
-108.245
-108.228
-108.209
-108.188
-108.164
-108.14
-108.114
-108.087
-108.059
-108.031
-108.003
-107.973
-107.943
-107.913
-107.882
-107.85
-107.817
-107.783
-107.748
-107.712
-107.674
-107.634
-107.593
-107.549
-107.503
-107.455
-107.403
-107.347
-107.283
-107.211
-107.13
-107.035
-106.924
-106.793
-106.638
-106.45
-106.222
-105.949
-105.615
-105.213
-104.766
-104.815
-108.435
-108.421
-108.404
-108.386
-108.365
-108.342
-108.317
-108.292
-108.266
-108.239
-108.212
-108.184
-108.156
-108.127
-108.098
-108.069
-108.039
-108.008
-107.977
-107.944
-107.911
-107.876
-107.84
-107.803
-107.764
-107.723
-107.679
-107.632
-107.581
-107.525
-107.463
-107.391
-107.308
-107.211
-107.094
-106.954
-106.785
-106.578
-106.323
-106.008
-105.605
-105.088
-104.932
-108.6
-108.586
-108.569
-108.55
-108.529
-108.507
-108.483
-108.458
-108.432
-108.406
-108.38
-108.353
-108.326
-108.298
-108.271
-108.243
-108.215
-108.186
-108.157
-108.127
-108.096
-108.064
-108.031
-107.997
-107.962
-107.925
-107.887
-107.846
-107.801
-107.751
-107.695
-107.631
-107.558
-107.471
-107.366
-107.241
-107.087
-106.898
-106.665
-106.377
-106.022
-105.57
-104.383
-108.75
-108.736
-108.719
-108.701
-108.68
-108.658
-108.634
-108.61
-108.585
-108.56
-108.534
-108.508
-108.482
-108.455
-108.429
-108.402
-108.376
-108.349
-108.321
-108.294
-108.265
-108.237
-108.207
-108.176
-108.144
-108.111
-108.076
-108.039
-108
-107.956
-107.907
-107.85
-107.784
-107.706
-107.613
-107.5
-107.363
-107.194
-106.982
-106.725
-106.415
-106.033
-105.109
-108.886
-108.872
-108.856
-108.837
-108.817
-108.795
-108.772
-108.748
-108.723
-108.699
-108.674
-108.648
-108.623
-108.598
-108.572
-108.547
-108.522
-108.497
-108.471
-108.445
-108.419
-108.393
-108.365
-108.337
-108.309
-108.279
-108.249
-108.216
-108.18
-108.141
-108.097
-108.048
-107.988
-107.919
-107.835
-107.733
-107.607
-107.45
-107.256
-107.016
-106.715
-106.328
-105.412
-109.01
-108.996
-108.979
-108.961
-108.94
-108.918
-108.895
-108.872
-108.848
-108.823
-108.799
-108.774
-108.75
-108.725
-108.701
-108.677
-108.653
-108.629
-108.605
-108.581
-108.557
-108.533
-108.508
-108.483
-108.457
-108.43
-108.402
-108.373
-108.342
-108.308
-108.269
-108.224
-108.172
-108.11
-108.035
-107.942
-107.828
-107.687
-107.509
-107.289
-107.018
-106.667
-106.144
-109.116
-109.103
-109.086
-109.068
-109.048
-109.026
-109.004
-108.98
-108.957
-108.933
-108.909
-108.885
-108.861
-108.838
-108.814
-108.791
-108.768
-108.746
-108.723
-108.701
-108.678
-108.656
-108.633
-108.61
-108.587
-108.563
-108.539
-108.512
-108.484
-108.453
-108.419
-108.379
-108.333
-108.276
-108.208
-108.125
-108.022
-107.891
-107.73
-107.528
-107.287
-106.993
-106.173
-109.209
-109.196
-109.179
-109.161
-109.141
-109.12
-109.097
-109.074
-109.051
-109.028
-109.004
-108.981
-108.958
-108.935
-108.912
-108.89
-108.868
-108.846
-108.825
-108.804
-108.783
-108.763
-108.742
-108.721
-108.7
-108.678
-108.656
-108.633
-108.609
-108.582
-108.551
-108.516
-108.474
-108.424
-108.363
-108.287
-108.194
-108.078
-107.931
-107.749
-107.523
-107.263
-107.128
-109.285
-109.272
-109.256
-109.238
-109.218
-109.197
-109.175
-109.153
-109.13
-109.107
-109.084
-109.061
-109.038
-109.016
-108.994
-108.973
-108.952
-108.931
-108.911
-108.891
-108.872
-108.852
-108.833
-108.814
-108.795
-108.775
-108.755
-108.735
-108.713
-108.689
-108.662
-108.63
-108.594
-108.549
-108.495
-108.427
-108.341
-108.235
-108.102
-107.935
-107.72
-107.44
-107.083
-109.349
-109.335
-109.319
-109.301
-109.281
-109.26
-109.238
-109.216
-109.194
-109.171
-109.148
-109.126
-109.104
-109.082
-109.061
-109.04
-109.019
-109
-108.98
-108.962
-108.944
-108.926
-108.908
-108.891
-108.874
-108.856
-108.839
-108.821
-108.801
-108.779
-108.755
-108.728
-108.695
-108.654
-108.605
-108.544
-108.468
-108.372
-108.251
-108.098
-107.91
-107.689
-107.22
-109.396
-109.382
-109.366
-109.348
-109.329
-109.308
-109.286
-109.264
-109.242
-109.219
-109.197
-109.175
-109.153
-109.132
-109.111
-109.091
-109.071
-109.052
-109.034
-109.016
-108.999
-108.982
-108.966
-108.95
-108.934
-108.918
-108.902
-108.886
-108.869
-108.851
-108.829
-108.804
-108.775
-108.74
-108.696
-108.641
-108.573
-108.486
-108.379
-108.245
-108.086
-107.898
-107.499
-109.429
-109.415
-109.399
-109.381
-109.362
-109.341
-109.319
-109.297
-109.275
-109.253
-109.231
-109.209
-109.188
-109.167
-109.147
-109.127
-109.108
-109.089
-109.071
-109.054
-109.038
-109.022
-109.007
-108.992
-108.978
-108.964
-108.95
-108.935
-108.919
-108.902
-108.884
-108.863
-108.837
-108.805
-108.765
-108.716
-108.653
-108.574
-108.473
-108.346
-108.187
-107.976
-107.514
-109.445
-109.432
-109.416
-109.398
-109.379
-109.358
-109.337
-109.315
-109.293
-109.271
-109.25
-109.228
-109.207
-109.186
-109.166
-109.147
-109.128
-109.11
-109.093
-109.077
-109.061
-109.046
-109.032
-109.018
-109.004
-108.991
-108.979
-108.966
-108.952
-108.938
-108.922
-108.902
-108.879
-108.851
-108.816
-108.771
-108.714
-108.643
-108.552
-108.439
-108.3
-108.116
-108.049
-109.448
-109.434
-109.418
-109.401
-109.382
-109.361
-109.34
-109.319
-109.297
-109.275
-109.253
-109.232
-109.211
-109.191
-109.171
-109.152
-109.134
-109.116
-109.099
-109.083
-109.068
-109.054
-109.04
-109.027
-109.015
-109.003
-108.991
-108.98
-108.967
-108.954
-108.939
-108.923
-108.901
-108.875
-108.844
-108.803