/*--------------------------------*- C++ -*----------------------------------*\
| =========                 |                                                 |
| \\      /  F ield         | OpenFOAM: The Open Source CFD Toolbox           |
|  \\    /   O peration     | Version:  2.3.0                                 |
|   \\  /    A nd           | Web:      www.OpenFOAM.org                      |
|    \\/     M anipulation  |                                                 |
\*---------------------------------------------------------------------------*/
FoamFile
{
    version     2.0;
    format      ascii;
    class       surfaceScalarField;
    location    "3000";
    object      phi;
}
// * * * * * * * * * * * * * * * * * * * * * * * * * * * * * * * * * * * * * //

dimensions      [0 3 -1 0 0 0 0];

internalField   nonuniform List<scalar> 
75810
(
-0.00593485
-0.00563589
0.00619056
0.00538066
-0.00644855
-0.00539316
0.00590686
-0.00691674
-0.00516441
0.0056326
-0.0073477
-0.00493979
0.00537075
-0.00773868
-0.00472775
0.00511873
-0.00809072
-0.00452293
0.00487496
-0.00841041
-0.00432578
0.00464548
-0.00869286
-0.00413485
0.0044173
-0.00894459
-0.00395336
0.00420509
-0.00916553
-0.00377784
0.00399878
-0.00936014
-0.0036062
0.0038008
-0.00952211
-0.00344513
0.0036071
-0.00965916
-0.00328969
0.00342673
-0.00977166
-0.00313745
0.00324995
-0.00985811
-0.00299095
0.00307739
-0.00992261
-0.00285081
0.00291531
-0.00996566
-0.00271548
0.00275853
-0.00998877
-0.00258166
0.00260477
-0.00998888
-0.00245753
0.00245764
-0.00997114
-0.00233259
0.00231485
-0.009932
-0.00221367
0.00217453
-0.00987462
-0.00209881
0.00204143
-0.00979695
-0.00198616
0.00190849
-0.0097019
-0.00187392
0.00177887
-0.00958571
-0.00176853
0.00165234
-0.00944967
-0.0016648
0.00152875
-0.0092968
-0.00156081
0.00140794
-0.00912537
-0.00145964
0.00128821
-0.00893456
-0.00135915
0.00116834
-0.00873069
-0.00125976
0.00105589
-0.00850778
-0.00116229
0.00093938
-0.00827422
-0.0010631
0.000829527
-0.00803283
-0.000964237
0.000722845
-0.00778276
-0.000865898
0.000615832
-0.00753446
-0.000763902
0.0005156
-0.00728975
-0.000662284
0.000417571
-0.00705691
-0.000556106
0.000323268
-0.00684193
-0.000450242
0.000235253
-0.00665252
-0.00034236
0.00015295
-0.0065021
-0.000230747
8.03122e-05
-0.00639331
-0.000124098
1.53125e-05
-0.00633029
-2.31759e-05
-3.98536e-05
7.74541e-05
-0.00639767
-1.00648e-05
-0.00534819
-0.00513705
0.00484935
-0.00580278
-0.00493858
-0.00622209
-0.0047451
-0.00660131
-0.00456057
-0.00694835
-0.00438071
-0.0072617
-0.00420958
-0.0075445
-0.00404298
-0.00779521
-0.00388413
-0.00801769
-0.00373088
-0.00821354
-0.00358199
-0.00838069
-0.00343904
-0.00852357
-0.00330225
-0.00864787
-0.00316539
-0.00874549
-0.00303983
-0.00882394
-0.00291249
-0.00888037
-0.00279438
-0.0089186
-0.00267725
-0.00893904
-0.00256122
-0.00894426
-0.00245231
-0.00893286
-0.002344
-0.00890361
-0.00224292
-0.00886382
-0.0021386
-0.00881394
-0.00203605
-0.00874621
-0.00194165
-0.00866943
-0.00184532
-0.00858584
-0.00174839
-0.00849076
-0.00165589
-0.00838785
-0.00156256
-0.00827554
-0.00147145
-0.00815582
-0.00137949
-0.0080291
-0.00128901
-0.00789609
-0.00119611
-0.0077542
-0.00110612
-0.00760619
-0.00101392
-0.00744558
-0.000924507
-0.00727445
-0.000833418
-0.00708801
-0.00074255
-0.00688318
-0.000655065
-0.00665837
-0.000567173
-0.00640606
-0.000483061
-0.00612527
-0.000404885
-0.00581707
-0.000331381
-0.000266472
-0.00547314
-0.00481959
-0.00469886
0.0043814
-0.00522492
-0.00453325
-0.00559559
-0.00437443
-0.00593617
-0.00421999
-0.00624152
-0.00407536
-0.00651941
-0.00393169
-0.00676688
-0.00379551
-0.00698894
-0.00366207
-0.00718596
-0.00353386
-0.00735643
-0.00341153
-0.0075046
-0.00329087
-0.00762952
-0.00317732
-0.00773109
-0.00306382
-0.00781548
-0.00295544
-0.00787965
-0.00284831
-0.0079274
-0.00274663
-0.0079576
-0.00264705
-0.00797052
-0.0025483
-0.00796816
-0.00245467
-0.00795108
-0.00236109
-0.00792287
-0.00227113
-0.00788049
-0.00218097
-0.00782427
-0.00209227
-0.00775774
-0.00200818
-0.00768114
-0.00192191
-0.00759286
-0.00183667
-0.00749344
-0.00175531
-0.00738607
-0.00166993
-0.00726942
-0.0015881
-0.0071452
-0.0015037
-0.00701175
-0.00142246
-0.00686962
-0.00133823
-0.0067216
-0.00125415
-0.00656353
-0.00117199
-0.00640257
-0.00108547
-0.00623282
-0.00100317
-0.00605683
-0.000918538
-0.00587442
-0.000837486
-0.00568337
-0.000758218
-0.00548336
-0.000683076
-0.00527717
-0.000611072
-0.00506123
-0.000547323
-0.000492165
-0.00483553
-0.00434554
-0.00430508
0.00395176
-0.00470705
-0.00417174
-0.005037
-0.00404448
-0.00533819
-0.0039188
-0.00561246
-0.0038011
-0.00585997
-0.00368418
-0.00607992
-0.00357556
-0.00627651
-0.00346548
-0.0064494
-0.00336098
-0.00660348
-0.00325744
-0.00673121
-0.00316314
-0.00684275
-0.00306578
-0.00693424
-0.00297234
-0.00700838
-0.0028813
-0.00706316
-0.00279354
-0.00710319
-0.0027066
-0.00712781
-0.00262243
-0.00713404
-0.00254207
-0.00713051
-0.00245821
-0.00711403
-0.00237757
-0.00708365
-0.0023015
-0.00704118
-0.00222344
-0.00698691
-0.00214655
-0.00692595
-0.00206914
-0.00685052
-0.00199734
-0.00676881
-0.00191837
-0.00667935
-0.00184478
-0.00657922
-0.00177006
-0.0064715
-0.00169582
-0.00635514
-0.00162007
-0.00623438
-0.00154322
-0.00610466
-0.00146796
-0.0059673
-0.0013915
-0.00582558
-0.00131371
-0.00567299
-0.00123806
-0.00551745
-0.0011587
-0.00535145
-0.00108454
-0.00518036
-0.00100857
-0.00500095
-0.000937629
-0.00481861
-0.000865416
-0.0046277
-0.000801985
-0.00443035
-0.000744676
-0.000691288
-0.00423123
-0.00391769
-0.00395359
0.00356619
-0.00424127
-0.00384817
-0.00453923
-0.00374651
-0.00480672
-0.00365131
-0.00505176
-0.00355606
-0.00527159
-0.00346436
-0.0054703
-0.00337685
-0.00564563
-0.00329015
-0.0057998
-0.0032068
-0.00593244
-0.0031248
-0.0060496
-0.00304598
-0.0061477
-0.00296768
-0.0062262
-0.00289383
-0.00629
-0.0028175
-0.00633946
-0.00274408
-0.00637201
-0.00267405
-0.00639078
-0.00260366
-0.00639818
-0.00253466
-0.00639088
-0.0024655
-0.00637125
-0.0023972
-0.00634077
-0.00233198
-0.00630145
-0.00226276
-0.00625058
-0.00219741
-0.00618832
-0.0021314
-0.00612275
-0.00206291
-0.00604149
-0.00199964
-0.00595724
-0.00192902
-0.0058624
-0.0018649
-0.0057618
-0.00179641
-0.00565381
-0.00172806
-0.00554028
-0.00165675
-0.00541958
-0.00158865
-0.00529344
-0.00151765
-0.00516029
-0.00144685
-0.00502185
-0.0013765
-0.00487608
-0.00130448
-0.00472833
-0.00123229
-0.00457435
-0.00116255
-0.00441531
-0.00109667
-0.00425003
-0.0010307
-0.00408254
-0.000969482
-0.00391358
-0.000913632
-0.00086644
-0.00373843
-0.00353387
-0.00363875
0.00321903
-0.00382348
-0.00355856
-0.00408807
-0.00348192
-0.00433129
-0.00340809
-0.00454969
-0.00333766
-0.00474599
-0.00326806
-0.0049243
-0.00319853
-0.00508106
-0.0031334
-0.00521919
-0.00306867
-0.00534011
-0.00300389
-0.00544339
-0.0029427
-0.00552993
-0.00288114
-0.00560175
-0.00282201
-0.00565827
-0.00276098
-0.0056989
-0.00270345
-0.00572844
-0.00264451
-0.00574439
-0.0025877
-0.00574919
-0.00252986
-0.00574125
-0.00247344
-0.0057226
-0.00241585
-0.00569515
-0.00235943
-0.00565599
-0.00230193
-0.00560838
-0.00224502
-0.00555272
-0.00218706
-0.00548767
-0.00212796
-0.00541655
-0.00207076
-0.00533476
-0.00201082
-0.00525023
-0.00194943
-0.00515704
-0.0018896
-0.00505829
-0.00182681
-0.00495245
-0.00176259
-0.00484114
-0.00169996
-0.00472295
-0.00163583
-0.00460099
-0.00156881
-0.00447536
-0.00150213
-0.00434606
-0.00143378
-0.00420886
-0.00136948
-0.0040682
-0.00130321
-0.00392529
-0.00123958
-0.00377665
-0.00117933
-0.00362601
-0.00112012
-0.00347114
-0.0010685
-0.00102007
-0.00331751
-0.00319207
-0.00335226
0.00290557
-0.00345123
-0.0032994
-0.00368981
-0.00324334
-0.00390516
-0.00319274
-0.00410187
-0.00314095
-0.00427971
-0.00309022
-0.00443684
-0.00304141
-0.00457729
-0.00299294
-0.00470214
-0.00294382
-0.00480821
-0.00289782
-0.00490222
-0.00284869
-0.00497993
-0.00280343
-0.005045
-0.00275694
-0.00509256
-0.00271343
-0.00513231
-0.00266369
-0.00515664
-0.00262018
-0.00517079
-0.00257356
-0.00517316
-0.00252749
-0.00516692
-0.00247968
-0.00514835
-0.00243442
-0.00512139
-0.00238639
-0.00508555
-0.00233776
-0.00504187
-0.00228871
-0.0049902
-0.00223873
-0.00492928
-0.00218888
-0.00486219
-0.00213784
-0.00478935
-0.00208366
-0.00470922
-0.00202956
-0.00462355
-0.00197527
-0.0045326
-0.00191776
-0.00443497
-0.00186022
-0.00433487
-0.00180007
-0.0042294
-0.0017413
-0.00411733
-0.00168088
-0.00400328
-0.00161618
-0.00388158
-0.00155548
-0.00375834
-0.00149272
-0.00363173
-0.00142982
-0.00350064
-0.00137067
-0.00336893
-0.00131104
-0.00323108
-0.00125797
-0.00309377
-0.00120581
-0.00115794
-0.0029559
-0.00288019
-0.00309885
0.00262677
-0.00311697
-0.00306262
-0.0033286
-0.00303171
-0.00352347
-0.00299787
-0.00370089
-0.00296354
-0.00385994
-0.00293117
-0.00400189
-0.00289946
-0.00412926
-0.00286557
-0.00424088
-0.00283221
-0.00433847
-0.00280023
-0.00442026
-0.00276689
-0.00449088
-0.00273281
-0.00454753
-0.0027003
-0.00459394
-0.00266702
-0.00462592
-0.00263171
-0.00464856
-0.00259755
-0.00465992
-0.00256219
-0.00466453
-0.00252288
-0.00465363
-0.00249058
-0.00463898
-0.00244908
-0.00461408
-0.00241128
-0.00458077
-0.00237108
-0.00453941
-0.00233007
-0.00449045
-0.00228768
-0.00443685
-0.00224248
-0.00437592
-0.00219877
-0.00430925
-0.00215033
-0.00423531
-0.00210349
-0.00415873
-0.00205186
-0.00407394
-0.00200255
-0.003986
-0.00194815
-0.00389305
-0.00189302
-0.00379455
-0.0018398
-0.00369516
-0.00178028
-0.00358842
-0.00172292
-0.00347835
-0.00166555
-0.00336662
-0.00160445
-0.00325202
-0.00154442
-0.00313473
-0.00148796
-0.00301317
-0.0014326
-0.00289002
-0.00138112
-0.00276394
-0.00133189
-0.00128445
-0.00263742
-0.00260354
0.00237252
-0.00286783
-0.00281223
-0.00285392
-0.00300523
-0.00283871
-0.00318203
-0.00282107
-0.0033399
-0.00280567
-0.0034841
-0.00278697
-0.00361452
-0.00276905
-0.00372825
-0.00275184
-0.00382867
-0.00273178
-0.00391683
-0.00271207
-0.0039893
-0.00269443
-0.00405259
-0.00266952
-0.00410596
-0.00264692
-0.00414498
-0.00262801
-0.00417638
-0.00260031
-0.00419552
-0.00257841
-0.00420717
-0.00255054
-0.00420697
-0.00252309
-0.00420139
-0.00249615
-0.00418549
-0.00246498
-0.00416328
-0.00243349
-0.00413122
-0.00240313
-0.00409574
-0.00236556
-0.00405246
-0.00233096
-0.00400033
-0.00229461
-0.00394541
-0.00225369
-0.00388364
-0.0022121
-0.00381637
-0.00217076
-0.0037428
-0.00212543
-0.00366806
-0.00207729
-0.00358595
-0.00203026
-0.00350107
-0.0019779
-0.00341376
-0.00192711
-0.00331829
-0.00187575
-0.00322315
-0.00181806
-0.00312549
-0.00176322
-0.00302371
-0.00170623
-0.00291784
-0.00165029
-0.00281076
-0.00159504
-0.0026999
-0.00154347
-0.00258862
-0.0014924
-0.00247698
-0.00144353
-0.00236104
-0.0014004
-0.00575481
0.000140587
-0.000783448
-0.00531196
0.000128068
-0.000570918
-0.00495578
0.000103808
-0.000459987
-0.00465003
7.29111e-05
-0.000378652
-0.00437722
3.65821e-05
-0.000309392
-0.00412765
-1.2437e-06
-0.000248328
-0.00389735
-4.11502e-05
-0.000189147
-0.00368259
-8.15457e-05
-0.000133214
-0.00347953
-0.000124318
-7.87423e-05
-0.00328631
-0.000168175
-2.50386e-05
-0.00310193
-0.000211104
2.67245e-05
-0.002925
-0.000257029
8.0101e-05
-0.00275492
-0.000303106
0.000133027
-0.0025913
-0.000349497
0.000185869
-0.00243362
-0.000398108
0.000240427
-0.00228189
-0.00044648
0.000294758
-0.00213596
-0.000497919
0.000351982
-0.00199533
-0.000550129
0.000409509
-0.00186092
-0.000603391
0.000468976
-0.00173354
-0.000658527
0.000531144
-0.00161173
-0.000715606
0.000593796
-0.00149771
-0.000774978
0.000660957
-0.00139071
-0.000835891
0.000728891
-0.0012912
-0.000899334
0.000799829
-0.00120055
-0.000965341
0.000874693
-0.00111914
-0.0010336
0.000952193
-0.00104657
-0.00110547
0.0010329
-0.000984843
-0.00117916
0.00111743
-0.000933969
-0.00125631
0.00120544
-0.000894914
-0.00133751
0.00129845
-0.000868567
-0.00142116
0.00139481
-0.000855756
-0.00150892
0.00149611
-0.000858033
-0.00160014
0.00160242
-0.00087536
-0.00169613
0.00171345
-0.000908978
-0.0017961
0.00182972
-0.000960741
-0.00190039
0.00195215
-0.0010306
-0.00200962
0.00207947
-0.00112071
-0.00212343
0.00221355
-0.00123196
-0.00224273
0.00235399
-0.00136599
-0.00236751
0.00250154
-0.001524
-0.00249767
0.00265568
-0.00170747
-0.0026343
0.00281777
-0.0027777
0.00298663
-0.0019164
-0.00511349
-0.000219063
-0.00478695
-0.000198479
-0.00449168
-0.00019146
-0.00422327
-0.000195499
-0.00397837
-0.000208317
-0.00375175
-0.000227857
-0.00354162
-0.000251281
-0.00334304
-0.000280128
-0.00315614
-0.000311222
-0.00297918
-0.000345136
-0.00280799
-0.000382293
-0.00264561
-0.000419408
-0.00248948
-0.000459234
-0.00233923
-0.000499747
-0.00219463
-0.000542705
-0.00205496
-0.000586151
-0.00192169
-0.00063119
-0.00179414
-0.000677685
-0.00167252
-0.000725012
-0.00155649
-0.000774549
-0.00144689
-0.000825211
-0.00134424
-0.000877622
-0.00124892
-0.000931214
-0.00116075
-0.000987509
-0.00108081
-0.00104528
-0.00100906
-0.00110536
-0.000947489
-0.00116704
-0.000894688
-0.00123196
-0.000852041
-0.00129896
-0.000821383
-0.00136817
-0.000801717
-0.00144082
-0.000794625
-0.00151602
-0.000800645
-0.00159412
-0.000821336
-0.00167543
-0.000856477
-0.00176096
-0.000907737
-0.00184913
-0.000975982
-0.00194137
-0.0010623
-0.00203711
-0.00116724
-0.00213779
-0.00129274
-0.00224202
-0.00143926
-0.00235115
-0.00160826
-0.0024653
-0.00258359
-0.00180237
-0.00459962
-0.000454977
-0.0043653
-0.0004328
-0.00413602
-0.000420744
-0.00391484
-0.000416672
-0.00370202
-0.000421145
-0.00349906
-0.000430814
-0.00330331
-0.000447034
-0.00311789
-0.000465544
-0.00293896
-0.000490156
-0.00276733
-0.000516763
-0.0026045
-0.000545121
-0.00244717
-0.000576745
-0.00229696
-0.000609436
-0.00215186
-0.000644853
-0.00201368
-0.000680882
-0.00188046
-0.000719369
-0.00175412
-0.000757531
-0.0016338
-0.000798011
-0.00151983
-0.00083898
-0.00141202
-0.000882362
-0.00131099
-0.00092624
-0.0012169
-0.000971706
-0.00112942
-0.0010187
-0.00104954
-0.00106739
-0.000977736
-0.00111708
-0.000914415
-0.00116868
-0.000859492
-0.00122196
-0.000813983
-0.00127747
-0.000777945
-0.001335
-0.000752614
-0.0013935
-0.000737838
-0.0014556
-0.000734947
-0.00151891
-0.000743773
-0.00158529
-0.00076526
-0.00165395
-0.000801456
-0.00172476
-0.000851636
-0.00179895
-0.000917107
-0.0018759
-0.000998854
-0.00195537
-0.00109776
-0.00203889
-0.0012143
-0.00212548
-0.00134952
-0.00221593
-0.00150498
-0.00230984
-0.00240746
-0.0016811
-0.0040314
-0.000654801
-0.00383352
-0.000630685
-0.00363904
-0.000615221
-0.00345008
-0.000605629
-0.00326678
-0.000604448
-0.00309046
-0.000607137
-0.00292116
-0.000616331
-0.00275659
-0.000630119
-0.00259893
-0.000647814
-0.00244799
-0.000667702
-0.0023025
-0.000690613
-0.00216245
-0.000716793
-0.00202672
-0.000745164
-0.00189822
-0.000773355
-0.00177484
-0.000804263
-0.00165769
-0.000836522
-0.00154501
-0.000870212
-0.00143786
-0.000905159
-0.00133633
-0.000940503
-0.00124082
-0.000977874
-0.00115147
-0.00101559
-0.00106915
-0.00105403
-0.000992793
-0.00109505
-0.000923502
-0.00113668
-0.000861662
-0.00117892
-0.000807664
-0.00122268
-0.000761036
-0.00126859
-0.0007233
-0.0013152
-0.000694647
-0.00136365
-0.000675054
-0.00141309
-0.000665787
-0.00146487
-0.000667359
-0.00151733
-0.000679628
-0.00157303
-0.000703563
-0.00163001
-0.000739691
-0.00168864
-0.00078932
-0.00174932
-0.000852702
-0.00181252
-0.000930051
-0.00187802
-0.00102329
-0.00194565
-0.00113207
-0.00201669
-0.00125852
-0.00208948
-0.00140286
-0.00216549
-0.00224524
-0.00156508
-0.0035665
-0.000826727
-0.0033959
-0.00080129
-0.00322735
-0.000783769
-0.00306267
-0.000770312
-0.00290373
-0.000763383
-0.00274768
-0.000763191
-0.0025958
-0.000768204
-0.0024507
-0.000775223
-0.00231012
-0.000788399
-0.00217409
-0.000803728
-0.00204269
-0.000822015
-0.00191678
-0.000842697
-0.00179648
-0.00086547
-0.00167976
-0.000890071
-0.00156873
-0.000915295
-0.00146243
-0.000942825
-0.00136115
-0.000971492
-0.00126569
-0.00100061
-0.00117478
-0.00103142
-0.00109079
-0.00106187
-0.00101159
-0.00109479
-0.000937718
-0.0011279
-0.000870803
-0.00116196
-0.00081096
-0.00119653
-0.000757258
-0.00123263
-0.000710128
-0.00126981
-0.000671198
-0.00130752
-0.000640212
-0.00134619
-0.000617069
-0.00138679
-0.00060277
-0.00142739
-0.000597752
-0.00146988
-0.000601317
-0.00151377
-0.000615992
-0.00155835
-0.000641539
-0.00160446
-0.000678243
-0.00165193
-0.000726555
-0.00170101
-0.000787295
-0.00175178
-0.000861401
-0.00180391
-0.000948755
-0.0018583
-0.00105165
-0.0019138
-0.00116925
-0.00197188
-0.00130253
-0.00203222
-0.00209413
-0.00145364
-0.00316303
-0.000981208
-0.00301096
-0.000953361
-0.00286247
-0.000932256
-0.00271677
-0.000916013
-0.00257358
-0.000906565
-0.00243478
-0.000901994
-0.00230069
-0.000902292
-0.00217021
-0.000905708
-0.00204353
-0.000915081
-0.00192176
-0.0009255
-0.00180498
-0.000938792
-0.00169215
-0.000955525
-0.00158325
-0.000974371
-0.00147944
-0.000993879
-0.00137977
-0.00101496
-0.00128455
-0.00103805
-0.00119452
-0.00106152
-0.00110925
-0.00108588
-0.00102939
-0.00111128
-0.000953808
-0.00113745
-0.000883447
-0.00116515
-0.000819253
-0.0011921
-0.000760612
-0.00122061
-0.000708043
-0.0012491
-0.000660985
-0.00127969
-0.00062183
-0.00130896
-0.00058893
-0.00134042
-0.000562642
-0.00137248
-0.000544653
-0.00140478
-0.000534747
-0.0014373
-0.000532734
-0.0014719
-0.000539621
-0.00150688
-0.000555932
-0.00154204
-0.000581739
-0.00157866
-0.000618011
-0.00161566
-0.00066475
-0.00165427
-0.000723135
-0.00169339
-0.000793192
-0.00173385
-0.000876433
-0.00177506
-0.000971582
-0.00181865
-0.00108106
-0.0018624
-0.00120535
-0.00190793
-0.00195558
-0.0013439
-0.00281551
-0.0011216
-0.00268
-0.00108886
-0.00254684
-0.00106542
-0.00241444
-0.00104841
-0.00228756
-0.00103344
-0.00216325
-0.0010263
-0.002042
-0.00102355
-0.00192484
-0.00102286
-0.00181208
-0.00102784
-0.00170268
-0.0010349
-0.00159669
-0.00104478
-0.00149502
-0.0010572
-0.00139782
-0.00107156
-0.00130439
-0.00108731
-0.00121475
-0.0011046
-0.00112986
-0.00112294
-0.00104898
-0.0011424
-0.000973123
-0.00116174
-0.000900877
-0.00118353
-0.000833947
-0.00120438
-0.000772572
-0.00122653
-0.0007153
-0.00124937
-0.000663898
-0.00127201
-0.000617285
-0.00129571
-0.000577666
-0.0013193
-0.000542757
-0.00134387
-0.000514933
-0.00136824
-0.000494179
-0.00139323
-0.000479929
-0.00141903
-0.000472439
-0.00144479
-0.000473767
-0.00147057
-0.000482628
-0.00149802
-0.000499387
-0.00152528
-0.000525938
-0.00155211
-0.000561088
-0.00158051
-0.000606672
-0.00160869
-0.000662704
-0.00163736
-0.000728838
-0.00166772
-0.000805673
-0.00169822
-0.000895719
-0.00172861
-0.000997529
-0.00176059
-0.00111217
-0.00179328
-0.00182663
-0.00124112
-0.00251439
-0.00124463
-0.00238922
-0.00121404
-0.00226908
-0.00118556
-0.00215207
-0.00116543
-0.00203668
-0.00114883
-0.00192488
-0.00113811
-0.00181689
-0.00113154
-0.00171008
-0.00112967
-0.0016084
-0.00112952
-0.001511
-0.00113229
-0.00141527
-0.00114052
-0.00132327
-0.0011492
-0.0012355
-0.00115934
-0.00115125
-0.00117156
-0.00107133
-0.00118452
-0.000994545
-0.00119972
-0.000922518
-0.00121443
-0.000853487
-0.00123077
-0.000790045
-0.00124697
-0.000729943
-0.00126448
-0.000674943
-0.00128152
-0.000624352
-0.00129996
-0.00057927
-0.00131709
-0.000538946
-0.00133603
-0.000503323
-0.00135493
-0.000474374
-0.00137282
-0.000450524
-0.00139209
-0.000432797
-0.00141096
-0.000421983
-0.00142984
-0.000417961
-0.00144881
-0.000419788
-0.00146874
-0.000429804
-0.00148801
-0.000447967
-0.00150712
-0.000473441
-0.00152663
-0.000508546
-0.00154541
-0.000552207
-0.00156503
-0.000604505
-0.00158506
-0.00066662
-0.0016056
-0.000739819
-0.00162503
-0.000822365
-0.00164606
-0.000916782
-0.00166618
-0.00102308
-0.00168699
-0.00170868
-0.00114103
-0.00224689
-0.00135878
-0.00213793
-0.001323
-0.00202735
-0.00129614
-0.00192133
-0.00127145
-0.00181694
-0.00125322
-0.001715
-0.00124005
-0.00161787
-0.00122866
-0.00152325
-0.00122429
-0.00143092
-0.00122186
-0.001342
-0.00122121
-0.0012566
-0.00122592
-0.00117276
-0.00123304
-0.00109348
-0.00123861
-0.00101847
-0.00124658
-0.00094508
-0.00125791
-0.000876271
-0.00126853
-0.00081112
-0.00127958
-0.000749786
-0.00129211
-0.000692454
-0.0013043
-0.000639778
-0.00131716
-0.000590231
-0.00133107
-0.000546185
-0.00134401
-0.00050544
-0.00135783
-0.000469269
-0.0013722
-0.000439421
-0.00138478
-0.000413785
-0.00139845
-0.000393292
-0.00141258
-0.000379078
-0.00142517
-0.00037027
-0.00143865
-0.000368048
-0.00145103
-0.000372306
-0.00146448
-0.000381884
-0.00147843
-0.000400408
-0.00148859
-0.000426862
-0.00150018
-0.000459862
-0.00151241
-0.000501238
-0.00152365
-0.000550937
-0.00153537
-0.000608703
-0.00154784
-0.000676497
-0.00155723
-0.000754241
-0.00156832
-0.000841694
-0.00157872
-0.000938908
-0.00158978
-0.00104726
-0.00160033
0.00121053
-9.63841e-05
0.000128275
-0.00124242
0.0011866
-4.76258e-05
7.15597e-05
0.00117049
-2.69882e-06
1.88023e-05
0.00116096
3.84611e-05
-2.89321e-05
0.00115691
7.71132e-05
-7.30637e-05
0.00115761
0.00011203
-0.00011272
0.0011621
0.000143865
-0.000148357
0.00116942
0.000173512
-0.000180833
0.00117935
0.000199998
-0.000209932
0.00119071
0.000224119
-0.000235473
0.00120266
0.00024602
-0.00025797
0.00121534
0.000265623
-0.000278304
0.00122792
0.000283148
-0.00029573
0.00123941
0.000299314
-0.000310806
0.00124964
0.000313167
-0.000323391
0.00125865
0.000325598
-0.000334613
0.00126573
0.000336353
-0.000343434
0.00127044
0.000346222
-0.000350929
0.00127239
0.000354384
-0.000356339
0.0012716
0.000361587
-0.000360797
0.00126771
0.000367647
-0.000363756
0.00126049
0.000372616
-0.000365392
0.00124999
0.000376889
-0.000366386
0.00123578
0.000379994
-0.000365782
0.0012183
0.00038259
-0.00036511
0.00119696
0.000384215
-0.000362878
0.00117139
0.000385829
-0.000360262
0.00114242
0.000386052
-0.000357074
0.00110917
0.00038636
-0.000353114
0.00107268
0.000385744
-0.000349255
0.00103204
0.000384923
-0.000344286
0.000987882
0.000383964
-0.000339802
0.000939447
0.000382452
-0.000334017
0.000887241
0.000380829
-0.000328623
0.000831257
0.000379149
-0.000323165
0.000770959
0.000377694
-0.000317395
0.000705617
0.000376923
-0.00031158
0.000632795
0.000378065
-0.000305243
0.000548559
0.000383952
-0.000299716
0.000442602
0.00040119
-0.000295232
0.000288891
0.000448952
-0.000295241
2.31664e-05
0.000578702
-0.000312977
0.000960849
-0.000555925
-0.000381757
0.00109601
-7.01793e-05
-0.00112222
0.00107751
-2.91285e-05
0.00106513
9.68293e-06
0.00105791
4.56857e-05
0.0010557
7.93175e-05
0.00105738
0.000110353
0.00106235
0.000138899
0.00106993
0.000165928
0.00107959
0.00019034
0.00109044
0.000213271
0.00110239
0.000234068
0.00111478
0.000253233
0.0011268
0.000271127
0.0011385
0.000287609
0.00114955
0.000302118
0.00115899
0.000316161
0.00116695
0.000328391
0.00117339
0.000339784
0.0011773
0.000350472
0.00117866
0.000360226
0.00117785
0.000368466
0.00117359
0.000376869
0.00116685
0.000383629
0.00115645
0.0003904
0.00114234
0.000396693
0.00112462
0.000401942
0.00110395
0.000406496
0.00107853
0.000411475
0.00104969
0.000415199
0.00101609
0.000419338
0.000978663
0.000422353
0.000936401
0.000426225
0.000889568
0.000429286
0.00083707
0.000433327
0.000778205
0.000438014
0.000711651
0.000444248
0.000634808
0.000453766
0.000543173
0.0004697
0.000427701
0.000499425
0.00027307
0.000555821
5.06548e-05
0.000671368
-0.000287339
0.000916696
0.00141774
-0.00074423
0.000990353
-4.98325e-05
-0.0010107
0.000975756
-1.45314e-05
0.000966347
1.90919e-05
0.000961661
5.03716e-05
0.000961025
7.99535e-05
0.00096391
0.000107469
0.000969101
0.000133707
0.00097672
0.000158309
0.000986228
0.000180833
0.000996925
0.000202574
0.00100848
0.000222515
0.00102003
0.000241679
0.00103181
0.000259347
0.00104333
0.000276088
0.00105354
0.000291907
0.00106334
0.000306361
0.0010711
0.000320636
0.0010774
0.000333484
0.00108223
0.000345646
0.00108495
0.000357498
0.00108463
0.000368788
0.00108224
0.000379257
0.00107651
0.000389359
0.00106812
0.00039879
0.0010564
0.000408412
0.00104136
0.000416984
0.00102202
0.000425843
0.000999435
0.000434057
0.000972333
0.000442301
0.000941124
0.000450547
0.000904179
0.000459298
0.000862684
0.000467721
0.000814616
0.000477354
0.000760015
0.000487928
0.000696731
0.000501298
0.00062264
0.000518339
0.000534441
0.000541965
0.000425131
0.00057901
0.000286563
0.000637993
0.000103697
0.000738687
-0.000144244
0.000919309
-0.000478637
0.00125109
0.00179976
-0.000860653
0.000893178
-3.31796e-05
-0.000909831
0.000881684
-3.03698e-06
0.00087463
2.61458e-05
0.000871426
5.3576e-05
0.000871513
7.9866e-05
0.000874292
0.00010469
0.000879583
0.000128416
0.000887166
0.000150726
0.000895728
0.000172271
0.000905446
0.000192856
0.000915524
0.000212437
0.000926391
0.000230813
0.000937203
0.000248536
0.000947309
0.000265981
0.000957009
0.000282207
0.00096588
0.00029749
0.000973695
0.00031282
0.000979792
0.000327387
0.000983882
0.000341556
0.000986619
0.000354761
0.000987054
0.000368353
0.000985188
0.000381123
0.000980765
0.000393782
0.000973233
0.000406322
0.000962876
0.00041877
0.00094869
0.000431169
0.000931453
0.00044308
0.000909987
0.000455523
0.000884495
0.000467793
0.000853834
0.000481208
0.000818622
0.00049451
0.00077701
0.000509332
0.000728682
0.000525682
0.000672123
0.000544487
0.000605917
0.000567504
0.000527403
0.000596853
0.000432019
0.00063735
0.000314932
0.000696096
0.000167468
0.000785457
-2.26042e-05
0.000928759
-0.000268195
0.0011649
-0.000572457
0.00155535
0.00213467
-0.000907367
0.000804917
-1.96796e-05
-0.000818417
0.000795331
6.54986e-06
0.000790181
3.12953e-05
0.000787775
5.59817e-05
0.000788381
7.92605e-05
0.000791168
0.000101903
0.000796267
0.000123317
0.00080276
0.000144233
0.000810533
0.000164498
0.000819721
0.000183667
0.00082905
0.000203108
0.000838542
0.000221321
0.000847928
0.000239149
0.000857353
0.000256557
0.000865918
0.000273642
0.000873359
0.000290049
0.000880296
0.000305884
0.000885534
0.000322149
0.000889753
0.000337338
0.000892053
0.000352461
0.000892481
0.000367925
0.000890739
0.000382865
0.000886262
0.000398259
0.000879654
0.00041293
0.000869922
0.000428502
0.000857249
0.000443842
0.000841042
0.000459287
0.000820651
0.000475914
0.000795762
0.000492682
0.000766846
0.000510124
0.00073238
0.000528977
0.000691708
0.000550004
0.000643874
0.000573516
0.000587286
0.000601075
0.000520295
0.000634496
0.000440253
0.000676895
0.000343353
0.00073425
0.00022427
0.000815179
7.71538e-05
0.000932574
-0.000106994
0.00111291
-0.000336223
0.00139413
-0.000612092
0.00183122
0.0024321
-0.000909523
0.000723966
-8.91576e-06
-0.00073473
0.000716774
1.37417e-05
0.000712512
3.55576e-05
0.000710998
5.74954e-05
0.000711996
7.82631e-05
0.000715125
9.87737e-05
0.000719608
0.000118834
0.000725561
0.00013828
0.000732724
0.000157335
0.000740196
0.000176195
0.000748833
0.000194471
0.000757281
0.000212873
0.000765437
0.000230993
0.000773485
0.000248509
0.000781292
0.000265835
0.000787797
0.000283544
0.000793429
0.000300252
0.000798309
0.000317268
0.000801572
0.000334075
0.000803294
0.000350739
0.000803496
0.000367723
0.000801693
0.000384668
0.000797828
0.000402124
0.000791303
0.000419454
0.000782138
0.000437667
0.000770095
0.000455885
0.000754536
0.000474846
0.000735438
0.000495013
0.000712404
0.000515716
0.000684419
0.000538109
0.000651173
0.000562222
0.000611739
0.000589439
0.000565539
0.000619716
0.000510828
0.000655786
0.00044572
0.000699604
0.00036707
0.000755546
0.000272255
0.000829064
0.000156261
0.000931173
1.33795e-05
0.00107546
-0.000162456
0.00128874
-0.000374883
0.00160656
-0.000622308
0.00207865
0.00269708
-0.000887297
0.000650978
-2.32398e-07
-0.000659661
0.000645463
1.92564e-05
0.000641747
3.92737e-05
0.000641142
5.81011e-05
0.000642238
7.71664e-05
0.000644945
9.60672e-05
0.000649172
0.000114607
0.000654149
0.000133303
0.000660407
0.000151078
0.000667599
0.000169003
0.000674716
0.000187353
0.000682155
0.000205435
0.000689705
0.000223443
0.000696834
0.000241381
0.000703474
0.000259194
0.000709419
0.000277599
0.000714124
0.000295547
0.000718016
0.000313377
0.000720626
0.000331465
0.000721986
0.000349379
0.00072171
0.000368
0.000719674
0.000386704
0.000715793
0.000406005
0.000709319
0.000425928
0.000701015
0.000445972
0.000689376
0.000467524
0.000674801
0.000489421
0.000656971
0.000512843
0.000635021
0.000537666
0.000608738
0.000564391
0.000577157
0.000593803
0.000540115
0.000626482
0.000495656
0.000664175
0.00044361
0.000707831
0.000381532
0.000761682
0.00030656
0.000830518
0.000216008
0.000919617
0.000105173
0.00104201
-3.30767e-05
0.00121371
-0.000198497
0.00145416
-0.000393722
0.00180178
-0.000615842
0.00230077
0.00293401
-0.000852768
0.000585391
6.70302e-06
-0.000592326
0.000580426
2.42212e-05
0.000578118
4.15822e-05
0.000577623
5.85957e-05
0.000578998
7.57915e-05
0.000581711
9.33542e-05
0.000585439
0.000110879
0.00059024
0.000128502
0.000595743
0.000145575
0.000601401
0.000163345
0.000608311
0.000180443
0.000614798
0.000198948
0.000621152
0.00021709
0.000627329
0.000235203
0.000633044
0.000253479
0.000638334
0.000272309
0.000642502
0.000291379
0.000645808
0.000310071
0.000647893
0.00032938
0.000648401
0.000348871
0.000647804
0.000368596
0.000645613
0.000388895
0.000641746
0.000409873
0.000636
0.000431674
0.000627395
0.000454576
0.000616876
0.000478043
0.000603158
0.000503139
0.00058606
0.000529941
0.000565331
0.000558395
0.000540587
0.000589135
0.000511078
0.000623312
0.000475562
0.000661998
0.000433765
0.000705972
0.00038418
0.000757416
0.000326179
0.000819683
0.000257184
0.000899513
0.000173049
0.00100375
6.99429e-05
0.00114511
-6.07e-05
0.00134435
-0.000217521
0.00161098
-0.000400429
0.00198469
-0.00060131
0.00250165
0.00314517
-0.000812466
0.000526101
1.10633e-05
-0.000530462
0.000522371
2.79514e-05
0.000520479
4.34741e-05
0.000520274
5.8801e-05
0.000521649
7.44166e-05
0.00052421
9.07934e-05
0.000527556
0.000107532
0.000531337
0.000124721
0.000536474
0.000140438
0.000541669
0.000158151
0.000547362
0.00017475
0.000553341
0.000192969
0.000558643
0.000211788
0.00056411
0.000229736
0.000569016
0.000248574
0.000573623
0.000267702
0.000576971
0.000288031
0.000579243
0.000307799
0.00058101
0.000327614
0.000581556
0.000348324
0.000580641
0.000369512
0.000578239
0.000391298
0.000574247
0.000413865
0.00056863