/*--------------------------------*- C++ -*----------------------------------*\
| =========                 |                                                 |
| \\      /  F ield         | OpenFOAM: The Open Source CFD Toolbox           |
|  \\    /   O peration     | Version:  2.3.0                                 |
|   \\  /    A nd           | Web:      www.OpenFOAM.org                      |
|    \\/     M anipulation  |                                                 |
\*---------------------------------------------------------------------------*/
FoamFile
{
    version     2.0;
    format      ascii;
    class       volVectorField;
    location    "3000";
    object      U;
}
// * * * * * * * * * * * * * * * * * * * * * * * * * * * * * * * * * * * * * //

dimensions      [0 1 -1 0 0 0 0];

internalField   nonuniform List<vector> 
38075
(
(20.8337 12.4017 8.59545e-22)
(20.7168 12.6088 -8.43528e-22)
(20.5959 12.8213 -5.3078e-21)
(20.47 13.0358 8.1425e-21)
(20.3395 13.2521 7.5891e-21)
(20.204 13.4699 1.97331e-20)
(20.0632 13.6891 1.43288e-20)
(19.9166 13.9097 -2.38373e-20)
(19.7639 14.1317 -3.28731e-20)
(19.6047 14.3552 3.29103e-20)
(19.4388 14.5801 0)
(19.2657 14.8061 -1.41065e-21)
(19.085 15.0334 -9.75171e-20)
(18.8962 15.2615 2.25792e-19)
(18.6985 15.49 -1.19341e-19)
(18.4913 15.7184 1.21138e-20)
(18.2739 15.9462 1.48962e-20)
(18.0454 16.1722 1.85101e-21)
(17.8046 16.3955 -7.93751e-21)
(17.5502 16.6147 8.70012e-21)
(17.2808 16.8279 0)
(16.9946 17.0333 1.04878e-20)
(16.6893 17.2285 2.553e-19)
(16.3626 17.411 -2.52672e-19)
(16.0116 17.5784 2.85467e-19)
(15.6324 17.7283 -6.38329e-19)
(15.221 17.8584 3.41133e-19)
(14.7723 17.9673 0)
(14.2807 18.0548 1.04476e-20)
(13.7393 18.121 0)
(13.1403 18.1669 -1.2215e-21)
(12.4751 18.1971 0)
(11.732 18.215 0)
(10.8991 18.2274 1.73321e-20)
(9.9632 18.2414 1.80546e-21)
(8.90864 18.2619 2.53889e-19)
(7.72251 18.2981 -2.8049e-19)
(6.39272 18.3523 0)
(4.90771 18.4135 -1.61028e-19)
(3.26183 18.4634 9.90695e-20)
(1.50194 18.5925 5.42445e-20)
(-0.289052 18.9722 0)
(-2.12262 19.1885 0)
(20.6278 12.3048 0)
(20.5141 12.4901 1.05225e-20)
(20.3979 12.6829 -2.85837e-21)
(20.2775 12.8747 0)
(20.1533 13.0678 0)
(20.0247 13.2619 2.33706e-20)
(19.8915 13.4571 -6.09403e-21)
(19.7533 13.6535 -9.40543e-22)
(19.6097 13.8512 -2.14178e-20)
(19.4604 14.0503 4.844e-21)
(19.3049 14.2509 -1.92842e-20)
(19.1429 14.453 1.58487e-20)
(18.9741 14.6568 0)
(18.7979 14.8624 4.96947e-21)
(18.6138 15.0698 0)
(18.421 15.2791 1.78752e-20)
(18.2189 15.4906 -2.23605e-20)
(18.0065 15.7041 9.74145e-22)
(17.7828 15.9199 0)
(17.5468 16.1383 -1.99416e-20)
(17.2973 16.3593 2.36094e-20)
(17.0329 16.5832 3.54664e-21)
(16.7523 16.8097 2.84475e-21)
(16.4538 17.0389 4.23336e-21)
(16.1361 17.2708 4.70062e-21)
(15.7971 17.5047 3.77638e-20)
(15.435 17.7397 -3.83244e-20)
(15.0482 17.9747 0)
(14.6346 18.2078 0)
(14.1923 18.4366 4.65488e-21)
(13.7189 18.6574 1.13352e-21)
(13.2122 18.8656 1.7125e-19)
(12.6696 19.0555 -1.85308e-19)
(12.0891 19.2193 2.67422e-19)
(11.4688 19.3468 -2.88384e-19)
(10.8071 19.4263 0)
(10.1037 19.4429 5.51025e-19)
(9.35979 19.38 -5.68013e-19)
(8.57746 19.2162 -4.2203e-19)
(7.76521 18.9276 9.81868e-19)
(6.94029 18.4952 -1.13473e-18)
(6.10713 17.9064 6.26351e-19)
(5.24257 17.1496 4.44151e-20)
(20.4438 12.2155 1.34345e-20)
(20.3325 12.3761 -2.43382e-20)
(20.2176 12.5463 -2.74432e-20)
(20.099 12.7169 2.73939e-20)
(19.9767 12.8887 8.59255e-21)
(19.8505 13.0615 5.47371e-20)
(19.7198 13.2352 -4.95441e-20)
(19.5843 13.4098 0)
(19.4436 13.5853 5.50611e-20)
(19.2973 13.7619 -1.06159e-19)
(19.145 13.9395 5.53701e-20)
(18.9864 14.1184 4.82999e-21)
(18.8211 14.2984 4.83379e-20)
(18.6488 14.4799 -6.30774e-20)
(18.469 14.6626 1.02358e-20)
(18.2811 14.8467 5.795e-20)
(18.0846 15.0323 1.02434e-20)
(17.8788 15.219 -1.44249e-19)
(17.6627 15.4069 -2.88795e-21)
(17.4356 15.5958 8.04615e-20)
(17.1963 15.7855 -3.2385e-21)
(16.9434 15.9755 -3.47943e-21)
(16.6757 16.1653 -9.64616e-20)
(16.3914 16.3543 1.03199e-19)
(16.0887 16.542 -1.40551e-20)
(15.7656 16.7273 5.14263e-21)
(15.4201 16.9088 -5.82584e-21)
(15.0499 17.0854 1.71689e-19)
(14.6528 17.2549 -1.77951e-19)
(14.2264 17.4153 1.13948e-20)
(13.7685 17.5639 2.48897e-19)
(13.2769 17.6969 5.82701e-21)
(12.7499 17.8105 -2.54394e-19)
(12.1865 17.8993 8.94394e-21)
(11.5864 17.9574 0)
(10.9514 17.9777 0)
(10.2844 17.9519 0)
(9.59148 17.8707 0)
(8.88235 17.7245 0)
(8.17171 17.5036 -2.60507e-20)
(7.47946 17.1998 3.19974e-20)
(6.83 16.8041 0)
(6.25081 16.31 -4.06967e-20)
(20.2873 12.1127 -3.93249e-20)
(20.177 12.2607 -3.121e-20)
(20.065 12.4131 7.98394e-20)
(19.9504 12.5657 5.62736e-22)
(19.8328 12.7192 -3.74247e-20)
(19.7116 12.8734 0)
(19.5866 13.0284 1.19822e-20)
(19.4573 13.1841 1.21677e-20)
(19.3233 13.3405 -1.23769e-20)
(19.1842 13.4977 7.95871e-20)
(19.0395 13.6556 -1.79028e-19)
(18.8888 13.8143 7.73246e-20)
(18.7317 13.9738 9.59592e-21)
(18.5677 14.1342 -9.89414e-20)
(18.3967 14.2956 1.91885e-19)
(18.218 14.4578 -9.04809e-20)
(18.0311 14.6209 2.40025e-21)
(17.8354 14.7848 5.78149e-21)
(17.6301 14.9494 -1.15701e-19)
(17.4146 15.1145 1.19781e-19)
(17.1882 15.2799 -1.31089e-19)
(16.9499 15.4452 2.84157e-19)
(16.6989 15.6098 -3.17169e-19)
(16.434 15.7731 1.70051e-19)
(16.1539 15.9344 2.01804e-19)
(15.8575 16.0924 -1.83091e-19)
(15.5432 16.2459 2.32144e-19)
(15.2096 16.3932 -2.51115e-19)
(14.8554 16.5325 3.2741e-20)
(14.4791 16.661 -1.56123e-20)
(14.0792 16.776 -1.75543e-20)
(13.6548 16.874 1.9818e-20)
(13.2052 16.951 -1.123e-20)
(12.7302 17.0021 -2.23589e-19)
(12.2304 17.0219 2.27317e-19)
(11.7074 17.0041 -4.03448e-20)
(11.1646 16.9424 -4.51699e-20)
(10.6068 16.8299 0)
(10.0409 16.6602 0)
(9.47719 16.4287 0)
(8.92784 16.1322 2.53886e-19)
(8.40664 15.7715 -2.50073e-19)
(7.93054 15.3513 0)
(20.145 12.0175 -2.49099e-20)
(20.0396 12.1496 3.61918e-20)
(19.932 12.286 1.39417e-20)
(19.8217 12.4226 0)
(19.7088 12.56 2.60886e-21)
(19.5926 12.698 0)
(19.4728 12.8367 -2.67516e-20)
(19.3488 12.9761 -1.21904e-20)
(19.2206 13.1163 -2.84781e-20)
(19.0877 13.2571 -1.38337e-21)
(18.9495 13.3985 -1.49311e-21)
(18.8057 13.5404 8.81843e-20)
(18.6558 13.6828 0)
(18.499 13.8259 0)
(18.3354 13.9696 1.33012e-19)
(18.1645 14.1139 -1.41441e-19)
(17.9858 14.2585 1.36744e-19)
(17.7986 14.4036 -2.97851e-19)
(17.6022 14.5486 -4.2007e-21)
(17.3959 14.6936 4.46502e-21)
(17.1791 14.8383 1.61827e-19)
(16.9509 14.9823 2.32294e-20)
(16.7107 15.125 -1.36e-20)
(16.4576 15.2658 -1.20955e-20)
(16.1904 15.4039 0)
(15.9081 15.5382 2.70942e-21)
(15.6094 15.6674 0)
(15.2932 15.7899 1.52718e-19)
(14.9585 15.9042 -1.75725e-19)
(14.6042 16.0077 0)
(14.2291 16.0977 -2.61962e-20)
(13.8328 16.1713 0)
(13.4149 16.2251 0)
(12.9761 16.2551 -3.09445e-19)
(12.5177 16.2569 2.82219e-19)
(12.042 16.2255 8.29954e-20)
(11.5527 16.1556 -3.02144e-21)
(11.0544 16.0424 4.23408e-19)
(10.5538 15.8815 -4.32177e-19)
(10.0593 15.6696 -6.32867e-20)
(9.58072 15.4056 -6.88615e-20)
(9.12927 15.0912 3.75384e-20)
(8.71642 14.7314 0)
(20.0211 11.924 -1.55575e-20)
(19.9199 12.0437 0)
(19.817 12.166 2.16936e-21)
(19.7116 12.2886 3.09323e-20)
(19.6038 12.4121 -1.07867e-19)
(19.4929 12.5362 6.23527e-20)
(19.3788 12.6608 1.47855e-20)
(19.2605 12.7861 0)
(19.1381 12.9124 -1.52896e-20)
(19.0115 13.0393 1.80752e-20)
(18.8799 13.1668 -8.85208e-20)
(18.7434 13.2951 -2.77996e-20)
(18.6013 13.4234 1.46061e-19)
(18.4521 13.5519 -7.42935e-20)
(18.2959 13.6813 0)
(18.133 13.8111 1.08253e-20)
(17.9627 13.9411 -1.12774e-20)
(17.7846 14.0712 1.02009e-19)
(17.5978 14.201 5.12933e-21)
(17.4015 14.3304 -1.07563e-19)
(17.195 14.459 -1.19765e-19)
(16.9777 14.5866 9.51274e-20)
(16.7491 14.7128 2.91734e-20)
(16.5088 14.8368 0)
(16.2557 14.9577 -1.38384e-19)
(15.9891 15.0745 -5.37718e-21)
(15.7078 15.186 1.53026e-19)
(15.4108 15.2907 0)
(15.0977 15.387 -2.42056e-20)
(14.7678 15.473 -2.35193e-19)
(14.4202 15.5459 4.0853e-20)
(14.0543 15.6025 2.66869e-19)
(13.6695 15.6403 -2.76466e-19)
(13.2666 15.6558 3.22176e-19)
(12.8474 15.6456 3.87254e-20)
(12.4147 15.6052 -4.28048e-20)
(11.9715 15.5306 9.7178e-20)
(11.5223 15.4178 0)
(11.0721 15.2634 -5.95726e-20)
(10.6275 15.0651 -2.00197e-21)
(10.1963 14.8225 3.54858e-19)
(9.78709 14.538 -2.09395e-19)
(9.40863 14.2159 -2.34664e-19)
(19.9103 11.8338 1.5171e-20)
(19.8148 11.9443 0)
(19.7176 12.0537 -1.62429e-20)
(19.6167 12.1641 0)
(19.5138 12.2755 0)
(19.4081 12.3877 3.62029e-20)
(19.2996 12.5003 -3.59804e-20)
(19.187 12.6132 7.47552e-20)
(19.0695 12.7276 1.74925e-21)
(18.9488 12.8426 -8.39024e-20)
(18.8229 12.9584 -6.10142e-20)
(18.6923 13.0756 9.95585e-20)
(18.5581 13.1925 7.31942e-20)
(18.4165 13.3088 -8.43212e-20)
(18.2668 13.4263 1.01493e-19)
(18.1108 13.5443 -1.94737e-19)
(17.9476 13.6626 1.0552e-19)
(17.7772 13.7808 -1.13671e-19)
(17.5987 13.8985 9.06635e-20)
(17.4112 14.0155 0)
(17.214 14.1316 1.38237e-20)
(17.0059 14.2461 0)
(16.7863 14.3593 -3.2664e-20)
(16.5559 14.4703 0)
(16.3136 14.5781 0)
(16.0587 14.6816 -3.9933e-20)
(15.7901 14.7799 -1.76877e-19)
(15.5073 14.8711 1.57337e-19)
(15.2093 14.954 2.42061e-20)
(14.8958 15.0273 -2.26609e-19)
(14.5674 15.0886 2.32797e-19)
(14.2241 15.1344 2.35548e-19)
(13.8641 15.1616 -2.7414e-19)
(13.4865 15.1679 1.21771e-19)
(13.0938 15.151 -1.63583e-19)
(12.6904 15.1065 0)
(12.278 15.0312 -1.00575e-19)
(11.8621 14.9218 0)
(11.4467 14.775 5.89468e-20)
(11.0373 14.5889 1.29063e-19)
(10.6398 14.3627 1.43268e-19)
(10.2595 14.0998 -6.99953e-20)
(9.90555 13.8042 7.89176e-20)
(19.8119 11.7547 0)
(19.7226 11.8516 -9.82936e-21)
(19.6322 11.9489 -1.00206e-20)
(19.535 12.0483 0)
(19.4369 12.1496 -3.93585e-20)
(19.3358 12.2515 4.92869e-20)
(19.2329 12.3543 4.04797e-20)
(19.1268 12.4562 -4.02499e-20)
(19.0127 12.5603 -1.06413e-20)
(18.8978 12.6657 -1.01155e-20)
(18.778 12.7702 9.85137e-20)
(18.6502 12.8783 -9.78636e-20)
(18.523 12.9872 1.09011e-20)
(18.3908 13.0932 0)
(18.2466 13.2001 -1.16322e-20)
(18.0972 13.3084 -1.29041e-20)
(17.9398 13.417 1.33608e-20)
(17.7758 13.5259 0)
(17.6042 13.6341 -1.45723e-20)
(17.4244 13.7416 -1.53104e-20)
(17.236 13.848 1.61229e-20)
(17.0375 13.9519 0)
(16.8257 14.0546 1.70976e-20)
(16.6039 14.1556 0)
(16.3709 14.253 0)
(16.1264 14.3464 2.07733e-20)
(15.8688 14.435 0)
(15.5983 14.5166 2.27174e-19)
(15.3131 14.5889 -2.08292e-19)
(15.0128 14.6514 -1.20137e-21)
(14.6982 14.7042 -1.5855e-19)
(14.3729 14.7431 -4.19811e-20)
(14.0341 14.7632 2.94201e-19)
(13.6795 14.762 -1.55226e-19)
(13.3075 14.7402 -1.78609e-19)
(12.9281 14.693 -1.11571e-20)
(12.5381 14.6174 1.97174e-19)
(12.1469 14.5113 0)
(11.7565 14.3713 -3.0621e-19)
(11.3729 14.1963 1.86284e-19)
(11.0013 13.9829 -6.89049e-20)
(10.6412 13.7369 4.23983e-21)
(10.3045 13.4609 -1.51934e-19)
(19.7181 11.6687 1.98227e-20)
(19.6352 11.7637 -3.09716e-20)
(19.5541 11.8514 3.13685e-20)
(19.4627 11.9403 0)
(19.3731 12.0337 0)
(19.2784 12.1263 -5.38547e-20)
(19.1805 12.2221 4.16016e-20)
(19.0831 12.3137 0)
(18.9715 12.4073 1.08001e-20)
(18.8606 12.5074 0)
(18.7495 12.6011 3.54244e-20)
(18.6234 12.6984 -4.75803e-20)
(18.4995 12.8031 -4.85787e-20)
(18.3791 12.9021 4.78045e-20)
(18.2387 12.9987 0)
(18.098 13.0985 -4.09026e-20)
(17.9488 13.1977 9.73577e-20)
(17.7929 13.2986 -5.67906e-20)
(17.628 13.3994 1.47496e-20)
(17.4546 13.4991 7.97974e-20)
(17.2719 13.5987 -8.1836e-20)
(17.0856 13.6944 0)
(16.8809 13.7877 0)
(16.6668 13.8814 0)
(16.4413 13.9708 0)
(16.2079 14.0542 0)
(15.9602 14.1348 0)
(15.7016 14.2104 -1.05397e-19)
(15.4252 14.2768 1.34391e-19)
(15.1352 14.3298 2.91938e-20)
(14.8266 14.3739 -1.65242e-19)
(14.509 14.4078 1.70237e-19)
(14.1744 14.4288 0)
(13.8407 14.4235 0)
(13.4803 14.3986 0)
(13.123 14.3499 0)
(12.752 14.2718 2.60284e-19)
(12.3869 14.1653 -2.15234e-19)
(12.0244 14.0261 5.93211e-20)
(11.6681 13.8596 0)
(11.3253 13.6523 6.84636e-20)
(10.9743 13.4255 -7.61918e-20)
(10.6451 13.1679 1.49539e-19)
(-3.77177 17.8278 -3.14626e-19)
(-3.01801 16.1529 2.59044e-19)
(-2.25884 14.7186 -7.86482e-20)
(-1.53145 13.5852 8.01805e-20)
(-0.845643 12.6526 0)
(-0.203768 11.8658 0)
(0.395696 11.1909 -4.11842e-20)
(0.952002 10.6075 2.96613e-20)
(1.46822 10.0985 -6.70581e-20)
(1.94754 9.65045 0)
(2.39357 9.2533 0)
(2.81067 8.89869 0)
(3.2026 8.57993 5.78707e-20)
(3.57227 8.29165 -5.57306e-20)
(3.9217 8.02879 0)
(4.25271 7.78761 -1.60077e-18)
(4.56683 7.56461 1.65255e-18)
(4.86551 7.35709 1.55528e-18)
(5.15024 7.16294 -1.60976e-18)
(5.42226 6.9801 0)
(5.68282 6.80725 8.96687e-20)
(5.93289 6.64274 8.76726e-20)
(6.17355 6.4856 0)
(6.40564 6.33496 0)
(6.62989 6.18979 8.57083e-20)
(6.84703 6.04943 -1.39874e-18)
(7.05767 5.9133 1.30328e-18)
(7.26234 5.78087 -1.64776e-19)
(7.46155 5.65174 1.63271e-19)
(7.65566 5.5254 -1.62077e-19)
(7.84503 5.40158 -1.5758e-19)
(8.03003 5.28002 -1.57025e-19)
(8.2109 5.16042 0)
(8.38785 5.04259 -1.25321e-18)
(8.5611 4.92635 6.3004e-19)
(8.73083 4.81154 1.57857e-19)
(8.89724 4.69814 6.22531e-19)
(9.06056 4.58606 -6.18358e-19)
(9.221 4.47528 -3.04149e-19)
(9.37887 4.36573 0)
(9.53443 4.25742 3.16486e-21)
(9.68774 4.15005 0)
(9.83902 4.04398 2.79308e-19)
(4.41099 16.2295 -4.98282e-20)
(3.87733 15.2539 2.47971e-19)
(3.59545 14.3531 -2.18999e-19)
(3.48042 13.5338 -2.98543e-20)
(3.47769 12.7951 0)
(3.5512 12.1316 0)
(3.67671 11.5381 5.94357e-19)
(3.83957 11.0054 -5.76273e-19)
(4.02789 10.5268 1.91542e-21)
(4.23272 10.0951 0)
(4.44749 9.70392 5.65982e-20)
(4.66733 9.3477 -5.49596e-20)
(4.88902 9.02162 -9.43738e-19)
(5.11024 8.72178 9.61714e-19)
(5.32937 8.44467 -1.65928e-18)
(5.54527 8.18748 1.7026e-18)
(5.75729 7.94761 0)
(5.96493 7.72287 -9.19388e-20)
(6.16806 7.51145 0)
(6.3666 7.31176 1.34247e-18)
(6.56052 7.12239 -9.04608e-20)
(6.74992 6.94213 -1.45483e-18)
(6.93495 6.77001 1.25695e-18)
(7.11581 6.60513 -1.23886e-18)
(7.2926 6.44667 1.29637e-18)
(7.46553 6.29401 -3.99832e-21)
(7.63478 6.14652 -1.26992e-18)
(7.80055 6.00372 0)
(7.96299 5.86516 -1.09186e-18)
(8.12229 5.73039 2.63682e-18)
(8.27857 5.59909 -1.08405e-18)
(8.43199 5.4709 1.54933e-19)
(8.58269 5.34558 -1.22981e-18)
(8.73077 5.22283 1.84773e-18)
(8.87625 5.1024 1.50012e-19)
(9.01926 4.98416 -7.69696e-19)
(9.15994 4.86799 -1.52105e-19)
(9.29844 4.75382 3.06432e-19)
(9.43492 4.64154 4.55043e-19)
(9.56957 4.53105 -1.49753e-19)
(9.70254 4.42226 4.45473e-19)
(9.83375 4.31582 1.44777e-19)
(9.96457 4.2209 -1.45767e-19)
(5.77623 15.7255 4.56736e-20)
(5.42844 15.0807 0)
(5.19075 14.4164 4.9038e-20)
(5.04735 13.7607 0)
(4.98069 13.1306 1.06585e-19)
(4.97566 12.5348 -1.04299e-19)
(5.01964 11.9777 -5.76797e-20)
(5.10171 11.46 -3.82229e-19)
(5.21247 10.9813 4.79323e-19)
(5.34413 10.5395 -7.99476e-19)
(5.49068 10.132 1.55438e-18)
(5.64755 9.75605 -7.55505e-19)
(5.81117 9.40855 8.98407e-19)
(5.97882 9.08678 -7.27535e-19)
(6.14836 8.78794 9.41054e-20)
(6.31833 8.50972 -9.52947e-20)
(6.48763 8.24984 7.23431e-19)
(6.65553 8.00639 -6.13512e-19)
(6.82145 7.77763 0)
(6.98504 7.56195 1.69795e-19)
(7.14597 7.35799 0)
(7.30422 7.16452 8.04673e-20)
(7.4597 6.98053 1.27885e-18)
(7.61242 6.80497 -2.59631e-18)
(7.7624 6.63704 1.02447e-21)
(7.90974 6.47599 2.38042e-18)
(8.05453 6.32117 -1.21794e-18)
(8.19682 6.17194 -1.13232e-18)
(8.33669 6.02777 -1.49582e-19)
(8.47429 5.88821 1.04689e-18)
(8.60968 5.7528 -1.48153e-19)
(8.74291 5.62115 -4.47446e-19)
(8.87404 5.49293 1.19204e-18)
(9.00312 5.3678 -1.19262e-18)
(9.13011 5.24553 2.99032e-19)
(9.25507 5.12595 -4.47575e-19)
(9.37812 5.00891 3.01458e-19)
(9.49942 4.89428 1.5011e-19)
(9.61907 4.78186 -4.44252e-19)
(9.73719 4.67144 1.47335e-19)
(9.85388 4.56268 -1.26626e-19)
(9.96907 4.45579 -1.7927e-20)
(10.0833 4.36047 -2.7488e-19)
(7.515 14.8813 0)
(7.16831 14.3751 4.9623e-20)
(6.89303 13.8492 -1.92391e-19)
(6.6862 13.3195 2.36122e-20)
(6.54148 12.7979 2.54162e-20)
(6.45113 12.2928 2.13524e-19)
(6.40723 11.8097 -2.08609e-19)
(6.40195 11.3517 -5.27946e-20)
(6.42817 10.9204 0)
(6.47963 10.5159 -5.18605e-20)
(6.55125 10.1376 5.59883e-19)
(6.6385 9.78402 -2.98078e-19)
(6.73767 9.45374 -9.80444e-20)
(6.84585 9.14494 -9.58348e-20)
(6.96076 8.85593 -9.35774e-20)
(7.08036 8.58497 -6.3753e-19)
(7.20323 8.33051 6.19281e-19)
(7.3282 8.09098 6.92519e-19)
(7.45438 7.86507 -1.35211e-18)
(7.58108 7.65144 6.59687e-19)
(7.70772 7.44898 8.02221e-20)
(7.83402 7.25665 -8.01958e-20)
(7.95961 7.0735 -6.24478e-19)
(8.08423 6.89862 -7.61509e-20)
(8.20777 6.7313 3.8113e-22)
(8.33015 6.57085 7.62676e-20)
(8.45127 6.41664 5.95839e-19)
(8.57102 6.26808 -6.64949e-19)
(8.6894 6.12467 5.15025e-19)
(8.80643 5.98599 5.84349e-19)
(8.92207 5.85159 1.45689e-19)
(9.03632 5.72111 -7.29545e-19)
(9.14914 5.59414 -1.44622e-19)
(9.26038 5.47037 0)
(9.37002 5.34967 1.46604e-19)
(9.47809 5.23188 -4.38117e-19)
(9.58471 5.11685 2.93782e-19)
(9.69009 5.00437 1.47264e-21)
(9.79429 4.89419 8.96169e-22)
(9.89743 4.78609 1.44811e-19)
(9.99974 4.67978 1.43903e-19)
(10.1018 4.57513 -1.40764e-19)
(10.2049 4.47549 -1.36787e-19)
(8.35026 14.3329 8.46272e-20)
(8.0361 13.9038 2.25552e-19)
(7.77606 13.4543 -1.8385e-19)
(7.56939 12.9959 -9.61218e-20)
(7.4136 12.5378 0)
(7.30369 12.0881 0)
(7.23423 11.6522 -2.04595e-19)
(7.19963 11.2337 2.9994e-19)
(7.19448 10.835 4.05536e-19)
(7.21376 10.4572 -3.9414e-19)
(7.25319 10.1006 -9.95457e-20)
(7.30892 9.76463 -9.77888e-20)
(7.37758 9.44843 -9.36931e-20)
(7.45645 9.15094 0)
(7.54326 8.871 -8.97409e-20)
(7.63612 8.60742 -8.87006e-19)
(7.73344 8.35895 8.42471e-20)
(7.83409 8.12436 6.75496e-19)
(7.93711 7.90257 0)
(8.04176 7.69245 -8.1968e-20)
(8.14742 7.49308 -8.0342e-20)
(8.25362 7.30351 -7.02901e-19)
(8.35998 7.12286 7.70251e-20)
(8.46619 6.95035 7.569e-19)
(8.57203 6.78531 5.97454e-19)
(8.67731 6.62707 -6.63999e-19)
(8.78187 6.47504 0)
(8.88562 6.32871 0)
(8.98847 6.18757 7.25821e-20)
(9.09035 6.05122 0)
(9.19124 5.91926 0)
(9.29115 5.79129 5.70831e-19)
(9.38988 5.66682 -2.85948e-19)
(9.48716 5.54568 -7.12857e-19)
(9.58293 5.4278 7.14576e-19)
(9.67734 5.31307 1.42412e-19)
(9.7706 5.2013 -1.42243e-19)
(9.86297 5.09214 5.73229e-19)
(9.95434 4.98538 -1.42821e-19)
(10.0449 4.88092 2.13681e-19)
(10.1347 4.77887 7.00085e-20)
(10.2245 4.67949 2.79449e-19)
(10.3141 4.58051 1.37793e-19)
(9.06801 13.8615 -8.39779e-20)
(8.76962 13.4809 -8.84159e-20)
(8.51553 13.0815 9.22023e-20)
(8.3064 12.6719 9.52367e-20)
(8.14083 12.2597 9.64882e-20)
(8.01526 11.8515 -9.77494e-20)
(7.92574 11.4526 9.83084e-20)
(7.86836 11.0666 -1.4114e-21)
(7.8386 10.696 -9.77441e-20)
(7.83228 10.3425 -2.96304e-19)
(7.84609 10.0066 4.77496e-19)
(7.8768 9.68835 -3.8069e-19)
(7.92115 9.38703 3.71161e-19)
(7.97625 9.10215 -9.03802e-20)
(8.04008 8.83309 8.98608e-20)
(8.11094 8.57888 1.74552e-19)
(8.18726 8.33852 0)
(8.26789 8.11107 0)
(8.35182 7.89559 -8.12321e-20)
(8.43826 7.69121 0)
(8.52652 7.49702 -5.51654e-19)
(8.61608 7.31224 6.18382e-19)
(8.7066 7.13606 -7.54575e-20)
(8.79767 6.96773 5.23228e-19)
(8.88887 6.80659 -6.63539e-19)
(8.97997 6.65212 1.45843e-19)
(9.0709 6.50377 0)
(9.16144 6.361 7.11521e-20)
(9.25137 6.22335 6.39138e-19)
(9.34065 6.09053 -5.658e-19)
(9.42934 5.96219 0)
(9.51746 5.83769 0)
(9.60443 5.71659 -4.22006e-19)
(9.68983 5.59895 1.4159e-19)
(9.77374 5.48485 1.40201e-19)
(9.85651 5.37412 -1.25541e-21)
(9.93854 5.26648 0)
(10.0201 5.16134 -2.82082e-19)
(10.1005 5.05854 1.40746e-19)
(10.1801 4.95821 -2.80531e-19)
(10.259 4.86051 -1.00686e-21)
(10.3383 4.76551 -1.38755e-19)
(10.4179 4.66384 -1.35586e-19)
(9.5841 13.4802 8.33572e-20)
(9.29948 13.1329 0)
(9.05396 12.7679 -9.0129e-20)
(8.84787 12.3926 1.04417e-19)
(8.68039 12.0129 -6.06972e-20)
(8.54841 11.6348 -4.89598e-20)
(8.44882 11.2637 -1.01275e-19)
(8.37907 10.9025 1.89976e-19)
(8.33471 10.5536 1.92622e-19)
(8.31258 10.2197 9.60989e-20)
(8.31043 9.90125 1.90939e-19)
(8.32553 9.59775 -3.68836e-19)
(8.35406 9.30888 1.21623e-21)
(8.39296 9.03505 1.18721e-21)
(8.44091 8.77597 -8.72018e-20)
(8.49659 8.53049 -1.1145e-21)
(8.55811 8.29774 0)
(8.62442 8.07718 -3.30424e-19)
(8.69458 7.86808 4.03821e-19)
(8.7677 7.66953 0)
(8.84323 7.48081 -7.82236e-20)
(8.92055 7.30117 1.52772e-19)
(8.99932 7.12976 7.55513e-20)
(9.079 6.96582 -5.92062e-19)
(9.15895 6.8088 6.56864e-19)
(9.23918 6.65843 -7.24789e-20)
(9.31959 6.51403 0)
(9.39978 6.37503 -7.10758e-20)
(9.47948 6.24117 -6.94198e-22)
(9.55875 6.11229 3.48627e-19)
(9.6379 5.98797 -2.78184e-19)
(9.7169 5.86715 -2.77305e-19)
(9.79404 5.74947 -6.8748e-20)
(9.86924 5.6357 3.02998e-22)
(9.94314 5.52598 5.54506e-19)
(10.0164 5.4198 -4.1713e-19)
(10.0894 5.31674 -1.38835e-19)
(10.1622 5.21576 1.39757e-19)
(10.2332 5.11705 1.39126e-19)
(10.3035 5.02115 1.39197e-19)
(10.3727 4.92831 -9.02527e-22)
(10.4427 4.83907 1.36541e-19)
(10.5115 4.74345 1.31787e-19)
(9.99647 13.1591 1.83715e-21)
(9.72248 12.836 -1.68367e-19)
(9.48405 12.4964 6.59378e-20)
(9.28131 12.1467 -1.587e-19)
(9.11441 11.7909 -9.26228e-20)
(8.97851 11.4361 9.38419e-20)
(8.87196 11.0871 -1.89548e-19)
(8.79402 10.7458 -9.52104e-20)
(8.73844 10.4132 -9.94923e-22)
(8.70531 10.0966 -1.87381e-19)
(8.69245 9.79294 9.01305e-20)
(8.69696 9.50126 -4.55126e-19)
(8.71329 9.22236 8.92617e-19)
(8.73905 8.9586 -2.61095e-19)
(8.77504 8.70901 9.81751e-22)
(8.81961 8.47128 -8.49336e-20)
(8.86937 8.24498 0)
(8.92454 8.03114 0)
(8.98403 7.82839 0)
(9.04668 7.6354 -7.7711e-20)
(9.11222 7.45229 3.07324e-19)
(9.17984 7.27759 -7.54211e-19)
(9.24947 7.111 2.96562e-19)
(9.32023 6.95107 -7.27052e-20)
(9.39107 6.79818 7.17182e-20)
(9.46275 6.65195 -7.08572e-20)
(9.53494 6.51146 -2.82037e-19)
(9.60681 6.37608 2.79447e-19)
(9.67827 6.24615 -1.38644e-19)
(9.7496 6.12147 -3.44883e-19)
(9.82129 6.00119 3.9192e-23)
(9.89304 5.88352 2.7393e-19)
(9.96101 5.76896 2.73951e-19)
(10.0276 5.65988 -2.7354e-19)
(10.0936 5.55522 -2.73344e-19)
(10.1593 5.4538 2.73892e-19)
(10.2251 5.35526 1.37002e-19)
(10.291 5.25798 -2.74527e-19)
(10.3531 5.16296 1.37394e-19)
(10.4157 5.07169 0)
(10.4763 4.98277 -2.13691e-19)
(10.5387 4.89689 -1.27642e-19)
(10.5966 4.80104 1.2781e-19)
(10.3417 12.8831 0)
(10.073 12.5782 4.13963e-20)
(9.8384 12.258 4.23066e-20)
(9.63732 11.9291 9.89823e-20)
(9.47101 11.5897 -1.0945e-20)
(9.32964 11.2553 0)
(9.21731 10.9238 0)
(9.13472 10.6013 1.78088e-19)
(9.06958 10.2806 -1.80149e-19)
(9.02824 9.98438 2.77853e-19)
(9.00978 9.68872 -1.79496e-19)
(9.0084 9.40411 8.9097e-20)
(9.01488 9.13358 1.73498e-19)
(9.03041 8.88152 -1.72007e-19)
(9.05904 8.64067 8.22566e-22)
(9.09622 8.40831 0)
(9.13618 8.18628 0)
(9.18315 7.98056 8.0928e-20)
(9.23413 7.78372 0)
(9.28776 7.59445 7.87542e-20)
(9.34574 7.41778 0)
(9.40588 7.24635 7.53512e-20)
(9.46967 7.08534 0)
(9.53423 6.92806 7.28091e-20)
(9.59747 6.77952 -7.24431e-20)
(9.66282 6.63715 7.16374e-20)
(9.72849 6.50041 7.04123e-20)
(9.79305 6.36826 -2.09422e-19)
(9.85704 6.24299 3.49296e-19)
(9.92035 6.12194 2.08818e-19)
(9.98497 6.00419 -2.05804e-19)
(10.0514 5.88875 -2.64579e-19)
(10.1109 5.77805 2.70756e-19)
(10.1701 5.6764 0)
(10.2281 5.57687 6.97114e-20)
(10.2859 5.479 -1.3862e-19)
(10.3444 5.38399 2.0381e-19)
(10.405 5.28968 6.5482e-20)
(10.4586 5.19822 -4.57737e-22)
(10.5171 5.1134 6.72358e-20)
(10.5679 5.0273 1.34372e-19)
(10.6277 4.94683 6.69217e-20)
(10.6779 4.84747 6.37965e-20)
(-2.49263 -2.51923 0)
(-2.32184 -2.56391 3.21844e-19)
(-2.15161 -2.60836 3.34542e-19)
(-1.98234 -2.65149 -3.41665e-19)
(-1.81449 -2.69324 8.71007e-19)
(-1.64834 -2.73353 -7.0821e-19)
(-1.48406 -2.77236 1.8002e-19)
(-1.32178 -2.80969 1.79146e-19)
(-1.16163 -2.84549 1.84358e-19)
(-1.00366 -2.87973 -3.77328e-19)
(-0.847932 -2.91243 -2.94794e-21)
(-0.694504 -2.94358 1.89693e-19)
(-0.543428 -2.97317 -1.92271e-19)
(-0.394723 -3.0012 0)
(-0.24839 -3.0277 3.07451e-19)
(-0.104412 -3.05268 -3.16083e-19)
(0.0371794 -3.07613 1.05774e-19)
(0.176434 -3.09806 0)
(0.313366 -3.1185 0)
(0.447992 -3.13747 -1.20389e-19)
(0.580333 -3.155 1.26063e-19)
(0.710385 -3.17113 1.31918e-19)
(0.838125 -3.1859 2.77001e-19)
(0.963569 -3.19936 -7.24818e-20)
(1.08672 -3.21161 -3.11582e-19)
(1.20757 -3.22271 -8.10375e-20)
(1.32613 -3.23278 0)
(1.44241 -3.2419 3.82207e-19)
(1.55633 -3.25025 -3.13565e-19)
(1.66797 -3.25788 4.51012e-19)
(1.77727 -3.26501 -6.17008e-19)
(1.88427 -3.27166 0)
(1.98893 -3.27798 0)
(2.0913 -3.28393 -2.54819e-19)
(2.1917 -3.28939 1.5384e-18)
(2.29082 -3.29397 -1.652e-18)
(2.39053 -3.2968 1.2748e-19)
(2.49613 -3.2966 0)
(2.62263 -3.29312 0)
(2.81652 -3.2933 0)
(3.23255 -3.34436 2.56531e-19)
(4.40302 -3.7093 -3.27576e-19)
(8.50538 -5.59144 0)
(-2.42692 -2.54506 4.84831e-22)
(-2.26934 -2.58675 1.61374e-19)
(-2.11267 -2.62861 -4.97062e-19)
(-1.95665 -2.66942 0)
(-1.80161 -2.70922 -1.28456e-22)
(-1.64779 -2.74798 1.73859e-19)
(-1.49533 -2.78573 -1.76392e-19)
(-1.34429 -2.82247 0)
(-1.19473 -2.85819 -1.80043e-19)
(-1.04667 -2.89289 -1.81571e-19)
(-0.900121 -2.92658 1.83902e-19)
(-0.755162 -2.95923 3.71885e-19)
(-0.61181 -2.99086 0)
(-0.47003 -3.02149 9.69713e-20)
(-0.329812 -3.05113 7.08627e-22)
(-0.191128 -3.0798 2.01292e-19)
(-0.0539345 -3.10749 -1.03566e-19)
(0.0818313 -3.1342 1.21623e-21)
(0.216233 -3.15991 2.48804e-22)
(0.349334 -3.18458 1.14872e-19)
(0.481176 -3.20818 -1.20933e-19)
(0.611773 -3.23067 -2.51804e-19)
(0.741175 -3.25201 -1.33035e-19)
(0.869407 -3.27216 -2.79173e-19)
(0.996563 -3.29111 1.47401e-19)
(1.12267 -3.30882 0)
(1.24776 -3.32524 -3.34942e-19)
(1.37195 -3.34032 3.60384e-19)
(1.49537 -3.35397 -3.88296e-19)
(1.61824 -3.36615 4.21951e-19)
(1.74093 -3.37668 -4.59295e-19)
(1.86403 -3.38536 5.04324e-19)
(1.98856 -3.39186 6.94742e-19)
(2.11631 -3.39582 -6.18063e-19)
(2.25067 -3.39675 5.12987e-19)
(2.39818 -3.39436 -7.71632e-19)
(2.57172 -3.38932 1.09675e-19)
(2.79832 -3.38519 1.71747e-18)
(3.13501 -3.39536 -2.25211e-18)
(3.70778 -3.46478 -3.20448e-19)
(4.80564 -3.7405 2.79627e-18)
(7.11201 -4.66467 3.07885e-20)
(12.1864 -7.30138 -3.18524e-18)
(-2.36101 -2.56166 -1.55763e-19)
(-2.2136 -2.60252 4.78919e-19)
(-2.06689 -2.64359 1.63078e-19)
(-1.92041 -2.68365 3.32453e-19)
(-1.77454 -2.72284 -5.05388e-19)
(-1.62946 -2.76118 -1.69838e-19)
(-1.4853 -2.79871 1.71002e-19)
(-1.34213 -2.83549 1.73404e-19)
(-1.19992 -2.87152 -1.77228e-19)
(-1.05863 -2.90681 3.53065e-19)
(-0.918304 -2.9413 -2.6914e-19)
(-0.778998 -2.97497 9.10176e-20)
(-0.640737 -3.0078 0)
(-0.503481 -3.03984 -9.33701e-20)
(-0.367214 -3.0711 -1.91442e-19)
(-0.23186 -3.1016 9.86119e-20)
(-0.0973498 -3.13135 0)
(0.0363824 -3.16036 -1.03437e-19)
(0.169512 -3.18863 -1.07877e-19)
(0.302167 -3.2161 -4.76622e-22)
(0.434417 -3.2427 1.15611e-19)
(0.56639 -3.26837 1.20846e-19)
(0.698229 -3.29301 -1.08099e-21)
(0.830144 -3.31656 4.04342e-19)
(0.962287 -3.33887 0)
(1.09486 -3.35982 0)
(1.22809 -3.37925 0)
(1.36245 -3.39699 8.67941e-20)
(1.4985 -3.41284 0)
(1.63703 -3.42652 0)
(1.77933 -3.43772 -4.32938e-19)
(1.9272 -3.44606 4.72288e-19)
(2.08379 -3.45116 1.42093e-21)
(2.25408 -3.45269 1.40301e-19)
(2.44647 -3.45076 9.29609e-19)
(2.67549 -3.44658 -6.86517e-19)
(2.96618 -3.44436 5.63684e-19)
(3.36441 -3.45571 -6.33379e-19)
(3.95675 -3.51001 -2.32954e-19)
(4.90858 -3.68251 2.69495e-19)
(6.53362 -4.16093 2.30598e-18)
(9.44421 -5.39036 -2.82382e-18)
(14.3192 -8.0713 0)
(-2.29736 -2.57042 3.04331e-19)
(-2.15912 -2.60951 3.32324e-22)
(-2.02139 -2.64868 -1.60033e-19)
(-1.8837 -2.68692 -1.62729e-19)
(-1.74629 -2.7244 1.64709e-19)
(-1.60931 -2.76112 -1.02739e-21)
(-1.47285 -2.79716 0)
(-1.33694 -2.83263 0)
(-1.20152 -2.8676 1.70937e-19)
(-1.06648 -2.90206 -8.65945e-20)
(-0.931785 -2.93593 -2.57473e-22)
(-0.797429 -2.96917 -8.8851e-20)
(-0.663506 -3.00174 9.04239e-20)
(-0.529981 -3.03367 0)
(-0.396798 -3.06499 0)
(-0.263944 -3.0957 9.66826e-20)
(-0.131275 -3.12586 9.87769e-20)
(0.00133644 -3.1555 -1.01971e-19)
(0.134103 -3.18463 0)
(0.267243 -3.2132 1.08785e-19)
(0.400954 -3.24112 1.1363e-19)
(0.535499 -3.26831 -1.18257e-19)
(0.671162 -3.29464 1.24642e-19)
(0.808253 -3.31995 -1.30307e-19)
(0.947068 -3.34406 -1.38836e-19)
(1.08809 -3.36676 0)
(1.23194 -3.38782 0)
(1.37936 -3.40695 8.31926e-20)
(1.53154 -3.42386 -8.96483e-20)
(1.69009 -3.43819 -1.91029e-19)
(1.85731 -3.44953 4.10267e-19)
(2.03663 -3.45755 -3.33461e-19)
(2.23322 -3.46204 -1.19784e-19)
(2.45537 -3.46319 0)
(2.71564 -3.4622 2.8126e-19)
(3.03434 -3.46253 -6.19338e-19)
(3.44561 -3.47254 -1.67935e-19)
(4.00783 -3.51133 1.84266e-19)
(4.8217 -3.62143 2.07577e-19)
(6.05953 -3.89639 -8.93454e-19)
(8.01423 -4.53405 1.00838e-18)
(11.1593 -5.92874 2.49344e-19)
(15.7086 -8.51479 6.29919e-19)
(-2.23447 -2.57577 -1.5004e-19)
(-2.10468 -2.61162 0)
(-1.97499 -2.64816 -1.57986e-19)
(-1.84508 -2.68408 0)
(-1.71506 -2.71951 0)
(-1.58503 -2.75437 1.63445e-19)
(-1.45508 -2.78863 8.26009e-20)
(-1.32535 -2.8224 -8.3408e-20)
(-1.19569 -2.85589 -8.40642e-20)
(-1.06581 -2.88912 8.50349e-20)
(-0.935692 -2.92198 -2.28339e-22)
(-0.805204 -2.95436 1.74682e-19)
(-0.674503 -2.98612 8.88801e-20)
(-0.543588 -3.01734 -9.05252e-20)
(-0.412416 -3.048 -9.20863e-20)
(-0.280963 -3.07808 -4.71109e-20)
(-0.149088 -3.10766 -7.88987e-23)
(-0.0166636 -3.13682 5.02429e-20)
(0.116582 -3.16562 0)
(0.250963 -3.19401 0)
(0.386836 -3.22196 0)
(0.524623 -3.24937 -2.90297e-19)
(0.664738 -3.27606 3.0442e-19)
(0.807664 -3.30184 -2.5604e-19)
(0.9539 -3.3265 1.34011e-19)
(1.10422 -3.34981 0)
(1.25957 -3.37147 1.51182e-19)
(1.42118 -3.39117 0)
(1.59076 -3.40862 -8.61875e-20)
(1.77069 -3.42343 1.83094e-19)
(1.96432 -3.43523 0)
(2.17644 -3.44389 -3.14188e-19)
(2.41412 -3.44965 2.26327e-19)
(2.6878 -3.45345 -4.83638e-19)
(3.0135 -3.45768 6.57276e-19)
(3.41621 -3.46787 0)
(3.93572 -3.49588 1.5468e-19)
(4.63697 -3.5666 -2.20512e-21)
(5.62321 -3.73101 1.8329e-19)
(7.05976 -4.09121 1.9803e-19)
(9.20953 -4.84427 0)
(12.4203 -6.32654 -7.76589e-19)
(16.6847 -8.80688 2.83113e-19)
(-2.17228 -2.57528 0)
(-2.05012 -2.60839 0)
(-1.92805 -2.64267 -2.76801e-22)
(-1.80527 -2.67636 -3.16018e-19)
(-1.68195 -2.70977 1.59555e-19)
(-1.55806 -2.74274 -8.05031e-20)
(-1.43378 -2.7751 8.12938e-20)
(-1.30941 -2.80689 -8.19651e-20)
(-1.18484 -2.83858 -8.2686e-20)
(-1.05949 -2.87031 1.66887e-19)
(-0.933274 -2.90184 -1.68969e-19)
(-0.805909 -2.93314 -8.53432e-20)
(-0.677723 -2.96378 -8.67301e-20)
(-0.548751 -2.99397 -4.47339e-20)
(-0.418845 -3.02365 1.36006e-19)
(-0.287951 -3.05276 2.31661e-19)
(-0.156075 -3.08128 -4.76503e-20)
(-0.0231528 -3.10933 4.95324e-20)
(0.111171 -3.1371 -8.57015e-23)
(0.247375 -3.1646 -5.25298e-20)
(0.385895 -3.19177 -1.09344e-19)
(0.527323 -3.21861 -6.06442e-22)
(0.672213 -3.24491 -1.18513e-19)
(0.821291 -3.27046 1.24298e-19)