/*--------------------------------*- C++ -*----------------------------------*\
| =========                 |                                                 |
| \\      /  F ield         | OpenFOAM: The Open Source CFD Toolbox           |
|  \\    /   O peration     | Version:  2.3.0                                 |
|   \\  /    A nd           | Web:      www.OpenFOAM.org                      |
|    \\/     M anipulation  |                                                 |
\*---------------------------------------------------------------------------*/
FoamFile
{
    version     2.0;
    format      ascii;
    class       volScalarField;
    location    "3000";
    object      nuTilda;
}
// * * * * * * * * * * * * * * * * * * * * * * * * * * * * * * * * * * * * * //

dimensions      [0 2 -1 0 0 0 0];

internalField   nonuniform List<scalar> 
14461
(
0.0667438
0.0636383
0.0605595
0.0575126
0.0545072
0.051553
0.0486596
0.0458367
0.0430935
0.0404385
0.0378796
0.0354258
0.0330868
0.0308755
0.0288088
0.0269056
0.0251848
0.023664
0.0223569
0.0212311
0.0201003
0.0186791
0.0168236
0.0148273
0.0694321
0.0668637
0.0643186
0.0618126
0.0593546
0.0569522
0.0546119
0.0523414
0.0501476
0.0480383
0.0460205
0.0441009
0.0422867
0.0405864
0.0390114
0.0375719
0.0362814
0.0351524
0.0341978
0.0334265
0.032843
0.0324452
0.0322266
0.0321849
0.071934
0.06978
0.0676572
0.0655763
0.0635433
0.0615633
0.0596413
0.0577823
0.0559917
0.0542753
0.0526393
0.0510901
0.0496342
0.048279
0.0470333
0.0459045
0.0449005
0.0440299
0.0432986
0.0427121
0.0422735
0.0419818
0.0418346
0.0418258
0.0742213
0.0723979
0.0706155
0.068874
0.067176
0.0655248
0.0639237
0.0623762
0.0608863
0.0594588
0.0580983
0.0568104
0.0556004
0.0544749
0.0534406
0.052504
0.0516715
0.0509495
0.0503432
0.0498561
0.0494919
0.0492506
0.0491313
0.0491303
0.0762663
0.0747266
0.0732218
0.0717513
0.0703171
0.0689215
0.0675668
0.0662558
0.0649915
0.0637774
0.0626174
0.0615165
0.0604795
0.0595122
0.0586209
0.0578113
0.0570901
0.0564631
0.0559349
0.05551
0.0551914
0.0549808
0.0548779
0.0548807
0.0780937
0.0767918
0.0755113
0.0742569
0.0730306
0.0718344
0.0706704
0.0695409
0.0684484
0.0673954
0.0663856
0.0654231
0.0645127
0.0636596
0.0628698
0.0621494
0.0615052
0.0609431
0.060468
0.0600851
0.0597977
0.0596073
0.059515
0.0595197
0.0797414
0.0786225
0.0775212
0.0764392
0.0753779
0.0743384
0.073323
0.0723344
0.0713745
0.070446
0.0695516
0.0686946
0.0678803
0.0671135
0.0663992
0.0657439
0.0651546
0.0646387
0.0642018
0.063849
0.0635839
0.0634086
0.0633242
0.0633307
0.0812081
0.0802423
0.0792858
0.0783422
0.0774136
0.0764992
0.0755999
0.0747217
0.0738657
0.0730351
0.072232
0.0714579
0.0707181
0.0700195
0.0693653
0.068759
0.0682091
0.0677268
0.0673179
0.0669873
0.066739
0.0665762
0.0664989
0.0665064
0.082517
0.0816779
0.0808372
0.0800045
0.0791835
0.0783741
0.0775629
0.0767733
0.0759981
0.0752451
0.0745166
0.0738115
0.0731281
0.0724839
0.0718819
0.071318
0.0707926
0.0703338
0.069946
0.0696329
0.0693968
0.0692446
0.0691774
0.0691822
0.083698
0.0829627
0.0822076
0.081461
0.0807217
0.0800147
0.0792584
0.0785462
0.0778297
0.0771368
0.0764684
0.0758345
0.0751885
0.0745833
0.0740268
0.0735192
0.072996
0.0725505
0.072178
0.0718829
0.0716559
0.0715093
0.0714618
0.0714536
0.0155667
0.0180748
0.0195778
0.0209576
0.0224524
0.0241215
0.025964
0.0279629
0.0300982
0.0323536
0.0347151
0.0371721
0.039716
0.0423394
0.0450356
0.047798
0.0506202
0.0534951
0.0564156
0.0593745
0.0623641
0.0653759
0.0683999
0.0714165
0.0323001
0.0325836
0.0330653
0.0337511
0.0346387
0.035719
0.036979
0.0384037
0.0399777
0.0416855
0.0435121
0.0454443
0.0474706
0.0495811
0.0517667
0.0540192
0.0563321
0.0586989
0.0611133
0.0635696
0.0660621
0.068585
0.0711332
0.0737051
0.0419405
0.0421843
0.0425755
0.0431189
0.043814
0.0446571
0.0456421
0.0467605
0.0480031
0.0493596
0.0508201
0.0523748
0.054015
0.0557324
0.0575193
0.0593696
0.061277
0.0632363
0.0652423
0.0672901
0.0693755
0.0714942
0.0736413
0.0758098
0.0492387
0.0494592
0.049802
0.0502695
0.0508609
0.0515731
0.0524013
0.053339
0.0543795
0.0555146
0.0567365
0.058038
0.0594113
0.0608502
0.0623485
0.0639007
0.0655021
0.0671483
0.0688352
0.0705592
0.0723173
0.0741068
0.0759247
0.0777647
0.0549842
0.0551893
0.0555016
0.0559219
0.0564486
0.0570782
0.0578056
0.0586255
0.0595316
0.0605167
0.0615741
0.0626974
0.0638802
0.065117
0.0664024
0.0677316
0.0691009
0.0705063
0.0719446
0.0734131
0.0749098
0.0764331
0.0779811
0.0795513
0.0596189
0.0598122
0.0601027
0.06049
0.0609713
0.0615431
0.0622004
0.0629377
0.0637484
0.0646263
0.0655653
0.0665593
0.0676024
0.0686891
0.0698149
0.0709755
0.072167
0.0733863
0.0746302
0.0758967
0.0771848
0.0784936
0.0798218
0.0811698
0.0634264
0.0636109
0.0638851
0.0642473
0.0646948
0.065224
0.0658295
0.0665053
0.0672451
0.0680433
0.0688938
0.0697907
0.0707281
0.0717006
0.0727041
0.0737347
0.0747884
0.0758618
0.076952
0.0780575
0.0791782
0.0803135
0.0814623
0.0826263
0.0665996
0.0667777
0.0670393
0.0673811
0.0678019
0.0682979
0.0688637
0.069492
0.0701771
0.0709138
0.0716965
0.0725187
0.0733741
0.0742576
0.0751654
0.076094
0.0770395
0.0779969
0.0789632
0.079939
0.0809249
0.0819197
0.0829215
0.0839323
0.0692732
0.069449
0.0697012
0.0700232
0.0704217
0.0708917
0.0714274
0.0720166
0.0726579
0.0733462
0.0740757
0.0748397
0.0756299
0.076442
0.0772734
0.0781216
0.0789814
0.0798445
0.0807089
0.0815795
0.0824567
0.0833376
0.0842184
0.0850999
0.071541
0.0717214
0.0719663
0.0722634
0.0726409
0.0730903
0.073605
0.074156
0.0747619
0.0754112
0.076099
0.0768165
0.0775517
0.0783059
0.0790763
0.0798596
0.0806509
0.0814328
0.0822152
0.0830055
0.0837989
0.0845862
0.0853646
0.0861332
0.034719
0.032315
0.0298882
0.02746
0.0250536
0.0226925
0.0204004
0.0181998
0.0161113
0.0141518
0.0123335
0.0106635
0.00914421
0.00777385
0.00654723
0.00545657
0.00449192
0.00364219
0.00289638
0.00224464
0.00167857
0.00118772
0.000739075
0.000500557
0.0347549
0.0325511
0.0303293
0.0281065
0.0258997
0.0237265
0.0216044
0.0195501
0.0175795
0.0157061
0.0139408
0.0122909
0.0107604
0.00935024
0.00805837
0.0068808
0.00581187
0.00484476
0.00397222
0.00318667
0.00247941
0.001837
0.0012602
0.000878141
0.0348071
0.0327972
0.0307723
0.028745
0.0267274
0.0247323
0.0227721
0.0208589
0.0190044
0.0172189
0.0155111
0.0138875
0.0123531
0.0109104
0.00956022
0.00830189
0.00713355
0.00605241
0.00505472
0.00413511
0.00328465
0.00248963
0.00178633
0.00125058
0.0348695
0.0330368
0.0311901
0.0293378
0.0274885
0.0256509
0.0238339
0.0220461
0.0202958
0.0185908
0.0169379
0.0153432
0.0138114
0.0123464
0.0109508
0.00962611
0.00837345
0.00719276
0.00608273
0.00503952
0.00405382
0.00311232
0.00228575
0.0016066
0.0349331
0.0332636
0.0315764
0.0298784
0.0281761
0.0264753
0.0247823
0.0231029
0.0214434
0.0198097
0.0182071
0.0166412
0.0151165
0.0136375
0.0122077
0.0108304
0.00950836
0.0082432
0.00703529
0.00588107
0.00476944
0.00367923
0.00274309
0.0019376
0.0350068
0.0334778
0.0319308
0.0303681
0.0287935
0.027211
0.0256247
0.0240389
0.022458
0.0208867
0.0193294
0.0177909
0.0162758
0.0147884
0.0133332
0.0119142
0.0105352
0.0091989
0.00790648
0.00665454
0.00543199
0.00422626
0.00317046
0.00224348
0.0350718
0.0336758
0.0322539
0.03081
0.0293467
0.0278666
0.0263724
0.0248674
0.0233547
0.021838
0.0203211
0.0188081
0.0173035
0.0158118
0.0143374
0.012885
0.0114589
0.0100626
0.00869751
0.0073604
0.00604105
0.00473851
0.00356996
0.0025261
0.0351432
0.0338595
0.0325477
0.0312081
0.029842
0.0284509
0.0270368
0.0256019
0.0241486
0.0226798
0.0211987
0.0197091
0.0182153
0.0167216
0.0152325
0.013753
0.0122878
0.0108404
0.00941263
0.00800118
0.00659696
0.00520745
0.00393887
0.00278504
0.0352061
0.034027
0.0328137
0.0315664
0.0302858
0.0289725
0.0276278
0.0262543
0.0248536
0.0234276
0.0219784
0.0205094
0.019026
0.0175324
0.0160319
0.0145297
0.013031
0.0115388
0.0100549
0.0085791
0.00710145
0.0056342
0.00427848
0.00302919
0.0352683
0.0341791
0.0330534
0.0318882
0.0306842
0.0294395
0.0281545
0.0268347
0.0254824
0.0240972
0.0226783
0.0212252
0.019749
0.0182609
0.0167517
0.0152284
0.0137019
0.0121676
0.0106147
0.00907651
0.00754054
0.00599864
0.00455811
0.00318131
0.000563822
0.000761927
0.00108065
0.00138985
0.0016874
0.00197604
0.00226063
0.00254772
0.00284682
0.0031726
0.0035491
0.00401497
0.00461855
0.00534998
0.00619542
0.00715369
0.00822934
0.00942968
0.0107616
0.0122322
0.0138521
0.0156337
0.0175907
0.0197315
0.000813601
0.00102424
0.0013424
0.00165984
0.0019654
0.00226232
0.00255838
0.00286464
0.00319646
0.00357438
0.00402379
0.0045731
0.00524807
0.00602429
0.00689515
0.00786224
0.00893001
0.0101044
0.0113906
0.0127956
0.0143289
0.0160006
0.0178191
0.0197851
0.00105844
0.0012487
0.00156765
0.00189514
0.00221291
0.00252557
0.00284487
0.00318668
0.00357009
0.00401533
0.00454058
0.00516176
0.00589038
0.00670128
0.00759173
0.00856368
0.00962113
0.0107681
0.012009
0.0133499
0.0147987
0.0163625
0.0180478
0.0198597
0.00128639
0.00143942
0.00175881
0.00209761
0.00243143
0.00276703
0.0031202
0.00350973
0.00395409
0.00446783
0.0050603
0.00574069
0.00650994
0.00734783
0.00825282
0.0092269
0.0102724
0.011392
0.0125896
0.0138704
0.0152399
0.0167035
0.0182658
0.0199305
0.00149479
0.00160336
0.00192303
0.00227462
0.00262831
0.00299332
0.00338815
0.0038315
0.00433754
0.00491339
0.0055618
0.00629271
0.00709476
0.00795438
0.00887054
0.00984447
0.0108771
0.0119706
0.0131277
0.0143525
0.0156488
0.0170201
0.0184697
0.0199993
0.00168396
0.00174584
0.00206608
0.00243225
0.00280942
0.00320877
0.00364962
0.00414783
0.00471154
0.00534174
0.00603866
0.00681135
0.00764081
0.00851851
0.00944358
0.0104159
0.0114356
0.0125042
0.0136238
0.0147968
0.0160258
0.0173128
0.0186598
0.0200674
0.00185573
0.00187114
0.0021926
0.00257493
0.00297843
0.00341515
0.00390322
0.00445404
0.00506997
0.00574799
0.0064878
0.00729431
0.00814725
0.00904048
0.00997249
0.0109422
0.0119494
0.0129948
0.0140796
0.0152049
0.0163721
0.0175828
0.0188388
0.0201458
0.00201032
0.00198152
0.00230498
0.00270524
0.00313718
0.00361251
0.00414676
0.00474651
0.00540913
0.0061289
0.006907
0.00774189
0.00861504
0.00952153
0.0104591
0.0114257
0.012421
0.0134446
0.0144971
0.0155788
0.0166902
0.0178318
0.0190056
0.020215
0.0021552
0.00208147
0.00240873
0.00282714
0.00328738
0.00380098
0.00437964
0.00502335
0.00572604
0.00648175
0.0072949
0.00815424
0.00904554
0.00996394
0.0109059
0.0118691
0.0128527
0.0138559
0.0148791
0.0159217
0.0169824
0.0180605
0.0191578
0.0202777
0.00226042
0.00216586
0.00249088
0.00292939
0.00342446
0.00397825
0.00459324
0.0052767
0.00602164
0.00681383
0.00765708
0.00854011
0.00945168
0.0103777
0.0113178
0.0122744
0.0132455
0.014228
0.0152313
0.0162452
0.0172559
0.0182636
0.0192793
0.0203104
0.000837383
0.00281199
0.00531262
0.00795702
0.0105252
0.0129385
0.0152012
0.0173364
0.0193626
0.0213427
0.0235361
0.0260046
0.028684
0.031518
0.0344701
0.0375211
0.0406591
0.0438741
0.0471556
0.0504917
0.0538715
0.0572836
0.0607184
0.0641676
0.000660191
0.00241237
0.00445852
0.00636881
0.00829996
0.01027
0.0122605
0.0142508
0.0162312
0.0182249
0.0203105
0.0225249
0.0248216
0.0273025
0.0301855
0.0333348
0.0366492
0.0400768
0.0435877
0.0471614
0.0507806
0.054431
0.0581004
0.0617802
0.000343829
0.00160527
0.00356297
0.00590968
0.00805619
0.00999227
0.0118031
0.0135555
0.0152994
0.0170766
0.0189249
0.0208724
0.022928
0.0251267
0.0275103
0.0302575
0.0334451
0.0368992
0.0405113
0.0442238
0.0480028
0.0518248
0.0556734
0.0595421
0.000439771
0.00147404
0.00326806
0.00556748
0.00790342
0.0100306
0.0119536
0.0137151
0.0153689
0.0169755
0.0185944
0.0202799
0.0220758
0.0240152
0.0261235
0.0284629
0.0311128
0.034328
0.0378862
0.0416379
0.0455043
0.0494415
0.0534231
0.0574387
0.000380206
0.00132945
0.00294057
0.00504037
0.00744654
0.00979846
0.0119498
0.0138916
0.0156485
0.0172622
0.0187912
0.0203055
0.0218768
0.023567
0.0254229
0.0274823
0.0297813
0.0324422
0.0357332
0.0394014
0.0432778
0.0472748
0.0513457
0.0554683
0.000366937
0.00125006
0.00275973
0.00473382
0.00709314
0.00953043
0.0118319
0.0139401
0.0158496
0.0175731
0.019142
0.0206107
0.022053
0.0235502
0.025177
0.026991
0.0290333
0.0313517
0.0341172
0.0375325
0.0413239
0.045321
0.0494372
0.0536291
0.000330148
0.00117289
0.00258917
0.00443996
0.00670027
0.0091744
0.0115998
0.0138582
0.0159209
0.0177844
0.0194593
0.020976
0.0223902
0.0237801
0.0252346
0.0268364
0.0286502
0.030722
0.0331146
0.0360736
0.0396524
0.0435786
0.0476947
0.0519215
0.000298105
0.00111364
0.0024587
0.00421527
0.00637796
0.00882904
0.0113219
0.0136941
0.0158877
0.0178856
0.0196845
0.0212957
0.0227525
0.0241156
0.0254698
0.0269104
0.028525
0.0303793
0.0325199
0.0350296
0.0382743
0.0420487
0.0461154
0.0503452
0.000257988
0.00105873
0.00234123
0.00401408
0.00608024
0.00847892
0.011006
0.0134673
0.0157732
0.0178927
0.0198136
0.0215349
0.0230722
0.024466
0.0257857
0.0271241
0.0285812
0.0302444
0.0321758
0.0344293
0.0372076
0.0407354
0.0446977
0.0488964
0.000225059
0.0010117
0.00224043
0.00384156
0.00582182
0.00815193
0.0106789
0.0132008
0.0155988
0.0178248
0.0198585
0.0216907
0.0233244
0.024783
0.0261173
0.027408
0.0287554
0.0302614
0.0320092
0.0340586
0.0364895
0.0396549
0.0434433
0.0475731
0.000207137
0.000971711
0.0021506
0.00368714
0.00558896
0.00784528
0.0103488
0.0129078
0.0153798
0.017698
0.0198336
0.0217711
0.023505
0.0250455
0.0264267
0.0277131
0.0289966
0.0303839
0.0319746
0.0338451
0.0360573
0.038803
0.042353
0.0463736
0.000194688
0.000936044
0.00207025
0.00354891
0.00537998
0.00756303
0.0100264
0.0126006
0.0151289
0.0175255
0.0197517
0.0217866
0.0236184
0.0252477
0.0266949
0.0280081
0.0292666
0.0305732
0.0320364
0.0337488
0.0357781
0.0382074
0.0414342
0.0452885
0.000186143
0.000903396
0.00199714
0.0034234
0.00519005
0.00730278
0.00971601
0.0122878
0.014856
0.0173181
0.0196241
0.0217476
0.0236723
0.0253914
0.0269143
0.0282752
0.0295387
0.0307986
0.032165
0.0337424
0.0356118
0.0378424
0.0406892
0.0443415
0.000179143
0.000873375
0.00193028
0.00330865
0.00501645
0.00706296
0.00942078
0.0119758
0.0145691
0.0170845
0.0194601
0.0216636
0.0236745
0.025481
0.0270839
0.0285053
0.0297959
0.0310376
0.0323362
0.0338028
0.0355318
0.0375954
0.0401098
0.0434985
0.000172785
0.000845709
0.00186871
0.00320315
0.00485686
0.00684137
0.00914185
0.0116694
0.0142747
0.0168319
0.0192674
0.0215425
0.0236329
0.0255225
0.0272058
0.0286949
0.0300279
0.031274
0.0325308
0.0339107
0.0355182
0.0374341
0.039737
0.0427984
0.000166913
0.00082019
0.00181187
0.00310579
0.00470951
0.006636
0.00887937
0.0113717
0.0139778
0.016566
0.0190526
0.0213912
0.0235541
0.0255218
0.0272837
0.0288439
0.0302294
0.031497
0.0327342
0.0340501
0.0355552
0.037341
0.0394819
0.0421839
0.000161465
0.000796517
0.00175912
0.00301543
0.00457292
0.00644517
0.0086327
0.0110847
0.013682
0.0162918
0.0188208
0.0212157
0.0234445
0.0254848
0.0273221
0.028954
0.0303983
0.0317
0.0329357
0.0342081
0.0356299
0.0373017
0.0393034
0.0417656
0.000156399
0.000774471
0.00171002
0.00293131
0.0044457
0.00626728
0.00840088
0.0108096
0.0133903
0.0160129
0.0185766
0.0210207
0.023309
0.0254164
0.0273253
0.029028
0.0305344
0.0318791
0.0331276
0.0343745
0.035731
0.0373045
0.0391824
0.0414604
0.000151688
0.000753893
0.00166422
0.0028528
0.004327
0.00610102
0.00818299
0.0105468
0.0131048
0.0157324
0.0183236
0.0208104
0.0231523
0.0253215
0.0272976
0.029069
0.0306388
0.0320326
0.0333051
0.0345417
0.0358501
0.037342
0.0391169
0.0412849
0.000147282
0.000734666
0.00162129
0.0027793
0.00421576
0.00594521
0.00797789
0.0102963
0.012827
0.0154528
0.0180648
0.0205884
0.0229782
0.025204
0.027243
0.0290803
0.0307134
0.03216
0.033465
0.0347044
0.0359801
0.0374063
0.0390923
0.0411494
0.000143135
0.000716529
0.00158095
0.0027102
0.00411129
0.00579877
0.00778454
0.0100578
0.0125577
0.015176
0.0178025
0.0203572
0.0227899
0.0250674
0.027165
0.029065
0.0307604
0.032262
0.0336058
0.0348584
0.0361151
0.0374895
0.0390962
0.0410415
0.000139257
0.000699431
0.00154292
0.00264515
0.00401296
0.00566095
0.0076021
0.00983098
0.0122976
0.0149036
0.0175391
0.0201196
0.0225902
0.0249149
0.0270669
0.0290262
0.0307822
0.0323397
0.0337268
0.0350009
0.0362501
0.0375846
0.0391205
0.0409608
0.000135627
0.000683358
0.00150712
0.00258387
0.00392028
0.00553091
0.00742975
0.00961523
0.0120472
0.0146366
0.0172761
0.0198776
0.0223816
0.024749
0.0269514
0.0289667
0.0307811
0.0323945
0.0338278
0.03513
0.0363811
0.0376864
0.0391612
0.0409096
0.000132455
0.000668171
0.00147329
0.00252596
0.00383275
0.00540807
0.0072666
0.0094101
0.0118063
0.0143759
0.017015
0.0196329
0.0221661
0.0245723
0.0268212
0.0288891
0.0307595
0.032428
0.0339093
0.0352445
0.0365053
0.0377909
0.0392145
0.0408824
0.000130032
0.000653744
0.00144129
0.00247113
0.00374985
0.00529175
0.00711191
0.00921477
0.0115749
0.014122
0.0167568
0.019387
0.0219453
0.0243865
0.0266784
0.0287955
0.0307193
0.0324417
0.033972
0.0353438
0.0366207
0.037895
0.039277
0.0408742
0.000127714
0.000640051
0.00141093
0.00241915
0.00367124
0.00518142
0.00696505
0.00902872
0.0113527
0.0138752
0.0165023
0.0191411
0.0217209
0.0241936
0.0265249
0.0286881
0.0306627
0.0324374
0.0340167
0.0354276
0.0367257
0.0379963
0.039345
0.0408792
0.000125505
0.00062705
0.00138209
0.00236979
0.00359662
0.00507662
0.00682547
0.00885143
0.0111396
0.0136359
0.0162523
0.0188961
0.021494
0.0239949
0.0263625
0.0285686
0.0305913
0.0324166
0.0340445
0.0354961
0.0368196
0.0380929
0.039417
0.0409002
0.000123398
0.000614693
0.00135467
0.00232285
0.00352563
0.00497695
0.00669262
0.00868227
0.0109351
0.0134042
0.0160073
0.018653
0.0212658
0.0237917
0.0261925
0.0284387
0.0305068
0.0323806
0.0340564
0.0355498
0.0369019
0.0381836
0.0394905
0.0409303
0.000121384
0.000602952
0.00132858
0.00227817
0.00345804
0.00488204
0.00656608
0.0085208
0.010739
0.01318
0.0157676
0.0184124
0.0210371
0.0235852
0.0260164
0.0282998
0.0304107
0.032331
0.0340536
0.0355892
0.0369725
0.0382674
0.039564
0.0409683
0.000119459
0.000591777
0.00130373
0.00223559
0.00339364
0.00479158
0.00644535
0.00836649
0.0105507
0.0129632
0.0155336
0.0181749
0.0208088
0.0233763
0.0258351
0.0281531
0.0303044
0.032269
0.0340372
0.035615
0.0370315
0.0383437
0.0396364
0.0410143
0.000117617
0.000581126
0.00128002
0.00219496
0.00333219
0.00470524
0.00633008
0.00821896
0.0103701
0.0127538
0.0153054
0.017941
0.0205815
0.0231658
0.0256498
0.0279999
0.030189
0.0321959
0.0340082
0.0356281
0.0370792
0.0384123
0.0397068
0.0410656
0.000115849
0.000570967
0.00125738
0.00215616
0.00327348
0.00462273
0.00621986
0.00807771
0.0101967
0.0125514
0.0150831
0.0177109
0.0203557
0.0229544
0.0254611
0.027841
0.0300657
0.0321129
0.0339678
0.0356292
0.0371159
0.0384726
0.039773
0.0411148
0.000114154
0.000561268
0.00123574
0.00211906
0.00321733
0.00454381
0.00611437
0.00794238
0.01003
0.0123561
0.0148668
0.0174851
0.0201319
0.0227429
0.0252701
0.0276774
0.0299356
0.0320209
0.0339169
0.0356191
0.0371419
0.0385245
0.0398343
0.0411641
0.000112529
0.000552007
0.00121505
0.00208357
0.00316359
0.00446826
0.00601337
0.00781267
0.00986993
0.0121674
0.0146565
0.0172636
0.0199106
0.0225317
0.0250773
0.0275099
0.0297994
0.0319209
0.0338564
0.0355986
0.0371578
0.0385679
0.0398906
0.0412142
0.000110966
0.000543144
0.00119523
0.00204955
0.00311209
0.00439583
0.0059165
0.00768816
0.00971593
0.0119852
0.014452
0.0170466
0.019692
0.0223213
0.0248833
0.0273392
0.029658
0.0318139
0.0337873
0.0355685
0.0371641
0.038603
0.0399419
0.0412656
0.000109466
0.000534672
0.00117624
0.00201696
0.00306272
0.00432638
0.00582357
0.00756859
0.00956776
0.0118092
0.0142534
0.0168343
0.0194764
0.022112
0.0246886
0.027166
0.0295122
0.0317006
0.0337103
0.0355295
0.0371612
0.03863
0.0399871
0.0413118
0.000108025
0.000526566
0.00115803
0.00198568
0.00301533
0.0042597
0.00573433
0.00745369
0.00942511
0.0116393
0.0140605
0.0166267
0.019264
0.0219043
0.0244937
0.0269907
0.0293626
0.0315818
0.0336262
0.0354822
0.0371497
0.038649
0.0400261
0.0413545
0.000106643
0.000518811
0.00114056
0.00195566
0.00296983
0.00419565
0.00564856
0.00734321
0.00928775
0.0114751
0.0138732
0.0164239
0.0190551
0.0216985
0.024299
0.026814
0.0292098
0.031458
0.0335357
0.0354273
0.0371302
0.0386606
0.0400602
0.0414001
0.000105327
0.000511392
0.00112378
0.00192681
0.00292609
0.00413406
0.00556606
0.00723684
0.00915531
0.0113164
0.0136914
0.0162258
0.0188496
0.0214947
0.0241048
0.0266362
0.0290543
0.0313301
0.0334394
0.0353655
0.037103
0.0386647
0.0400872
0.041434
0.000104094
0.000504301
0.00110767
0.00189908
0.00288403
0.00407481
0.00548666
0.00713442
0.00902765
0.011163
0.0135149
0.0160325
0.0186479
0.0212933
0.0239115
0.0264578
0.0288967
0.0311984
0.033338
0.0352973
0.0370687
0.0386615
0.0401077
0.0414659
0.000102988
0.000497531
0.00109217
0.00187241
0.00284354
0.00401777
0.00541018
0.00703568
0.00890442
0.0110146
0.0133436
0.0158438
0.0184498
0.0210943
0.0237193
0.0262791
0.0287372
0.0310634
0.0332319
0.0352232
0.0370276
0.0386513
0.040122
0.0414934
0.000102082
0.000491083
0.00107728
0.00184674
0.00280456
0.00396282
0.00533648
0.00694049
0.00878548
0.010871
0.0131773
0.0156597
0.0182555
0.020898
0.0235285
0.0261004
0.0285764
0.0309256
0.0331216
0.0351436
0.0369803
0.0386347
0.0401311
0.0415197
0.000101501
0.000484951
0.00106296
0.00182202
0.00276701
0.00390986
0.00526542
0.00684865
0.00867061
0.0107322
0.0130158
0.0154803
0.0180651
0.0207044
0.0233393
0.025922
0.0284146
0.0307855
0.0330076
0.0350593
0.0369272
0.0386121
0.0401341
0.0415365
0.000101386
0.000479133
0.00104919
0.00179822
0.00273082
0.00385878
0.00519685
0.00675998
0.00855961
0.0105977
0.012859
0.0153053
0.0178784
0.0205137
0.0231518
0.0257442
0.0282522
0.0306435
0.0328905
0.0349706
0.0368692
0.0385843
0.0401332
0.0415585
0.000101858
0.000473613
0.00103594
0.00177529
0.00269592
0.00380951
0.00513066
0.00667434
0.0084523
0.0104675
0.0127069
0.0151347
0.0176956
0.020326
0.0229662
0.0255672
0.0280894
0.0305
0.0327707
0.0348782
0.0368064
0.0385512
0.0401266
0.0415689
0.000102966
0.000468391
0.0010232
0.00175318
0.00266224
0.00376193
0.00506672
0.00659156
0.00834849
0.0103414
0.012559
0.0149684
0.0175166
0.0201412
0.0227827
0.0253913
0.0279265
0.0303552
0.0326485
0.0347822
0.0367391
0.0385129
0.0401142
0.0415753
0.000104641
0.000463448
0.00101093
0.00173186
0.00262973
0.00371596
0.00500492
0.00651151
0.00824802
0.0102192
0.0124154
0.0148063
0.0173414
0.0199595
0.0226013
0.0252164
0.0277637
0.0302094
0.0325241
0.034683
0.0366675
0.0384696
0.0400966
0.0415768
0.000106754
0.00045878
0.000999124
0.00171129
0.00259832
0.00367153
0.00494515
0.00643404
0.00815071
0.0101007
0.0122758
0.0146483
0.0171698
0.0197808
0.0224221
0.0250428
0.0276011
0.0300627
0.0323977
0.0345807
0.0365921
0.038422
0.0400758
0.0415819
0.000109146
0.000454382
0.000987763
0.00169143
0.00256798
0.00362857
0.00488732
0.00635905
0.00805645
0.00998569
0.0121402
0.0144942
0.0170019
0.0196051
0.0222451
0.0248705
0.027439
0.0299154
0.0322697
0.0344758
0.036513
0.03837
0.0400495
0.0415738
0.000111668
0.000450239
0.00097683
0.00167225
0.00253864
0.003587
0.00483134
0.00628642
0.00796508
0.00987413
0.0120083
0.0143439
0.0168375
0.0194325
0.0220704
0.0246997
0.0272773
0.0297676
0.0321402
0.0343683
0.0364306
0.038314
0.0400193
0.0415674
0.000114218
0.000446351
0.000966311
0.00165374
0.00251026
0.00354678
0.00477713
0.00621604
0.0078765
0.00976582
0.01188
0.0141974
0.0166766
0.0192628
0.0218981
0.0245303
0.0271162
0.0296196
0.0320095
0.0342587
0.0363449
0.0382539
0.0399838
0.0415507
0.000116726
0.000442705
0.000956203
0.00163586
0.00248283
0.00350783
0.00472462
0.00614782
0.00779056
0.00966066
0.0117552
0.0140544
0.0165192
0.0190962
0.021728
0.0243626
0.0269559
0.0294715
0.0318777
0.034147
0.0362564
0.0381902
0.0399451
0.0415355
0.000119172
0.000439304
0.000946513
0.00161861
0.00245627
0.00347012
0.00467374
0.00608168
0.00770719
0.00955852
0.0116338
0.0139151
0.0163652
0.0189325
0.0215604
0.0241965
0.0267965
0.0293233
0.031745
0.0340336
0.0361653
0.0381236
0.0399034
0.041518
0.00012152
0.000436145
0.000937203
0.00160196
0.00243063
0.0034336
0.00462442
0.00601754
0.00762627
0.00945931
0.0115157
0.0137792
0.0162146
0.0187718
0.0213952
0.0240322
0.0266381
0.0291754
0.0316117
0.0339187
0.036072
0.0380542
0.0398588
0.0414966
0.000123727
0.000433152
0.000928279
0.00158585
0.00240575
0.00339821
0.00457656
0.00595527
0.00754767
0.00936282
0.0114007
0.0136465
0.0160671
0.018614
0.0212323
0.0238696
0.0264808
0.0290277
0.0314779
0.0338025
0.0359768
0.0379824
0.0398112
0.0414715
0.000125815
0.000430343
0.000919706
0.00157029
0.00238167
0.00336392
0.00453014
0.00589485
0.0074713
0.009269
0.0112887
0.0135171
0.0159229
0.0184592
0.0210719
0.0237089
0.0263246
0.0288806
0.031344
0.0336855
0.0358801
0.0379085
0.0397616
0.0414464
0.000127832
0.000427768
0.000911532
0.00155531
0.00235837
0.00333065
0.00448517
0.00583616
0.00739719
0.00917783
0.0111797
0.0133909
0.0157818
0.0183072
0.020914
0.0235502
0.0261698
0.0287342
0.03121
0.0335677
0.035782
0.0378328
0.0397101
0.0414194
0.000129765
0.000425366
0.000903731
0.00154085
0.00233586
0.00329841
0.00444148
0.0057792
0.00732509
0.00908913
0.0110736
0.0132677
0.0156437
0.018158
0.0207585
0.0233933
0.0260163
0.0285884
0.031076
0.0334495
0.0356827
0.0377554
0.0396561
0.0413878
0.000131598
0.000423112
0.00089628
0.00152688
0.00231402
0.00326712
0.00439904
0.00572382
0.00725498
0.00900278
0.0109701
0.0131474
0.0155086
0.0180117
0.0206055
0.0232385
0.0258643
0.0284436
0.0309424
0.0333308
0.0355824
0.0376761
0.0395993
0.0413517
0.000133364
0.000421013
0.000889192
0.00151342
0.0022929
0.00323677
0.00435781
0.00566996
0.00718677
0.0089187
0.0108693
0.01303
0.0153765
0.0178682
0.0204549
0.0230856
0.0257138
0.0282997
0.030809
0.0332117
0.035481
0.037595
0.0395396
0.0413119
0.000135048
0.000419057
0.000882404
0.00150042
0.00227237
0.00320731
0.00431774
0.00561759
0.00712039
0.00883681
0.0107709
0.0129154
0.0152472
0.0177273
0.0203068
0.0229348
0.0255648
0.0281567
0.0306761
0.0330924
0.0353786
0.0375121
0.0394777
0.0412713
0.000136628
0.000417189
0.000875942
0.00148785
0.0022525
0.00317868
0.00427877
0.00556661
0.00705573
0.008757
0.010675
0.0128034
0.0151206
0.0175891
0.020161
0.0227859
0.0254173
0.0280147
0.0305435
0.0329728
0.0352752
0.0374276
0.0394134
0.041227
0.000138122
0.000415424
0.000869741
0.00147569
0.00223319
0.00315087
0.00424085
0.00551702
0.00699276
0.00867921
0.0105814
0.012694
0.0149966
0.0174534
0.0200175
0.022639
0.0252714
0.0278738
0.0304114
0.0328529
0.0351708
0.0373409
0.0393455
0.0411755
0.000139584
0.00041382
0.000863872
0.001464
0.00221451
0.00312385
0.00420406
0.00546873
0.00693151
0.00860344
0.0104901
0.0125871
0.0148753
0.0173203
0.0198764
0.0224941
0.0251268
0.0277338
0.0302795
0.0327327
0.0350651
0.037252
0.0392738
0.0411175
0.000140996
0.00041231
0.000858292
0.00145273
0.00219643
0.0030976
0.0041682
0.00542174
0.00687177
0.00852957
0.0104011
0.0124826
0.0147565
0.0171897
0.0197375
0.0223511
0.0249839
0.0275947
0.0301481
0.0326122
0.0349587
0.0371623
0.0392037
0.0410758
0.000142344
0.000410883
0.00085299
0.00144185
0.00217886
0.00307207
0.00413331
0.00537598
0.00681355
0.0084575
0.0103141
0.0123805
0.0146402
0.0170615
0.0196009
0.02221
0.0248423
0.0274567
0.030017
0.0324916
0.0348514
0.0370709
0.0391288
0.0410085
0.000143653
0.000409546
0.00084792
0.00143138
0.00216188
0.00304729
0.00409936
0.00533137
0.00675679
0.00838718
0.0102292
0.0122807
0.0145263
0.0169357
0.0194663
0.0220707
0.0247023
0.0273196
0.0298866
0.0323711
0.034744
0.0369797
0.0390582
0.0409732
0.000144912
0.000408295
0.000843079
0.00142125
0.00214536
0.00302321
0.00406631
0.00528791
0.00670143
0.00831856
0.0101463
0.0121832
0.0144148
0.0168122
0.019334
0.0219333
0.0245637
0.0271836
0.0297568
0.0322507
0.0346364
0.0368876
0.0389832
0.0409069
0.000146095
0.000407076
0.000838462
0.00141147
0.00212936
0.00299978
0.00403412
0.00524555
0.00664744
0.00825157
0.0100653
0.0120877
0.0143055
0.0166909
0.0192038
0.0217977
0.0244267
0.0270489
0.0296277
0.0321307
0.0345286
0.0367949
0.0389078
0.0408535
0.000147233
0.000405925
0.000834014
0.00140202
0.00211381
0.00297699
0.00400274
0.00520425
0.00659475
0.00818615
0.00998609
0.0119943
0.0141984
0.0165719
0.0190757
0.0216642
0.0242912
0.0269153
0.0294995
0.0320112
0.0344206
0.0367011
0.0388298
0.0407892
0.000148344
0.000404866
0.000829803
0.00139291
0.00209878
0.00295485
0.00397229
0.00516402
0.00654346
0.00812238
0.00990875
0.0119029
0.0140935
0.0164552
0.0189498
0.0215324
0.0241575
0.026783
0.0293722
0.031892
0.0343127
0.0366072
0.0387527
0.0407345
0.0001494
0.000403836
0.000825768
0.00138413
0.00208417
0.00293329
0.00394254
0.00512479
0.00649332
0.00806007
0.00983321
0.0118136
0.0139908
0.0163406
0.018826
0.0214027
0.0240254
0.0266521
0.0292458
0.0317734
0.034205
0.0365132
0.0386748
0.0406734
0.000150439
0.000402897
0.000821934
0.00137566
0.00206999
0.00291231
0.00391358
0.00508653
0.00644441
0.00799924
0.00975938
0.0117262
0.0138902
0.0162282
0.0187043
0.0212749
0.023895
0.0265226
0.0291205
0.0316554
0.0340972
0.0364181
0.0385937
0.0406034
0.00015147
0.000402011
0.000818267
0.00136754
0.00205632
0.00289195
0.00388538
0.00504922
0.00639667
0.00793982
0.00968726
0.0116408
0.0137917
0.016118
0.0185847
0.021149
0.0237662
0.0263944
0.0289961
0.0315378
0.0339892
0.0363219
0.0385105
0.0405335
0.000152459
0.000401163
0.000814733
0.00135963
0.00204297
0.00287214
0.00385789
0.00501283
0.00635009
0.00788179
0.00961672
0.0115572
0.0136953
0.0160098
0.0184671
0.021025
0.0236391
0.0262674
0.0288725
0.0314206
0.0338809
0.0362249
0.0384267
0.040465
0.000153386
0.000400313
0.000811334
0.00135199
0.00203004
0.00285287
0.00383108
0.00497732
0.00630454
0.00782501
0.00954769
0.0114753
0.0136007
0.0159037
0.0183515
0.0209027
0.0235135
0.0261418
0.0287499
0.0313038
0.0337729
0.0361284
0.0383451
0.0404066
0.000154281
0.000399505
0.000808026
0.00134458
0.00201743
0.00283402
0.00380491
0.00494258
0.00626013
0.00776954
0.00948018
0.0113951
0.0135079
0.0157994
0.0182377
0.0207823
0.0233894
0.0260173
0.028628
0.0311876
0.0336649
0.0360312
0.0382605
0.0403298
0.000155161
0.000398766
0.000804883
0.00133742
0.00200523
0.00281572
0.00377944
0.00490871
0.00621664
0.00771534
0.0094141
0.0113166
0.013417
0.015697
0.0181258
0.0206635
0.0232668
0.025894
0.028507
0.0310717
0.0335569
0.0359336
0.0381752
0.0402603
0.000155997
0.000398032
0.000801852
0.0013305