/*--------------------------------*- C++ -*----------------------------------*\
| =========                 |                                                 |
| \\      /  F ield         | OpenFOAM: The Open Source CFD Toolbox           |
|  \\    /   O peration     | Version:  2.3.0                                 |
|   \\  /    A nd           | Web:      www.OpenFOAM.org                      |
|    \\/     M anipulation  |                                                 |
\*---------------------------------------------------------------------------*/
FoamFile
{
    version     2.0;
    format      ascii;
    class       volVectorField;
    location    "3000";
    object      U;
}
// * * * * * * * * * * * * * * * * * * * * * * * * * * * * * * * * * * * * * //

dimensions      [0 1 -1 0 0 0 0];

internalField   nonuniform List<vector> 
14461
(
(24.1836 4.26966 2.46528e-20)
(24.2854 4.65071 -9.48409e-21)
(24.3861 5.00281 0)
(24.4818 5.38398 9.44779e-21)
(24.5712 5.79267 0)
(24.6543 6.23379 0)
(24.7318 6.71181 -3.93079e-19)
(24.8042 7.23124 3.62164e-19)
(24.8711 7.79576 5.08901e-19)
(24.9296 8.40736 -4.15007e-19)
(24.9736 9.066 2.99526e-20)
(24.9922 9.76904 6.07409e-19)
(24.9692 10.5109 -1.26685e-18)
(24.882 11.2834 6.74447e-19)
(24.7023 12.0751 2.60334e-20)
(24.3972 12.8725 -7.65532e-19)
(23.9315 13.6599 1.57985e-18)
(23.2696 14.4205 -4.08862e-19)
(22.3762 15.1352 -4.05992e-19)
(21.215 15.7754 3.45795e-19)
(19.751 16.3105 -3.53417e-19)
(17.9629 16.7392 -2.0722e-21)
(15.8412 17.0825 3.29314e-20)
(13.3777 17.0969 1.20044e-19)
(23.8443 4.40154 0)
(23.8912 4.7241 9.15673e-21)
(23.9329 5.03723 -1.51712e-20)
(23.9626 5.36647 -1.01476e-21)
(23.9775 5.71013 -8.56002e-21)
(23.9747 6.06893 -8.50856e-20)
(23.9518 6.44367 2.01032e-19)
(23.9059 6.83574 -1.15999e-19)
(23.8343 7.24685 0)
(23.7344 7.67878 0)
(23.6032 8.13275 0)
(23.4371 8.60892 -2.0209e-19)
(23.2323 9.10592 2.03455e-19)
(22.9838 9.61964 -1.37214e-20)
(22.6854 10.143 0)
(22.331 10.6656 -4.40998e-21)
(21.9137 11.1731 -2.38405e-20)
(21.4281 11.6474 2.40634e-20)
(20.8701 12.067 -6.63191e-21)
(20.2396 12.407 0)
(19.5428 12.6386 3.12943e-22)
(18.7947 12.7317 1.85541e-21)
(18.0122 12.6509 0)
(17.2104 12.3618 1.75974e-20)
(23.5453 4.46982 -4.86216e-20)
(23.5583 4.74755 3.66148e-20)
(23.5624 5.02487 -6.38163e-20)
(23.5546 5.31307 7.80454e-20)
(23.5332 5.61122 -6.23365e-20)
(23.4966 5.91895 1.19321e-19)
(23.4429 6.23549 -5.70235e-20)
(23.3699 6.55994 5.37177e-20)
(23.275 6.8911 -1.09552e-19)
(23.1548 7.22758 6.22805e-20)
(23.0058 7.56762 0)
(22.8242 7.90915 -7.71693e-21)
(22.6063 8.24963 8.76527e-21)
(22.3481 8.58541 7.31233e-22)
(22.0464 8.91185 -1.17839e-20)
(21.6985 9.22329 -1.90914e-21)
(21.3028 9.51247 0)
(20.8592 9.77059 2.5775e-19)
(20.37 9.98817 -2.63439e-19)
(19.8399 10.1546 -3.87788e-19)
(19.2777 10.2598 3.90644e-19)
(18.696 10.295 0)
(18.1118 10.2528 0)
(17.5491 10.1291 1.06373e-20)
(23.288 4.49184 -1.07559e-19)
(23.2726 4.73138 1.0187e-19)
(23.2502 4.97287 -2.78954e-20)
(23.2162 5.22069 0)
(23.1689 5.47452 1.27603e-19)
(23.1067 5.73391 -1.07667e-19)
(23.0284 5.99842 0)
(22.933 6.26737 -2.01576e-20)
(22.819 6.53968 0)
(22.6847 6.81401 -1.74628e-20)
(22.5284 7.08862 1.1855e-20)
(22.3481 7.36131 -1.7093e-19)
(22.1419 7.62943 1.57077e-19)
(21.9081 7.88948 -2.43446e-19)
(21.6451 8.13743 2.42147e-19)
(21.3522 8.36859 0)
(21.0292 8.57729 3.45173e-19)
(20.6772 8.75734 5.73636e-20)
(20.2987 8.90231 -4.30704e-19)
(19.898 9.00568 0)
(19.4814 9.06133 3.12547e-19)
(19.0572 9.06488 -2.97403e-19)
(18.6354 9.01366 2.18683e-20)
(18.2278 8.90847 -4.67222e-20)
(23.0547 4.4803 -4.97062e-20)
(23.0296 4.69226 0)
(22.9933 4.90302 2.51859e-20)
(22.9461 5.11698 0)
(22.887 5.33426 -1.81835e-19)
(22.8149 5.55449 1.87052e-19)
(22.7287 5.7773 1.88885e-19)
(22.6277 6.00211 -1.4133e-19)
(22.5107 6.22788 2.04991e-19)
(22.3765 6.4534 2.28341e-20)
(22.2238 6.67709 -2.45786e-19)
(22.051 6.89706 1.67336e-20)
(21.8569 7.11114 -2.41794e-19)
(21.6401 7.31656 2.93054e-19)
(21.4 7.51024 -3.11618e-19)
(21.1363 7.68861 3.37752e-19)
(20.8495 7.84756 -3.86031e-19)
(20.5412 7.98274 2.1752e-19)
(20.2139 8.0897 2.6232e-19)
(19.8715 8.164 2.49327e-19)
(19.5189 8.20188 -3.06829e-19)
(19.1625 8.20064 3.88562e-19)
(18.8097 8.15929 -4.1851e-19)
(18.468 8.07872 2.49294e-20)
(22.8624 4.46012 5.11186e-20)
(22.8246 4.6428 -1.10638e-19)
(22.7796 4.82596 8.47682e-20)
(22.7251 5.01093 0)
(22.6602 5.19801 3.00714e-20)
(22.5837 5.38672 -2.57696e-20)
(22.4947 5.57687 0)
(22.3925 5.76814 -2.70988e-19)
(22.2767 5.95969 2.44134e-19)
(22.1467 6.15039 2.68231e-19)
(22.0014 6.33882 -2.35527e-19)
(21.8398 6.52332 -3.22063e-19)
(21.6608 6.70194 2.89959e-19)
(21.4637 6.87243 0)
(21.2477 7.03207 1.48207e-19)
(21.0126 7.17796 -1.97674e-19)
(20.759 7.30698 -2.66481e-20)
(20.4883 7.41577 -2.94966e-20)
(20.2029 7.50091 0)
(19.9057 7.55894 7.40779e-20)
(19.6008 7.58707 0)
(19.2928 7.58347 -4.36704e-20)
(18.9873 7.54748 4.76084e-20)
(18.6898 7.47974 -5.20764e-20)
(22.6926 4.42925 0)
(22.6513 4.58795 3.0202e-20)
(22.6022 4.74777 -6.31316e-20)
(22.5446 4.90878 1.28718e-19)
(22.4782 5.07134 -1.24244e-19)
(22.4016 5.23487 0)
(22.3135 5.39912 3.54982e-20)
(22.2131 5.56425 -3.65561e-20)
(22.1009 5.72958 0)
(21.976 5.89395 0)
(21.838 6.0562 1.44054e-19)
(21.686 6.21485 -1.42343e-19)
(21.5192 6.36815 2.3388e-20)
(21.337 6.5143 -1.99004e-19)
(21.139 6.65081 2.53866e-19)
(20.9247 6.775 0)
(20.6942 6.8844 -2.53205e-19)
(20.4491 6.97642 2.57723e-19)
(20.1915 7.04817 0)
(19.9241 7.09681 -3.87373e-20)
(19.6503 7.1199 0)
(19.3736 7.11599 -1.90848e-19)
(19.0986 7.08466 1.93388e-19)
(18.8298 7.02623 5.33143e-20)
(22.5472 4.39357 0)
(22.5044 4.53189 3.35261e-20)
(22.4541 4.67189 3.67273e-20)
(22.3956 4.81313 0)
(22.3298 4.95586 1.48378e-19)
(22.2552 5.09923 -1.44671e-19)
(22.1702 5.24291 1.55179e-19)
(22.0725 5.38767 6.16401e-20)
(21.9646 5.53302 -1.36511e-19)
(21.845 5.67736 0)
(21.7141 5.81989 0)
(21.5709 5.95924 -2.21994e-20)
(21.4147 6.09372 -4.88519e-20)
(21.2444 6.22215 0)
(21.0614 6.34242 1.48466e-21)
(20.8643 6.45163 0)
(20.6522 6.54742 -3.00874e-19)
(20.4262 6.62802 5.97379e-19)
(20.1899 6.6908 -3.32729e-19)
(19.945 6.73314 0)
(19.6951 6.7528 -1.81494e-19)
(19.4417 6.74865 1.84237e-19)
(19.1885 6.72068 5.09324e-20)
(18.9406 6.66872 5.67423e-20)
(22.4177 4.35681 7.40574e-20)
(22.3778 4.47789 7.67401e-20)
(22.3292 4.60046 -2.29853e-19)
(22.2711 4.72526 1.54293e-19)
(22.2071 4.852 -2.52346e-19)
(22.1352 4.97893 -3.5827e-21)
(22.056 5.10595 1.00091e-19)
(21.9608 5.23398 -2.01329e-20)
(21.8575 5.36443 -2.08473e-20)
(21.7428 5.49338 -1.82462e-19)
(21.618 5.62095 1.66359e-20)
(21.4818 5.74572 -8.28523e-21)
(21.335 5.86552 2.29148e-19)
(21.1735 5.97968 -2.26365e-19)
(21.0016 6.08816 -4.08013e-20)
(20.8179 6.18686 2.45596e-19)
(20.6216 6.27283 3.31996e-20)
(20.4099 6.34523 7.50274e-22)
(20.1899 6.40307 3.84509e-20)
(19.961 6.44242 0)
(19.7306 6.4589 0)
(19.4942 6.45344 -2.44995e-19)
(19.2552 6.42815 1.48254e-19)
(19.0235 6.38031 -4.20276e-22)
(22.2982 4.32132 -3.79681e-20)
(22.2669 4.42782 0)
(22.2231 4.53506 4.02761e-20)
(22.1658 4.64562 -8.49395e-20)
(22.105 4.75942 6.39162e-20)
(22.0334 4.87303 0)
(21.9623 4.98781 2.15129e-20)
(21.8693 5.09945 0)
(21.7729 5.2203 0)
(21.6644 5.33677 0)
(21.5464 5.45165 -2.44874e-20)
(21.4122 5.56518 -1.05959e-19)
(21.2757 5.67568 -4.38063e-21)
(21.1218 5.77641 1.14535e-19)
(20.9574 5.87415 0)
(20.7804 5.96584 0)
(20.6015 6.04761 1.41608e-19)
(20.4047 6.11066 -1.79975e-19)
(20.1994 6.16463 0)
(19.9768 6.20585 0)
(19.7546 6.22031 0)
(19.5262 6.21048 4.92737e-20)
(19.2981 6.19022 1.06652e-19)
(19.0775 6.14503 -5.28081e-20)
(10.7576 16.1015 -4.04527e-19)
(9.97554 14.5128 2.25305e-19)
(9.78629 13.1823 -3.88853e-20)
(9.85673 11.9979 0)
(10.0673 10.9323 -5.02801e-20)
(10.3617 9.96428 7.92212e-19)
(10.7076 9.08754 3.84314e-20)
(11.0845 8.29566 -2.67309e-18)
(11.4769 7.58254 1.88913e-18)
(11.8734 6.94225 1.88692e-18)
(12.2646 6.36903 1.94356e-20)
(12.6434 5.85695 -1.89511e-18)
(13.0049 5.40038 -1.89841e-18)
(13.3461 4.9937 2.00474e-18)
(13.6657 4.63133 -2.11046e-18)
(13.9638 4.30777 3.91745e-18)
(14.2416 4.01764 -1.85747e-20)
(14.501 3.75563 -1.76651e-18)
(14.7441 3.51697 2.29283e-19)
(14.973 3.29752 -8.14143e-19)
(15.1897 3.0936 1.95246e-18)
(15.3956 2.90207 -3.70839e-19)
(15.5928 2.72128 0)
(15.7851 2.55625 6.36459e-19)
(16.4244 11.8818 1.18624e-20)
(15.7721 11.2672 -4.27881e-20)
(15.2556 10.6011 7.63102e-20)
(14.8629 9.93025 0)
(14.5742 9.27647 4.41626e-20)
(14.3727 8.65165 8.02821e-19)
(14.2442 8.06308 -7.68148e-19)
(14.1764 7.51444 5.16262e-20)
(14.1586 7.00718 0)
(14.1816 6.54089 -1.72989e-18)
(14.2373 6.1138 1.73581e-18)
(14.3188 5.72324 0)
(14.4206 5.36582 -1.01842e-19)
(14.5381 5.03788 -2.10038e-19)
(14.6672 4.73571 0)
(14.8049 4.45576 2.01404e-19)
(14.9486 4.19498 1.63679e-18)
(15.096 3.95065 -1.62521e-18)
(15.2451 3.72077 2.01233e-19)
(15.3945 3.50376 7.66108e-19)
(15.543 3.29848 -1.49335e-18)
(15.6897 3.10421 1.77773e-19)
(15.8338 2.92173 -1.70976e-19)
(15.9732 2.75333 -6.3343e-19)
(17.0306 9.92665 1.72573e-19)
(16.5701 9.65099 -2.32255e-19)
(16.1725 9.31574 0)
(15.8407 8.93962 -1.34334e-19)
(15.5729 8.53859 -1.52534e-19)
(15.3653 8.12521 9.44416e-19)
(15.2125 7.70946 -6.64648e-19)
(15.1086 7.29883 0)
(15.0473 6.89891 0)
(15.0224 6.5137 0)
(15.028 6.14562 -1.44382e-18)
(15.0585 5.79615 -1.64897e-20)
(15.1092 5.46588 3.04222e-18)
(15.1756 5.15466 1.04623e-19)
(15.2541 4.86196 3.7779e-21)
(15.3417 4.58695 -1.68576e-18)
(15.4358 4.32858 1.48875e-18)
(15.5347 4.08568 -2.22244e-18)
(15.6366 3.85711 1.83292e-19)
(15.7407 3.64168 9.00318e-19)
(15.8463 3.43832 7.09256e-19)
(15.9528 3.24567 -3.43039e-19)
(16.0596 3.06227 -8.17814e-20)
(16.1645 2.88715 -2.20195e-19)
(17.8421 8.75332 2.54312e-20)
(17.4811 8.55185 -8.84013e-20)
(17.1503 8.30993 6.09935e-20)
(16.8554 8.03662 0)
(16.5991 7.74087 2.57221e-19)
(16.382 7.43083 -3.3182e-19)
(16.2029 7.11353 0)
(16.0597 6.79488 -7.8157e-20)
(15.9496 6.47945 0)
(15.8692 6.17084 0)
(15.8153 5.87162 -7.69131e-19)
(15.7845 5.58336 1.54655e-18)
(15.7739 5.3071 -6.92245e-19)
(15.7804 5.04318 1.70842e-19)
(15.8016 4.79158 8.58136e-20)
(15.835 4.55197 0)
(15.8787 4.32381 1.7209e-19)
(15.9307 4.10652 8.69263e-19)
(15.9895 3.89952 -1.77523e-19)
(16.0538 3.70229 -8.60255e-19)
(16.1227 3.51434 0)
(16.1957 3.33503 0)
(16.2722 3.16379 0)
(16.3514 3.00337 0)
(18.1425 7.96126 0)
(17.8348 7.8088 8.7165e-20)
(17.5489 7.62438 0)
(17.2892 7.41345 -1.34139e-19)
(17.0584 7.18198 1.02025e-19)
(16.8577 6.93582 -2.92531e-19)
(16.6869 6.68041 2.92816e-19)
(16.5449 6.42036 6.23071e-19)
(16.4301 6.15964 1.39351e-20)
(16.3403 5.90137 -6.30761e-19)
(16.2731 5.64799 8.2794e-20)
(16.226 5.40113 -1.47967e-18)
(16.1966 5.16202 1.30828e-18)
(16.1827 4.93128 -1.68875e-19)
(16.1821 4.70924 -6.68679e-19)
(16.1927 4.49596 6.64062e-19)
(16.2127 4.29128 3.33183e-19)
(16.2405 4.09498 -9.97289e-19)
(16.2747 3.90686 -8.25697e-19)
(16.3143 3.72674 6.57344e-19)
(16.3588 3.55438 0)
(16.4079 3.38934 0)
(16.4612 3.23113 0)
(16.5184 3.08043 5.85951e-19)
(18.404 7.38179 0)
(18.1318 7.25529 -5.94901e-20)
(17.8763 7.10251 6.25991e-20)
(17.641 6.92733 1.3514e-19)
(17.4283 6.73431 6.47792e-21)
(17.2396 6.5279 -1.40605e-19)
(17.0752 6.31242 -7.27552e-20)
(16.9345 6.0917 1.91132e-21)
(16.8164 5.86906 7.56983e-20)
(16.7197 5.64723 7.67299e-20)
(16.6426 5.42829 0)
(16.5832 5.21375 0)
(16.5398 5.00477 7.96647e-19)
(16.5105 4.80199 -7.359e-20)
(16.4934 4.60581 2.10877e-21)
(16.487 4.41635 -6.39684e-19)
(16.4894 4.23362 1.62459e-19)
(16.4992 4.05748 3.20565e-19)
(16.5151 3.88794 -1.58012e-19)
(16.5363 3.72508 -1.86124e-22)
(16.5626 3.56874 1.57379e-19)
(16.5938 3.41859 1.5523e-19)
(16.6299 3.27426 0)
(16.6706 3.13467 -2.94195e-19)
(18.5706 6.94188 5.8315e-20)
(18.323 6.83288 -5.87582e-20)
(18.0896 6.70111 -6.37581e-20)
(17.8732 6.54967 0)
(17.6756 6.38233 1.12625e-21)
(17.4985 6.20295 -1.43811e-19)
(17.3421 6.01499 5.82981e-19)
(17.206 5.82179 8.58056e-21)
(17.0897 5.62626 -2.99254e-19)
(16.9921 5.43082 -7.70117e-20)
(16.912 5.23731 3.84852e-19)
(16.848 5.04704 -3.06482e-19)
(16.7984 4.86103 -2.33443e-19)
(16.7615 4.68001 7.02201e-19)
(16.7359 4.50434 -6.98201e-19)
(16.7199 4.33418 7.70317e-20)
(16.712 4.1696 -3.1173e-19)
(16.7107 4.01049 -1.5807e-19)
(16.7145 3.85702 1.55981e-19)
(16.7231 3.70949 -1.55886e-19)
(16.7367 3.56771 4.59638e-19)
(16.7552 3.43133 -7.57791e-20)
(16.7784 3.30013 -1.11918e-19)
(16.8065 3.17197 -1.07135e-19)
(18.7008 6.5942 -5.32718e-20)
(18.4718 6.49786 -5.90746e-20)
(18.2551 6.38091 -1.61345e-20)
(18.0533 6.24576 1.48836e-19)
(17.8672 6.09659 1.40011e-19)
(17.6994 5.93667 -1.37907e-19)
(17.5496 5.76859 -3.6219e-19)
(17.4177 5.5954 2.89096e-19)
(17.3033 5.41991 2.23619e-19)
(17.2059 5.24438 -2.95596e-19)
(17.1248 5.07029 -7.58082e-20)
(17.0584 4.89876 0)
(17.0052 4.73074 3.80445e-19)
(16.9637 4.56703 -6.8102e-19)
(16.9328 4.40796 -2.29622e-21)
(16.9107 4.25369 2.25735e-19)
(16.8957 4.10424 -3.03847e-19)
(16.8869 3.95961 3.0215e-19)
(16.8819 3.8201 -1.50234e-19)
(16.8816 3.6861 -4.45058e-22)
(16.8861 3.5572 -1.48711e-19)
(16.8954 3.43303 7.32132e-20)
(16.9088 3.31358 7.33511e-20)
(16.9271 3.19663 2.84304e-19)
(18.797 6.31368 5.76018e-20)
(18.5818 6.22747 0)
(18.3777 6.12213 -1.59972e-20)
(18.1896 5.99772 1.59919e-20)
(18.0119 5.86182 -1.35484e-19)
(17.8523 5.71661 1.36892e-19)
(17.7084 5.56345 7.03171e-20)
(17.5809 5.40492 -7.25519e-20)
(17.4688 5.24465 7.11931e-20)
(17.3727 5.08463 3.6708e-19)
(17.2921 4.92583 -2.91672e-19)
(17.2254 4.76899 0)
(17.1705 4.615 -2.9719e-19)
(17.1266 4.46513 2.9566e-19)
(17.0924 4.31939 0)
(17.0664 4.17838 2.97024e-19)
(17.047 4.04138 -2.95254e-19)
(17.0339 3.90947 0)
(17.0226 3.78187 -7.33754e-20)
(17.0164 3.65945 7.51958e-20)
(17.0145 3.54144 1.47816e-19)
(17.0174 3.42772 -3.84193e-20)
(17.0229 3.31794 3.61302e-20)
(17.0331 3.21084 -1.01774e-21)
(18.8558 6.08339 -5.9423e-20)
(18.6495 6.0063 0)
(18.4569 5.91546 0)
(18.2819 5.79797 -1.26441e-19)
(18.1084 5.67127 1.31322e-19)
(17.9583 5.53731 -6.82034e-20)
(17.8208 5.39668 -6.90872e-20)
(17.7003 5.24847 -2.11235e-19)
(17.5921 5.09988 4.30549e-19)
(17.4992 4.95167 -2.90712e-19)
(17.4213 4.80484 0)
(17.3559 4.65989 7.295e-20)
(17.3018 4.51632 -7.34534e-20)
(17.2576 4.37697 1.49072e-19)
(17.222 4.24069 0)
(17.1936 4.11188 0)
(17.1718 3.98596 -2.91e-19)
(17.1574 3.86671 2.97608e-19)
(17.1416 3.7474 7.49003e-20)
(17.1324 3.63332 2.21425e-19)
(17.1265 3.52333 -1.43591e-19)
(17.1257 3.4187 -1.39078e-19)
(17.1254 3.31671 1.72942e-20)
(17.1289 3.21327 -1.67217e-20)
(15.5829 -1.50522 -5.49858e-19)
(15.1632 -1.48231 5.92484e-19)
(14.7571 -1.46018 -3.09401e-19)
(14.3658 -1.43744 3.23237e-19)
(13.9891 -1.41447 0)
(13.6263 -1.39148 0)
(13.276 -1.36861 -1.86861e-19)
(12.9369 -1.34599 -1.60096e-18)
(12.6074 -1.32364 1.7028e-18)
(12.2857 -1.30157 -1.59923e-18)
(11.9701 -1.27977 2.08686e-18)
(11.6588 -1.25817 -2.13107e-18)
(11.3499 -1.23671 2.47304e-18)
(11.0411 -1.21527 2.56221e-18)
(10.7299 -1.19369 -2.75858e-18)
(10.4132 -1.1717 3.08994e-18)
(10.0872 -1.14895 -3.61744e-18)
(9.74633 -1.12488 0)
(9.38298 -1.09863 -7.4557e-20)
(8.98525 -1.06876 0)
(8.53435 -1.03203 2.20062e-19)
(8.00848 -0.980835 0)
(7.47427 -0.875798 -9.56913e-20)
(8.05391 -0.738322 -1.17745e-19)
(15.5798 -1.49735 1.44889e-19)
(15.1986 -1.47735 -1.54839e-19)
(14.8292 -1.45785 0)
(14.4719 -1.43784 3.33493e-19)
(14.1264 -1.41753 -6.938e-19)
(13.7918 -1.39708 1.81034e-19)
(13.4672 -1.37653 -1.70399e-18)
(13.1511 -1.35594 -1.95715e-22)
(12.8422 -1.33529 -2.0796e-22)
(12.5387 -1.31457 3.46822e-18)
(12.2391 -1.29371 -2.0359e-18)
(11.9414 -1.27265 0)
(11.6438 -1.25129 2.10041e-18)
(11.344 -1.22947 -2.60406e-18)
(11.0394 -1.20701 -1.69264e-19)
(10.727 -1.18363 -9.42297e-20)
(10.4028 -1.15896 2.12147e-19)
(10.0615 -1.13242 0)
(9.6956 -1.10309 1.11556e-18)
(9.29508 -1.06908 -2.46319e-18)
(8.85045 -1.0257 1.88537e-18)
(8.38444 -0.964168 -9.95843e-19)
(8.14856 -0.87002 6.48864e-19)
(9.52064 -0.758341 -5.88367e-18)
(15.5745 -1.49235 -3.01289e-19)
(15.2263 -1.47452 -1.59731e-19)
(14.8874 -1.4567 1.64884e-19)
(14.5577 -1.43817 -3.41027e-19)
(14.2371 -1.41916 8.81857e-19)
(13.9248 -1.39982 -1.82864e-19)
(13.6199 -1.38022 1.71657e-18)
(13.3213 -1.36038 -1.59718e-18)
(13.0278 -1.34028 0)
(12.738 -1.3199 1.89174e-18)
(12.4502 -1.29916 -3.7936e-18)
(12.1628 -1.27798 -7.92594e-22)
(11.8738 -1.25623 2.19754e-18)
(11.5812 -1.23375 -6.66709e-22)
(11.2823 -1.21034 -7.31594e-22)
(10.9741 -1.18571 1.54545e-18)
(10.6525 -1.15948 -1.93233e-18)
(10.3123 -1.13105 0)
(9.94675 -1.09937 0)
(9.54884 -1.06201 -1.53975e-19)
(9.12133 -1.013 3.68629e-19)
(8.72841 -0.940269 -2.26697e-19)
(8.71897 -0.839712 -8.58122e-19)
(10.3469 -0.759006 0)
(15.5698 -1.48818 -3.91413e-19)
(15.2488 -1.47063 8.22817e-20)
(14.9354 -1.45354 3.38634e-19)
(14.6292 -1.4359 -3.48357e-19)
(14.3297 -1.41785 -1.79287e-19)
(14.0363 -1.39942 -7.43817e-19)
(13.7482 -1.38067 -1.93782e-19)
(13.4644 -1.36159 8.05908e-19)
(13.1839 -1.34215 -8.45988e-19)
(12.9053 -1.32229 7.80585e-19)
(12.6271 -1.30193 0)
(12.3478 -1.28097 0)
(12.0655 -1.25926 -1.09083e-18)
(11.7781 -1.23663 1.47822e-18)
(11.483 -1.21285 -1.13223e-18)
(11.177 -1.18762 1.42599e-18)
(10.8563 -1.16051 3.96839e-19)
(10.5158 -1.13083 2.23856e-19)
(10.1496 -1.09723 7.64611e-19)
(9.75456 -1.05673 -1.18189e-18)
(9.34493 -1.00256 1.75262e-19)
(9.01512 -0.921987 4.24517e-19)
(9.15571 -0.815247 -2.60531e-19)
(10.876 -0.754677 0)
(15.5648 -1.47971 6.46425e-19)
(15.2701 -1.46509 1.69379e-19)
(14.9804 -1.44961 -1.73527e-19)
(14.6956 -1.43325 3.55647e-19)
(14.4154 -1.41632 -3.65443e-19)
(14.1392 -1.39893 0)
(13.8663 -1.38111 1.95039e-19)
(13.5957 -1.36286 0)
(13.3266 -1.34414 -2.12987e-19)
(13.0577 -1.32487 1.11813e-19)
(12.7877 -1.30494 0)
(12.515 -1.28425 -1.26565e-19)
(12.238 -1.26266 0)
(11.9545 -1.24 -1.46535e-19)
(11.6619 -1.21602 -1.60095e-19)
(11.3573 -1.19036 0)
(11.0366 -1.16255 -1.94633e-19)
(10.6953 -1.13174 -4.36801e-19)
(10.3286 -1.09631 4.95585e-19)
(9.93678 -1.05274 0)
(9.54388 -0.993887 3.69422e-22)
(9.26379 -0.907825 -6.05077e-19)
(9.50225 -0.798576 7.25041e-19)
(11.2621 -0.750494 0)
(15.5617 -1.47784 0)
(15.2899 -1.4617 -4.33685e-19)
(15.0216 -1.44656 2.65433e-19)
(14.7562 -1.43096 -3.62246e-19)
(14.4932 -1.41489 1.85357e-19)
(14.2322 -1.39836 0)
(13.9725 -1.38134 1.97669e-19)
(13.7134 -1.36384 0)
(13.454 -1.34585 -4.63072e-22)
(13.1933 -1.32723 -9.00118e-19)
(12.9302 -1.30781 8.31869e-19)
(12.663 -1.28747 -2.68535e-22)
(12.3901 -1.26614 0)
(12.1095 -1.24365 1.46162e-19)
(11.8189 -1.21972 -4.76125e-19)
(11.5151 -1.19394 -1.74088e-19)
(11.1944 -1.16574 7.67547e-19)
(10.8525 -1.1341 2.13961e-19)
(10.4859 -1.09707 -2.4159e-19)
(10.0981 -1.05063 2.77176e-19)
(9.72072 -0.987447 0)
(9.48072 -0.896733 1.91052e-19)
(9.78693 -0.786151 6.80398e-19)
(11.5683 -0.745742 -9.24875e-19)
(15.559 -1.47042 -4.32228e-20)
(15.3082 -1.45734 4.40119e-20)
(15.0591 -1.44349 0)
(14.8109 -1.42866 -3.68435e-19)
(14.563 -1.41333 1.13032e-18)
(14.3153 -1.39757 -3.86787e-19)
(14.0672 -1.38123 -1.99337e-19)
(13.8179 -1.36439 8.27671e-19)
(13.5668 -1.34714 -7.54885e-19)
(13.3131 -1.32928 -1.13157e-19)
(13.0557 -1.31045 1.19103e-19)
(12.7932 -1.29049 -8.85983e-19)
(12.5236 -1.26942 1.08103e-18)
(12.2451 -1.24727 -1.45209e-19)
(11.9557 -1.2237 7.87408e-19)
(11.6524 -1.19813 -5.15644e-19)
(11.3315 -1.16993 -7.56666e-19)
(10.9895 -1.13798 8.40549e-19)
(10.6239 -1.09989 -7.0857e-19)
(10.2405 -1.05135 8.07175e-19)
(9.87657 -0.984836 -4.67193e-19)
(9.66786 -0.890248 -1.8325e-19)
(10.0208 -0.778239 -4.25474e-19)
(11.8102 -0.738794 0)
(15.5554 -1.46828 0)
(15.324 -1.45461 3.62524e-19)
(15.0926 -1.44109 1.83919e-19)
(14.8599 -1.42648 2.07452e-22)
(14.6256 -1.41162 -5.7243e-19)
(14.3899 -1.39661 7.82187e-19)
(14.1523 -1.3808 -4.02561e-19)
(13.9116 -1.36439 0)
(13.6674 -1.34785 5.42067e-19)
(13.4197 -1.33099 -3.40309e-19)
(13.1675 -1.31309 -4.77601e-19)
(12.9088 -1.29359 3.79045e-19)
(12.6416 -1.27251 0)
(12.3643 -1.25054 0)
(12.0756 -1.2276 -7.80042e-19)
(11.7723 -1.20254 6.7884e-19)
(11.4506 -1.1749 -7.44501e-19)
(11.1074 -1.14352 8.23839e-19)
(10.7425 -1.10491 2.30184e-19)
(10.3632 -1.05415 -2.60799e-19)
(10.013 -0.983881 3.00283e-19)
(9.83472 -0.884084 5.24447e-19)
(10.2319 -0.765559 -6.03274e-19)
(12.0444 -0.728916 4.05379e-19)
(15.5547 -1.46361 4.52742e-20)
(15.3412 -1.45226 1.0316e-22)
(15.1263 -1.43981 -4.67048e-20)
(14.9071 -1.42512 -1.89454e-19)
(14.6831 -1.41038 4.82391e-19)
(14.4572 -1.39614 9.88825e-20)
(14.2289 -1.38061 -4.05323e-19)
(13.9953 -1.36401 1.04785e-19)
(13.7562 -1.34788 -3.26186e-19)
(13.5125 -1.33213 4.54062e-19)
(13.2651 -1.31517 -1.19355e-19)
(13.0123 -1.29604 6.29582e-19)
(12.7487 -1.27488 2.79843e-22)
(12.4702 -1.25306 -5.72615e-19)
(12.1811 -1.23096 0)
(11.8787 -1.20633 -1.67111e-19)
(11.5556 -1.17857 3.65348e-19)
(11.2146 -1.14875 6.04161e-19)
(10.8548 -1.11187 -2.24322e-19)
(10.4802 -1.06245 -5.05469e-19)
(10.1383 -0.993687 -2.16556e-19)
(9.97827 -0.892664 -8.33332e-20)
(10.3924 -0.774631 3.79218e-19)
(12.1595 -0.703866 0)
(15.5397 -1.46093 -1.12421e-19)
(15.3422 -1.44973 -1.66741e-19)
(15.144 -1.43762 -9.61854e-20)
(14.9436 -1.42165 -9.69114e-20)
(14.7334 -1.40676 -1.45752e-22)
(14.5181 -1.39467 1.00435e-19)
(14.3006 -1.38004 -2.0654e-19)
(14.0747 -1.36287 -1.07066e-19)
(13.8407 -1.34642 -5.55944e-19)
(13.6018 -1.33255 9.24632e-19)
(13.3554 -1.3185 -8.43487e-19)
(13.0979 -1.30073 1.00215e-18)
(12.8377 -1.27618 -6.65851e-19)
(12.565 -1.2525 -5.69975e-19)
(12.2731 -1.23309 6.04257e-19)
(11.9688 -1.2099 -1.62194e-19)
(11.643 -1.18277 3.51561e-19)
(11.2818 -1.1552 -9.53593e-19)
(10.9215 -1.11155 4.33414e-19)
(10.5449 -1.06185 1.80705e-23)
(10.2306 -0.99297 2.7978e-19)
(10.1233 -0.887051 0)
(10.6152 -0.740767 -3.62718e-19)
(12.6512 -0.678371 3.59657e-19)
(13.4378 -1.035 -8.43746e-20)
(15.731 -1.3837 -6.0886e-20)
(16.9761 -1.4938 6.05258e-18)
(17.7882 -1.58458 -9.93009e-18)
(18.3962 -1.64609 4.24418e-18)
(18.8765 -1.69293 0)
(19.2648 -1.72886 -1.04922e-19)
(19.5805 -1.75631 -6.15685e-18)
(19.8353 -1.77662 5.47825e-18)
(20.037 -1.79074 -5.11179e-18)
(20.1913 -1.79929 1.00103e-17)
(20.3034 -1.80282 -4.48073e-18)
(20.3787 -1.80184 -4.64429e-18)
(20.4237 -1.79699 8.26071e-18)
(20.4448 -1.78901 -7.85039e-18)
(20.4476 -1.77862 3.50718e-18)
(20.4364 -1.76637 0)
(20.4149 -1.75267 0)
(20.3857 -1.73783 3.35488e-18)
(20.3508 -1.72206 -6.89408e-18)
(20.3119 -1.70555 3.14335e-18)
(20.2701 -1.68829 -7.66379e-19)
(20.2263 -1.66973 -1.86466e-18)
(20.1799 -1.65524 1.42561e-18)
(13.8095 -1.00102 4.47108e-18)
(16.2441 -1.32831 3.19276e-18)
(17.4897 -1.44592 -2.74058e-18)
(18.2704 -1.53452 0)
(18.8379 -1.59281 -1.26653e-19)
(19.2723 -1.63851 0)
(19.611 -1.67375 0)
(19.875 -1.70073 3.2068e-18)
(20.0778 -1.72065 -8.39132e-18)
(20.2292 -1.73444 5.13263e-18)
(20.3371 -1.74284 -5.08447e-18)
(20.4088 -1.74654 4.48512e-18)
(20.4512 -1.74626 -4.13399e-18)
(20.4712 -1.74273 8.49858e-18)
(20.4741 -1.73663 -3.86291e-18)
(20.4645 -1.72855 -3.84503e-18)
(20.4455 -1.71894 3.91837e-18)
(20.4197 -1.70811 -3.58175e-18)
(20.3887 -1.6963 3.46053e-18)
(20.3541 -1.68368 4.21968e-19)
(20.3168 -1.67037 -1.64797e-18)
(20.2775 -1.6563 1.60229e-18)
(20.2367 -1.6412 1.17743e-18)
(20.1944 -1.62907 -7.52869e-19)
(14.1604 -0.996351 2.48342e-19)
(16.6257 -1.29875 3.1202e-18)
(17.8595 -1.42221 -2.74668e-18)
(18.6083 -1.50447 -1.39953e-19)
(19.1387 -1.55741 1.23121e-19)
(19.5338 -1.59849 0)
(19.8323 -1.62952 3.26697e-18)
(20.0561 -1.65299 -3.29133e-18)
(20.2204 -1.67012 3.0807e-18)
(20.3364 -1.68195 1.2284e-20)
(20.4135 -1.68931 -4.96888e-18)
(20.4601 -1.69293 2.34491e-18)
(20.4834 -1.6935 -1.39456e-19)
(20.4895 -1.69164 2.13492e-18)
(20.4829 -1.68782 -2.16344e-18)
(20.4672 -1.68241 -2.45668e-19)
(20.4448 -1.67569 1.66416e-18)
(20.4175 -1.66785 2.37757e-19)
(20.3868 -1.65905 -3.57965e-18)
(20.3534 -1.64941 1.74239e-18)
(20.3182 -1.63905 1.71057e-18)
(20.2816 -1.62787 4.24697e-19)
(20.244 -1.61577 -2.04287e-18)
(20.2057 -1.60598 3.96621e-19)
(14.4607 -0.988357 -2.24625e-19)
(16.9247 -1.27312 1.81309e-19)
(18.1428 -1.39987 1.53967e-19)
(18.8618 -1.47721 1.34971e-19)
(19.3585 -1.527 -3.77115e-18)
(19.7186 -1.56501 3.31114e-18)
(19.9822 -1.59328 0)
(20.1726 -1.61447 1.88926e-19)
(20.3063 -1.62981 -3.01962e-18)
(20.3958 -1.64043 -1.0738e-20)
(20.4515 -1.64718 -1.00801e-20)
(20.4818 -1.65081 4.778e-18)
(20.4935 -1.65194 8.93211e-21)
(20.4919 -1.65109 8.75784e-21)
(20.4807 -1.64863 -2.08276e-18)
(20.4625 -1.64483 2.01524e-18)
(20.4393 -1.6399 -1.94336e-18)
(20.4124 -1.634 -4.73092e-19)
(20.3828 -1.62723 -2.30646e-19)
(20.3513 -1.6197 2.25506e-19)
(20.3183 -1.6115 0)
(20.2842 -1.60256 -6.52964e-19)
(20.2495 -1.59274 4.23859e-19)
(20.2146 -1.58437 4.14873e-19)
(14.7172 -0.979404 0)
(17.1712 -1.25316 -3.43473e-19)
(18.3727 -1.38105 -2.37443e-18)
(19.0646 -1.45454 -7.54292e-21)
(19.5314 -1.50205 1.78709e-18)
(19.861 -1.53773 2.18912e-19)
(20.0947 -1.56402 0)
(20.2573 -1.58356 0)
(20.3663 -1.59763 1.78678e-19)
(20.4353 -1.60738 0)
(20.4749 -1.61367 0)
(20.4934 -1.61723 -2.27732e-18)
(20.4969 -1.61864 2.30904e-18)
(20.4899 -1.61834 -1.38378e-19)
(20.4754 -1.61665 -2.00215e-18)
(20.4557 -1.61382 2.57012e-18)
(20.4321 -1.61002 0)
(20.4057 -1.60537 2.42972e-19)
(20.3774 -1.59998 2.37418e-19)
(20.3477 -1.59393 -4.65429e-19)
(20.3169 -1.58729 -6.8773e-19)
(20.2853 -1.57999 -3.14669e-21)
(20.2534 -1.5719 8.87055e-19)
(20.2214 -1.56481 0)
(14.9382 -0.970403 -1.56079e-18)
(17.3776 -1.23729 1.62581e-18)
(18.5606 -1.36489 0)
(19.2273 -1.43528 0)
(19.667 -1.48104 0)
(19.9698 -1.51492 -2.17651e-19)
(20.178 -1.53971 -1.62479e-18)
(20.3176 -1.55798 1.51903e-18)
(20.407 -1.57104 -1.79584e-18)
(20.4604 -1.58006 1.35541e-18)
(20.4881 -1.58592 -2.58376e-18)
(20.4981 -1.58932 2.29923e-18)
(20.4958 -1.59083 -2.20704e-18)
(20.4851 -1.59084 2.11143e-18)
(20.4684 -1.58966 -1.35844e-19)
(20.4477 -1.58749 -2.62995e-19)
(20.424 -1.58449 2.30454e-18)
(20.3983 -1.58077 -9.92559e-19)
(20.3713 -1.5764 -9.74915e-19)
(20.3432 -1.57147 1.43987e-18)
(20.3144 -1.56602 -1.17969e-18)
(20.2853 -1.55999 -4.66528e-19)
(20.256 -1.5533 0)
(20.2269 -1.54746 4.03525e-22)
(15.1218 -0.957573 0)
(17.5472 -1.22034 -3.11783e-19)
(18.7145 -1.34849 0)
(19.3575 -1.4178 0)
(19.7728 -1.46261 2.31577e-19)
(20.0519 -1.49538 -6.47028e-22)
(20.2385 -1.5192 2.02244e-19)
(20.3591 -1.53655 1.90528e-19)
(20.4332 -1.54881 3.6005e-19)
(20.4747 -1.5572 1.71097e-19)
(20.4938 -1.56265 0)
(20.4978 -1.56586 0)
(20.4915 -1.56737 -1.48931e-19)
(20.4782 -1.56756 1.29219e-18)
(20.4602 -1.56672 -1.24481e-18)
(20.439 -1.56502 0)
(20.4156 -1.5626 -2.61298e-19)
(20.3907 -1.55956 2.55509e-19)
(20.3648 -1.55599 0)
(20.3384 -1.55192 7.41049e-19)
(20.3115 -1.54739 -9.72584e-19)
(20.2845 -1.5424 -2.417e-19)
(20.2576 -1.53694 4.77771e-19)
(20.2309 -1.53248 4.71266e-19)
(15.2908 -0.946519 1.04828e-18)
(17.6978 -1.20858 -5.97566e-19)
(18.8391 -1.33598 1.07275e-18)
(19.4609 -1.40225 -9.79093e-19)
(19.855 -1.44655 -1.13996e-18)
(20.1142 -1.47891 -6.44598e-19)
(20.2825 -1.50217 1.60535e-18)
(20.3881 -1.51874 -1.89814e-19)
(20.4502 -1.53028 1.08461e-18)
(20.4826 -1.53807 -1.54318e-18)
(20.4953 -1.54308 0)
(20.4948 -1.54604 0)
(20.4856 -1.54746 -1.20888e-18)
(20.4706 -1.54772 1.30767e-18)
(20.4517 -1.54711 -1.67674e-22)
(20.4303 -1.54576 9.58862e-19)
(20.4073 -1.54376 -9.3188e-19)
(20.3832 -1.54124 -2.61012e-19)
(20.3585 -1.53828 -2.56612e-19)
(20.3335 -1.53485 2.53063e-19)
(20.3083 -1.53099 2.50435e-19)
(20.2832 -1.52682 2.48616e-19)
(20.2584 -1.52235 0)
(20.2337 -1.51871 -2.48086e-19)
(15.3896 -0.91079 -3.32316e-19)
(17.791 -1.18428 2.8776e-19)
(18.9482 -1.31745 0)
(19.5483 -1.38892 0)
(19.9211 -1.43386 -2.2466e-19)
(20.1618 -1.46596 -8.45629e-19)
(20.3159 -1.4886 7.97471e-19)
(20.4092 -1.50441 -1.51743e-18)
(20.4615 -1.51496 1.75821e-19)
(20.4869 -1.52191 1.54769e-18)
(20.4945 -1.5264 0)
(20.4907 -1.52906 -1.58307e-19)
(20.4793 -1.53032 -1.2205e-18)
(20.4629 -1.53062 2.06072e-18)
(20.4434 -1.53021 -9.97611e-19)
(20.422 -1.52913 -9.73997e-19)
(20.3993 -1.52741 9.48559e-19)
(20.3759 -1.52528 0)
(20.3523 -1.52287 -7.87488e-19)
(20.3289 -1.51994 5.16706e-19)
(20.3052 -1.51653 -2.56931e-19)
(20.2814 -1.513 -2.55858e-19)
(20.2581 -1.50925 5.11321e-19)
(20.2353 -1.50646 -2.59045e-19)
(15.5467 -0.906535 6.47027e-19)
(17.9799 -1.20802 -5.63295e-19)
(19.0169 -1.3207 0)
(19.6031 -1.37506 -9.46129e-19)
(19.9668 -1.4214 1.10631e-18)
(20.1993 -1.45561 0)
(20.3403 -1.47819 5.97646e-19)
(20.4234 -1.49211 -7.54962e-19)
(20.4693 -1.50173 0)
(20.4892 -1.50802 -1.72359e-19)
(20.4926 -1.51201 -6.62499e-19)
(20.4862 -1.51438 7.95345e-19)
(20.4729 -1.51539 0)
(20.4553 -1.51565 -1.04827e-18)
(20.4353 -1.51552 1.15577e-18)
(20.4144 -1.51468 0)
(20.3921 -1.51312 0)
(20.3695 -1.51137 0)
(20.3464 -1.50939 0)
(20.3246 -1.50663 2.63854e-19)
(20.3016 -1.50332 -5.34536e-19)
(20.2799 -1.50046 5.32163e-19)
(20.2591 -1.49763 -2.69473e-19)
(20.238 -1.49601 -1.34939e-19)
(5.26587 2.96647 -2.02288e-17)
(11.169 3.26056 1.05981e-19)
(15.2215 4.42592 0)
(18.2407 5.8907 0)
(20.5965 7.08651 0)
(22.4707 7.98868 5.59508e-20)
(23.9511 8.65222 0)
(25.0816 9.09714 0)
(25.8953 9.33468 0)
(26.4245 9.38498 -3.9254e-20)
(26.7084 9.27318 -8.70277e-19)
(26.7941 9.02922 6.49752e-19)
(26.7334 8.68487 -6.13186e-19)
(26.5748 8.27119 9.97037e-20)
(26.3601 7.81643 2.50306e-19)
(26.1212 7.34407 -4.59988e-19)
(25.8795 6.8719 4.70356e-20)
(25.6473 6.4124 1.75599e-20)
(25.4296 5.97283 9.21977e-20)
(25.2267 5.55694 -2.05109e-19)
(25.0364 5.16585 1.1869e-19)
(24.8559 4.79781 0)
(24.6836 4.46248 0)
(24.5221 4.08927 1.03589e-20)
(-15.0057 1.29179 -2.0308e-17)
(-9.09854 1.39278 1.00501e-17)
(-2.6057 1.60839 0)
(3.51603 2.18047 -3.90799e-18)
(8.99195 2.96034 2.89602e-18)
(13.6684 3.82253 -8.0185e-20)
(17.5334 4.68304 -1.83991e-18)
(20.6288 5.46988 8.6183e-20)
(23.0196 6.12839 8.97824e-20)
(24.7782 6.6262 1.22711e-18)
(25.984 6.95027 1.22686e-19)
(26.7246 7.10562 -7.34489e-19)
(27.0944 7.1102 7.92202e-19)
(27.1871 6.98972 -7.33418e-20)
(27.09 6.77404 -2.44859e-19)
(26.8784 6.49286 1.01861e-18)
(26.6086 6.17198 -4.09205e-19)
(26.3182 5.83149 -1.60087e-20)
(26.0297 5.48535 -1.19141e-19)
(25.7544 5.14304 3.02434e-19)
(25.4962 4.81045 0)
(25.2549 4.48859 -9.72001e-20)
(25.0295 4.19198 -6.45382e-20)
(24.8139 3.83974 -4.03626e-20)