/*--------------------------------*- C++ -*----------------------------------*\
| =========                 |                                                 |
| \\      /  F ield         | OpenFOAM: The Open Source CFD Toolbox           |
|  \\    /   O peration     | Version:  2.3.0                                 |
|   \\  /    A nd           | Web:      www.OpenFOAM.org                      |
|    \\/     M anipulation  |                                                 |
\*---------------------------------------------------------------------------*/
FoamFile
{
    version     2.0;
    format      ascii;
    class       volScalarField;
    location    "5000";
    object      nuTilda;
}
// * * * * * * * * * * * * * * * * * * * * * * * * * * * * * * * * * * * * * //

dimensions      [0 2 -1 0 0 0 0];

internalField   nonuniform List<scalar> 
38388
(
0.0406233
0.0390968
0.0375982
0.0361297
0.0346959
0.033302
0.0319493
0.0306351
0.0293565
0.0281118
0.0269022
0.0257279
0.0245898
0.0234871
0.0224181
0.0213811
0.0203756
0.0194007
0.0184552
0.0175382
0.0166493
0.0157874
0.0149519
0.0141401
0.0133525
0.0125862
0.0118396
0.011111
0.0103979
0.00969905
0.00901147
0.00833475
0.00766857
0.0070169
0.00638553
0.00578386
0.00522729
0.00472425
0.00428815
0.00391949
0.0036282
0.00343435
0.00342676
0.042693
0.0412948
0.0399224
0.0385775
0.0372637
0.0359857
0.0347471
0.0335475
0.0323778
0.0312333
0.0301134
0.0290199
0.0279543
0.0269182
0.0259111
0.0249312
0.0239767
0.0230462
0.0221385
0.021254
0.0203925
0.0195539
0.0187388
0.0179474
0.017181
0.0164394
0.0157262
0.0150406
0.0143871
0.013768
0.013185
0.0126418
0.0121384
0.0116742
0.0112474
0.0108578
0.0105054
0.0101945
0.00993126
0.00973703
0.00963305
0.00967041
0.00997112
0.0446538
0.0433994
0.0421659
0.040954
0.0397646
0.0385986
0.0374563
0.0363377
0.0352422
0.0341688
0.0331171
0.0320882
0.031084
0.0301057
0.0291544
0.0282301
0.0273306
0.0264526
0.0255939
0.0247541
0.0239329
0.0231307
0.0223482
0.0215859
0.0208435
0.0201226
0.0194233
0.0187473
0.0180953
0.0174702
0.016878
0.0163258
0.015828
0.0154011
0.015049
0.014767
0.0145587
0.0144276
0.0143842
0.0144374
0.014594
0.0148612
0.0152416
0.0464646
0.0453435
0.0442396
0.0431524
0.0420822
0.0410285
0.0399917
0.0389723
0.0379697
0.0369841
0.0360161
0.035065
0.0341314
0.0332163
0.0323198
0.0314416
0.0305818
0.0297392
0.0289151
0.0281081
0.0273209
0.0265523
0.0258042
0.025078
0.0243751
0.0236964
0.0230456
0.0224229
0.0218321
0.0212772
0.020762
0.0202915
0.0198715
0.0195085
0.0192079
0.0189746
0.018814
0.0187325
0.0187344
0.0188274
0.0190139
0.0192977
0.0196764
0.048117
0.0471144
0.0461254
0.0451493
0.0441854
0.0432339
0.0422944
0.041367
0.0404522
0.0395504
0.0386612
0.0377851
0.0369225
0.0360742
0.0352397
0.0344197
0.033614
0.0328229
0.0320465
0.031286
0.0305421
0.0298161
0.0291089
0.0284229
0.0277587
0.0271194
0.0265056
0.025921
0.0253673
0.0248482
0.0243686
0.0239331
0.0235451
0.0232107
0.0229359
0.0227255
0.0225846
0.0225202
0.0225367
0.0226383
0.0228298
0.0231117
0.0234835
0.0496146
0.0487175
0.0478293
0.0469501
0.0460791
0.0452165
0.0443625
0.0435166
0.0426793
0.0418512
0.0410317
0.0402215
0.0394217
0.0386326
0.0378544
0.0370878
0.0363328
0.0355898
0.0348586
0.0341408
0.0334366
0.032748
0.0320761
0.0314237
0.0307921
0.0301828
0.0295988
0.0290422
0.0285151
0.0280205
0.0275636
0.0271479
0.0267784
0.0264606
0.0262005
0.0260019
0.0258712
0.0258138
0.0258348
0.0259389
0.0261291
0.026407
0.0267724
0.0509706
0.0501653
0.0493642
0.0485684
0.0477783
0.0469932
0.0462127
0.0454372
0.0446669
0.0439032
0.0431447
0.0423919
0.0416454
0.0409063
0.0401766
0.0394557
0.0387445
0.0380435
0.0373527
0.0366713
0.0360016
0.0353449
0.034703
0.0340778
0.0334722
0.0328874
0.0323264
0.0317922
0.0312868
0.0308118
0.0303711
0.0299701
0.0296132
0.0293067
0.0290552
0.0288646
0.0287393
0.0286853
0.0287076
0.02881
0.0289975
0.0292709
0.0296303
0.0521973
0.0514729
0.0507459
0.0500213
0.0493009
0.0485839
0.0478663
0.0471523
0.0464381
0.0457299
0.0450249
0.0443221
0.0436216
0.0429259
0.0422355
0.041553
0.0408783
0.0402124
0.0395559
0.0389079
0.0382684
0.0376387
0.0370217
0.0364198
0.0358345
0.0352683
0.0347252
0.034209
0.033723
0.0332656
0.0328386
0.0324489
0.0321022
0.0318026
0.0315574
0.0313722
0.0312512
0.0312005
0.031222
0.031321
0.0315037
0.0317726
0.0321271
0.0533163
0.0526601
0.0519915
0.0513254
0.0506603
0.0500067
0.0493414
0.0486896
0.048016
0.0473522
0.046693
0.0460334
0.045373
0.0447161
0.0440569
0.0434043
0.0427581
0.0421182
0.0414884
0.0408694
0.0402578
0.0396522
0.0390556
0.0384741
0.0379084
0.0373582
0.0368275
0.0363235
0.0358514
0.0354169
0.0350027
0.0346233
0.0342868
0.0339944
0.0337524
0.0335756
0.0334546
0.0334122
0.0334356
0.0335286
0.033705
0.0339689
0.0343206
0.00410537
0.00540958
0.00640156
0.00744132
0.00854924
0.00971707
0.010932
0.012183
0.0134631
0.0147677
0.0160935
0.0174369
0.0187969
0.0201722
0.0215616
0.0229671
0.0243852
0.0258172
0.0272611
0.0287183
0.0301879
0.0316702
0.0331643
0.0346707
0.0361888
0.0377182
0.039259
0.040811
0.042374
0.0439476
0.0455312
0.0471243
0.0487268
0.0503382
0.0519578
0.0535848
0.0552187
0.0568588
0.0585047
0.0601553
0.0618102
0.0634682
0.0651244
0.0104933
0.0111695
0.0119487
0.0128254
0.013792
0.0148332
0.0159393
0.0170981
0.0183008
0.019537
0.0208019
0.0220911
0.0233989
0.0247213
0.0260579
0.0274047
0.0287615
0.0301264
0.0315005
0.0328815
0.0342696
0.0356647
0.0370661
0.038474
0.0398878
0.0413074
0.0427328
0.0441638
0.0456003
0.0470421
0.0484888
0.0499407
0.0513973
0.0528586
0.0543241
0.0557936
0.0572669
0.0587436
0.0602231
0.0617056
0.0631906
0.0646784
0.0661662
0.0157288
0.0163203
0.0170165
0.0178097
0.0186893
0.0196446
0.0206665
0.0217436
0.0228672
0.0240291
0.0252217
0.0264393
0.027677
0.0289311
0.0301978
0.0314753
0.0327604
0.0340524
0.0353503
0.0366527
0.0379592
0.0392682
0.0405806
0.0418947
0.0432109
0.0445293
0.0458493
0.0471707
0.0484936
0.0498178
0.0511433
0.0524703
0.0537986
0.0551281
0.0564586
0.0577902
0.059123
0.0604566
0.0617907
0.0631253
0.0644603
0.0657953
0.0671252
0.0201477
0.020713
0.0213736
0.022121
0.0229502
0.0238521
0.024817
0.0258366
0.0269013
0.0280042
0.0291382
0.0302973
0.0314764
0.0326705
0.033877
0.0350927
0.0363147
0.0375414
0.0387715
0.0400042
0.0412371
0.0424703
0.0437033
0.0449355
0.0461663
0.0473957
0.0486233
0.0498491
0.051073
0.0522952
0.0535155
0.0547341
0.0559509
0.0571659
0.0583795
0.0595915
0.0608021
0.062011
0.0632184
0.064424
0.0656278
0.0668289
0.0680238
0.0239434
0.024492
0.0251289
0.025849
0.0266453
0.0275102
0.0284355
0.0294128
0.0304342
0.0314918
0.0325796
0.0336916
0.034822
0.0359669
0.0371219
0.0382851
0.0394522
0.0406226
0.0417943
0.0429656
0.0441355
0.0453032
0.0464677
0.0476283
0.0487852
0.0499376
0.0510855
0.0522288
0.0533675
0.0545016
0.0556311
0.056756
0.0578767
0.0589931
0.0601056
0.061214
0.0623185
0.0634194
0.0645165
0.06561
0.0666997
0.0677857
0.0688674
0.0272235
0.0277604
0.0283814
0.0290816
0.0298542
0.0306928
0.031588
0.0325334
0.0335213
0.0345438
0.0355948
0.0366677
0.0377584
0.0388621
0.0399746
0.0410926
0.042214
0.043336
0.0444575
0.0455765
0.0466928
0.0478042
0.0489098
0.0500092
0.0511022
0.0521887
0.0532685
0.0543411
0.0554064
0.0564647
0.0575159
0.0585604
0.0595981
0.0606296
0.061655
0.062674
0.0636868
0.0646938
0.065695
0.0666906
0.067681
0.0686663
0.0696468
0.0300744
0.0306021
0.0312115
0.0318966
0.0326514
0.0334687
0.0343413
0.0352615
0.036223
0.0372175
0.0382385
0.0392798
0.0403367
0.0414056
0.0424825
0.0435631
0.0446448
0.0457257
0.0468041
0.0478794
0.0489495
0.0500129
0.0510678
0.0521143
0.0531528
0.0541825
0.0552041
0.056216
0.0572182
0.0582109
0.0591948
0.06017
0.0611365
0.0620946
0.0630449
0.0639866
0.0649198
0.0658453
0.0667632
0.0676734
0.0685769
0.069474
0.0703627
0.0325651
0.0330846
0.0336848
0.0343594
0.0350999
0.0358994
0.0367518
0.0376535
0.0385936
0.0395651
0.040561
0.0415757
0.0426043
0.0436439
0.0446911
0.0457396
0.0467871
0.0478321
0.0488741
0.049912
0.0509449
0.0519665
0.0529761
0.0539763
0.0549693
0.0559498
0.0569228
0.057881
0.0588292
0.0597641
0.0606903
0.0616062
0.062511
0.0634062
0.0642922
0.0651667
0.0660302
0.0668849
0.0677307
0.0685655
0.0693925
0.0702125
0.0710208
0.0347532
0.0352627
0.0358562
0.0365246
0.0372558
0.0380387
0.0388679
0.0397562
0.040677
0.0416304
0.0426047
0.0435946
0.0445989
0.0456159
0.0466405
0.0476581
0.0486764
0.0496884
0.0506993
0.0517067
0.0527109
0.0536912
0.0546589
0.0556207
0.0565813
0.0575129
0.0584532
0.0593547
0.0602621
0.0611411
0.0620226
0.0628865
0.0637373
0.06458
0.0654115
0.066225
0.0670279
0.0678234
0.0686083
0.0693743
0.0701343
0.0708883
0.0716351
0.0866347
0.0822579
0.078032
0.0739515
0.0700154
0.066223
0.0625714
0.0590574
0.0556797
0.052435
0.0493201
0.0463312
0.0434656
0.0407196
0.0380895
0.0355716
0.0331639
0.0308624
0.0286624
0.0265622
0.024559
0.02265
0.0208309
0.0190997
0.0174541
0.0158904
0.0144082
0.0130041
0.0116766
0.0104237
0.00924413
0.00813498
0.00709684
0.00612855
0.00522927
0.00439856
0.00363692
0.00294611
0.00232644
0.00178468
0.00136687
0.000978357
0.000575042
0.0882091
0.0841557
0.080225
0.0764134
0.0727205
0.069145
0.0656854
0.0623398
0.0591068
0.0559836
0.0529679
0.0500577
0.0472504
0.0445432
0.0419337
0.0394194
0.0369984
0.0346671
0.0324243
0.0302669
0.0281941
0.0262027
0.0242911
0.0224577
0.0206998
0.0190186
0.0174101
0.0158743
0.0144105
0.0130183
0.0116955
0.0104434
0.00926203
0.00815123
0.00711199
0.00614663
0.00525809
0.00445486
0.00376951
0.00312069
0.00247945
0.00180185
0.00102979
0.0897711
0.0860146
0.0823579
0.0787988
0.0753356
0.0719683
0.0686954
0.0655152
0.0624263
0.0594272
0.0565165
0.0536927
0.0509536
0.0482971
0.0457211
0.0432254
0.0408069
0.0384648
0.036196
0.0340011
0.0318774
0.029824
0.0278396
0.0259233
0.0240746
0.022293
0.0205774
0.0189284
0.0173462
0.0158298
0.0143809
0.0130003
0.0116893
0.0104507
0.00928792
0.0082075
0.00722527
0.00633044
0.00545179
0.00456057
0.00362149
0.00256794
0.00140207
0.0913053
0.0878189
0.084415
0.0810892
0.0778404
0.0746671
0.0715693
0.0685455
0.0655944
0.0627153
0.059907
0.0571692
0.0544999
0.0518976
0.0493623
0.0468915
0.0444845
0.0421403
0.0398586
0.0376376
0.0354764
0.0333752
0.0313336
0.0293504
0.0274267
0.0255619
0.0237567
0.0220119
0.0203276
0.0187061
0.0171489
0.0156582
0.0142387
0.0128947
0.0116352
0.0104829
0.00937206
0.00826671
0.00714154
0.00596619
0.00469716
0.00325345
0.00171602
0.0927842
0.0895558
0.086387
0.0832772
0.0802261
0.0772334
0.0742984
0.0714203
0.0685993
0.0658338
0.063124
0.0604693
0.0578685
0.0553215
0.0528279
0.0503863
0.0479963
0.0456575
0.043369
0.0411308
0.0389429
0.0368053
0.0347181
0.0326814
0.0306954
0.0287619
0.0268813
0.0250553
0.0232862
0.0215759
0.0199282
0.0183476
0.0168403
0.0154181
0.0140815
0.0127743
0.0114654
0.0101322
0.00874988
0.00728445
0.00568373
0.00386561
0.00198778
0.0942329
0.0912243
0.0882686
0.0853571
0.0824888
0.0796623
0.0768778
0.0741353
0.0714347
0.0687758
0.0661586
0.0635827
0.0610483
0.0585552
0.0561032
0.0536926
0.0513235
0.0489941
0.0467046
0.0444554
0.0422479
0.0400828
0.0379601
0.03588
0.0338439
0.0318533
0.0299101
0.028017
0.0261773
0.0243943
0.0226725
0.0210196
0.0194479
0.0179372
0.0164496
0.0149587
0.0134437
0.0118819
0.0102453
0.00849772
0.00657965
0.00441222
0.00222557
0.095603
0.0928087
0.0900522
0.0873249
0.084625
0.0819521
0.0793061
0.076688
0.0740984
0.0715388
0.0690076
0.0665063
0.0640346
0.0615925
0.0591807
0.0568009
0.054455
0.0521397
0.049853
0.0475966
0.0453741
0.0431874
0.041038
0.0389258
0.0368491
0.0348115
0.0328166
0.0308678
0.0289706
0.0271287
0.0253488
0.0236359
0.0219683
0.0203212
0.0186711
0.0169989
0.0152835
0.0135007
0.0116202
0.00960336
0.0073869
0.00489871
0.00243553
0.096874
0.0943027
0.0917349
0.0891773
0.0866353
0.084103
0.0815837
0.079079
0.0765906
0.0741226
0.0716721
0.0692394
0.0668267
0.0644343
0.0620595
0.059706
0.0573837
0.0550893
0.0528121
0.0505492
0.0483132
0.0461074
0.0439399
0.0418057
0.0396987
0.0376205
0.0355842
0.0335883
0.0316441
0.0297563
0.0279211
0.0261162
0.0243238
0.0225347
0.0207275
0.018883
0.0169788
0.0149891
0.0128794
0.0106059
0.00810698
0.00532814
0.00263153
0.0981465
0.0957274
0.093322
0.0909156
0.0885235
0.0861175
0.0837125
0.0813133
0.078912
0.0765307
0.0741555
0.0717843
0.0694277
0.0670843
0.0647498
0.0624086
0.0601027
0.0578385
0.0555885
0.0533155
0.0510677
0.048836
0.046651
0.0445104
0.0423927
0.0402688
0.0382065
0.036163
0.0341763
0.0322348
0.030326
0.0284259
0.0264924
0.0245678
0.0226125
0.0206117
0.0185304
0.0163509
0.014038
0.0115211
0.00872894
0.00563996
0.0027084
0.000463059
0.00052368
0.000699216
0.000867531
0.00104147
0.00123571
0.00146625
0.00174625
0.00206371
0.00241228
0.00278961
0.0031943
0.00362608
0.00408455
0.00457018
0.00508329
0.0056245
0.00619395
0.00679258
0.00742064
0.00807885
0.00876773
0.00948773
0.01024
0.0110253
0.0118441
0.0126968
0.0135845
0.0145085
0.0154688
0.0164667
0.0175028
0.018578
0.019693
0.0208486
0.0220455
0.0232848
0.0245668
0.0258921
0.0272618
0.0286766
0.0301372
0.031646
0.000613119
0.000674564
0.00086559
0.00106792
0.00129575
0.00156053
0.00186736
0.00221786
0.00260304
0.00301627
0.00345536
0.00391941
0.00440826
0.00492175
0.00545928
0.00602157
0.00660862
0.00722053
0.0078573
0.00852004
0.00920813
0.00992245
0.0106633
0.011431
0.0122267
0.0130501
0.0139024
0.0147838
0.0156953
0.0166371
0.0176099
0.0186147
0.0196518
0.0207221
0.021826
0.0229643
0.0241376
0.0253465
0.0265918
0.0278738
0.0291935
0.0305519
0.0319526
0.000760297
0.000824951
0.00104893
0.00130311
0.00159711
0.00193338
0.00230916
0.00272466
0.00317148
0.00364372
0.00413978
0.00465896
0.0052006
0.00576431
0.00634985
0.00695677
0.00758537
0.00823553
0.00890705
0.00960023
0.0103149
0.0110514
0.0118098
0.0125906
0.013394
0.0142207
0.0150704
0.0159442
0.0168421
0.017765
0.0187128
0.0196862
0.0206858
0.0217121
0.0227656
0.0238469
0.0249561
0.026094
0.0272612
0.0284582
0.0296851
0.0309426
0.0322312
0.0008968
0.000977648
0.00124826
0.00156216
0.00192198
0.00232255
0.00275927
0.00323451
0.00373671
0.00426242
0.00481008
0.00537875
0.00596783
0.00657642
0.00720441
0.00785121
0.00851637
0.00919974
0.00990122
0.0106205
0.0113577
0.0121126
0.0128856
0.0136765
0.0144858
0.0153134
0.0161597
0.0170248
0.0179092
0.0188129
0.0197365
0.0206802
0.0216443
0.0226295
0.0236358
0.0246636
0.0257135
0.0267856
0.0278805
0.0289983
0.0301389
0.031302
0.0324872
0.00102515
0.00113578
0.00146012
0.00183414
0.00225393
0.00271141
0.00320371
0.00373179
0.00428389
0.00485782
0.00545193
0.00606529
0.00669676
0.00734557
0.00801104
0.00869274
0.00939014
0.0101026
0.0108299
0.0115718
0.0123281
0.0130987
0.0138835
0.0146824
0.0154955
0.0163231
0.0171649
0.0180212
0.0188921
0.0197777
0.0206783
0.0215942
0.0225254
0.0234722
0.024435
0.0254136
0.0264087
0.0274205
0.0284489
0.0294941
0.0305556
0.0316329
0.0327259
0.00114848
0.00129875
0.00167812
0.00210819
0.00258129
0.00308912
0.00363303
0.00420825
0.00480568
0.00542315
0.00605891
0.00671222
0.00738156
0.00806628
0.00876538
0.00947802
0.0102035
0.0109416
0.0116915
0.012453
0.0132259
0.0140098
0.0148045
0.0156098
0.0164258
0.0172521
0.0180891
0.0189365
0.0197945
0.0206631
0.0215422
0.0224321
0.0233327
0.0242442
0.0251667
0.0261005
0.0270455
0.0280019
0.0289696
0.0299485
0.0309385
0.0319394
0.0329537
0.00126953
0.00146654
0.00189836
0.0023784
0.00289824
0.00345147
0.00404205
0.0046595
0.00529763
0.0059543
0.00662774
0.00731698
0.00802049
0.00873725
0.00946645
0.0102069
0.0109576
0.0117185
0.0124885
0.0132675
0.0140546
0.01485
0.0156533
0.0164638
0.0172814
0.0181059
0.0189374
0.0197762
0.0206222
0.021475
0.0223345
0.0232002
0.024072
0.0249505
0.0258359
0.0267284
0.0276278
0.0285338
0.0294461
0.0303649
0.0312898
0.0322209
0.0331584
0.00138975
0.00162563
0.00210438
0.00263009
0.00319322
0.00378988
0.00442337
0.00508065
0.00575685
0.00644978
0.0071582
0.00788121
0.00861733
0.00936435
0.0101217
0.0108875
0.011661
0.0124422
0.0132302
0.0140246
0.0148247
0.0156296
0.0164405
0.0172551
0.0180713
0.0188912
0.0197168
0.0205476
0.0213828
0.022222
0.0230634
0.0239052
0.024748
0.025595
0.0264464
0.0273016
0.0281601
0.0290206
0.0298825
0.0307462
0.0316121
0.03248
0.0333507
0.00149053
0.00182143
0.0023582
0.0029253
0.00352813
0.00416628
0.00483575
0.00552372
0.00622922
0.00695266
0.00769596
0.00845887
0.00922844
0.0100012
0.0107841
0.0115629
0.0123523
0.0131512
0.0139498
0.0147557
0.0155649
0.0163722
0.0171944
0.0180065
0.0188053
0.0196148
0.0204353
0.0212604
0.0220887
0.0229186
0.0237439
0.0245548
0.0253624
0.0261805
0.0270012
0.0278239
0.0286472
0.029467
0.0302824
0.0310954
0.0319073
0.0327185
0.0335292
0.000105139
0.000399642
0.000907355
0.00154867
0.00218712
0.00281868
0.00344553
0.0040648
0.00467354
0.00528103
0.00589239
0.00651117
0.00714025
0.00778326
0.00844089
0.00911321
0.00980157
0.0105067
0.0112311
0.0119763
0.0127444
0.0135373
0.014358
0.0152082
0.0160899
0.0170051
0.0179552
0.0189424
0.0199676
0.0210314
0.0221359
0.0232819
0.024471
0.0257033
0.0269791
0.0282974
0.0296578
0.0310612
0.0325087
0.0340002
0.0355314
0.0370976
0.0386885
5.87112e-05
0.000214353
0.000462842
0.00081932
0.00127896
0.00184593
0.00250888
0.00318291
0.0038652
0.00455549
0.00524701
0.00593315
0.00661107
0.00727814
0.00793743
0.00859304
0.00924872
0.00990821
0.0105749
0.0112522
0.0119437
0.0126533
0.0133849
0.0141422
0.0149295
0.0157503
0.0166085
0.0175075
0.0184495
0.0194375
0.0204738
0.0215602
0.0226982
0.0238887
0.025132
0.0264278
0.0277753
0.0291738
0.030623
0.0321215
0.0336667
0.0352541
0.0368765
4.4363e-05
0.000178745
0.00033503
0.000581723
0.000901535
0.0012992
0.00178092
0.00234657
0.0029971
0.00373833
0.00451976
0.00529487
0.00605854
0.0068097
0.00754846
0.00827534
0.00899044
0.0096944
0.0103888
0.0110762
0.0117594
0.0124421
0.0131282
0.0138227
0.0145313
0.0152598
0.0160145
0.0168016
0.0176272
0.0184972
0.019417
0.0203913
0.0214237
0.0225175
0.0236748
0.0248965
0.0261822
0.0275315
0.0289432
0.0304152
0.0319445
0.0335267
0.0351558
5.09932e-05
0.00016013
0.000301571
0.000508934
0.000773448
0.00109893
0.00149156
0.00195634
0.00249612
0.00311418
0.00381413
0.00460005
0.00541759
0.00623605
0.00704662
0.00784677
0.00863571
0.00941254
0.0101769
0.0109284
0.0116668
0.0123927
0.0131071
0.0138125
0.014512
0.0152105
0.0159139
0.016629
0.0173636
0.0181265
0.0189266
0.0197725
0.0206723
0.0216335
0.0226624
0.0237634
0.0249395
0.0261925
0.0275218
0.0289262
0.030403
0.0319473
0.033553
4.84207e-05
0.000157987
0.000276957
0.000457625
0.000691225
0.000976726
0.00131805
0.00172048
0.00218914
0.00272652
0.00333571
0.00402074
0.00478501
0.00562816
0.00649202
0.00735325
0.00820548
0.00904712
0.00987718
0.0106949
0.0114994
0.0122897
0.0130647
0.0138239
0.0145675
0.0152965
0.0160133
0.0167217
0.0174274
0.018138
0.0188624
0.0196109
0.0203948
0.0212256
0.0221146
0.0230717
0.0241056
0.0252227
0.0264271
0.0277206
0.0291024
0.0305695
0.0321176
4.85717e-05
0.000152448
0.000263575
0.000425203
0.000636996
0.000895138
0.00120241
0.00156318
0.00198275
0.00246453
0.00301176
0.00362798
0.00431731
0.00508432
0.00593237
0.0068262
0.00772738
0.00862322
0.00951015
0.0103868
0.0112522
0.0121047
0.0129427
0.0137649
0.0145699
0.015356
0.0161229
0.016871
0.0176018
0.0183187
0.0190275
0.019736
0.0204543
0.0211945
0.0219705
0.0227961
0.0236854
0.0246514
0.0257046
0.0268528
0.028101
0.029452
0.0309112
4.78275e-05
0.000150787
0.000256794
0.000400661
0.000595723
0.000833834
0.00111642
0.00144718
0.00183049
0.00227135
0.00277223
0.00333632
0.00396802
0.00467127
0.00545021
0.00630935
0.00722974
0.00816585
0.00910026
0.0100277
0.0109461
0.011854
0.0127496
0.0136313
0.014497
0.0153448
0.0161725
0.0169785
0.0177615
0.0185215
0.0192601
0.0199805
0.0206889
0.021394
0.0221077
0.0228441
0.0236191
0.0244501
0.0253535
0.0263444
0.0274357
0.0286381
0.0299663
4.73397e-05
0.000148619
0.000250751
0.000383067
0.000564238
0.00078639
0.00104987
0.00135755
0.00171329
0.00212167
0.00258623
0.00310985
0.0036963
0.00434931
0.00507326
0.0058727
0.00675199
0.00769767
0.00866531
0.00963492
0.010599
0.0115551
0.0125016
0.0134366
0.0143582
0.0152641
0.0161514
0.0170181
0.0178615
0.0186793
0.0194703
0.0202344
0.0209729
0.0216904
0.0223936
0.0230931
0.0238028
0.0245395
0.0253225
0.0261717
0.0271069
0.0281471
0.0293133
4.67277e-05
0.000147601
0.000247031
0.000370861
0.000539081
0.0007481
0.000996143
0.00128533
0.00161908
0.00200139
0.00243666
0.00292764
0.00347751
0.00408983
0.00476889
0.00551917
0.00634512
0.00725102
0.00822417
0.00922224
0.0102242
0.0112221
0.0122131
0.0131955
0.0141671
0.0151255
0.0160681
0.0169922
0.0178952
0.0187734
0.0196242
0.0204454
0.0212355
0.0219946
0.022725
0.0234323
0.0241257
0.024818
0.0255263
0.0262713
0.0270759
0.0279652
0.0289693
4.3653e-05
0.000146138
0.000243849
0.000362164
0.000518789
0.000716573
0.000951768
0.00122582
0.00154153
0.00190265
0.00231325
0.00277693
0.00329647
0.00387523
0.00451713
0.00522614
0.00600687
0.00686421
0.00780218
0.00880525
0.00983298
0.0108657
0.0118958
0.01292
0.0139357
0.0149413
0.0159338
0.0169107
0.0178689
0.0188051
0.0197156
0.0205972
0.0214466
0.0222615
0.0230407
0.0237854
0.0244998
0.0251912
0.0258722
0.0265594
0.027275
0.0280463
0.0289096
3.37611e-05
0.000143525
0.000241337
0.000355783
0.000502323
0.000690311
0.000914591
0.00117573
0.00147629
0.00181976
0.00220964
0.00265021
0.00314399
0.00369415
0.00430433
0.00497834
0.00572079
0.00653607
0.00742927
0.00840382
0.00943788
0.0104953
0.0115581
0.0126188
0.0136741
0.0147216
0.0157591
0.0167836
0.0177925
0.0187824
0.0197493
0.0206895
0.0215992
0.0224744
0.023312
0.02411
0.0248684
0.02559
0.0262816
0.0269548
0.0276269
0.0283235
0.0290821
3.33651e-05
0.000142824
0.000239694
0.000350924
0.00048939
0.000668193
0.000882816
0.00113305
0.00142085
0.00174926
0.00212171
0.00254215
0.00301387
0.00353936
0.00412224
0.00476629
0.00547557
0.0062545
0.00710801
0.0080409
0.0090546
0.0101211
0.0112079
0.0122998
0.0133899
0.0144751
0.0155527
0.0166203
0.0176752
0.0187139
0.0197331
0.0207285
0.0216959
0.0226309
0.0235293
0.024387
0.0252016
0.0259721
0.0267003
0.0273928
0.0280613
0.0287258
0.0294198
3.32323e-05
0.000142411
0.000238497
0.000347284
0.000479396
0.000649492
0.000855638
0.0010963
0.00137293
0.00168835
0.0020457
0.00244881
0.00290127
0.00340535
0.00396449
0.00458245
0.00526276
0.00601008
0.00682892
0.00772406
0.00870058
0.00975475
0.0108537
0.0119695
0.0130898
0.0142086
0.0153224
0.0164288
0.0175252
0.0186086
0.0196754
0.0207218
0.0217431
0.0227352
0.023693
0.0246117
0.0254869
0.0263155
0.0270959
0.0278298
0.028524
0.0291919
0.0298583
3.31664e-05
0.000142237
0.000237651
0.00034451
0.000471771
0.00063363
0.000832033
0.00106412
0.00133107
0.00163519
0.00197946
0.00236763
0.00280307
0.0032885
0.00382699
0.00442192
0.00507692
0.0057962
0.00658451
0.0074464
0.00838672
0.00940977
0.0105042
0.0116349
0.0127796
0.0139277
0.015074
0.0162155
0.0173497
0.0184735
0.0195838
0.0206768
0.0217481
0.0227934
0.0238076
0.0247855
0.0257217
0.0266117
0.0274516
0.0282398
0.0289783
0.0296746
0.0303441
3.30942e-05
0.000142083
0.000237031
0.000342352
0.000465741
0.000620062
0.000811348
0.00103592
0.00129439
0.00158862
0.00192144
0.00229635
0.00271674
0.00318567
0.00370578
0.00428035
0.00491309
0.0056078
0.00636892
0.00720108
0.00810896
0.00909783
0.0101697
0.0113026
0.0124644
0.0136372
0.0148125
0.0159859
0.0171543
0.018315
0.0194649
0.0206006
0.0217179
0.0228126
0.0238795
0.0249133
0.0259085
0.0268594
0.027761
0.0286092
0.0294023
0.0301424
0.0308358
3.30631e-05
0.000142013
0.000236547
0.000340558
0.000460817
0.000608539
0.000793264
0.00101107
0.00126181
0.00154732
0.00187003
0.00223313
0.00264019
0.00309453
0.00359838
0.00415482
0.00476768
0.00544038
0.00617723
0.00698277
0.00786192
0.00881939
0.00986013
0.0109803
0.0121497
0.0133415
0.014542
0.015744
0.0169437
0.0181381
0.0193244
0.0204991
0.0216586
0.0227987
0.0239147
0.0250008
0.0260517
0.0270613
0.0280237
0.0289333
0.0297856
0.030578
0.0313104
3.30182e-05
0.000141924
0.000236105
0.000339026
0.000456708
0.000598837
0.000777247
0.000988765
0.00123262
0.00151032
0.00182408
0.00217685
0.002572
0.00301317
0.00350246
0.00404289
0.00463787
0.00529087
0.0060061
0.00678798
0.00764105
0.00857018
0.00958074
0.0106761
0.0118414
0.0130452
0.0142661
0.0154935
0.0167217
0.017947
0.0191666
0.0203772
0.0215756
0.0227577
0.0239188
0.0250536
0.0261566
0.0272219
0.0282428
0.0292128
0.0301255
0.0309756
0.0317577
3.30353e-05
0.000141963
0.000235834
0.00033788
0.000453467
0.000590901
0.000763152
0.0009689
0.00120647
0.00147705
0.00178279
0.00212639
0.00251103
0.00294015
0.00341636
0.00394236
0.0045212
0.00515648
0.00585218
0.00661273
0.00744232
0.00834585
0.00932885
0.0103958
0.0115453
0.0127524
0.0139883
0.0152375
0.0164913
0.017745
0.0189955
0.0202394
0.0214734
0.0226944
0.0238972
0.0250773
0.0262291
0.0273466
0.028423
0.0294513
0.0304246
0.0313353
0.0321765
3.30611e-05
0.000142066
0.000235623
0.000336896
0.000450645
0.000584216
0.000750691
0.000951041
0.00118285
0.00144693
0.00174539
0.00208068
0.00245578
0.00287403
0.00333841
0.00385136
0.00441585
0.00503516
0.0057133
0.00645445
0.00726298
0.00814331
0.00910087
0.0101407
0.0112666
0.0124672
0.0137118
0.0149786
0.0162552
0.017535
0.0188139
0.0200885
0.021356
0.0226127
0.0238544
0.0250764
0.0262737
0.02744
0.0285689
0.0296533
0.0306856
0.0316579
0.0325626
3.30684e-05
0.000142172
0.000235468
0.000335988
0.000448177
0.000578529
0.000739509
0.000934702
0.00116124
0.00141954
0.00171129
0.00203895
0.00240543
0.00281389
0.00326753
0.00376871
0.00432006
0.0049249
0.0055871
0.0063107
0.00709987
0.00795926
0.00889384
0.00990866
0.0110091
0.0121938
0.0134399
0.0147194
0.0160155
0.017319
0.018624
0.0199273
0.0212258
0.0225157
0.0237936
0.0250547
0.0262943
0.0275066
0.0286849
0.0298224
0.0309114
0.0319435
0.0329109
3.30709e-05
0.000142241
0.000235276
0.000335131
0.000446001
0.000573615
0.000729531
0.000919922
0.00114157
0.00139444
0.00168014
0.0020009
0.0023595
0.0027589
0.00320267
0.003693
0.00423232
0.00482394
0.00547168
0.00617925
0.00695074
0.00779093
0.00870463
0.00969685
0.0107727
0.0119358
0.0131753
0.0144621
0.015774
0.0170984
0.0184277
0.0197577
0.021085
0.0224061
0.0237178
0.0250155
0.0262945
0.0275498
0.0287745
0.029962
0.0311046
0.0321937
0.0332205
3.31036e-05
0.000142366
0.000235164
0.000334481
0.000444188
0.00056931
0.000720563
0.000906401
0.00112345
0.00137134
0.00165137
0.00196573
0.00231711
0.00270837
0.00314302
0.00362329
0.00415166
0.00473143
0.00536576
0.00605858
0.00681401
0.00763652
0.00853092
0.00950193
0.010555
0.0116953
0.0129207
0.0142085
0.0155322
0.0168746
0.0182261
0.019581
0.0209352
0.0222857
0.023629
0.0249609
0.0262771
0.0275724
0.0288407
0.0300751
0.0312683
0.0324112
0.0334944
3.31361e-05
0.000142463
0.000235083
0.000333951
0.000442594
0.000565522
0.000712665
0.000893992
0.00110663
0.00134983
0.00162468
0.00193319
0.00227791
0.00266168
0.00308779
0.00355871
0.00407698
0.00464559
0.00526762
0.00594689
0.00668764
0.00749395
0.0083704
0.0093219
0.0103542
0.0114722
0.0126786
0.0139609
0.0152913
0.0166488
0.0180202
0.019398
0.0207776
0.0221557
0.0235286
0.0248928
0.0262437
0.0275768
0.0288861
0.0301647
0.0314055
0.0325999
0.0337383
3.31592e-05
0.000142582
0.000235049
0.000333473
0.000441148
0.000562221
0.000705688
0.000882676
0.00109123
0.00133002
0.00159997
0.00190295
0.00224148
0.00261828
0.00303642
0.0034988
0.00400766
0.00456591
0.00517657
0.00584332
0.00657012
0.00736142
0.00822149
0.00915517
0.0101677
0.0112646
0.0124503
0.0137209
0.0150532
0.0164221
0.0178107
0.0192095
0.020613
0.0220169
0.0234179
0.0248124
0.0261962
0.0275647
0.0289126
0.0302333
0.0315195
0.0327625
0.0339525
3.32178e-05
0.000142727
0.000235029
0.000333018
0.000439823
0.000559274
0.000699474
0.000872163
0.00107671
0.00131132
0.00157668
0.00187462
0.00220739
0.00257769
0.00298854
0.00344284
0.00394299
0.00449153
0.00509155
0.00574662
0.00646074
0.00723788
0.00808259
0.00899952
0.00999375
0.0110708
0.012236
0.0134904
0.014819
0.0161951
0.0175983
0.0190162
0.0204417
0.02187
0.0232976
0.0247208
0.0261356
0.0275379
0.0289221
0.0302828
0.0316125
0.0329036
0.0341468
3.32252e-05
0.000142805
0.00023494
0.000332524
0.000438551
0.000556538
0.000693886
0.000862463
0.00106319
0.00129383
0.00155486
0.00184799
0.00217532
0.00253951
0.00294348
0.00339022
0.00388209
0.00442163
0.00501169
0.00565587
0.00635808
0.00712206
0.00795243
0.00885367
0.00983078
0.0108894
0.0120345
0.0132704
0.0145901
0.0159692
0.0173839
0.0188185
0.0202644
0.0217158
0.0231683
0.0246185
0.0260627
0.0274966
0.0289151
0.0303131
0.0316841
0.0330207
0.0343175
3.32547e-05
0.000142933
0.000234895
0.000332136
0.000437487
0.000554152
0.000688919
0.00085347
0.00105052
0.00127741
0.00153437
0.00182291
0.00214514
0.00250359
0.0029011
0.00334086
0.00382491
0.00435591
0.00493665
0.00557054
0.00626139
0.00701299
0.00782989
0.00871642
0.00967749
0.0107186
0.0118448
0.0130614
0.0143679
0.0157453
0.0171679
0.018617
0.0200815
0.0215542
0.0230301
0.0245059
0.0259777
0.0274414
0.0288922
0.0303251
0.0317333
0.0331091
0.0344408
3.32935e-05
0.000143042
0.000234851
0.000331771
0.000436453
0.000551878
0.000684338
0.000845124
0.00103864
0.00126194
0.00151504
0.0017992
0.00211659
0.00246966
0.00286112
0.0032942
0.00377092
0.00429384
0.00486578
0.00549004
0.00617017
0.0069101
0.00771425
0.00858692
0.00953289
0.0105575
0.0116657
0.0128634
0.0141536
0.0155245
0.0169512
0.0184123
0.0198934
0.0213858
0.0228839
0.0243836
0.0258814
0.0273732
0.0288545
0.03032
0.0317638
0.0331789
0.0345591
3.33312e-05
0.00014315
0.000234878
0.000331514
0.000435568
0.000549829
0.000680146
0.000837346
0.00102744
0.00124728
0.00149669
0.00177684
0.00208958
0.00243747
0.00282322
0.00324979
0.00371955
0.00423481
0.00479844
0.00541358
0.00608367
0.00681274
0.00760485
0.00846427
0.00939587
0.0104046
0.011496
0.0126757
0.013948
0.0153083
0.0167356
0.0182054
0.0197008
0.0212112
0.0227301
0.0242526
0.0257748
0.0272931
0.028803
0.0302995
0.0317768
0.0332276
0.034642
3.3365e-05
0.00014328
0.000234838
0.000331186
0.000434679
0.000547911
0.000676338
0.000830141
0.00101683
0.00123334
0.0014792
0.00175555
0.00206396
0.00240687
0.0027872
0.00320772
0.00367078
0.00417884
0.0047346
0.00534103
0.00600159
0.0067202
0.00750081
0.00834768
0.00926565
0.0102596
0.011335
0.0124973
0.0137515
0.0150981
0.0165217
0.017997
0.0195043
0.0210311
0.0225693