/*--------------------------------*- C++ -*----------------------------------*\
| =========                 |                                                 |
| \\      /  F ield         | OpenFOAM: The Open Source CFD Toolbox           |
|  \\    /   O peration     | Version:  2.3.0                                 |
|   \\  /    A nd           | Web:      www.OpenFOAM.org                      |
|    \\/     M anipulation  |                                                 |
\*---------------------------------------------------------------------------*/
FoamFile
{
    version     2.0;
    format      ascii;
    class       volScalarField;
    location    "3000";
    object      nut;
}
// * * * * * * * * * * * * * * * * * * * * * * * * * * * * * * * * * * * * * //

dimensions      [0 2 -1 0 0 0 0];

internalField   nonuniform List<scalar> 
14036
(
0.0541349
0.051
0.0479387
0.044978
0.0421321
0.0394148
0.0368447
0.0344409
0.0322174
0.0301933
0.0283906
0.0268099
0.0253469
0.0239051
0.0224903
0.0211152
0.0197842
0.0184951
0.0172414
0.016011
0.0147852
0.0135388
0.0122727
0.0112227
0.0578697
0.055254
0.052721
0.0502791
0.0479319
0.0456829
0.0435363
0.0414954
0.0395636
0.0377458
0.0360465
0.0344712
0.0330203
0.0316937
0.0304956
0.0294334
0.028514
0.0277451
0.0271341
0.0266846
0.0264005
0.0262823
0.0263294
0.02654
0.0612182
0.0590277
0.0569189
0.0548924
0.0529489
0.0510911
0.0493207
0.0476402
0.0460517
0.044559
0.0431651
0.0418733
0.0406885
0.039614
0.0386549
0.0378163
0.0371036
0.0365207
0.036073
0.0357625
0.0355896
0.035553
0.0356484
0.0358687
0.0642061
0.0623677
0.0606023
0.0589069
0.0572826
0.0557296
0.0542499
0.0528453
0.0515175
0.0502692
0.0491033
0.0480232
0.0470324
0.0461355
0.0453363
0.0446395
0.0440496
0.043571
0.0432062
0.0429591
0.0428296
0.0428174
0.0429203
0.0431327
0.0668603
0.0653157
0.0638276
0.0623964
0.0610226
0.0597073
0.0584519
0.0572577
0.0561264
0.0550595
0.0540608
0.0531335
0.0522811
0.0515074
0.0508175
0.0502154
0.0497051
0.0492916
0.0489782
0.0487676
0.0486619
0.0486614
0.048765
0.0489695
0.0692238
0.0679148
0.06665
0.0654289
0.064253
0.0631236
0.0620422
0.0610101
0.0600287
0.0590999
0.0582264
0.0574122
0.0566609
0.0559767
0.0553645
0.0548289
0.0543741
0.0540045
0.0537247
0.0535377
0.0534455
0.0534504
0.0535518
0.0537478
0.0713182
0.0702045
0.0691206
0.0680681
0.0670488
0.0660654
0.0651199
0.0642143
0.0633497
0.0625278
0.0617511
0.0610231
0.0603479
0.0597303
0.0591757
0.0586887
0.0582741
0.0579367
0.0576808
0.0575096
0.0574264
0.0574331
0.0575309
0.0577191
0.0731797
0.0722223
0.0712857
0.0703691
0.0694744
0.0686065
0.067768
0.0669615
0.0661889
0.0654519
0.0647522
0.0640928
0.0634771
0.0629108
0.0624
0.0619501
0.0615655
0.0612522
0.0610144
0.0608555
0.0607782
0.0607854
0.0608789
0.0610598
0.0748304
0.0740015
0.0731853
0.0723808
0.071586
0.0708103
0.0700559
0.0693269
0.0686268
0.0679576
0.0673208
0.0667177
0.0661509
0.0656241
0.0651475
0.0647278
0.0643661
0.064072
0.0638491
0.0637004
0.0636288
0.063636
0.0637235
0.0638982
0.0763006
0.0755697
0.0748443
0.0741372
0.0734247
0.0727264
0.072035
0.0713641
0.0707192
0.0701022
0.0695165
0.0689646
0.0684404
0.0679437
0.0674904
0.0671027
0.0667574
0.066483
0.0662739
0.0661351
0.0660714
0.0660823
0.0661594
0.0663311
0.0122098
0.0144856
0.015976
0.0174079
0.0189602
0.0206802
0.0225677
0.0246088
0.0267872
0.02909
0.0315054
0.034024
0.0366384
0.0393425
0.0421299
0.0449947
0.0479306
0.0509311
0.0539891
0.057097
0.060247
0.0634304
0.0666387
0.0698801
0.0268955
0.0274099
0.028108
0.0289935
0.0300643
0.0313131
0.0327292
0.0343009
0.0360151
0.0378584
0.0398181
0.0418832
0.0440439
0.0462915
0.0486176
0.0510152
0.0534779
0.0559996
0.0585748
0.0611973
0.0638615
0.0665616
0.069292
0.0720618
0.0362021
0.0366597
0.0372598
0.0380052
0.0388955
0.0399267
0.0410927
0.0423865
0.0437995
0.0453223
0.0469458
0.0486614
0.0504617
0.0523389
0.0542865
0.0562982
0.0583686
0.0604925
0.0626651
0.0648821
0.0671389
0.0694317
0.0717575
0.0741217
0.0434487
0.0438738
0.0444193
0.0450859
0.0458729
0.0467763
0.0477912
0.0489121
0.0501315
0.0514422
0.0528368
0.0543079
0.0558494
0.0574549
0.0591186
0.0608357
0.0626015
0.064412
0.0662634
0.0681523
0.0700757
0.0720306
0.0740146
0.076037
0.0492708
0.0496725
0.050181
0.0507955
0.0515139
0.0523326
0.0532462
0.054249
0.0553345
0.0564959
0.0577269
0.0590207
0.0603715
0.061774
0.0632231
0.0647146
0.0662439
0.0678083
0.0694052
0.0710314
0.0726849
0.0743631
0.0760638
0.0777933
0.054036
0.0544186
0.054899
0.0554749
0.0561436
0.0569011
0.0577415
0.0586588
0.0596467
0.0606986
0.0618082
0.0629697
0.0641773
0.0654259
0.066711
0.0680281
0.0693735
0.0707445
0.0721391
0.0735553
0.0749911
0.0764449
0.0779151
0.0794039
0.0579959
0.0583624
0.0588198
0.0593655
0.0599962
0.0607069
0.0614917
0.0623441
0.0632577
0.064226
0.0652427
0.0663023
0.0673995
0.0685293
0.0696868
0.0708672
0.0720668
0.0732842
0.0745175
0.0757649
0.0770244
0.0782948
0.0795753
0.0808646
0.0613264
0.0616783
0.0621164
0.0626377
0.0632382
0.0639123
0.0646532
0.0654544
0.0663095
0.067212
0.0681555
0.0691348
0.0701453
0.0711819
0.072239
0.0733098
0.0743918
0.0754853
0.0765889
0.0777003
0.0788158
0.0799359
0.0810595
0.0821881
0.0641569
0.064493
0.0649162
0.0654157
0.0659924
0.0666381
0.0673423
0.068102
0.0689101
0.0697602
0.0706434
0.0715576
0.0724996
0.073463
0.0744414
0.0754206
0.0764053
0.0773981
0.0783974
0.0793997
0.0803941
0.081391
0.0823847
0.083382
0.0665924
0.0669014
0.067314
0.0677897
0.0683516
0.0689774
0.0696462
0.0703733
0.0711432
0.0719508
0.0727782
0.0736404
0.0745301
0.0754349
0.0763524
0.0772458
0.0781508
0.0790652
0.079985
0.0809052
0.0817838
0.082681
0.0835657
0.0844662
0.0719261
0.0661183
0.0608154
0.0559403
0.0514258
0.0472179
0.0432737
0.0395592
0.0360503
0.0327295
0.0295857
0.0266141
0.0238141
0.0211867
0.0187318
0.0164444
0.0143232
0.0123758
0.0106341
0.00918634
0.00798401
0.00676925
0.00543854
0.00387492
0.0736228
0.0685875
0.0639811
0.0597435
0.0558181
0.0521579
0.0487235
0.0454837
0.0424132
0.0394907
0.0367015
0.0340408
0.0315185
0.029157
0.026975
0.0249545
0.0230349
0.0211495
0.019248
0.0173013
0.0152855
0.0131564
0.0108553
0.00830972
0.0754781
0.0711461
0.0671852
0.0635498
0.0601943
0.0570791
0.0541704
0.0514397
0.0488662
0.0464266
0.0440879
0.0418201
0.0396004
0.0374124
0.0352416
0.0330752
0.0308901
0.0286594
0.0263522
0.0239327
0.0213653
0.0186104
0.0156289
0.0123804
0.0774402
0.0737309
0.0703569
0.0672725
0.0644437
0.0618406
0.0594293
0.0571495
0.0549416
0.0527693
0.0506107
0.048449
0.0462716
0.0440637
0.0418124
0.039502
0.037113
0.0346248
0.0320085
0.0292345
0.0262655
0.0230666
0.019599
0.0158294
0.0794432
0.0762951
0.0734395
0.0708446
0.0684841
0.0663047
0.0642238
0.0621837
0.0601504
0.0581008
0.0560191
0.0538933
0.0517114
0.049461
0.0471293
0.0446991
0.0421527
0.0394663
0.0366141
0.0335641
0.0302834
0.0267347
0.0228814
0.0186877
0.0814545
0.0787955
0.0763916
0.0742189
0.0722157
0.0702936
0.0683963
0.0664918
0.0645577
0.0625774
0.0605372
0.0584255
0.0562298
0.0539386
0.0515369
0.0490086
0.0463334
0.0434874
0.0404431
0.0371693
0.0336311
0.0297919
0.025612
0.0210553
0.0834472
0.0812029
0.0791832
0.0773264
0.075544
0.0737794
0.0719996
0.0701835
0.068316
0.0663824
0.0643695
0.0622636
0.0600529
0.0577241
0.0552626
0.0526503
0.0498665
0.0468862
0.0436805
0.0402168
0.0364597
0.0323695
0.0279064
0.0230315
0.0853842
0.0834923
0.0817661
0.0801118
0.0784746
0.0768201
0.075126
0.0733762
0.0715583
0.0696609
0.0676679
0.0655642
0.0633373
0.0609746
0.0584607
0.0557752
0.052897
0.0498004
0.0464554
0.0428273
0.038878
0.0345672
0.0298536
0.0246953
0.0872283
0.0856295
0.0841016
0.0825857
0.0810547
0.0794845
0.0778597
0.0761656
0.0743882
0.0725197
0.0705446
0.0684398
0.0661954
0.063801
0.0612409
0.0584903
0.0555285
0.0523305
0.0488643
0.0450913
0.0409704
0.0364631
0.0315282
0.0261188
0.0889882
0.0875851
0.0861937
0.0847776
0.0833309
0.0818277
0.0802587
0.0786184
0.0768787
0.0750315
0.0730801
0.0709715
0.0687068
0.0662802
0.0636832
0.0608744
0.0578371
0.0545498
0.0509794
0.0470767
0.0428011
0.0381159
0.0329891
0.0273641
0.00206413
0.000957201
0.00109782
0.0013978
0.00167988
0.0019611
0.00225757
0.00259294
0.00300207
0.00352956
0.0041768
0.00492638
0.00577671
0.00673158
0.00779729
0.00898195
0.0102932
0.0117393
0.0133295
0.0150733
0.0169805
0.0190599
0.02132
0.0237768
0.00542944
0.0026407
0.00152578
0.00169186
0.00199228
0.00231378
0.00267668
0.00310632
0.00362549
0.00425329
0.00498015
0.00579247
0.00669141
0.00768116
0.00876703
0.00995526
0.0112514
0.0126622
0.0141954
0.0158589
0.0176607
0.0196086
0.0217129
0.0239897
0.00879103
0.00495476
0.0023224
0.0019948
0.0023138
0.00270161
0.00315296
0.00368246
0.00429841
0.00501187
0.00580565
0.00667225
0.00761339
0.00863246
0.00973351
0.0109205
0.0121982
0.0135719
0.0150476
0.0166314
0.0183304
0.0201515
0.0221032
0.0241918
0.0116886
0.00717954
0.0033893
0.00233724
0.00264576
0.0031125
0.00365515
0.00427563
0.00497454
0.00575932
0.00660987
0.00752285
0.0084995
0.00954229
0.0106538
0.0118365
0.0130941
0.0144308
0.0158512
0.0173602
0.0189635
0.0206668
0.0224775
0.0244054
0.0140893
0.00907121
0.00449774
0.00272656
0.00298746
0.00353425
0.00416154
0.00486069
0.00563206
0.00647639
0.00737591
0.00832899
0.00933596
0.0103978
0.0115161
0.0126928
0.0139302
0.0152314
0.0165999
0.0180395
0.0195548
0.0211501
0.0228307
0.0245987
0.016062
0.0106233
0.00550407
0.00314332
0.00333294
0.00395383
0.00465533
0.00542176
0.00625895
0.00715463
0.00809702
0.00908471
0.0101174
0.011195
0.0123178
0.0134873
0.014705
0.0159728
0.0172933
0.0186692
0.0201038
0.0216008
0.0231641
0.024801
0.0176904
0.0118889
0.00636071
0.00355874
0.00367556
0.00436181
0.00512886
0.00595614
0.00684956
0.00779016
0.00877037
0.00978834
0.010843
0.0119333
0.0130591
0.0142209
0.0154197
0.0166564
0.0179329
0.0192507
0.0206121
0.0220193
0.0234748
0.0249788
0.0190439
0.0129233
0.0070724
0.00395351
0.00400896
0.00475246
0.00557762
0.00646022
0.00740151
0.00838199
0.00939569
0.0104403
0.0115136
0.0126144
0.0137421
0.0148965
0.0160776
0.0172857
0.0185216
0.0197862
0.0210807
0.0224058
0.0237615
0.0251461
0.020192
0.0137866
0.00766149
0.00431452
0.00432788
0.00512187
0.00599902
0.0069323
0.0079151
0.00893045
0.00997322
0.0110409
0.0121313
0.0132419
0.014371
0.0155186
0.0166841
0.0178654
0.019063
0.0202782
0.0215111
0.0227608
0.0240271
0.0253155
0.0212183
0.0146131
0.00823328
0.00467807
0.00463569
0.00547179
0.00638577
0.00735956
0.00837968
0.00942863
0.010501
0.0116062
0.0127257
0.0138426
0.0149682
0.0161165
0.0172683
0.018409
0.0195602
0.0207286
0.0219057
0.0230824
0.0242597
0.0254494
0.000462699
0.0015834
0.00327086
0.00523435
0.00718923
0.0091154
0.0110117
0.0128811
0.0147262
0.0165496
0.0183525
0.0201351
0.0219033
0.0236934
0.0255664
0.0275617
0.029664
0.0318589
0.0344097
0.0372689
0.040354
0.0436118
0.047004
0.0504895
0.000336538
0.000952689
0.00221658
0.00386688
0.00551515
0.00712779
0.00873865
0.0103716
0.0120387
0.0137386
0.015468
0.0172231
0.0190021
0.0208115
0.0226712
0.0246102
0.0266477
0.0288059
0.031192
0.0338201
0.0366473
0.0398662
0.0433683
0.0470876
0.000164583
0.00059951
0.00142783
0.00257233
0.00405491
0.00589521
0.00773836
0.00949734
0.0111887
0.0128373
0.0144637
0.0160843
0.0177143
0.0193696
0.0210687
0.0228368
0.0247043
0.026708
0.0289021
0.0313293
0.0340005
0.0369735
0.0402131
0.0438963
0.000180378
0.000493841
0.00116708
0.0020929
0.00330156
0.00482837
0.00668402
0.0086017
0.010476
0.0122911
0.0140425
0.0157303
0.0173604
0.0189478
0.0205166
0.0221004
0.0237429
0.0254966
0.0274207
0.029576
0.0320094
0.0347549
0.0378056
0.041166
0.000144365
0.000426592
0.00100596
0.001807
0.00284881
0.00416077
0.00577814
0.00770713
0.00971164
0.0116811
0.0135945
0.0154425
0.0172142
0.0189012
0.0205049
0.0220424
0.0235507
0.0250873
0.0267275
0.0285572
0.0306603
0.0330994
0.0359012
0.0390583
0.000135899
0.000386423
0.000907313
0.00162612
0.00255945
0.00373387
0.00518209
0.00694137
0.0089609
0.0110323
0.013077
0.0150726
0.0170041
0.0188526
0.0205998
0.0222354
0.0237663
0.0252257
0.0266792
0.0282226
0.0299708
0.0320339
0.0344917
0.0373757
0.000121085
0.00035439
0.000832339
0.00148953
0.00234427
0.00341871
0.00474198
0.00634897
0.00827095
0.0103869
0.0125317
0.0146488
0.0167171
0.0187179
0.0206279
0.0224225
0.0240826
0.0256068
0.0270244
0.0284076
0.0298724
0.0315619
0.033615
0.0361282
0.000111916
0.000331088
0.000777304
0.00138719
0.00218202
0.00318028
0.00440896
0.00590031
0.00769129
0.00977533
0.0119789
0.0141922
0.0163758
0.0185086
0.0205676
0.0225247
0.0243496
0.0260173
0.0275212
0.0288903
0.0302067
0.031609
0.0332714
0.0353622
0.000102713
0.000311644
0.000732232
0.00130426
0.00205163
0.0029897
0.00414355
0.00554336
0.00722428
0.00921808
0.011436
0.0137201
0.016
0.0182458
0.0204348
0.0225396
0.0245273
0.0263624
0.0280157
0.0294786
0.0307853
0.0320347
0.0333948
0.0350808
9.59405e-05
0.000296704
0.000695578
0.00123658
0.00194503
0.0028339
0.00392652
0.00525144
0.00684196
0.00873492
0.0109202
0.0132455
0.0156023
0.0179445
0.0202465
0.0224821
0.0246188
0.0266184
0.0284407
0.0300537
0.0314512
0.0326802
0.0338674
0.03523
9.11142e-05
0.000286588
0.000665115
0.00118017
0.00185612
0.00270389
0.0037456
0.00500812
0.00652332
0.0083274
0.0104454
0.0127806
0.0151944
0.0176177
0.0200175
0.0223678
0.0246378
0.0267892
0.0287786
0.0305614
0.0321052
0.0334126
0.034555
0.0357105
8.82645e-05
0.000281188
0.000640214
0.0011336
0.00178158
0.00259464
0.00359329
0.00480316
0.00625452
0.00798238
0.0100218
0.0123374
0.0147873
0.0172768
0.0197608
0.0222114
0.0245993
0.0268879
0.0290332
0.0309858
0.0326985
0.034143
0.0353405
0.0364089
8.66414e-05
0.000278585
0.00061978
0.00109539
0.00171898
0.0025026
0.00346477
0.00462978
0.0060267
0.00768915
0.00965425
0.011927
0.0143916
0.0169324
0.0194884
0.0220266
0.0245183
0.0269294
0.0292168
0.0313301
0.033215
0.0348242
0.0361412
0.0372227
8.57497e-05
0.000277351
0.000602714
0.00106331
0.0016664
0.00242517
0.00335636
0.00448327
0.00583377
0.00744027
0.00933971
0.0115569
0.0140176
0.016595
0.0192116
0.0218263
0.0244097
0.0269293
0.0293447
0.031606
0.0336563
0.0354382
0.0369097
0.0380787
8.53307e-05
0.000276709
0.000588492
0.0010364
0.00162213
0.00236004
0.00326512
0.00435971
0.00567062
0.00722928
0.00907165
0.0112312
0.0136729
0.0162736
0.0189405
0.0216223
0.0242869
0.0269033
0.0294332
0.0318289
0.0340335
0.0359846
0.037625
0.038927
8.53751e-05
0.00027653
0.000576576
0.00101379
0.00158489
0.00230512
0.00318819
0.00425543
0.00553279
0.00705065
0.00884411
0.0109496
0.0133618
0.0159745
0.0186826
0.0214239
0.0241615
0.0268647
0.0294978
0.0320153
0.0343619
0.0364736
0.0382846
0.0397442
8.5651e-05
0.000276637
0.000566473
0.00099455
0.00155323
0.00225852
0.00312286
0.00416693
0.0054158
0.00689898
0.00865054
0.0107079
0.013085
0.0157003
0.018442
0.0212365
0.024041
0.0268239
0.0295508
0.0321795
0.0346563
0.036918
0.0388932
0.0405087
8.61047e-05
0.000276811
0.000557869
0.000978045
0.00152595
0.00221847
0.00306683
0.00409107
0.00531552
0.00676886
0.00848444
0.0104996
0.0128398
0.0154504
0.0182188
0.0210615
0.0239283
0.0267853
0.0295993
0.0323303
0.0349276
0.037329
0.0394623
0.0412509
8.6717e-05
0.000276977
0.000550427
0.000963695
0.00150217
0.00218344
0.00301792
0.00402487
0.00522822
0.00665574
0.00834001
0.010318
0.0126216
0.0152211
0.0180103
0.0208963
0.0238215
0.0267482
0.0296439
0.0324702
0.0351787
0.0377091
0.0399884
0.0419303
8.73632e-05
0.000277175
0.000544023
0.000951183
0.00148125
0.00215244
0.0029745
0.00396622
0.00515078
0.00655554
0.00821211
0.010157
0.0124257
0.0150089
0.0178125
0.0207372
0.0237169
0.0267098
0.0296824
0.032598
0.0354102
0.0380603
0.0404759
0.0425686
8.81023e-05
0.000277372
0.000538413
0.00094021
0.00146289
0.00212471
0.00293556
0.00391355
0.00508124
0.00646538
0.00809707
0.0100121
0.0122477
0.0148103
0.017622
0.0205799
0.0236101
0.0266654
0.0297108
0.0327104
0.0356195
0.0383814
0.0409243
0.0431587
8.89242e-05
0.000277578
0.000533393
0.000930369
0.00144649
0.00209955
0.00290024
0.00386567
0.00501807
0.00638349
0.0079925
0.00988022
0.0120846
0.0146233
0.0174365
0.0204217
0.0234976
0.0266113
0.0297253
0.0328039
0.0358041
0.0386709
0.0413343
0.043707
8.97371e-05
0.000277841
0.000528889
0.000921427
0.00143154
0.00207664
0.002868
0.00382202
0.0049603
0.00630858
0.00789674
0.0097593
0.0119344
0.0144473
0.0172561
0.0202622
0.0233784
0.0265459
0.0297239
0.0328765
0.0359617
0.0389263
0.0417015
0.0441987
9.05909e-05
0.000278153
0.000524862
0.000913337
0.00141799
0.00205581
0.00283868
0.00378226
0.00490768
0.00624019
0.00780916
0.0096485
0.0117962
0.0142825
0.0170819
0.0201027
0.0232537
0.0264703
0.029708
0.0329296
0.0360947
0.0391516
0.0420346
0.0446611
9.15199e-05
0.00027852
0.00052132
0.000906022
0.0014057
0.0020369
0.00281207
0.00374616
0.00485987
0.00617799
0.00772939
0.00954744
0.0116698
0.0141299
0.016916
0.019946
0.0231267
0.0263877
0.0296806
0.0329671
0.0362071
0.0393511
0.0423356
0.0450793
9.25234e-05
0.00027896
0.000518293
0.000899456
0.00139461
0.00201982
0.00278802
0.00371355
0.00481668
0.00612174
0.0076572
0.00945587
0.011555
0.0139901
0.0167605
0.0197953
0.0230007
0.0263018
0.0296461
0.0329934
0.0363039
0.0395298
0.0426099
0.0454652
9.36086e-05
0.000279486
0.00051578
0.000893549
0.0013846
0.00200438
0.00276634
0.00368417
0.00477779
0.00607114
0.00759224
0.00937342
0.0114515
0.0138633
0.016617
0.019653
0.0228792
0.0262167
0.029609
0.0330136
0.0363909
0.0396945
0.0428659
0.0458305
9.47922e-05
0.000280111
0.000513819
0.000888284
0.00137561
0.00199048
0.00274684
0.00365779
0.0047429
0.00602577
0.00753401
0.0092995
0.0113586
0.0137491
0.0164861
0.0195211
0.0227649
0.0261358
0.0295733
0.0330325
0.0364736
0.0398516
0.0431101
0.0461761
9.6071e-05
0.00028084
0.00051243
0.000883626
0.00136755
0.001978
0.00272931
0.0036341
0.00471161
0.00598514
0.00748188
0.00923335
0.0112756
0.0136467
0.0163675
0.0194
0.0226592
0.0260611
0.0295418
0.0330538
0.0365567
0.0400072
0.0433525
0.0465283
9.74477e-05
0.000281662
0.000511578
0.000879506
0.00136033
0.0019668
0.00271361
0.00361288
0.00468356
0.00594871
0.00743521
0.00917416
0.0112013
0.0135549
0.0162603
0.0192894
0.0225621
0.0259933
0.0295156
0.0330787
0.0366415
0.0401616
0.0435886
0.0468627
9.88985e-05
0.000282574
0.000511197
0.000875871
0.00135386
0.00195672
0.00269948
0.0035938
0.00465838
0.005916
0.00739329
0.00912102
0.0111345
0.0134724
0.0161632
0.0191881
0.0224729
0.0259317
0.029494
0.0331067
0.0367271
0.0403125
0.0438112
0.047153
0.000100419
0.000283554
0.000511226
0.000872679
0.00134809
0.00194769
0.00268678
0.00357664
0.0046357
0.00588653
0.00735551
0.00907311
0.0110744
0.0133979
0.016075
0.0190951
0.0223905
0.0258756
0.0294768
0.0331382
0.0368155
0.0404662
0.0440415
0.0474822
0.000101994
0.000284591
0.000511601
0.000869912
0.00134295
0.00193958
0.00267537
0.00356119
0.00461526
0.0058599
0.00732132
0.00902972
0.0110198
0.0133301
0.0159943
0.0190091
0.0223138
0.0258235
0.0294624
0.0331715
0.0369048
0.0406196
0.0442681
0.0477911
0.000103609
0.000285661
0.000512249
0.000867519
0.0013384
0.00193233
0.00266514
0.00354729
0.00459681
0.00583584
0.00729034
0.00899029
0.0109701
0.0132683
0.0159201
0.018929
0.0222415
0.0257742
0.0294493
0.0332051
0.0369934
0.0407711
0.0444912
0.0480955
0.000105256
0.000286763
0.0005131
0.000865447
0.00133436
0.00192585
0.00265597
0.00353479
0.00458017
0.00581408
0.00726224
0.0089544
0.0109247
0.0132116
0.0158517
0.0188541
0.0221727
0.0257267
0.0294363
0.0332372
0.0370789
0.0409176
0.0447071
0.0483917
0.000106923
0.000287889
0.000514124
0.0008637
0.00133083
0.0019201
0.00264775
0.00352356
0.0045652
0.00579443
0.00723677
0.00892174
0.0108833
0.0131597
0.0157885
0.0187841
0.0221073
0.0256805
0.0294228
0.0332669
0.0371602
0.0410575
0.0449127
0.0486724
0.000108599
0.000289026
0.000515267
0.000862231
0.00132774
0.00191503
0.0026405
0.00351359
0.0045518
0.00577676
0.00721375
0.00889214
0.0108456
0.0131122
0.0157304
0.0187187
0.0220452
0.0256358
0.0294088
0.0332945
0.0372374
0.0411909
0.0451078
0.0489309
0.000110289
0.000290172
0.000516522
0.000861051
0.00132512
0.00191062
0.00263411
0.00350476
0.00453988
0.00576095
0.00719311
0.00886547
0.0108115
0.0130691
0.0156772
0.0186582
0.0219868
0.0255931
0.0293952
0.033321
0.0373125
0.0413213
0.0452999
0.0491922
0.000111982
0.000291321
0.000517839
0.000860115
0.00132292
0.00190685
0.00262852
0.00349697
0.00452931
0.00574689
0.00717468
0.00884155
0.0107807
0.01303
0.0156287
0.0186024
0.0219322
0.0255527
0.0293824
0.033347
0.0373862
0.0414501
0.0454912
0.0494566
0.000113669
0.000292462
0.000519194
0.000859391
0.00132111
0.00190374
0.00262367
0.00349015
0.00452003
0.00573448
0.00715832
0.00882022
0.0107532
0.0129948
0.0155848
0.0185513
0.0218817
0.025515
0.0293708
0.0333728
0.0374584
0.0415759
0.0456772
0.0497095
0.000115347
0.000293589
0.000520561
0.000858816
0.00131958
0.00190107
0.00261946
0.0034842
0.0045119
0.00572357
0.00714387
0.00880133
0.0107287
0.0129634
0.0155454
0.018505
0.0218353
0.0254804
0.0293607
0.0333988
0.0375294
0.041699
0.0458583
0.0499543
0.000117019
0.000294699
0.000521948
0.000858398
0.00131831
0.00189879
0.00261584
0.00347905
0.00450484
0.00571405
0.00713122
0.0087847
0.0107071
0.0129355
0.0155101
0.0184633
0.0217933
0.0254491
0.0293528
0.0334257
0.0376003
0.0418208
0.0460367
0.050194
0.000118682
0.000295788
0.000523318
0.000858101
0.00131726
0.00189687
0.00261273
0.00347461
0.00449871
0.00570577
0.00712017
0.00877011
0.010688
0.0129108
0.0154789
0.0184261
0.0217556
0.0254214
0.0293475
0.0334544
0.0376723
0.0419435
0.0462167
0.0504392
0.000120336
0.000296855
0.000524682
0.000857918
0.00131642
0.00189527
0.00261008
0.00347079
0.00449343
0.00569858
0.00711053
0.00875734
0.0106712
0.0128891
0.0154512
0.0183931
0.021722
0.0253972
0.029345
0.033485
0.0377455
0.0420668
0.0463962
0.0506802
0.000121972
0.000297898
0.000526023
0.000857834
0.00131575
0.00189394
0.00260783
0.00346753
0.00448887
0.00569235
0.00710213
0.00874617
0.0106566
0.01287
0.0154268
0.0183638
0.0216923
0.0253765
0.0293452
0.0335176
0.0378202
0.042191
0.0465757
0.0509198
0.000123587
0.000298909
0.000527334
0.000857848
0.00131526
0.00189288
0.00260597
0.00346478
0.00448498
0.00568697
0.00709483
0.00873638
0.0106436
0.012853
0.0154051
0.0183378
0.0216658
0.0253588
0.0293479
0.0335523
0.0378966
0.0423168
0.0467571
0.0511618
0.000125187
0.000299889
0.00052861
0.000857938
0.00131492
0.00189206
0.00260445
0.00346247
0.00448166
0.00568233
0.00708846
0.00872778
0.0106322
0.012838
0.0153858
0.0183143
0.021642
0.0253433
0.0293524
0.0335885
0.0379745
0.0424447
0.0469425
0.0514149
0.000126768
0.000300842
0.000529865
0.000858114
0.00131473
0.00189146
0.00260325
0.00346058
0.00447888
0.00567836
0.00708292
0.00872021
0.010622
0.0128245
0.0153683
0.018293
0.0216202
0.0253293
0.0293577
0.0336248
0.0380522
0.042572
0.0471265
0.0516618
0.000128323
0.000301766
0.000531092
0.000858366
0.00131469
0.00189106
0.00260234
0.00345908
0.00447658
0.00567499
0.00707814
0.00871357
0.0106129
0.0128124
0.0153524
0.0182734
0.0216
0.0253162
0.0293629
0.0336602
0.038128
0.0426966
0.047306
0.0519008
0.000129872
0.000302665
0.000532323
0.000858694
0.00131477
0.00189086
0.0026017
0.00345794
0.00447474
0.00567219
0.00707403
0.00870774
0.0106049
0.0128014
0.0153379
0.0182554
0.021581
0.0253036
0.0293677
0.033694
0.0382014
0.0428176
0.0474807
0.0521328
0.000131379
0.00030354
0.00053353
0.000859092
0.00131497
0.00189083
0.00260128
0.00345709
0.0044733
0.00566988
0.00707053
0.00870265
0.0105977
0.0127916
0.0153247
0.0182388
0.0215632
0.0252914
0.029372
0.0337266
0.0382729
0.0429367
0.0476541
0.0523664
0.000132836
0.000304368
0.000534641
0.000859516
0.00131526
0.00189095
0.00260111
0.00345654
0.0044722
0.00566801
0.00706759
0.00869824
0.0105913
0.0127826
0.0153126
0.0182233
0.0215463
0.0252795
0.0293756
0.0337575
0.0383421
0.0430534
0.0478263
0.0526049
0.000134263
0.000305178
0.000535729
0.00085998
0.00131562
0.00189122
0.00260113
0.00345626
0.00447143
0.00566655
0.00706515
0.00869448
0.0105857
0.0127746
0.0153015
0.0182089
0.0215303
0.0252677
0.0293779
0.0337859
0.0384075
0.0431647
0.0479893
0.0528183
0.000135661
0.000305941
0.000536741
0.000860469
0.00131605
0.00189161
0.00260132
0.00345622
0.00447099
0.00566548
0.0070632
0.00869125
0.0105808
0.0127675
0.0152915
0.0181956
0.0215151
0.0252561
0.0293794
0.0338119
0.0384693
0.0432718
0.0481499
0.0530414
0.000137079
0.000306675
0.000537779
0.00086101
0.00131658
0.00189207
0.00260169
0.00345636
0.00447087
0.00566483
0.00706174
0.00868865
0.0105766
0.0127611
0.0152824
0.0181834
0.021501
0.0252448
0.0293803
0.0338362
0.0385277
0.0433742
0.0483045
0.0532592
0.000138438
0.000307414
0.000538825
0.000861602
0.00131718
0.00189267
0.00260217
0.00345673
0.00447091
0.00566444
0.00706064
0.00868652
0.010573
0.0127555
0.0152742
0.0181722
0.0214879
0.0252342
0.0293808
0.0338589
0.0385834
0.043471
0.048448
0.0534427
0.000139751
0.000308095
0.000539756
0.000862178
0.00131777
0.00189334
0.00260279
0.00345726
0.0044712
0.00566427
0.00705982
0.00868476
0.0105699
0.0127506
0.0152669
0.0181621
0.0214757
0.0252243
0.0293813
0.0338807
0.0386377
0.0435681
0.0485991
0.053677
0.000141066
0.000308756
0.000540717
0.000862768
0.00131843
0.00189402
0.00260349
0.00345785
0.00447169
0.00566443
0.00705941
0.00868346
0.0105673
0.0127463
0.0152602
0.0181526
0.0214642
0.0252143
0.0293812
0.0339008
0.0386886
0.0436579
0.0487295
0.0538276
0.000142279
0.000309386
0.000541579
0.000863369
0.00131911
0.00189475
0.00260418
0.00345853
0.00447219
0.0056647
0.00705914
0.00868238
0.0105652
0.0127425
0.0152542
0.018144
0.0214534
0.0252049
0.0293805
0.0339198
0.0387379
0.0437475
0.0488691
0.0540354
0.000143488
0.000309971
0.000542395
0.000863965
0.00131978
0.00189555
0.00260502
0.00345934
0.00447286
0.00566504
0.00705902
0.00868153
0.0105632
0.0127391
0.0152488
0.0181361
0.0214433
0.0251959
0.0293797
0.0339374
0.0387851
0.0438336
0.0490006
0.0542138
0.0001447
0.000310542
0.000543242
0.000864552
0.00132046
0.0018963
0.00260582
0.00346014
0.00447357
0.00566557
0.00705914
0.00868097
0.0105616
0.012736
0.0152437
0.0181286
0.0214339
0.025187
0.0293785
0.033954
0.0388304
0.0439175
0.0491301
0.0543892
0.000145808
0.000311081
0.000543988
0.000865125
0.00132114
0.00189714
0.00260673
0.00346107
0.00447439
0.00566615
0.00705932
0.00868049
0.0105602
0.0127332
0.0152391
0.0181217
0.0214247
0.0251785
0.029377
0.0339695
0.0388742
0.0440003
0.0492633
0.0545894
0.000146906
0.000311596
0.000544685
0.00086569
0.00132182
0.00189795
0.00260765
0.003462
0.00447523
0.00566672
0.0070595
0.00868008
0.0105589
0.0127306
0.0152347
0.0181151
0.021416
0.0251698
0.0293749
0.0339835
0.0389153
0.0440787
0.0493884
0.0547741
0.000147978
0.000312085
0.000545369
0.000866248
0.00132254
0.00189879
0.00260854
0.00346292
0.00447608
0.00566741
0.00705985
0.00867985
0.0105577
0.0127281
0.0152304
0.0181085
0.0214074
0.0251611
0.0293718
0.0339956
0.0389529
0.0441508
0.0494994
0.0549147
0.000148982
0.00031253
0.000545914
0.00086679
0.00132322
0.00189966
0.00260952
0.00346393
0.00447702
0.0056681
0.00706018
0.00867965
0.0105566
0.0127258
0.0152264
0.0181023
0.0213989
0.0251525
0.0293683
0.0340064
0.0389889
0.0442224
0.0496152
0.055086
0.00015002
0.000312955
0.000546521
0.000867373
0.00132397
0.00190053
0.0026105
0.00346495
0.00447803
0.00566896
0.00706065
0.00867946
0.0105556
0.0127236
0.0152226
0.0180963
0.0213907
0.0251435
0.029364
0.0340157
0.0390227
0.0442912
0.0497282
0.055251
0.000150998
0.000313389
0.000547133
0.000867998
0.00132476
0.00190145
0.00261149
0.00346598
0.00447901
0.00566984
0.00706118
0.00867944
0.0105548
0.0127216
0.0152189
0.0180905
0.0213827
0.0251347
0.029359
0.0340233
0.0390536
0.0443557
0.0498348
0.0554042
0.00015194
0.000313768
0.000547631
0.000868607
0.00132555
0.00190248
0.00261263
0.00346718
0.00448013
0.00567073
0.00706176
0.00867951
0.0105541
0.0127198
0.0152155
0.0180852
0.0213751
0.0251262
0.0293539
0.0340299
0.0390826
0.0444176
0.0499381
0.0555554
0.00015289
0.000314134
0.000548174
0.000869254
0.00132643
0.00190352
0.00261385
0.00346842
0.0044814
0.00567185
0.00706259
0.00867982
0.0105536
0.0127181
0.0152124
0.01808
0.021368
0.0251178
0.0293489
0.0340362
0.0391106
0.0444785
0.0500413
0.055709
0.000153744
0.000314473
0.000548623
0.000869932
0.00132737
0.0019047
0.00261518
0.00346987
0.00448277
0.00567312
0.00706355
0.00868027
0.0105533
0.0127168
0.0152095
0.0180753
0.0213611
0.02511
0.0293437
0.0340418
0.0391376
0.0445375
0.0501427
0.0558612
0.000154602
0.000314794
0.000549066
0.000870696
0.00132841
0.00190607
0.00261676
0.00347158
0.00448447
0.00567461
0.00706473
0.00868097
0.0105532
0.0127157
0.015207
0.0180709
0.0213546
0.0251024
0.0293387
0.0340468
0.0391631
0.0445944
0.0502401
0.0560067
0.000155472
0.0003151
0.000549562
0.000871525
0.00132961
0.00190756
0.00261856
0.0034735
0.00448652
0.00567656
0.00706641
0.00868216
0.0105536
0.0127149
0.0152047
0.0180666
0.0213484
0.0250948
0.0293336
0.0340512
0.0391875
0.0446495
0.0503352
0.0561483
0.000156249
0.000315383
0.000549974
0.00087242
0.00133091
0.00190924
0.00262059
0.0034758
0.00448889
0.00567898
0.00706861
0.00868388
0.0105546
0.0127148
0.015203
0.018063
0.0213424
0.0250874
0.0293278
0.0340549
0.0392107
0.0447036
0.0504306
0.0562935
0.000157023
0.000315655
0.000550353
0.000873385
0.00133233
0.00191113
0.00262293
0.00347846
0.00449177
0.00568189
0.00707138
0.00868625
0.0105563
0.0127154
0.015202
0.01806
0.0213368
0.0250799
0.0293215
0.0340568
0.0392318
0.0447556
0.0505245
0.0564414
0.00015778
0.000315885
0.000550736
0.000874409
0.00133393
0.00191326
0.00262553
0.0034815
0.00449514
0.0056855
0.00707503
0.00868967
0.0105591
0.0127171
0.0152022
0.0180579
0.0213322
0.0250727
0.0293144
0.0340564
0.0392485
0.0448012
0.0506099
0.0565714
0.000158475
0.000316089
0.000551017
0.000875485
0.00133558
0.00191558
0.00262848
0.00348498
0.00449904
0.0056897
0.00707943
0.00869407
0.0105632
0.0127203
0.0152041
0.0180577
0.021329
0.0250669
0.0293078
0.0340548
0.0392616
0.0448406
0.050687
0.0566953
0.000159216
0.000316269
0.000551368
0.000876635
0.00133738
0.00191804
0.00263166
0.00348881
0.00450349
0.00569467
0.00708475
0.00869949
0.0105684
0.0127252
0.0152078
0.0180597
0.0213286
0.0250637
0.0293037
0.0340547
0.0392741
0.0448768
0.0507586
0.0568196
0.00015989
0.000316417
0.00055164
0.000877806
0.00133929
0.00192067
0.00263501