/*--------------------------------*- C++ -*----------------------------------*\
| =========                 |                                                 |
| \\      /  F ield         | OpenFOAM: The Open Source CFD Toolbox           |
|  \\    /   O peration     | Version:  2.3.0                                 |
|   \\  /    A nd           | Web:      www.OpenFOAM.org                      |
|    \\/     M anipulation  |                                                 |
\*---------------------------------------------------------------------------*/
FoamFile
{
    version     2.0;
    format      ascii;
    class       volScalarField;
    location    "3000";
    object      nuTilda;
}
// * * * * * * * * * * * * * * * * * * * * * * * * * * * * * * * * * * * * * //

dimensions      [0 2 -1 0 0 0 0];

internalField   nonuniform List<scalar> 
14036
(
0.0541349
0.051
0.0479387
0.044978
0.0421321
0.0394148
0.0368447
0.0344409
0.0322174
0.0301933
0.0283906
0.0268099
0.0253469
0.0239051
0.0224903
0.0211152
0.0197842
0.0184951
0.0172414
0.0160111
0.0147852
0.0135388
0.0122727
0.0112227
0.0578697
0.055254
0.052721
0.0502791
0.0479319
0.0456829
0.0435363
0.0414954
0.0395636
0.0377458
0.0360466
0.0344712
0.0330203
0.0316937
0.0304956
0.0294334
0.028514
0.0277451
0.0271341
0.0266846
0.0264005
0.0262823
0.0263294
0.02654
0.0612182
0.0590277
0.0569189
0.0548924
0.052949
0.0510911
0.0493207
0.0476402
0.0460517
0.044559
0.0431651
0.0418733
0.0406885
0.039614
0.0386549
0.0378163
0.0371036
0.0365207
0.036073
0.0357625
0.0355896
0.035553
0.0356484
0.0358687
0.0642061
0.0623677
0.0606023
0.0589069
0.0572826
0.0557296
0.0542499
0.0528453
0.0515175
0.0502692
0.0491033
0.0480232
0.0470324
0.0461355
0.0453363
0.0446395
0.0440496
0.043571
0.0432063
0.0429591
0.0428296
0.0428174
0.0429203
0.0431327
0.0668603
0.0653157
0.0638276
0.0623964
0.0610226
0.0597073
0.0584519
0.0572577
0.0561264
0.0550595
0.0540608
0.0531335
0.0522811
0.0515074
0.0508175
0.0502154
0.0497051
0.0492916
0.0489782
0.0487676
0.0486619
0.0486614
0.048765
0.0489695
0.0692238
0.0679148
0.06665
0.0654289
0.064253
0.0631236
0.0620422
0.0610101
0.0600287
0.0590999
0.0582264
0.0574122
0.0566609
0.0559767
0.0553645
0.0548289
0.0543741
0.0540045
0.0537247
0.0535377
0.0534455
0.0534504
0.0535518
0.0537478
0.0713182
0.0702045
0.0691206
0.0680681
0.0670488
0.0660654
0.0651199
0.0642143
0.0633497
0.0625278
0.0617511
0.0610231
0.0603479
0.0597303
0.0591757
0.0586887
0.0582741
0.0579367
0.0576808
0.0575096
0.0574264
0.0574331
0.0575309
0.0577191
0.0731797
0.0722223
0.0712857
0.0703691
0.0694744
0.0686065
0.067768
0.0669615
0.0661889
0.0654519
0.0647522
0.0640928
0.0634771
0.0629108
0.0624
0.0619501
0.0615655
0.0612522
0.0610144
0.0608555
0.0607782
0.0607854
0.0608789
0.0610598
0.0748304
0.0740015
0.0731853
0.0723808
0.071586
0.0708103
0.0700559
0.0693269
0.0686268
0.0679576
0.0673208
0.0667177
0.0661509
0.0656241
0.0651475
0.0647278
0.0643661
0.064072
0.0638491
0.0637004
0.0636288
0.063636
0.0637235
0.0638982
0.0763006
0.0755697
0.0748443
0.0741372
0.0734247
0.0727264
0.072035
0.0713641
0.0707192
0.0701022
0.0695165
0.0689646
0.0684404
0.0679437
0.0674904
0.0671027
0.0667574
0.066483
0.0662739
0.0661351
0.0660714
0.0660823
0.0661594
0.0663311
0.0122098
0.0144857
0.015976
0.0174079
0.0189602
0.0206802
0.0225677
0.0246088
0.0267872
0.02909
0.0315054
0.034024
0.0366384
0.0393425
0.0421299
0.0449947
0.0479306
0.0509311
0.0539891
0.057097
0.060247
0.0634304
0.0666387
0.0698801
0.0268955
0.0274099
0.028108
0.0289935
0.0300643
0.0313131
0.0327292
0.0343009
0.0360151
0.0378584
0.0398181
0.0418832
0.0440439
0.0462915
0.0486176
0.0510152
0.0534779
0.0559996
0.0585748
0.0611973
0.0638615
0.0665616
0.069292
0.0720618
0.0362021
0.0366597
0.0372598
0.0380052
0.0388955
0.0399267
0.0410927
0.0423865
0.0437995
0.0453223
0.0469458
0.0486614
0.0504617
0.0523389
0.0542865
0.0562982
0.0583686
0.0604925
0.0626651
0.0648821
0.0671389
0.0694317
0.0717575
0.0741217
0.0434487
0.0438738
0.0444193
0.0450859
0.0458729
0.0467763
0.0477913
0.0489121
0.0501315
0.0514422
0.0528368
0.0543079
0.0558494
0.0574549
0.0591186
0.0608357
0.0626015
0.064412
0.0662634
0.0681523
0.0700757
0.0720306
0.0740146
0.076037
0.0492708
0.0496725
0.050181
0.0507955
0.0515139
0.0523326
0.0532462
0.054249
0.0553345
0.0564959
0.0577269
0.0590207
0.0603715
0.061774
0.0632231
0.0647146
0.0662439
0.0678083
0.0694052
0.0710314
0.0726849
0.0743631
0.0760638
0.0777933
0.054036
0.0544186
0.054899
0.0554749
0.0561436
0.0569011
0.0577415
0.0586588
0.0596467
0.0606986
0.0618082
0.0629697
0.0641773
0.0654259
0.066711
0.0680281
0.0693735
0.0707445
0.0721391
0.0735553
0.0749911
0.0764449
0.0779151
0.0794039
0.0579959
0.0583624
0.0588198
0.0593655
0.0599962
0.0607069
0.0614917
0.0623441
0.0632577
0.064226
0.0652427
0.0663023
0.0673995
0.0685293
0.0696868
0.0708672
0.0720668
0.0732842
0.0745175
0.0757649
0.0770244
0.0782948
0.0795753
0.0808646
0.0613264
0.0616783
0.0621164
0.0626377
0.0632382
0.0639123
0.0646532
0.0654544
0.0663095
0.067212
0.0681555
0.0691348
0.0701453
0.0711819
0.072239
0.0733098
0.0743918
0.0754853
0.0765889
0.0777003
0.0788158
0.0799359
0.0810595
0.0821881
0.0641569
0.064493
0.0649162
0.0654157
0.0659924
0.0666381
0.0673423
0.068102
0.0689101
0.0697602
0.0706434
0.0715576
0.0724996
0.073463
0.0744414
0.0754206
0.0764053
0.0773981
0.0783974
0.0793997
0.0803941
0.081391
0.0823847
0.083382
0.0665924
0.0669014
0.067314
0.0677897
0.0683516
0.0689774
0.0696462
0.0703733
0.0711432
0.0719508
0.0727782
0.0736404
0.0745301
0.0754349
0.0763524
0.0772458
0.0781508
0.0790652
0.079985
0.0809052
0.0817838
0.082681
0.0835657
0.0844662
0.0719261
0.0661183
0.0608154
0.0559403
0.0514258
0.0472179
0.0432737
0.0395592
0.0360503
0.0327295
0.0295857
0.0266141
0.0238141
0.0211867
0.0187318
0.0164444
0.0143232
0.0123758
0.0106341
0.00918635
0.00798403
0.00676928
0.00543859
0.00387501
0.0736228
0.0685875
0.0639811
0.0597435
0.0558181
0.0521579
0.0487235
0.0454837
0.0424132
0.0394907
0.0367015
0.0340408
0.0315185
0.029157
0.026975
0.0249545
0.0230349
0.0211495
0.019248
0.0173013
0.0152855
0.0131564
0.0108553
0.00830974
0.0754781
0.0711461
0.0671852
0.0635498
0.0601943
0.0570791
0.0541704
0.0514397
0.0488662
0.0464266
0.0440879
0.0418201
0.0396004
0.0374124
0.0352416
0.0330752
0.0308901
0.0286594
0.0263522
0.0239327
0.0213653
0.0186104
0.0156289
0.0123804
0.0774402
0.0737309
0.0703569
0.0672725
0.0644437
0.0618406
0.0594293
0.0571495
0.0549416
0.0527693
0.0506107
0.048449
0.0462716
0.0440637
0.0418124
0.039502
0.037113
0.0346248
0.0320085
0.0292345
0.0262655
0.0230666
0.019599
0.0158294
0.0794432
0.0762951
0.0734395
0.0708446
0.0684841
0.0663047
0.0642238
0.0621837
0.0601504
0.0581008
0.0560191
0.0538933
0.0517114
0.049461
0.0471293
0.0446991
0.0421527
0.0394663
0.0366141
0.0335641
0.0302834
0.0267347
0.0228814
0.0186877
0.0814545
0.0787955
0.0763916
0.0742189
0.0722157
0.0702936
0.0683963
0.0664918
0.0645577
0.0625774
0.0605372
0.0584255
0.0562298
0.0539386
0.0515369
0.0490086
0.0463334
0.0434874
0.0404431
0.0371693
0.0336311
0.0297919
0.025612
0.0210553
0.0834472
0.0812029
0.0791832
0.0773264
0.075544
0.0737794
0.0719996
0.0701835
0.068316
0.0663824
0.0643695
0.0622636
0.0600529
0.0577241
0.0552626
0.0526503
0.0498665
0.0468862
0.0436805
0.0402168
0.0364597
0.0323695
0.0279064
0.0230315
0.0853842
0.0834923
0.0817661
0.0801118
0.0784746
0.0768201
0.075126
0.0733762
0.0715583
0.0696609
0.0676679
0.0655642
0.0633373
0.0609746
0.0584607
0.0557752
0.052897
0.0498004
0.0464554
0.0428273
0.038878
0.0345672
0.0298536
0.0246953
0.0872283
0.0856295
0.0841016
0.0825857
0.0810547
0.0794845
0.0778597
0.0761656
0.0743882
0.0725197
0.0705446
0.0684398
0.0661954
0.063801
0.0612409
0.0584903
0.0555285
0.0523305
0.0488643
0.0450913
0.0409704
0.0364631
0.0315282
0.0261188
0.0889882
0.0875851
0.0861937
0.0847776
0.0833309
0.0818277
0.0802587
0.0786184
0.0768787
0.0750315
0.0730801
0.0709715
0.0687068
0.0662802
0.0636832
0.0608744
0.0578371
0.0545498
0.0509794
0.0470767
0.0428011
0.0381159
0.0329891
0.0273641
0.00206445
0.000958699
0.00109897
0.0013985
0.00168037
0.00196146
0.00225784
0.00259314
0.00300222
0.00352967
0.00417688
0.00492644
0.00577676
0.00673161
0.00779731
0.00898197
0.0102932
0.0117393
0.0133295
0.0150733
0.0169805
0.0190599
0.02132
0.0237768
0.00542949
0.00264089
0.00152637
0.00169234
0.00199262
0.00231404
0.00267687
0.00310647
0.0036256
0.00425337
0.00498021
0.00579251
0.00669144
0.00768119
0.00876705
0.00995527
0.0112514
0.0126622
0.0141954
0.0158589
0.0176607
0.0196086
0.021713
0.0239897
0.00879105
0.00495482
0.00232266
0.00199514
0.00231405
0.0027018
0.0031531
0.00368256
0.00429848
0.00501192
0.0058057
0.00667228
0.00761341
0.00863248
0.00973352
0.0109205
0.0121982
0.0135719
0.0150476
0.0166315
0.0183304
0.0201515
0.0221032
0.0241918
0.0116886
0.00717957
0.00338942
0.0023375
0.00264596
0.00311264
0.00365525
0.00427571
0.0049746
0.00575936
0.0066099
0.00752287
0.00849952
0.00954231
0.0106538
0.0118365
0.0130941
0.0144308
0.0158512
0.0173603
0.0189635
0.0206668
0.0224775
0.0244054
0.0140893
0.00907122
0.0044978
0.00272675
0.00298761
0.00353436
0.00416162
0.00486075
0.00563211
0.00647642
0.00737594
0.00832901
0.00933598
0.0103979
0.0115161
0.0126928
0.0139302
0.0152314
0.0165999
0.0180395
0.0195548
0.0211501
0.0228307
0.0245987
0.016062
0.0106233
0.00550411
0.00314346
0.00333307
0.00395392
0.00465539
0.00542181
0.00625899
0.00715466
0.00809704
0.00908472
0.0101175
0.011195
0.0123178
0.0134873
0.014705
0.0159728
0.0172933
0.0186692
0.0201038
0.0216008
0.0231641
0.024801
0.0176904
0.0118889
0.00636075
0.00355885
0.00367566
0.00436189
0.00512892
0.00595618
0.00684959
0.00779018
0.00877039
0.00978835
0.010843
0.0119333
0.0130591
0.0142209
0.0154197
0.0166565
0.0179329
0.0192507
0.0206121
0.0220193
0.0234748
0.0249788
0.0190439
0.0129233
0.00707243
0.00395359
0.00400904
0.00475252
0.00557766
0.00646025
0.00740153
0.00838201
0.00939571
0.0104403
0.0115136
0.0126144
0.0137421
0.0148965
0.0160776
0.0172857
0.0185216
0.0197862
0.0210807
0.0224058
0.0237615
0.0251461
0.020192
0.0137866
0.00766151
0.00431459
0.00432796
0.00512192
0.00599906
0.00693232
0.00791512
0.00893047
0.00997324
0.0110409
0.0121313
0.013242
0.014371
0.0155186
0.0166841
0.0178654
0.019063
0.0202782
0.0215111
0.0227608
0.0240271
0.0253155
0.0212183
0.0146131
0.0082333
0.00467813
0.00463576
0.00547183
0.00638581
0.00735959
0.0083797
0.00942865
0.010501
0.0116062
0.0127257
0.0138426
0.0149682
0.0161165
0.0172683
0.018409
0.0195602
0.0207286
0.0219057
0.0230824
0.0242597
0.0254494
0.000468904
0.00158395
0.00327099
0.0052344
0.00718925
0.00911542
0.0110117
0.0128811
0.0147263
0.0165496
0.0183525
0.0201351
0.0219033
0.0236934
0.0255664
0.0275617
0.029664
0.0318589
0.0344097
0.0372689
0.040354
0.0436118
0.047004
0.0504895
0.000347612
0.000954206
0.00221686
0.00386697
0.0055152
0.00712781
0.00873867
0.0103716
0.0120387
0.0137386
0.0154681
0.0172231
0.0190021
0.0208115
0.0226713
0.0246102
0.0266477
0.0288059
0.031192
0.0338201
0.0366473
0.0398662
0.0433683
0.0470876
0.000195201
0.000603287
0.00142851
0.00257254
0.00405499
0.00589525
0.00773838
0.00949736
0.0111887
0.0128373
0.0144637
0.0160843
0.0177143
0.0193696
0.0210687
0.0228368
0.0247044
0.026708
0.0289021
0.0313293
0.0340005
0.0369735
0.0402131
0.0438963
0.000208079
0.00049933
0.00116809
0.00209322
0.00330168
0.00482843
0.00668406
0.00860172
0.010476
0.0122911
0.0140425
0.0157303
0.0173604
0.0189478
0.0205166
0.0221005
0.0237429
0.0254966
0.0274207
0.029576
0.0320094
0.0347549
0.0378056
0.041166
0.000179137
0.000433823
0.00100732
0.00180742
0.00284898
0.00416085
0.00577818
0.00770716
0.00971165
0.0116812
0.0135946
0.0154425
0.0172142
0.0189012
0.0205049
0.0220424
0.0235507
0.0250873
0.0267275
0.0285572
0.0306603
0.0330994
0.0359012
0.0390583
0.00017254
0.000395094
0.000908985
0.00162664
0.00255966
0.00373396
0.00518214
0.0069414
0.00896092
0.0110323
0.013077
0.0150726
0.0170041
0.0188526
0.0205998
0.0222354
0.0237663
0.0252257
0.0266792
0.0282226
0.0299708
0.0320339
0.0344917
0.0373757
0.000161162
0.000364515
0.000834322
0.00149016
0.00234452
0.00341883
0.00474204
0.00634901
0.00827097
0.010387
0.0125317
0.0146488
0.0167171
0.018718
0.020628
0.0224225
0.0240826
0.0256068
0.0270244
0.0284076
0.0298724
0.0315619
0.033615
0.0361282
0.000154211
0.000342494
0.000779575
0.00138791
0.00218231
0.00318042
0.00440903
0.00590035
0.00769131
0.00977534
0.0119789
0.0141922
0.0163758
0.0185086
0.0205676
0.0225247
0.0243496
0.0260173
0.0275212
0.0288903
0.0302067
0.031609
0.0332714
0.0353622
0.00014728
0.000324291
0.000734788
0.00130507
0.00205195
0.00298986
0.00414363
0.0055434
0.0072243
0.0092181
0.011436
0.0137201
0.016
0.0182458
0.0204348
0.0225396
0.0245273
0.0263624
0.0280157
0.0294786
0.0307853
0.0320347
0.0333948
0.0350808
0.000142188
0.000310424
0.000698405
0.00123748
0.00194539
0.00283407
0.00392661
0.00525149
0.00684199
0.00873494
0.0109203
0.0132455
0.0156023
0.0179445
0.0202465
0.0224821
0.0246188
0.0266184
0.0284407
0.0300537
0.0314512
0.0326802
0.0338674
0.03523
0.00013855
0.000301096
0.000668201
0.00118116
0.00185652
0.00270408
0.0037457
0.00500818
0.00652335
0.00832742
0.0104454
0.0127806
0.0151944
0.0176177
0.0200175
0.0223678
0.0246378
0.0267892
0.0287786
0.0305614
0.0321052
0.0334126
0.034555
0.0357105
0.000136395
0.000296134
0.000643538
0.00113468
0.00178201
0.00259484
0.0035934
0.00480322
0.00625455
0.0079824
0.0100218
0.0123375
0.0147873
0.0172768
0.0197608
0.0222114
0.0245993
0.0268879
0.0290332
0.0309858
0.0326985
0.034143
0.0353405
0.0364089
0.000135164
0.000293747
0.000623321
0.00109654
0.00171945
0.00250282
0.00346488
0.00462985
0.00602674
0.00768917
0.00965427
0.011927
0.0143916
0.0169324
0.0194884
0.0220266
0.0245183
0.0269294
0.0292168
0.0313301
0.033215
0.0348242
0.0361412
0.0372227
0.000134484
0.000292616
0.000606452
0.00106453
0.0016669
0.00242541
0.00335648
0.00448333
0.00583381
0.00744029
0.00933973
0.0115569
0.0140176
0.016595
0.0192116
0.0218263
0.0244097
0.0269293
0.0293447
0.031606
0.0336563
0.0354382
0.0369097
0.0380787
0.00013416
0.000292027
0.000592408
0.00103768
0.00162266
0.00236029
0.00326525
0.00435978
0.00567066
0.0072293
0.00907167
0.0112312
0.0136729
0.0162736
0.0189405
0.0216223
0.0242869
0.0269033
0.0294332
0.0318289
0.0340335
0.0359846
0.037625
0.038927
0.000134184
0.000291862
0.00058065
0.00101513
0.00158544
0.00230538
0.00318833
0.0042555
0.00553283
0.00705068
0.00884412
0.0109496
0.0133618
0.0159745
0.0186826
0.0214239
0.0241615
0.0268647
0.0294979
0.0320153
0.0343619
0.0364736
0.0382846
0.0397442
0.000134382
0.000291957
0.000570687
0.000995942
0.00155381
0.00225879
0.003123
0.00416701
0.00541584
0.006899
0.00865056
0.0107079
0.0130851
0.0157003
0.018442
0.0212365
0.024041
0.0268239
0.0295508
0.0321795
0.0346564
0.036918
0.0388932
0.0405087
0.000134714
0.000292114
0.000562209
0.000979484
0.00152655
0.00221875
0.00306697
0.00409116
0.00531557
0.00676889
0.00848446
0.0104996
0.0128398
0.0154504
0.0182188
0.0210615
0.0239283
0.0267853
0.0295993
0.0323303
0.0349276
0.037329
0.0394623
0.0412509
0.000135165
0.000292264
0.00055488
0.000965176
0.00150278
0.00218373
0.00301807
0.00402495
0.00522827
0.00665578
0.00834003
0.010318
0.0126216
0.0152211
0.0180103
0.0208963
0.0238216
0.0267482
0.0296439
0.0324702
0.0351787
0.0377091
0.0399884
0.0419303
0.000135641
0.000292443
0.000548576
0.000952704
0.00148188
0.00215274
0.00297466
0.00396631
0.00515084
0.00655557
0.00821213
0.010157
0.0124257
0.0150089
0.0178125
0.0207372
0.0237169
0.0267098
0.0296824
0.032598
0.0354102
0.0380603
0.0404759
0.0425686
0.000136187
0.000292621
0.000543057
0.000941766
0.00146353
0.00212502
0.00293572
0.00391364
0.00508129
0.00646541
0.00809709
0.0100121
0.0122477
0.0148103
0.017622
0.0205799
0.0236101
0.0266654
0.0297108
0.0327104
0.0356195
0.0383814
0.0409243
0.0431587
0.000136794
0.000292808
0.00053812
0.000931957
0.00144715
0.00209986
0.0029004
0.00386576
0.00501812
0.00638352
0.00799252
0.00988024
0.0120847
0.0146233
0.0174366
0.0204217
0.0234976
0.0266113
0.0297253
0.0328039
0.0358041
0.0386709
0.0413343
0.043707
0.000137395
0.000293047
0.000533693
0.000923045
0.00143222
0.00207696
0.00286817
0.00382211
0.00496036
0.00630861
0.00789676
0.00975932
0.0119344
0.0144473
0.0172561
0.0202622
0.0233784
0.0265459
0.0297239
0.0328765
0.0359617
0.0389263
0.0417015
0.0441987
0.000138027
0.000293331
0.000529736
0.000914983
0.00141867
0.00205614
0.00283885
0.00378236
0.00490774
0.00624023
0.00780918
0.00964851
0.0117962
0.0142825
0.0170819
0.0201027
0.0232537
0.0264703
0.029708
0.0329296
0.0360947
0.0391516
0.0420346
0.0446611
0.000138714
0.000293665
0.000526256
0.000907694
0.0014064
0.00203723
0.00281224
0.00374626
0.00485993
0.00617803
0.00772941
0.00954745
0.0116698
0.0141299
0.016916
0.019946
0.0231267
0.0263877
0.0296806
0.0329671
0.0362071
0.0393511
0.0423356
0.0450793
0.000139457
0.000294065
0.000523284
0.000901152
0.00139532
0.00202016
0.0027882
0.00371365
0.00481674
0.00612178
0.00765722
0.00945588
0.011555
0.0139901
0.0167606
0.0197953
0.0230007
0.0263018
0.0296461
0.0329934
0.0363039
0.0395298
0.0426099
0.0454652
0.000140262
0.000294544
0.000520815
0.000895268
0.00138532
0.00200472
0.00276652
0.00368428
0.00477785
0.00607118
0.00759226
0.00937343
0.0114515
0.0138633
0.016617
0.019653
0.0228792
0.0262167
0.029609
0.0330136
0.0363909
0.0396945
0.0428659
0.0458305
0.00014114
0.000295113
0.000518889
0.000890022
0.00137634
0.00199083
0.00274703
0.0036579
0.00474296
0.00602581
0.00753403
0.00929951
0.0113587
0.0137491
0.0164861
0.0195211
0.0227649
0.0261358
0.0295733
0.0330325
0.0364736
0.0398516
0.0431101
0.0461761
0.000142091
0.000295778
0.000517525
0.000885382
0.00136829
0.00197835
0.0027295
0.00363421
0.00471167
0.00598518
0.00748191
0.00923337
0.0112756
0.0136467
0.0163675
0.0194001
0.0226592
0.0260611
0.0295418
0.0330538
0.0365567
0.0400072
0.0433525
0.0465283
0.000143116
0.000296528
0.000516688
0.000881278
0.00136108
0.00196715
0.00271379
0.00361299
0.00468362
0.00594875
0.00743524
0.00917418
0.0112013
0.0135549
0.0162603
0.0192894
0.0225621
0.0259933
0.0295156
0.0330787
0.0366415
0.0401616
0.0435886
0.0468627
0.000144197
0.000297361
0.000516313
0.000877658
0.00135461
0.00195708
0.00269967
0.00359391
0.00465844
0.00591604
0.00739332
0.00912103
0.0111345
0.0134724
0.0161632
0.0191881
0.0224729
0.0259317
0.029494
0.0331067
0.0367271
0.0403125
0.0438113
0.047153
0.000145332
0.000298258
0.00051634
0.000874478
0.00134884
0.00194805
0.00268697
0.00357675
0.00463577
0.00588657
0.00735553
0.00907313
0.0110744
0.0133979
0.016075
0.0190951
0.0223905
0.0258756
0.0294768
0.0331382
0.0368155
0.0404662
0.0440415
0.0474822
0.000146509
0.000299207
0.000516706
0.000871722
0.00134372
0.00193995
0.00267557
0.0035613
0.00461532
0.00585994
0.00732134
0.00902973
0.0110198
0.0133301
0.0159943
0.0190091
0.0223138
0.0258235
0.0294624
0.0331715
0.0369048
0.0406196
0.0442681
0.0477911
0.000147718
0.000300187
0.000517341
0.000869339
0.00133917
0.0019327
0.00266534
0.0035474
0.00459687
0.00583588
0.00729036
0.00899031
0.0109701
0.0132683
0.0159201
0.018929
0.0222415
0.0257742
0.0294493
0.0332051
0.0369934
0.0407711
0.0444912
0.0480955
0.000148952
0.000301198
0.000518175
0.000867276
0.00133513
0.00192623
0.00265616
0.0035349
0.00458024
0.00581412
0.00726227
0.00895442
0.0109247
0.0132116
0.0158517
0.0188541
0.0221727
0.0257267
0.0294363
0.0332372
0.0370789
0.0409176
0.0447071
0.0483917
0.000150204
0.000302232
0.00051918
0.000865536
0.0013316
0.00192047
0.00264795
0.00352367
0.00456526
0.00579447
0.00723679
0.00892175
0.0108833
0.0131597
0.0157885
0.0187841
0.0221073
0.0256805
0.0294228
0.0332669
0.0371602
0.0410575
0.0449127
0.0486724
0.000151463
0.000303277
0.0005203
0.000864072
0.00132852
0.00191541
0.0026407
0.0035137
0.00455187
0.0057768
0.00721378
0.00889216
0.0108456
0.0131122
0.0157304
0.0187187
0.0220452
0.0256358
0.0294088
0.0332945
0.0372374
0.0411909
0.0451078
0.0489309
0.000152736
0.000304331
0.000521532
0.000862897
0.0013259
0.00191099
0.00263431
0.00350487
0.00453995
0.00576099
0.00719314
0.00886549
0.0108115
0.0130691
0.0156772
0.0186582
0.0219868
0.0255931
0.0293952
0.033321
0.0373125
0.0413213
0.0452999
0.0491922
0.000154012
0.000305388
0.000522824
0.000861966
0.0013237
0.00190722
0.00262872
0.00349708
0.00452938
0.00574694
0.0071747
0.00884156
0.0107808
0.01303
0.0156287
0.0186024
0.0219322
0.0255527
0.0293824
0.033347
0.0373862
0.0414501
0.0454912
0.0494566
0.000155287
0.000306439
0.000524154
0.000861244
0.0013219
0.00190412
0.00262387
0.00349026
0.0045201
0.00573453
0.00715834
0.00882023
0.0107532
0.0129948
0.0155848
0.0185513
0.0218817
0.025515
0.0293708
0.0333728
0.0374584
0.0415759
0.0456772
0.0497095
0.000156556
0.000307478
0.000525496
0.000860671
0.00132037
0.00190145
0.00261966
0.00348431
0.00451197
0.00572361
0.0071439
0.00880135
0.0107287
0.0129634
0.0155454
0.018505
0.0218353
0.0254804
0.0293607
0.0333988
0.0375294
0.041699
0.0458583
0.0499543
0.000157824
0.000308503
0.000526857
0.000860256
0.0013191
0.00189918
0.00261604
0.00347917
0.0045049
0.00571409
0.00713125
0.00878472
0.0107071
0.0129355
0.0155101
0.0184633
0.0217933
0.0254491
0.0293528
0.0334257
0.0376003
0.0418208
0.0460367
0.050194
0.000159086
0.000309508
0.000528203
0.000859959
0.00131805
0.00189726
0.00261293
0.00347472
0.00449878
0.00570581
0.0071202
0.00877013
0.010688
0.0129108
0.0154789
0.0184262
0.0217556
0.0254214
0.0293475
0.0334544
0.0376723
0.0419435
0.0462167
0.0504392
0.000160345
0.000310494
0.000529543
0.000859777
0.00131721
0.00189565
0.00261028
0.00347091
0.00449349
0.00569862
0.00711056
0.00875736
0.0106713
0.0128891
0.0154512
0.0183931
0.021722
0.0253972
0.029345
0.033485
0.0377455
0.0420668
0.0463962
0.0506802
0.000161591
0.000311459
0.00053086
0.000859693
0.00131655
0.00189432
0.00260804
0.00346764
0.00448894
0.0056924
0.00710216
0.00874619
0.0106566
0.01287
0.0154268
0.0183638
0.0216923
0.0253765
0.0293452
0.0335176
0.0378202
0.042191
0.0465757
0.0509198
0.000162824
0.000312393
0.000532148
0.000859707
0.00131606
0.00189327
0.00260618
0.00346489
0.00448505
0.00568701
0.00709486
0.0087364
0.0106436
0.0128531
0.0154051
0.0183378
0.0216658
0.0253588
0.0293479
0.0335523
0.0378966
0.0423168
0.0467571
0.0511618
0.000164048
0.000313301
0.000533402
0.000859797
0.00131572
0.00189244
0.00260465
0.00346259
0.00448173
0.00568237
0.00708848
0.0087278
0.0106322
0.012838
0.0153858
0.0183143
0.021642
0.0253433
0.0293524
0.0335885
0.0379745
0.0424447
0.0469425
0.0514149
0.00016526
0.000314184
0.000534635
0.000859972
0.00131553
0.00189184
0.00260345
0.0034607
0.00447894
0.0056784
0.00708295
0.00872023
0.010622
0.0128245
0.0153683
0.018293
0.0216202
0.0253293
0.0293577
0.0336248
0.0380522
0.042572
0.0471265
0.0516618
0.000166454
0.00031504
0.000535841
0.000860223
0.00131548
0.00189144
0.00260254
0.00345919
0.00447665
0.00567503
0.00707817
0.00871359
0.0106129
0.0128124
0.0153524
0.0182735
0.0216
0.0253162
0.0293629
0.0336602
0.038128
0.0426966
0.047306
0.0519008
0.000167646
0.000315874
0.000537051
0.00086055
0.00131556
0.00189124
0.0026019
0.00345805
0.00447481
0.00567223
0.00707406
0.00870776
0.0106049
0.0128014
0.0153379
0.0182554
0.021581
0.0253036
0.0293677
0.033694
0.0382014
0.0428176
0.0474807
0.0521328
0.000168807
0.000316685
0.000538237
0.000860945
0.00131577
0.00189121
0.00260149
0.00345721
0.00447337
0.00566992
0.00707056
0.00870267
0.0105977
0.0127916
0.0153247
0.0182388
0.0215632
0.0252914
0.029372
0.0337266
0.0382729
0.0429367
0.0476541
0.0523664
0.000169933
0.000317454
0.000539329
0.000861368
0.00131605
0.00189134
0.00260131
0.00345666
0.00447226
0.00566805
0.00706761
0.00869826
0.0105913
0.0127826
0.0153126
0.0182233
0.0215463
0.0252795
0.0293756
0.0337575
0.0383421
0.0430534
0.0478263
0.0526049
0.000171037
0.000318206
0.0005404
0.00086183
0.00131642
0.0018916
0.00260134
0.00345638
0.0044715
0.00566659
0.00706518
0.0086945
0.0105857
0.0127746
0.0153015
0.0182089
0.0215304
0.0252677
0.0293779
0.0337859
0.0384075
0.0431647
0.0479893
0.0528183
0.000172121
0.000318915
0.000541395
0.000862316
0.00131684
0.00189199
0.00260152
0.00345633
0.00447106
0.00566552
0.00706322
0.00869127
0.0105808
0.0127675
0.0152915
0.0181956
0.0215151
0.0252561
0.0293794
0.0338119
0.0384693
0.0432718
0.0481499
0.0530414
0.000173223
0.000319598
0.000542415
0.000862856
0.00131737
0.00189246
0.00260189
0.00345647
0.00447094
0.00566487
0.00706177
0.00868866
0.0105766
0.0127611
0.0152824
0.0181834
0.021501
0.0252448
0.0293803
0.0338362
0.0385277
0.0433742
0.0483045
0.0532592
0.00017428
0.000320285
0.000543445
0.000863445
0.00131797
0.00189305
0.00260237
0.00345685
0.00447098
0.00566448
0.00706067
0.00868653
0.010573
0.0127555
0.0152742
0.0181722
0.0214879
0.0252343
0.0293808
0.0338589
0.0385834
0.043471
0.048448
0.0534427
0.000175304
0.000320919
0.00054436
0.000864018
0.00131856
0.00189373
0.002603
0.00345737
0.00447127
0.00566431
0.00705985
0.00868478
0.0105699
0.0127506
0.0152669
0.0181621
0.0214757
0.0252243
0.0293813
0.0338807
0.0386377
0.0435681
0.0485991
0.053677
0.000176331
0.000321534
0.000545306
0.000864606
0.00131922
0.0018944
0.00260369
0.00345796
0.00447175
0.00566448
0.00705943
0.00868347
0.0105674
0.0127463
0.0152602
0.0181526
0.0214642
0.0252143
0.0293812
0.0339008
0.0386886
0.0436579
0.0487295
0.0538276
0.000177279
0.00032212
0.000546153
0.000865204
0.0013199
0.00189513
0.00260439
0.00345865
0.00447226
0.00566474
0.00705917
0.00868239
0.0105652
0.0127425
0.0152542
0.018144
0.0214534
0.0252049
0.0293805
0.0339198
0.0387379
0.0437475
0.0488691
0.0540354
0.000178226
0.000322665
0.000546957
0.000865798
0.00132057
0.00189593
0.00260522
0.00345946
0.00447293
0.00566508
0.00705905
0.00868155
0.0105632
0.0127391
0.0152488
0.0181361
0.0214433
0.0251959
0.0293797
0.0339374
0.0387851
0.0438336
0.0490006
0.0542138
0.000179178
0.000323197
0.00054779
0.000866382
0.00132125
0.00189669
0.00260602
0.00346025
0.00447364
0.00566561
0.00705917
0.00868098
0.0105616
0.012736
0.0152437
0.0181286
0.0214339
0.025187
0.0293785
0.033954
0.0388304
0.0439175
0.0491301
0.0543892
0.00018005
0.0003237
0.000548525
0.000866952
0.00132193
0.00189752
0.00260694
0.00346119
0.00447446
0.0056662
0.00705935
0.00868051
0.0105602
0.0127332
0.0152391
0.0181217
0.0214247
0.0251785
0.029377
0.0339695
0.0388742
0.0440003
0.0492633
0.0545894
0.000180914
0.00032418
0.00054921
0.000867516
0.0013226
0.00189833
0.00260785
0.00346211
0.0044753
0.00566677
0.00705953
0.00868009
0.0105589
0.0127306
0.0152347
0.0181151
0.021416
0.0251698
0.0293749
0.0339835
0.0389153
0.0440787
0.0493884
0.0547741
0.000181759
0.000324636
0.000549883
0.000868072
0.00132333
0.00189917
0.00260874
0.00346303
0.00447615
0.00566745
0.00705988
0.00867987
0.0105577
0.0127281
0.0152304
0.0181085
0.0214074
0.0251612
0.0293718
0.0339956
0.0389529
0.0441508
0.0494994
0.0549147
0.000182553
0.000325051
0.00055042
0.000868611
0.001324
0.00190004
0.00260972
0.00346404
0.00447709
0.00566815
0.00706021
0.00867967
0.0105566
0.0127258
0.0152264
0.0181023
0.0213989
0.0251525
0.0293683
0.0340064
0.0389889
0.0442224
0.0496152
0.055086
0.000183374
0.000325448
0.000551018
0.000869192
0.00132476
0.00190091
0.00261071
0.00346506
0.0044781
0.005669
0.00706067
0.00867948
0.0105556
0.0127236
0.0152226
0.0180963
0.0213907
0.0251435
0.029364
0.0340157
0.0390227
0.0442912
0.0497282
0.055251
0.000184148
0.000325853
0.000551619
0.000869814
0.00132555
0.00190184
0.00261169
0.00346609
0.00447908
0.00566988
0.00706121
0.00867946
0.0105548
0.0127216
0.0152189
0.0180905
0.0213827
0.0251347
0.029359
0.0340233
0.0390536
0.0443557
0.0498348
0.0554042
0.000184895
0.000326207
0.00055211
0.00087042
0.00132633
0.00190286
0.00261283
0.00346729
0.0044802
0.00567077
0.00706179
0.00867952
0.0105541
0.0127198
0.0152155
0.0180852
0.0213751
0.0251262
0.0293539
0.0340299
0.0390826
0.0444176
0.0499381
0.0555554
0.00018565
0.000326549
0.000552645
0.000871065
0.00132721
0.0019039
0.00261405
0.00346853
0.00448146
0.00567189
0.00706261
0.00867984
0.0105536
0.0127181
0.0152124
0.01808
0.021368
0.0251178
0.0293489
0.0340362
0.0391106
0.0444785
0.0500413
0.055709
0.00018633
0.000326866
0.000553086
0.00087174
0.00132815
0.00190508
0.00261538
0.00346999
0.00448284
0.00567316
0.00706358
0.00868029
0.0105533
0.0127168
0.0152096
0.0180753
0.0213611
0.02511
0.0293437
0.0340418
0.0391376
0.0445375
0.0501428
0.0558612
0.000187013
0.000327166
0.000553523
0.000872501
0.00132919
0.00190645
0.00261697
0.00347169
0.00448453
0.00567465
0.00706476
0.00868099
0.0105532
0.0127157
0.015207
0.0180709
0.0213546
0.0251024
0.0293387
0.0340468
0.0391631
0.0445944
0.0502401
0.0560067
0.000187707
0.000327451
0.000554011
0.000873327
0.00133038
0.00190793
0.00261876
0.00347362
0.00448659
0.00567661
0.00706644
0.00868218
0.0105536
0.0127149
0.0152047
0.0180666
0.0213484
0.0250948
0.0293336
0.0340512
0.0391875
0.0446495
0.0503352
0.0561483
0.000188328
0.000327716
0.000554417
0.000874217
0.00133168
0.00190962
0.00262079
0.00347592
0.00448896
0.00567902
0.00706864
0.00868389
0.0105546
0.0127148
0.015203
0.018063
0.0213424
0.0250874
0.0293278
0.0340549
0.0392107
0.0447036
0.0504306
0.0562935
0.000188947
0.00032797
0.00055479
0.000875178
0.00133311
0.00191151
0.00262313
0.00347857
0.00449184
0.00568193
0.00707141
0.00868627
0.0105563
0.0127154
0.0152021
0.01806
0.0213368
0.0250799
0.0293215
0.0340568
0.0392318
0.0447556
0.0505245
0.0564414
0.000189552
0.000328186
0.000555167
0.000876199
0.0013347
0.00191364
0.00262573
0.00348161
0.00449521
0.00568554
0.00707506
0.00868968
0.0105591
0.0127171
0.0152022
0.0180579
0.0213322
0.0250727
0.0293144
0.0340564
0.0392485
0.0448012
0.0506099
0.0565714
0.000190109
0.000328376
0.000555444
0.00087727
0.00133635
0.00191595
0.00262868
0.00348509
0.00449911
0.00568974
0.00707946
0.00869409
0.0105632
0.0127203
0.0152041
0.0180577
0.0213291
0.0250669
0.0293078
0.0340548
0.0392616
0.0448406
0.050687
0.0566953
0.000190703
0.000328545
0.00055579
0.000878416
0.00133815
0.00191841
0.00263186
0.00348892
0.00450356
0.00569471
0.00708477
0.00869951
0.0105684
0.0127252
0.0152078
0.0180597
0.0213286
0.0250637
0.0293037
0.0340547
0.0392741
0.0448768
0.0507586
0.0568196
0.000191244
0.000328684
0.000556058
0.000879582
0.00134005
0.00192104