/*--------------------------------*- C++ -*----------------------------------*\
| =========                 |                                                 |
| \\      /  F ield         | OpenFOAM: The Open Source CFD Toolbox           |
|  \\    /   O peration     | Version:  2.3.0                                 |
|   \\  /    A nd           | Web:      www.OpenFOAM.org                      |
|    \\/     M anipulation  |                                                 |
\*---------------------------------------------------------------------------*/
FoamFile
{
    version     2.0;
    format      ascii;
    class       volScalarField;
    location    "10000";
    object      nut;
}
// * * * * * * * * * * * * * * * * * * * * * * * * * * * * * * * * * * * * * //

dimensions      [0 2 -1 0 0 0 0];

internalField   nonuniform List<scalar> 
123316
(
0.0267883
0.0256294
0.0245011
0.0234039
0.0223392
0.0213092
0.0203158
0.0193633
0.0184512
0.0175715
0.0167174
0.0158883
0.0150861
0.0143139
0.0135733
0.0128641
0.0121843
0.0115308
0.010901
0.0102944
0.00971107
0.00915121
0.00861404
0.00809925
0.00760555
0.00713152
0.00667586
0.00623557
0.00580923
0.00539465
0.00499039
0.0045949
0.00420761
0.00382903
0.00346141
0.00310736
0.00277324
0.00246731
0.00219918
0.00197106
0.0017879
0.00165556
0.00161664
0.0279457
0.0269076
0.0258931
0.0249025
0.0239363
0.0229945
0.0220779
0.0211865
0.0203203
0.0194779
0.0186582
0.0178612
0.0170874
0.0163385
0.0156166
0.0149244
0.0142629
0.0136295
0.0130163
0.0124199
0.0118405
0.0112789
0.0107368
0.0102145
0.00971411
0.00923526
0.00877815
0.00834304
0.00792949
0.00753793
0.00716838
0.00682059
0.00649437
0.00619029
0.00590818
0.00564806
0.00541138
0.00520077
0.00501778
0.00486658
0.0047643
0.00473739
0.00484488
0.0290204
0.0280881
0.027175
0.0262806
0.0254048
0.0245482
0.0237102
0.0228907
0.0220902
0.0213081
0.0205437
0.0197972
0.0190691
0.0183588
0.0176664
0.0169933
0.0163395
0.015705
0.0150882
0.014489
0.0139069
0.0133421
0.0127951
0.0122665
0.0117578
0.0112691
0.010801
0.0103542
0.00993055
0.00953036
0.00915589
0.00880764
0.00848769
0.00819886
0.00794304
0.00772282
0.00754157
0.00740401
0.00731413
0.00727541
0.00729391
0.00737139
0.00750858
0.0300127
0.029173
0.0283489
0.0275395
0.0267446
0.0259645
0.0251986
0.0244467
0.0237092
0.0229865
0.0222776
0.0215825
0.020902
0.0202355
0.0195828
0.0189442
0.0183207
0.0177116
0.017117
0.0165377
0.015974
0.015426
0.0148941
0.0143792
0.0138828
0.0134047
0.0129465
0.0125088
0.0120933
0.0117017
0.0113352
0.0109953
0.0106852
0.0104068
0.0101629
0.0099568
0.00979102
0.00966929
0.00959477
0.00956996
0.00959812
0.00967954
0.00981371
0.0309237
0.0301652
0.0294193
0.0286853
0.027962
0.0272494
0.0265473
0.0258559
0.0251749
0.024505
0.0238455
0.0231972
0.0225601
0.0219342
0.0213189
0.0207147
0.0201224
0.0195409
0.0189711
0.0184138
0.0178694
0.0173386
0.016822
0.0163211
0.0158365
0.0153691
0.0149204
0.0144917
0.0140834
0.0136977
0.0133364
0.0130012
0.0126956
0.0124216
0.012182
0.0119799
0.0118179
0.0116993
0.0116271
0.011603
0.0116295
0.0117069
0.0118359
0.0317568
0.03107
0.0303938
0.0297256
0.0290652
0.028412
0.0277659
0.0271273
0.0264963
0.0258731
0.0252573
0.0246496
0.0240504
0.0234598
0.0228777
0.0223043
0.0217402
0.0211843
0.0206374
0.0201007
0.0195747
0.0190594
0.0185558
0.0180664
0.0175917
0.0171331
0.0166919
0.0162692
0.0158663
0.0154849
0.0151274
0.0147951
0.0144911
0.014218
0.013979
0.0137765
0.0136139
0.0134944
0.0134204
0.0133945
0.0134182
0.0134914
0.0136151
0.0325135
0.031894
0.0312792
0.0306687
0.0300633
0.0294625
0.0288658
0.0282734
0.0276856
0.0271036
0.0265259
0.0259535
0.0253869
0.0248269
0.024274
0.0237275
0.0231874
0.0226544
0.0221287
0.0216104
0.0211009
0.0205997
0.0201078
0.0196273
0.0191602
0.0187086
0.018273
0.0178547
0.0174565
0.0170788
0.0167239
0.0163933
0.0160886
0.0158147
0.0155739
0.0153698
0.0152055
0.0150832
0.0150056
0.0149768
0.0149972
0.0150672
0.0151873
0.033208
0.032645
0.0320834
0.0315231
0.0309649
0.0304124
0.0298577
0.0293074
0.0287549
0.0282097
0.0276653
0.0271229
0.0265854
0.0260506
0.0255227
0.0250005
0.0244817
0.0239679
0.0234618
0.0229584
0.0224648
0.0219774
0.0214964
0.0210233
0.020562
0.020115
0.0196829
0.0192681
0.0188729
0.0184977
0.0181444
0.0178174
0.0175102
0.0172361
0.0169915
0.0167864
0.0166193
0.0164937
0.0164114
0.0163785
0.0163957
0.016463
0.016578
0.0338476
0.0333296
0.0328117
0.0322964
0.0317757
0.0312747
0.030748
0.0302447
0.0297108
0.0291992
0.0286863
0.0281687
0.0276606
0.0271439
0.0266347
0.0261336
0.0256371
0.0251335
0.0246543
0.0241574
0.0236794
0.0232048
0.0227377
0.0222715
0.0218134
0.0213695
0.0209394
0.0205242
0.0201306
0.0197596
0.0194012
0.0190933
0.0187729
0.0185072
0.0182524
0.0180489
0.017876
0.0177519
0.0176602
0.017624
0.0176374
0.0177061
0.0178055
0.00192101
0.0025227
0.00297538
0.00345024
0.00395991
0.00450044
0.00506587
0.00565186
0.00625592
0.00687436
0.00750635
0.00815136
0.00880808
0.00947645
0.0101568
0.0108481
0.0115514
0.0122663
0.0129921
0.0137305
0.0144808
0.0152427
0.0160175
0.0168041
0.0176038
0.0184165
0.0192418
0.0200808
0.0209333
0.0217996
0.0226799
0.0235745
0.0244834
0.0254069
0.0263453
0.0272983
0.0282663
0.0292495
0.0302477
0.0312609
0.0322887
0.0333308
0.0343879
0.00505835
0.0053491
0.00569577
0.00609351
0.0065392
0.00702498
0.00754507
0.0080952
0.00867009
0.00926578
0.00987976
0.0105087
0.0111516
0.0118067
0.0124732
0.0131502
0.0138363
0.014532
0.0152371
0.0159507
0.0166737
0.017406
0.0181472
0.0188976
0.0196572
0.0204262
0.0212047
0.0219934
0.0227921
0.0236011
0.0244206
0.0252506
0.0260914
0.0269433
0.0278064
0.0286811
0.0295674
0.0304656
0.0313755
0.0322975
0.0332314
0.034177
0.035134
0.00770361
0.00795431
0.0082609
0.00861999
0.00902549
0.00947243
0.00995587
0.0104723
0.0110157
0.0115823
0.012169
0.0127728
0.0133911
0.0140224
0.0146653
0.0153172
0.0159795
0.0166495
0.0173269
0.0180125
0.0187051
0.0194051
0.0201115
0.0208248
0.0215449
0.0222721
0.0230063
0.0237478
0.0244965
0.0252525
0.0260158
0.026787
0.0275661
0.0283533
0.029149
0.0299534
0.0307665
0.0315887
0.03242
0.0332604
0.0341104
0.0349699
0.035838
0.00999864
0.0102352
0.0105241
0.010862
0.0112442
0.0116677
0.0121279
0.01262
0.0131396
0.0136841
0.0142489
0.014831
0.0154285
0.0160383
0.016659
0.0172895
0.0179285
0.0185744
0.0192277
0.0198863
0.020551
0.021221
0.021896
0.0225758
0.0232606
0.0239499
0.024644
0.0253429
0.0260465
0.0267553
0.027469
0.028188
0.0289121
0.0296418
0.0303774
0.0311194
0.0318676
0.0326224
0.0333839
0.0341519
0.0349269
0.0357095
0.0364988
0.0120143
0.0122422
0.0125194
0.0128435
0.0132115
0.0136193
0.0140631
0.0145384
0.0150414
0.0155686
0.016116
0.0166813
0.0172608
0.0178529
0.0184552
0.0190664
0.0196851
0.0203105
0.0209413
0.0215767
0.0222165
0.0228602
0.0235069
0.0241569
0.0248101
0.0254661
0.0261248
0.0267863
0.0274507
0.0281179
0.0287878
0.0294605
0.0301361
0.030815
0.0314979
0.0321848
0.0328757
0.0335709
0.0342704
0.034974
0.0356822
0.0363952
0.037112
0.0137887
0.014011
0.0142809
0.0145958
0.0149535
0.0153503
0.0157816
0.0162448
0.0167355
0.0172495
0.0177839
0.0183351
0.0189001
0.019477
0.0200635
0.0206586
0.0212605
0.0218678
0.0224798
0.0230947
0.0237126
0.0243326
0.0249549
0.0255792
0.0262052
0.0268322
0.0274604
0.0280897
0.0287194
0.0293499
0.029981
0.030613
0.0312461
0.0318807
0.0325171
0.0331556
0.0337963
0.0344391
0.0350838
0.0357301
0.0363785
0.0370292
0.0376811
0.015357
0.015575
0.0158403
0.0161486
0.0164989
0.0168871
0.0173087
0.0177622
0.0182433
0.0187478
0.0192722
0.0198123
0.0203645
0.0209283
0.0215018
0.0220831
0.022671
0.0232631
0.0238583
0.0244551
0.0250535
0.0256537
0.026255
0.026857
0.0274593
0.0280615
0.0286636
0.0292643
0.0298638
0.0304619
0.0310588
0.031655
0.0322511
0.0328469
0.0334424
0.0340384
0.0346356
0.0352325
0.0358289
0.0364244
0.0370196
0.0376154
0.0382119
0.0167472
0.0169631
0.0172255
0.0175285
0.0178725
0.0182539
0.0186665
0.0191115
0.0195855
0.0200837
0.0206011
0.0211319
0.0216724
0.0222249
0.0227869
0.0233571
0.0239333
0.0245132
0.0250933
0.0256732
0.0262548
0.0268381
0.0274218
0.0280041
0.0285858
0.0291669
0.0297471
0.0303233
0.030895
0.0314643
0.0320311
0.0325964
0.03316
0.0337212
0.0342807
0.03484
0.0353999
0.0359571
0.0365104
0.0370602
0.0376077
0.0381555
0.0387028
0.01798
0.018194
0.0184589
0.0187547
0.0190936
0.0194716
0.0198699
0.0203101
0.0207809
0.0212753
0.0217873
0.0223074
0.022834
0.0233794
0.0239311
0.0244943
0.0250602
0.0256305
0.0261942
0.0267576
0.0273256
0.0278963
0.028465
0.029029
0.0295949
0.0301578
0.0307217
0.0312727
0.0318182
0.0323634
0.0329038
0.033443
0.0339779
0.0345078
0.0350367
0.0355651
0.0360954
0.0366165
0.0371309
0.0376386
0.038143
0.0386494
0.0391533
0.0314086
0.0299595
0.0285701
0.0272393
0.0259651
0.024745
0.0235764
0.0224569
0.0213829
0.0203512
0.019359
0.0184034
0.017482
0.0165926
0.0157331
0.0149017
0.0140967
0.0133167
0.0125604
0.0118266
0.0111145
0.0104233
0.00975233
0.00910113
0.00846921
0.0078562
0.00726182
0.00668594
0.00612846
0.00558951
0.00506922
0.00456796
0.00408605
0.00362425
0.00318348
0.00276537
0.00237113
0.00200198
0.00166189
0.00136748
0.00112214
0.000855412
0.000516069
0.0315907
0.0302745
0.029011
0.0277979
0.0266332
0.0255147
0.0244405
0.0234075
0.0224129
0.021454
0.0205284
0.0196336
0.0187676
0.0179283
0.0171141
0.0163231
0.0155538
0.0148048
0.014075
0.0133631
0.0126682
0.0119895
0.0113263
0.0106782
0.0100448
0.00942595
0.00882169
0.00823193
0.00765693
0.00709719
0.00655336
0.00602652
0.00551774
0.00502778
0.00455832
0.00411507
0.00371233
0.00333919
0.00295989
0.00255903
0.00212602
0.00163725
0.00104473
0.0317782
0.0305837
0.0294343
0.0283279
0.0272628
0.0262372
0.0252489
0.0242952
0.0233739
0.0224826
0.0216194
0.0207823
0.0199696
0.0191795
0.0184105
0.0176613
0.0169301
0.016216
0.0155175
0.0148338
0.0141639
0.0135069
0.0128624
0.0122298
0.0116091
0.0110001
0.0104028
0.0098177
0.00924528
0.00868606
0.00814105
0.00761295
0.00710718
0.00662601
0.00615888
0.00569213
0.00521731
0.00472747
0.00421172
0.00365586
0.00304242
0.00234545
0.00153
0.031968
0.0308847
0.0298391
0.0288293
0.0278544
0.0269127
0.0260019
0.0251202
0.0242653
0.0234359
0.02263
0.0218463
0.0210833
0.0203396
0.0196139
0.0189051
0.0182119
0.0175332
0.0168679
0.016215
0.0155737
0.0149432
0.014323
0.0137127
0.0131124
0.0125219
0.0119416
0.0113726
0.0108162
0.0102735
0.00974232
0.00921826
0.0086964
0.00817249
0.00764135
0.00709611
0.00652878
0.00593066
0.00529091
0.00459551
0.00382604
0.00295591
0.0019587
0.0321604
0.0311773
0.0302244
0.0293016
0.0284078
0.027541
0.0267
0.025883
0.0250883
0.0243146
0.023561
0.0228259
0.0221085
0.0214075
0.020722
0.0200512
0.019394
0.0187498
0.0181174
0.0174962
0.0168851
0.0162834
0.0156905
0.0151062
0.0145308
0.0139642
0.0134059
0.0128538
0.0123054
0.0117582
0.0112095
0.0106559
0.0100933
0.00951738
0.00892289
0.00830366
0.00765201
0.00695848
0.00621138
0.00539627
0.00449394
0.00347894
0.00233055
0.0323526
0.031459
0.0305898
0.0297446
0.0289226
0.0281228
0.0273444
0.0265858
0.0258452
0.0251219
0.0244151
0.023724
0.0230479
0.0223855
0.0217367
0.0211006
0.0204766
0.0198646
0.0192638
0.0186736
0.0180928
0.0175207
0.0169558
0.0163972
0.015843
0.0152914
0.0147405
0.0141876
0.0136305
0.0130666
0.012493
0.0119065
0.0113035
0.0106795
0.0100289
0.00934498
0.00861964
0.0078429
0.00700257
0.00608375
0.00506718
0.00392823
0.00265116
0.0325433
0.0317297
0.0309347
0.030158
0.0293996
0.0286595
0.0279371
0.027231
0.0265393
0.0258614
0.0251965
0.0245446
0.0239054
0.023278
0.0226624
0.0220575
0.0214633
0.0208802
0.0203086
0.0197478
0.0191958
0.0186504
0.0181078
0.017565
0.0170206
0.0164734
0.015921
0.0153611
0.0147912
0.0142086
0.0136105
0.0129937
0.0123545
0.0116885
0.0109894
0.0102497
0.0094603
0.00861078
0.00768885
0.00667928
0.0055628
0.0043157
0.00292725
0.0327302
0.0319882
0.0312588
0.0305425
0.0298398
0.0291526
0.0284803
0.0278217
0.0271744
0.0265375
0.0259102
0.0252917
0.0246858
0.0240903
0.0235048
0.0229279
0.02236
0.021802
0.0212558
0.0207215
0.0201936
0.0196675
0.0191383
0.0186027
0.0180607
0.0175144
0.0169585
0.0163898
0.0158067
0.0152068
0.0145865
0.0139423
0.0132711
0.0125686
0.0118291
0.0110422
0.010197
0.00928327
0.00828939
0.00719994
0.00599535
0.00465224
0.00316583
0.0329142
0.0322343
0.0315628
0.0308993
0.0302448
0.0296027
0.0289745
0.0283598
0.0277539
0.027153
0.0265624
0.0259697
0.0253944
0.0248265
0.0242697
0.023718
0.0231747
0.0226361
0.0221091
0.0215963
0.0210917
0.0205767
0.0200562
0.0195217
0.0189706
0.0184279
0.017871
0.0172926
0.0166961
0.0160829
0.0154427
0.0147741
0.0140736
0.0133374
0.0125661
0.0117435
0.0108484
0.00987551
0.0088178
0.00765924
0.00637842
0.00494811
0.00336336
0.000173142
0.000193605
0.000274145
0.000365752
0.000475207
0.000608598
0.000764786
0.000936992
0.00112419
0.00132615
0.00154276
0.00177418
0.0020205
0.00228203
0.00255897
0.00285164
0.00316031
0.00348533
0.0038271
0.00418586
0.00456204
0.004956
0.00536803
0.00579851
0.00624776
0.00671602
0.00720362
0.0077107
0.0082374
0.00878382
0.00934992
0.00993555
0.0105404
0.011164
0.0118057
0.0124646
0.0131396
0.0138291
0.0145313
0.0152436
0.0159632
0.016686
0.0174074
0.000434364
0.000282506
0.000375498
0.000501409
0.000649473
0.000818625
0.0010101
0.00121711
0.0014389
0.0016751
0.00192552
0.00219004
0.00246864
0.00276123
0.00306796
0.00338887
0.00372408
0.00407373
0.00443794
0.00481684
0.00521065
0.00561954
0.00604371
0.00648327
0.00693833
0.00740909
0.00789558
0.00839786
0.00891589
0.00944956
0.00999877
0.0105632
0.0111424
0.0117359
0.012343
0.0129627
0.013594
0.0142354
0.0148851
0.0155408
0.0162
0.0168592
0.0175141
0.000701839
0.000389678
0.000495499
0.000658164
0.000842641
0.00104666
0.00127198
0.00151247
0.00176736
0.00203615
0.00231848
0.00261402
0.00292259
0.003244
0.00357808
0.00392482
0.00428406
0.00465581
0.00504008
0.00543673
0.00584586
0.00626745
0.00670153
0.00714804
0.00760699
0.00807837
0.00856212
0.00905803
0.00956607
0.0100859
0.0106173
0.0111599
0.0117131
0.0122765
0.0128492
0.0134304
0.0140189
0.0146135
0.0152124
0.0158139
0.0164155
0.0170146
0.0176084
0.000954673
0.000510972
0.000626462
0.000823593
0.00104104
0.00127814
0.00153511
0.0018068
0.00209232
0.0023911
0.0027026
0.00302635
0.00336201
0.00370922
0.00406769
0.00443717
0.0048175
0.00520843
0.00560978
0.00602145
0.0064432
0.00687496
0.0073166
0.00776798
0.0082289
0.00869922
0.00917878
0.00966729
0.0101645
0.0106701
0.0111837
0.0117047
0.0122329
0.0127674
0.0133075
0.0138525
0.0144012
0.0149524
0.0155047
0.0160565
0.0166058
0.0171504
0.0176875
0.00118363
0.000639511
0.000761817
0.000989633
0.00123689
0.00150564
0.00179188
0.00209231
0.00240597
0.00273208
0.00307003
0.00341923
0.00377912
0.00414933
0.0045294
0.00491897
0.00531762
0.00572511
0.00614107
0.00656524
0.00699739
0.0074372
0.0078845
0.00833897
0.00880038
0.00926844
0.00974288
0.0102233
0.0107094
0.0112008
0.0116969
0.0121974
0.0127017
0.013209
0.0137188
0.0142303
0.0147423
0.015254
0.015764
0.0162708
0.016773
0.0172686
0.0177552
0.00138704
0.000769134
0.000897018
0.00115242
0.00142776
0.00172501
0.00203817
0.00236491
0.00270419
0.00305514
0.00341699
0.00378908
0.00417077
0.00456143
0.00496062
0.00536781
0.00578252
0.00620426
0.00663269
0.00706739
0.00750804
0.00795421
0.00840561
0.00886192
0.00932274
0.0097877
0.0102564
0.0107285
0.0112034
0.0116808
0.0121602
0.0126411
0.0131228
0.0136049
0.0140866
0.0145672
0.0150459
0.0155217
0.0159935
0.0164601
0.0169202
0.0173724
0.0178155
0.00156651
0.000895432
0.00102942
0.00130961
0.00161106
0.00193387
0.0022716
0.00262234
0.0029849
0.00335835
0.0037418
0.00413449
0.00453567
0.00494467
0.00536087
0.00578367
0.0062124
0.00664654
0.00708562
0.00752917
0.00797673
0.00842787
0.00888224
0.00933944
0.00979896
0.0102603
0.010723
0.0111865
0.0116504
0.0121143
0.0125775
0.0130397
0.0135003
0.0139588
0.0144147
0.0148673
0.0153158
0.0157592
0.0161967
0.0166272
0.0170498
0.0174634
0.0178666
0.00172607
0.0010163
0.0011547
0.00145763
0.00178411
0.00213066
0.00249103
0.00286356
0.00324742
0.00364154
0.00404479
0.00445608
0.00487482
0.00530036
0.00573196
0.00616874
0.00660974
0.0070545
0.0075026
0.00795336
0.00840639
0.00886143
0.00931799
0.00977561
0.0102335
0.0106908
0.0111471
0.0116022
0.0120552
0.0125055
0.012953
0.0133973
0.0138379
0.0142744
0.0147065
0.0151339
0.0155555
0.01597
0.0163767
0.0167751
0.0171642
0.0175436
0.0179121
0.00183962
0.00112142
0.00128801
0.00161281
0.00196079
0.00232359
0.00270007
0.00309101
0.00349682
0.00391185
0.00433286
0.00475913
0.00519343
0.00563448
0.00608113
0.00653054
0.00698073
0.00743382
0.00788914
0.00834479
0.00880146
0.00925979
0.0097183
0.0101769
0.0106332
0.0110853
0.0115347
0.0119815
0.0124231
0.0128589
0.0132905
0.0137176
0.0141388
0.0145543
0.0149646
0.0153708
0.015769
0.0161573
0.0165366
0.0169064
0.0172655
0.0176145
0.0179554
6.72058e-06
0.000186052
0.000472124
0.000820104
0.00116043
0.00149451
0.00182203
0.00214774
0.00247636
0.00281107
0.00315443
0.00350916
0.00387514
0.00425246
0.004642
0.00504389
0.00545962
0.00589025
0.00633891
0.00680635
0.007295
0.00780744
0.00834462
0.00890836
0.00949977
0.0101196
0.0107678
0.0114454
0.0121541
0.0128961
0.0136714
0.0144789
0.015316
0.0161793
0.0170652
0.0179787
0.018939
0.0199527
0.0210127
0.022115
0.0232577
0.0244385
0.0256556
1.84119e-06
9.43566e-05
0.000282216
0.000508936
0.000789213
0.00113215
0.00149241
0.00185288
0.00221394
0.00257222
0.00292579
0.00327412
0.00362027
0.00396733
0.00431883
0.00467736
0.00504508
0.00542502
0.00581979
0.00623255
0.0066662
0.00712338
0.00760676
0.00811954
0.00866355
0.00924071
0.00985205
0.0104985
0.0111814
0.0119017
0.0126595
0.0134536
0.0142831
0.0151439
0.0160342
0.0169553
0.0179133
0.0189128
0.0199517
0.0210346
0.0221714
0.0233565
0.024586
5.0901e-07
5.80888e-05
0.00019274
0.000366518
0.000576313
0.00083316
0.00113746
0.00149081
0.00189607
0.00230824
0.00271128
0.00310446
0.00348866
0.00386502
0.00423472
0.00459973
0.0049622
0.00532518
0.00569178
0.00606577
0.00645121
0.00685263
0.00727457
0.00772168
0.00819826
0.0087084
0.00925538
0.00984186
0.0104701
0.0111418
0.0118569
0.012616
0.0134174
0.0142583
0.0151375
0.0160533
0.0170066
0.0179995
0.0190312
0.0201038
0.0212189
0.0223787
0.0235959
7.5225e-07
4.65836e-05
0.000173492
0.000327235
0.00050918
0.000729332
0.000990986
0.00129669
0.00164909
0.00205045
0.00247695
0.00290299
0.00332241
0.00373407
0.00413833
0.00453529
0.00492531
0.00530902
0.00568762
0.00606308
0.00643835
0.00681704
0.0072039
0.00760412
0.00802364
0.00846861
0.00894509
0.00945861
0.0100142
0.0106157
0.0112658
0.0119663
0.0127168
0.0135165
0.0143634
0.0152554
0.0161917
0.0171712
0.0181938
0.0192588
0.020365
0.0215127
0.0227027
6.59054e-07
5.0857e-05
0.000163547
0.000300135
0.00046656
0.000666269
0.000903918
0.00118062
0.00149844
0.00186018
0.00226807
0.00270918
0.00315461
0.00359509
0.00402857
0.00445487
0.00487392
0.00528552
0.00568984
0.00608729
0.00647855
0.00686525
0.00724978
0.00763586
0.00802831
0.00843321
0.00885733
0.00930808
0.00979306
0.0103192
0.0108928
0.0115187
0.0121996
0.0129368
0.0137304
0.0145785
0.01548
0.0164327
0.0174349
0.0184848
0.01958
0.0207199
0.0219041
7.16525e-07
5.04218e-05
0.000159521
0.000286355
0.000443345
0.000630736
0.000853313
0.00111185
0.00140845
0.0017455
0.00212591
0.00255115
0.00300399
0.0034625
0.00391814
0.00436838
0.00481222
0.00524936
0.0056793
0.00610187
0.00651685
0.00692416
0.00732471
0.00771977
0.00811208
0.00850537
0.00890513
0.00931802
0.00975204
0.0102159
0.0107183
0.0112675
0.0118703
0.0125319
0.0132549
0.0140406
0.0148885
0.015797
0.0167639
0.0177865
0.0188621
0.0199882
0.0211635
7.35512e-07
5.3297e-05
0.000160237
0.000277385
0.000427953
0.000607535
0.000820054
0.00106678
0.001349
0.00166917
0.00202977
0.00243349
0.00287866
0.00334515
0.00381655
0.00428558
0.00475004
0.00520888
0.00566139
0.00610709
0.00654529
0.0069755
0.00739743
0.00781118
0.00821754
0.00861818
0.00901624
0.00941623
0.00982441
0.0102487
0.0106983
0.0111831
0.0117129
0.0122967
0.0129414
0.0136518
0.0144308
0.0152788
0.0161944
0.0171755
0.0182184
0.0193202
0.0204782
7.79296e-07
5.46123e-05
0.000159765
0.000271917
0.000418327
0.000592734
0.000798487
0.00103694
0.00130936
0.00161768
0.00196453
0.00235236
0.00278304
0.00324799
0.00372788
0.00421085
0.00469205
0.00516926
0.00564135
0.00610746
0.00656685
0.00701868
0.00746219
0.00789692
0.00832247
0.00873927
0.00914844
0.00955237
0.00995502
0.010362
0.0107811
0.0112216
0.0116941
0.0122098
0.0127791
0.0134111
0.0141127
0.0148877
0.0157379
0.0166624
0.0176586
0.0187235
0.0198533
8.15245e-07
5.64385e-05
0.000160264
0.000268518
0.000412054
0.000582855
0.000783887
0.00101676
0.00128219
0.00158211
0.00191889
0.00229478
0.00271262
0.00317041
0.00365311
0.00414588
0.00464052
0.00513344
0.00562248
0.00610656
0.00658487
0.00705646
0.0075203
0.00797547
0.00842124
0.0088571
0.009283
0.00969983
0.0101095
0.0105154
0.0109229
0.0113393
0.0117742
0.0122386
0.0127446
0.0133043
0.0139283
0.014625
0.0154
0.0162557
0.0171922
0.0182067
0.0192963
8.50217e-07
5.81092e-05
0.000160777
0.000266616
0.000408163
0.000576572
0.000774417
0.00100319
0.00126354
0.00155741
0.00188666
0.00225387
0.00266159
0.00311072
0.00359232
0.00409092
0.00459609
0.00510223
0.00560613
0.00610635
0.00660175
0.00709124
0.00757375
0.00804821
0.00851358
0.00896888
0.00941342
0.00984706
0.0102702
0.0106848
0.0110937
0.0115021
0.0119173
0.0123488
0.0128081
0.0133084
0.0138628
0.0144834
0.0151799
0.0159595
0.0168254
0.0177777
0.0188151
7.98833e-07
5.96018e-05
0.000161618
0.00026573
0.000405927
0.000572724
0.000768262
0.000994126
0.0012509
0.00154016
0.00186392
0.00222453
0.00262447
0.00306575
0.00354373
0.00404535
0.00455848
0.00507578
0.00559297
0.00610781
0.0066187
0.00712458
0.00762431
0.00811674
0.00860063
0.00907478
0.00953812
0.0099898
0.0104296
0.0108579
0.0112761
0.0116872
0.0120964
0.0125108
0.0129405
0.0133973
0.013895
0.0144481
0.0150699
0.0157716
0.0165609
0.0174422
0.0184166
4.96443e-07
6.07493e-05
0.000162654
0.00026558
0.000404898
0.000570571
0.000764561
0.000988357
0.00124248
0.00152844
0.00184807
0.00220358
0.00259756
0.00303203
0.00350568
0.00400828
0.00452724
0.00505401
0.005583
0.00611106
0.00663629
0.00715741
0.00767309
0.00818225
0.00868354
0.00917565
0.00965725
0.0101272
0.0105846
0.0110291
0.0114608
0.0118814
0.0122939
0.0127033
0.0131172
0.0135459
0.0140021
0.0145004
0.0150562
0.015684
0.0163962
0.0172013
0.0181055
5.21104e-07
6.22186e-05
0.000163697
0.00026593
0.000404671
0.000569666
0.000762581
0.000985003
0.00123729
0.00152071
0.00183717
0.00218881
0.00257811
0.00300722
0.00347635
0.00397846
0.00450176
0.00503637
0.00557585
0.00611597
0.00665467
0.00718999
0.00772064
0.00824558
0.00876328
0.00927241
0.00977155
0.0102593
0.0107345
0.0111961
0.0116435
0.0120773
0.0124989
0.0129116
0.0133207
0.0137341
0.0141628
0.0146202
0.015122
0.0156846
0.0163236
0.0170525
0.0178816
5.4664e-07
6.37214e-05
0.000164813
0.000266576
0.000405059
0.00056969
0.000761958
0.000983433
0.00123434
0.0015159
0.00182998
0.00217866
0.00256431
0.00298903
0.0034541
0.00395507
0.0044812
0.00502234
0.00557103
0.00612248
0.00667365
0.00722242
0.00776736
0.00830717
0.00884043
0.00936578
0.0098817
0.0103867
0.0108793
0.0113581
0.0118223
0.0122712
0.0127056
0.0131268
0.0135386
0.0139467
0.0143597
0.0147894
0.0152501
0.0157588
0.016333
0.0169899
0.0177452
5.73728e-07
6.51599e-05
0.000165913
0.000267478
0.000405911
0.000570378
0.000762254
0.000983122
0.00123301
0.00151322
0.00182549
0.002172
0.00255469
0.00297603
0.00343758
0.0039368
0.00446484
0.00501134
0.00556842
0.00613016
0.0066931
0.00725467
0.00781322
0.00836725
0.00891537
0.00945619
0.00998818
0.0105098
0.0110193
0.0115153
0.0119963
0.0124615
0.0129104
0.0133437
0.0137633
0.0141731
0.0145799
0.0149928
0.0154247
0.0158915
0.0164113
0.0170041
0.017691
6.00714e-07
6.65053e-05
0.000167017
0.000268525
0.000407074
0.000571541
0.000763311
0.000983819
0.00123302
0.00151227
0.00182333
0.00216789
0.00254834
0.00296693
0.00342542
0.0039229
0.00445206
0.00500309
0.00556744
0.00613878
0.00671282
0.00728663
0.00785817
0.00842588
0.00898828
0.00954404
0.0100915
0.010629
0.011155
0.0116677
0.0121656
0.0126473
0.0131119
0.0135591
0.0139899
0.0144066
0.0148138
0.015219
0.0156326
0.0160689
0.0165454
0.0170827
0.0177039
6.26264e-07
6.78475e-05
0.000168173
0.000269723
0.00040843
0.000573068
0.000764874
0.000985181
0.00123405
0.00151272
0.00182269
0.00216594
0.00254465
0.00296099
0.0034171
0.00391274
0.0044424
0.00499714
0.00556802
0.00614815
0.00673269
0.00731812
0.00790221
0.00848315
0.00905949
0.00962953
0.0101919
0.0107448
0.0112868
0.0118159
0.0123304
0.0128286
0.0133093
0.0137716
0.0142156
0.0146425
0.0150552
0.0154593
0.0158631
0.016279
0.0167226
0.0172135
0.0177736
6.53123e-07
6.91383e-05
0.000169275
0.000270982
0.000410012
0.000574905
0.000766823
0.000987116
0.00123588
0.00151409
0.00182339
0.00216568
0.00254303
0.00295761
0.00341167
0.00390558
0.00443543
0.00499325
0.00556986
0.00615811
0.00675249
0.0073491
0.00794539
0.00853922
0.0091288
0.00971282
0.0102896
0.0108576
0.011415
0.01196
0.0124907
0.0130053
0.0135023
0.0139804
0.0144388
0.014878
0.0152997
0.0157077
0.0161085
0.016512
0.016932
0.017386
0.0178938
6.78888e-07
7.03616e-05
0.000170393
0.000272281
0.000411679
0.000576939
0.000769095
0.000989559
0.00123824
0.00151622
0.00182512
0.0021667
0.00254298
0.00295628
0.00340862
0.00390095
0.00443085
0.00499107
0.00557275
0.00616839
0.00677213
0.00737955
0.00798754
0.00859372
0.00919652
0.00979405
0.0103849
0.0109674
0.0115399
0.0121004
0.0126469
0.0131778
0.0136909
0.0141849
0.0146586
0.0151116
0.0155445
0.0159601
0.0163629
0.0167607
0.0171651
0.0175915
0.0180582
7.05552e-07
7.15681e-05
0.000171474
0.000273651
0.000413484
0.000579105
0.000771622
0.000992296
0.00124112
0.00151903
0.00182766
0.00216871
0.00254429
0.00295645
0.00340738
0.00389854
0.00442819
0.00499031
0.00557657
0.0061792
0.00679157
0.00740928
0.00802859
0.008647
0.00926247
0.00987326
0.0104779
0.0110747
0.0116618
0.0122373
0.0127995
0.0133461
0.0138754
0.0143853
0.0148746
0.0153421
0.015788
0.0162135
0.0166221
0.0170195
0.0174153
0.0178224
0.018258
7.29847e-07
7.27111e-05
0.000172569
0.000275044
0.000415325
0.000581387
0.000774251
0.000995311
0.00124432
0.0015223
0.00183079
0.00217156
0.00254654
0.0029579
0.00340783
0.00389786
0.00442719
0.00499101
0.00558131
0.00619015
0.00681084
0.00743833
0.0080686
0.00869892
0.00932685
0.00995069
0.0105687
0.0111793
0.0117808
0.0123711
0.0129485
0.0135107
0.0140557
0.0145816
0.0150866
0.0155693
0.016029
0.0164664
0.0168835
0.0172845
0.0176771
0.0180721
0.0184849
7.56619e-07
7.38267e-05
0.00017361
0.000276444
0.000417254
0.000583795
0.000777186
0.000998549
0.0012478
0.00152594
0.00183451
0.0021751
0.00254979
0.00296053
0.00340963
0.00389868
0.00442782
0.0049929
0.00558666
0.00620123
0.00682979
0.00746664
0.00810771
0.00874946
0.00938954
0.0100261
0.0106574
0.0112817
0.0118971
0.012502
0.0130942
0.0136717
0.0142323
0.0147739
0.0152946
0.0157927
0.0162671
0.0167174
0.017145
0.0175527
0.0179464
0.0183351
0.0187315
7.82295e-07
7.49047e-05
0.000174666
0.000277927
0.000419204
0.000586236
0.000780074
0.00100188
0.00125152
0.00153001
0.00183865
0.00217923
0.0025536
0.00296401
0.00341234
0.00390075
0.00442956
0.00499563
0.00559255
0.00621247
0.00684843
0.00749435
0.00814549
0.00879858
0.00945074
0.0100999
0.0107441
0.0113817
0.012011
0.0126301
0.0132369
0.0138294
0.0144053
0.0149625
0.0154988
0.0160124
0.0165017
0.0169659
0.0174054
0.0178221
0.0182201
0.0186069
0.0189932
8.06024e-07
7.58792e-05
0.000175629
0.000279274
0.000421097
0.000588695
0.000783081
0.00100535
0.00125539
0.0015342
0.00184299
0.00218367
0.00255805
0.00296811
0.00341604
0.00390383
0.00443232
0.00499937
0.005599
0.00622387
0.00686669
0.00752105
0.00818233
0.00884638
0.00951031
0.0101718
0.0108288
0.0114796
0.0121225
0.0127556
0.0133767
0.0139839
0.0145749
0.0151474
0.0156993
0.0162283
0.0167327
0.0172114
0.0176637
0.0180909
0.0184958
0.0188841
0.0192648
8.32087e-07
7.69177e-05
0.000176639
0.000280708
0.000423059
0.000591178
0.000786087
0.00100887
0.00125937
0.00153853
0.0018477
0.00218855
0.00256295
0.00297286
0.00342048
0.00390779
0.00443619
0.00500391
0.00560586
0.00623525
0.00688452
0.00754716
0.00821805
0.00889281
0.00956825
0.0102418
0.0109115
0.0115754
0.0122317
0.0128784
0.0135138
0.0141354
0.0147413
0.015329
0.0158962
0.0164405
0.0169602
0.0174534
0.0179194
0.0183582
0.0187717
0.019164
0.0195418
8.56374e-07
7.78307e-05
0.000177547
0.000282112
0.000425003
0.000593653
0.000789162
0.00101247
0.00126343
0.00154294
0.00185245
0.00219361
0.00256807
0.00297802
0.00342536
0.00391246
0.00444071
0.00500887
0.00561307
0.00624651
0.00690182
0.00757238
0.00825254
0.00893776
0.00962451
0.0103101
0.0109922
0.011669
0.0123385
0.012999
0.0136481
0.0142841
0.0149047
0.0155073
0.0160895
0.0166493
0.017184
0.0176921
0.018172
0.0186233
0.0190467
0.0194451
0.0198232
8.78889e-07
7.86554e-05
0.000178459
0.000283504
0.000426865
0.000596081
0.00079216
0.00101601
0.00126746
0.00154744
0.00185743
0.00219886
0.00257355
0.00298337
0.00343078
0.0039177
0.00444566
0.00501445
0.00562049
0.00625761
0.00691866
0.00759671
0.00828581
0.00898128
0.00967914
0.0103766
0.011071
0.0117604
0.0124431
0.013117
0.01378
0.0144301
0.015065
0.0156824
0.0162797
0.0168545
0.0174044
0.0179274
0.0184215
0.0188858
0.0193204
0.0197267
0.0201083
9.03795e-07
7.95378e-05
0.000179349
0.000284846
0.000428768
0.000598569
0.000795177
0.00101957
0.00127158
0.00155205
0.0018624
0.00220424
0.0025791
0.00298919
0.00343655
0.00392328
0.00445119
0.00502047
0.00562811
0.00626863
0.00693493
0.00762008
0.00831805
0.00902329
0.00973213
0.0104411
0.0111477
0.0118499
0.0125455
0.0132326
0.0139092
0.0145733
0.0152225
0.0158544
0.0164665
0.0170564
0.0176214
0.0181592
0.0186678
0.0191457
0.0195923
0.0200083
0.0203959
9.27465e-07
8.03937e-05
0.000180208
0.000286176
0.00043066
0.000600983
0.000798198
0.00102318
0.00127568
0.00155664
0.00186743
0.0022096
0.00258484
0.00299508
0.0034424
0.00392908
0.00445709
0.00502668
0.0056358
0.00627935
0.00695064
0.00764259
0.00834879
0.00906378
0.00978332
0.0105038
0.0112224
0.011937
0.0126454
0.0133458
0.0140359
0.0147138
0.015377
0.0160234
0.0166502
0.0172549
0.0178349
0.0183876
0.0189108
0.0194027
0.019862
0.0202888
0.0206842
9.48809e-07
8.11633e-05
0.000180988