/*--------------------------------*- C++ -*----------------------------------*\
| =========                 |                                                 |
| \\      /  F ield         | OpenFOAM: The Open Source CFD Toolbox           |
|  \\    /   O peration     | Version:  2.3.0                                 |
|   \\  /    A nd           | Web:      www.OpenFOAM.org                      |
|    \\/     M anipulation  |                                                 |
\*---------------------------------------------------------------------------*/
FoamFile
{
    version     2.0;
    format      ascii;
    class       volScalarField;
    location    "10000";
    object      nuTilda;
}
// * * * * * * * * * * * * * * * * * * * * * * * * * * * * * * * * * * * * * //

dimensions      [0 2 -1 0 0 0 0];

internalField   nonuniform List<scalar> 
123316
(
0.0267883
0.0256294
0.0245011
0.0234039
0.0223393
0.0213092
0.0203158
0.0193633
0.0184512
0.0175715
0.0167174
0.0158883
0.0150861
0.0143139
0.0135733
0.0128641
0.0121843
0.0115308
0.010901
0.0102945
0.00971109
0.00915122
0.00861406
0.00809927
0.00760557
0.00713154
0.00667589
0.0062356
0.00580927
0.0053947
0.00499045
0.00459497
0.00420769
0.00382912
0.00346153
0.0031075
0.00277342
0.00246753
0.00219947
0.00197142
0.00178833
0.00165607
0.00161716
0.0279457
0.0269076
0.0258931
0.0249025
0.0239363
0.0229945
0.0220779
0.0211865
0.0203204
0.0194779
0.0186582
0.0178612
0.0170874
0.0163385
0.0156166
0.0149244
0.0142629
0.0136295
0.0130163
0.0124199
0.0118405
0.0112789
0.0107369
0.0102145
0.00971413
0.00923528
0.00877817
0.00834306
0.00792951
0.00753795
0.00716841
0.00682062
0.0064944
0.00619033
0.00590822
0.0056481
0.00541143
0.00520082
0.00501784
0.00486664
0.00476436
0.00473745
0.00484494
0.0290204
0.0280881
0.027175
0.0262806
0.0254048
0.0245482
0.0237103
0.0228907
0.0220902
0.0213081
0.0205437
0.0197972
0.0190691
0.0183588
0.0176664
0.0169933
0.0163395
0.015705
0.0150882
0.014489
0.013907
0.0133421
0.0127951
0.0122665
0.0117578
0.0112691
0.010801
0.0103543
0.00993057
0.00953038
0.0091559
0.00880765
0.00848771
0.00819888
0.00794306
0.00772284
0.00754159
0.00740403
0.00731416
0.00727544
0.00729394
0.00737142
0.0075086
0.0300127
0.029173
0.0283489
0.0275395
0.0267446
0.0259645
0.0251986
0.0244467
0.0237092
0.0229865
0.0222776
0.0215825
0.020902
0.0202355
0.0195828
0.0189442
0.0183207
0.0177116
0.017117
0.0165377
0.015974
0.015426
0.0148941
0.0143792
0.0138828
0.0134047
0.0129465
0.0125088
0.0120933
0.0117017
0.0113352
0.0109953
0.0106852
0.0104068
0.0101629
0.00995682
0.00979103
0.00966931
0.00959478
0.00956998
0.00959813
0.00967955
0.00981373
0.0309237
0.0301652
0.0294193
0.0286853
0.027962
0.0272494
0.0265473
0.0258559
0.0251749
0.024505
0.0238455
0.0231972
0.0225601
0.0219342
0.0213189
0.0207147
0.0201224
0.0195409
0.0189711
0.0184138
0.0178694
0.0173386
0.016822
0.0163211
0.0158365
0.0153691
0.0149204
0.0144918
0.0140834
0.0136978
0.0133364
0.0130013
0.0126956
0.0124217
0.012182
0.0119799
0.0118179
0.0116993
0.0116271
0.011603
0.0116296
0.0117069
0.0118359
0.0317568
0.03107
0.0303938
0.0297256
0.0290652
0.028412
0.0277659
0.0271273
0.0264963
0.0258731
0.0252573
0.0246496
0.0240504
0.0234599
0.0228777
0.0223043
0.0217402
0.0211843
0.0206374
0.0201007
0.0195747
0.0190594
0.0185558
0.0180664
0.0175917
0.0171331
0.0166919
0.0162692
0.0158663
0.0154849
0.0151274
0.0147951
0.0144911
0.014218
0.013979
0.0137765
0.0136139
0.0134944
0.0134204
0.0133946
0.0134182
0.0134914
0.0136151
0.0325135
0.031894
0.0312792
0.0306687
0.0300633
0.0294625
0.0288658
0.0282734
0.0276856
0.0271036
0.0265259
0.0259535
0.0253869
0.0248269
0.024274
0.0237275
0.0231874
0.0226544
0.0221287
0.0216104
0.0211009
0.0205997
0.0201078
0.0196273
0.0191602
0.0187086
0.018273
0.0178548
0.0174565
0.0170788
0.0167239
0.0163933
0.0160886
0.0158147
0.0155739
0.0153698
0.0152055
0.0150833
0.0150056
0.0149768
0.0149972
0.0150672
0.0151873
0.033208
0.032645
0.0320834
0.0315231
0.0309649
0.0304124
0.0298577
0.0293074
0.0287549
0.0282097
0.0276653
0.0271229
0.0265854
0.0260506
0.0255227
0.0250005
0.0244817
0.0239679
0.0234618
0.0229584
0.0224648
0.0219774
0.0214964
0.0210233
0.020562
0.020115
0.0196829
0.0192681
0.0188729
0.0184977
0.0181444
0.0178174
0.0175102
0.0172361
0.0169915
0.0167864
0.0166193
0.0164937
0.0164114
0.0163785
0.0163957
0.016463
0.016578
0.0338476
0.0333296
0.0328117
0.0322964
0.0317757
0.0312747
0.030748
0.0302447
0.0297108
0.0291992
0.0286863
0.0281687
0.0276606
0.0271439
0.0266347
0.0261336
0.0256371
0.0251335
0.0246543
0.0241574
0.0236794
0.0232048
0.0227377
0.0222715
0.0218134
0.0213695
0.0209394
0.0205242
0.0201306
0.0197596
0.0194012
0.0190933
0.0187729
0.0185072
0.0182524
0.0180489
0.017876
0.0177519
0.0176602
0.017624
0.0176374
0.0177061
0.0178055
0.00192138
0.00252292
0.00297553
0.00345036
0.00396
0.00450051
0.00506592
0.00565191
0.00625595
0.00687439
0.00750637
0.00815138
0.0088081
0.00947646
0.0101568
0.0108482
0.0115514
0.0122663
0.0129922
0.0137305
0.0144808
0.0152427
0.0160175
0.0168041
0.0176038
0.0184165
0.0192418
0.0200808
0.0209333
0.0217996
0.0226799
0.0235745
0.0244834
0.0254069
0.0263453
0.0272983
0.0282663
0.0292495
0.0302477
0.0312609
0.0322887
0.0333308
0.0343879
0.00505841
0.00534915
0.00569581
0.00609355
0.00653924
0.00702501
0.00754509
0.00809523
0.00867011
0.0092658
0.00987978
0.0105087
0.0111516
0.0118067
0.0124732
0.0131502
0.0138363
0.014532
0.0152371
0.0159507
0.0166737
0.017406
0.0181472
0.0188976
0.0196572
0.0204262
0.0212047
0.0219934
0.0227921
0.0236011
0.0244206
0.0252506
0.0260914
0.0269433
0.0278064
0.0286811
0.0295674
0.0304656
0.0313755
0.0322975
0.0332314
0.034177
0.035134
0.00770363
0.00795434
0.00826092
0.00862001
0.00902551
0.00947245
0.00995589
0.0104723
0.0110157
0.0115823
0.012169
0.0127728
0.0133911
0.0140224
0.0146653
0.0153172
0.0159795
0.0166495
0.0173269
0.0180125
0.0187051
0.0194051
0.0201115
0.0208248
0.0215449
0.0222721
0.0230063
0.0237478
0.0244965
0.0252525
0.0260158
0.026787
0.0275661
0.0283533
0.029149
0.0299534
0.0307665
0.0315887
0.03242
0.0332604
0.0341104
0.0349699
0.035838
0.00999865
0.0102352
0.0105241
0.010862
0.0112442
0.0116677
0.0121279
0.01262
0.0131396
0.0136841
0.0142489
0.014831
0.0154285
0.0160384
0.016659
0.0172895
0.0179285
0.0185744
0.0192277
0.0198863
0.020551
0.021221
0.021896
0.0225758
0.0232606
0.0239499
0.024644
0.0253429
0.0260465
0.0267553
0.027469
0.028188
0.0289121
0.0296418
0.0303774
0.0311194
0.0318676
0.0326224
0.0333839
0.0341519
0.0349269
0.0357095
0.0364988
0.0120143
0.0122422
0.0125194
0.0128435
0.0132115
0.0136193
0.0140631
0.0145384
0.0150414
0.0155686
0.016116
0.0166813
0.0172608
0.0178529
0.0184552
0.0190664
0.0196852
0.0203105
0.0209413
0.0215767
0.0222165
0.0228602
0.0235069
0.0241569
0.0248101
0.0254661
0.0261248
0.0267863
0.0274507
0.0281179
0.0287878
0.0294605
0.0301361
0.030815
0.0314979
0.0321848
0.0328757
0.0335709
0.0342704
0.034974
0.0356822
0.0363952
0.037112
0.0137887
0.014011
0.0142809
0.0145958
0.0149535
0.0153503
0.0157816
0.0162448
0.0167355
0.0172495
0.0177839
0.0183351
0.0189001
0.019477
0.0200635
0.0206586
0.0212605
0.0218678
0.0224798
0.0230947
0.0237126
0.0243326
0.0249549
0.0255792
0.0262052
0.0268322
0.0274604
0.0280897
0.0287194
0.0293499
0.029981
0.030613
0.0312461
0.0318807
0.0325171
0.0331556
0.0337963
0.0344391
0.0350838
0.0357301
0.0363785
0.0370292
0.0376811
0.015357
0.015575
0.0158403
0.0161486
0.0164989
0.0168871
0.0173087
0.0177622
0.0182433
0.0187478
0.0192722
0.0198123
0.0203645
0.0209283
0.0215018
0.0220831
0.022671
0.0232631
0.0238583
0.0244551
0.0250535
0.0256537
0.026255
0.026857
0.0274593
0.0280615
0.0286636
0.0292643
0.0298638
0.0304619
0.0310588
0.031655
0.0322511
0.0328469
0.0334424
0.0340384
0.0346356
0.0352325
0.0358289
0.0364244
0.0370196
0.0376154
0.0382119
0.0167472
0.0169631
0.0172255
0.0175285
0.0178726
0.0182539
0.0186665
0.0191115
0.0195855
0.0200837
0.0206011
0.0211319
0.0216724
0.0222249
0.0227869
0.0233571
0.0239333
0.0245132
0.0250933
0.0256732
0.0262548
0.0268381
0.0274218
0.0280041
0.0285858
0.0291669
0.0297471
0.0303233
0.030895
0.0314643
0.0320311
0.0325964
0.03316
0.0337212
0.0342807
0.03484
0.0353999
0.0359571
0.0365104
0.0370602
0.0376077
0.0381555
0.0387028
0.01798
0.0181941
0.0184589
0.0187547
0.0190936
0.0194716
0.0198699
0.0203101
0.0207809
0.0212753
0.0217873
0.0223074
0.0228341
0.0233794
0.0239311
0.0244943
0.0250602
0.0256305
0.0261942
0.0267576
0.0273256
0.0278963
0.028465
0.029029
0.0295949
0.0301578
0.0307217
0.0312727
0.0318182
0.0323634
0.0329038
0.033443
0.033978
0.0345078
0.0350367
0.0355651
0.0360954
0.0366165
0.0371309
0.0376386
0.038143
0.0386494
0.0391533
0.0314087
0.0299595
0.0285701
0.0272393
0.0259651
0.024745
0.0235764
0.0224569
0.0213829
0.0203512
0.019359
0.0184034
0.017482
0.0165926
0.0157331
0.0149017
0.0140967
0.0133167
0.0125604
0.0118266
0.0111145
0.0104233
0.00975235
0.00910115
0.00846923
0.00785622
0.00726185
0.00668597
0.0061285
0.00558956
0.00506927
0.00456803
0.00408614
0.00362435
0.00318361
0.00276555
0.00237137
0.00200232
0.00166239
0.00136822
0.00112324
0.000857285
0.000521101
0.0315907
0.0302745
0.029011
0.0277979
0.0266332
0.0255147
0.0244405
0.0234075
0.0224129
0.0214541
0.0205284
0.0196336
0.0187676
0.0179284
0.0171141
0.0163231
0.0155538
0.0148049
0.014075
0.0133631
0.0126683
0.0119895
0.0113263
0.0106782
0.0100448
0.00942597
0.00882171
0.00823195
0.00765695
0.00709721
0.00655339
0.00602656
0.00551778
0.00502784
0.00455839
0.00411515
0.00371243
0.00333931
0.00296005
0.00255924
0.00212633
0.00163776
0.00104599
0.0317782
0.0305837
0.0294343
0.0283279
0.0272628
0.0262372
0.0252489
0.0242952
0.0233739
0.0224826
0.0216194
0.0207823
0.0199696
0.0191795
0.0184106
0.0176613
0.0169301
0.016216
0.0155175
0.0148338
0.0141639
0.0135069
0.0128624
0.0122298
0.0116091
0.0110001
0.0104028
0.00981771
0.00924529
0.00868608
0.00814107
0.00761297
0.00710721
0.00662604
0.00615892
0.00569218
0.00521736
0.00472753
0.0042118
0.00365596
0.00304257
0.0023457
0.00153059
0.031968
0.0308847
0.0298391
0.0288293
0.0278544
0.0269127
0.0260019
0.0251202
0.0242653
0.0234359
0.02263
0.0218463
0.0210833
0.0203396
0.0196139
0.0189051
0.0182119
0.0175332
0.0168679
0.016215
0.0155737
0.0149432
0.014323
0.0137128
0.0131124
0.0125219
0.0119416
0.0113726
0.0108162
0.0102735
0.00974233
0.00921828
0.00869642
0.00817251
0.00764138
0.00709614
0.00652881
0.0059307
0.00529096
0.00459557
0.00382614
0.00295607
0.00195906
0.0321604
0.0311773
0.0302244
0.0293016
0.0284078
0.027541
0.0267
0.025883
0.0250883
0.0243146
0.023561
0.0228259
0.0221085
0.0214075
0.020722
0.0200512
0.019394
0.0187498
0.0181174
0.0174962
0.0168851
0.0162834
0.0156905
0.0151062
0.0145308
0.0139642
0.0134059
0.0128538
0.0123054
0.0117582
0.0112095
0.0106559
0.0100933
0.0095174
0.00892291
0.00830368
0.00765203
0.00695851
0.00621142
0.00539632
0.00449401
0.00347906
0.00233081
0.0323526
0.031459
0.0305898
0.0297446
0.0289226
0.0281228
0.0273444
0.0265858
0.0258452
0.0251219
0.0244151
0.023724
0.0230479
0.0223855
0.0217367
0.0211006
0.0204766
0.0198646
0.0192638
0.0186736
0.0180928
0.0175207
0.0169558
0.0163972
0.015843
0.0152915
0.0147405
0.0141876
0.0136306
0.0130666
0.012493
0.0119065
0.0113035
0.0106795
0.0100289
0.009345
0.00861966
0.00784292
0.00700259
0.00608379
0.00506724
0.00392832
0.00265135
0.0325433
0.0317297
0.0309347
0.030158
0.0293996
0.0286595
0.0279371
0.027231
0.0265393
0.0258614
0.0251965
0.0245446
0.0239054
0.0232781
0.0226624
0.0220575
0.0214633
0.0208802
0.0203086
0.0197478
0.0191958
0.0186504
0.0181078
0.017565
0.0170206
0.0164734
0.015921
0.0153611
0.0147912
0.0142086
0.0136105
0.0129937
0.0123545
0.0116885
0.0109894
0.0102497
0.00946032
0.0086108
0.00768887
0.00667931
0.00556284
0.00431577
0.00292741
0.0327302
0.0319882
0.0312588
0.0305425
0.0298399
0.0291526
0.0284803
0.0278217
0.0271744
0.0265375
0.0259102
0.0252917
0.0246858
0.0240903
0.0235048
0.022928
0.02236
0.021802
0.0212558
0.0207215
0.0201936
0.0196675
0.0191384
0.0186027
0.0180607
0.0175144
0.0169585
0.0163898
0.0158067
0.0152068
0.0145865
0.0139423
0.0132711
0.0125686
0.0118292
0.0110422
0.010197
0.00928329
0.00828941
0.00719997
0.00599539
0.0046523
0.00316597
0.0329142
0.0322343
0.0315628
0.0308993
0.0302448
0.0296027
0.0289745
0.0283598
0.0277539
0.027153
0.0265624
0.0259697
0.0253944
0.0248265
0.0242697
0.023718
0.0231747
0.0226361
0.0221091
0.0215963
0.0210917
0.0205767
0.0200562
0.0195217
0.0189706
0.0184279
0.017871
0.0172927
0.0166962
0.0160829
0.0154427
0.0147741
0.0140736
0.0133374
0.0125661
0.0117435
0.0108484
0.00987552
0.00881782
0.00765926
0.00637846
0.00494817
0.00336348
0.000202088
0.000219028
0.000289702
0.000375299
0.000481095
0.000612257
0.000767124
0.000938556
0.00112528
0.00132694
0.00154334
0.00177461
0.00202084
0.0022823
0.00255918
0.00285181
0.00316045
0.00348544
0.00382719
0.00418594
0.00456211
0.00495605
0.00536808
0.00579855
0.00624779
0.00671605
0.00720365
0.00771072
0.00823742
0.00878384
0.00934994
0.00993557
0.0105404
0.011164
0.0118057
0.0124646
0.0131396
0.0138291
0.0145313
0.0152436
0.0159632
0.016686
0.0174074
0.000441336
0.000297335
0.000384605
0.000506727
0.000652696
0.000820668
0.00101145
0.00121804
0.00143956
0.00167559
0.0019259
0.00219033
0.00246887
0.00276141
0.00306811
0.00338899
0.00372418
0.00407381
0.00443801
0.0048169
0.0052107
0.00561959
0.00604374
0.0064833
0.00693836
0.00740911
0.0078956
0.00839788
0.00891591
0.00944957
0.00999878
0.0105632
0.0111424
0.0117359
0.012343
0.0129628
0.013594
0.0142354
0.0148851
0.0155408
0.0162
0.0168593
0.0175141
0.000704607
0.000398194
0.000500937
0.000661304
0.000844571
0.00104791
0.00127283
0.00151307
0.0017678
0.00203648
0.00231873
0.00261423
0.00292275
0.00324413
0.00357819
0.0039249
0.00428414
0.00465587
0.00504013
0.00543678
0.0058459
0.00626748
0.00670156
0.00714807
0.00760702
0.00807839
0.00856213
0.00905805
0.00956608
0.0100859
0.0106173
0.0111599
0.0117131
0.0122765
0.0128492
0.0134304
0.0140189
0.0146135
0.0152124
0.0158139
0.0164155
0.0170146
0.0176084
0.00095618
0.000516101
0.00062992
0.000825613
0.00104231
0.00127898
0.0015357
0.00180722
0.00209264
0.00239134
0.00270279
0.0030265
0.00336214
0.00370932
0.00406777
0.00443724
0.00481756
0.00520848
0.00560983
0.00602149
0.00644323
0.00687499
0.00731662
0.007768
0.00822892
0.00869924
0.00917879
0.0096673
0.0101645
0.0106701
0.0111837
0.0117048
0.0122329
0.0127674
0.0133076
0.0138525
0.0144012
0.0149524
0.0155047
0.0160565
0.0166058
0.0171504
0.0176875
0.00118461
0.000642833
0.000764173
0.000991036
0.00123779
0.00150625
0.00179231
0.00209262
0.0024062
0.00273227
0.00307017
0.00341935
0.00377922
0.00414941
0.00452947
0.00491902
0.00531767
0.00572516
0.0061411
0.00656527
0.00699741
0.00743723
0.00788452
0.00833899
0.0088004
0.00926846
0.00974289
0.0102233
0.0107094
0.0112008
0.011697
0.0121974
0.0127017
0.0132091
0.0137189
0.0142303
0.0147423
0.015254
0.015764
0.0162708
0.016773
0.0172686
0.0177552
0.00138775
0.000771445
0.000898723
0.00115346
0.00142843
0.00172548
0.0020385
0.00236516
0.00270438
0.00305529
0.00341711
0.00378918
0.00417084
0.00456149
0.00496067
0.00536786
0.00578256
0.0062043
0.00663272
0.00706742
0.00750807
0.00795423
0.00840563
0.00886194
0.00932275
0.00978772
0.0102564
0.0107285
0.0112034
0.0116809
0.0121602
0.0126411
0.0131228
0.0136049
0.0140866
0.0145673
0.0150459
0.0155217
0.0159935
0.0164601
0.0169202
0.0173724
0.0178155
0.00156707
0.000897144
0.00103071
0.00131041
0.00161159
0.00193424
0.00227187
0.00262254
0.00298505
0.00335847
0.0037419
0.00413457
0.00453574
0.00494473
0.00536091
0.00578371
0.00621243
0.00664657
0.00708565
0.00752919
0.00797675
0.00842789
0.00888226
0.00933945
0.00979898
0.0102603
0.010723
0.0111865
0.0116505
0.0121143
0.0125775
0.0130397
0.0135003
0.0139588
0.0144147
0.0148673
0.0153158
0.0157592
0.0161967
0.0166272
0.0170498
0.0174634
0.0178666
0.00172653
0.00101763
0.00115573
0.00145828
0.00178454
0.00213096
0.00249125
0.00286373
0.00324755
0.00364165
0.00404487
0.00445615
0.00487487
0.00530041
0.005732
0.00616878
0.00660977
0.00705453
0.00750262
0.00795338
0.00840641
0.00886145
0.009318
0.00977562
0.0102336
0.0106908
0.0111471
0.0116022
0.0120552
0.0125055
0.012953
0.0133973
0.0138379
0.0142744
0.0147065
0.0151339
0.0155555
0.01597
0.0163767
0.0167751
0.0171642
0.0175436
0.0179121
0.00184003
0.00112251
0.00128884
0.00161334
0.00196115
0.00232385
0.00270026
0.00309116
0.00349693
0.00391194
0.00433294
0.00475919
0.00519349
0.00563452
0.00608117
0.00653057
0.00698076
0.00743385
0.00788916
0.00834481
0.00880148
0.00925981
0.00971832
0.0101769
0.0106332
0.0110853
0.0115347
0.0119815
0.0124231
0.0128589
0.0132905
0.0137176
0.0141389
0.0145543
0.0149646
0.0153708
0.015769
0.0161573
0.0165366
0.0169064
0.0172655
0.0176145
0.0179554
5.62985e-05
0.000212642
0.000478081
0.00082214
0.00116145
0.00149513
0.00182245
0.00214804
0.00247659
0.00281125
0.00315457
0.00350927
0.00387524
0.00425253
0.00464206
0.00504394
0.00545967
0.00589029
0.00633895
0.00680638
0.00729503
0.00780746
0.00834464
0.00890838
0.00949979
0.0101196
0.0107678
0.0114454
0.0121541
0.0128961
0.0136714
0.0144789
0.015316
0.0161793
0.0170652
0.0179787
0.018939
0.0199527
0.0210127
0.022115
0.0232577
0.0244385
0.0256556
3.33464e-05
0.000139992
0.000297014
0.000514101
0.000791409
0.00113323
0.00149303
0.00185328
0.00221422
0.00257243
0.00292595
0.00327425
0.00362037
0.00396742
0.0043189
0.00467742
0.00504514
0.00542507
0.00581983
0.00623259
0.00666623
0.00712341
0.00760679
0.00811956
0.00866357
0.00924073
0.00985206
0.0104986
0.0111814
0.0119018
0.0126595
0.0134536
0.0142831
0.0151439
0.0160342
0.0169553
0.0179133
0.0189128
0.0199517
0.0210346
0.0221714
0.0233565
0.024586
2.47337e-05
0.000112474
0.000218222
0.000376024
0.000580381
0.000835134
0.00113852
0.00149143
0.00189645
0.0023085
0.00271147
0.0031046
0.00348877
0.00386511
0.0042348
0.00459979
0.00496226
0.00532523
0.00569183
0.00606581
0.00645124
0.00685266
0.0072746
0.0077217
0.00819828
0.00870842
0.0092554
0.00984187
0.0104701
0.0111418
0.0118569
0.012616
0.0134174
0.0142583
0.0151375
0.0160533
0.0170067
0.0179995
0.0190312
0.0201038
0.0212189
0.0223787
0.0235959
2.46286e-05
0.000102696
0.000202247
0.000338832
0.000514343
0.000731899
0.000992385
0.00129751
0.00164959
0.00205078
0.00247718
0.00290315
0.00332254
0.00373417
0.00413841
0.00453536
0.00492536
0.00530907
0.00568767
0.00606312
0.00643839
0.00681707
0.00720392
0.00760414
0.00802366
0.00846863
0.00894511
0.00945863
0.0100142
0.0106157
0.0112658
0.0119663
0.0127168
0.0135165
0.0143634
0.0152554
0.0161917
0.0171712
0.0181938
0.0192588
0.020365
0.0215128
0.0227027
2.43197e-05
0.000106294
0.000194138
0.000313553
0.000472655
0.000669334
0.000905598
0.00118161
0.00149905
0.00186058
0.00226834
0.00270937
0.00315475
0.0035952
0.00402865
0.00445494
0.00487398
0.00528557
0.00568989
0.00608733
0.00647858
0.00686528
0.00724981
0.00763588
0.00802833
0.00843323
0.00885735
0.0093081
0.00979307
0.0103192
0.0108928
0.0115188
0.0121996
0.0129368
0.0137304
0.0145786
0.01548
0.0164327
0.0174349
0.0184848
0.0195801
0.0207199
0.0219041
2.45179e-05
0.000105879
0.000190892
0.000300847
0.000450054
0.000634149
0.000855196
0.00111297
0.00140914
0.00174595
0.00212621
0.00255136
0.00300414
0.00346261
0.00391823
0.00436845
0.00481228
0.00524941
0.00567935
0.0061019
0.00651689
0.00692419
0.00732474
0.0077198
0.0081121
0.00850539
0.00890514
0.00931804
0.00975206
0.0102159
0.0107183
0.0112675
0.0118703
0.0125319
0.0132549
0.0140406
0.0148885
0.015797
0.0167639
0.0177865
0.0188621
0.0199882
0.0211635
2.48342e-05
0.000108236
0.000191467
0.000292638
0.00043512
0.000611206
0.000822091
0.00106799
0.00134976
0.00166966
0.00203011
0.00243372
0.00287882
0.00334528
0.00381665
0.00428566
0.0047501
0.00520893
0.00566143
0.00610713
0.00654532
0.00697553
0.00739745
0.0078112
0.00821756
0.00861819
0.00901626
0.00941624
0.00982443
0.0102487
0.0106983
0.0111831
0.0117129
0.0122967
0.0129414
0.0136518
0.0144309
0.0152788
0.0161944
0.0171755
0.0182184
0.0193202
0.0204782
2.51273e-05
0.000109276
0.00019109
0.00028766
0.000425802
0.000596585
0.000800633
0.00103822
0.00131016
0.00161821
0.00196488
0.00235261
0.00278322
0.00324812
0.00372798
0.00421093
0.00469212
0.00516931
0.00564139
0.0061075
0.00656688
0.00701871
0.00746221
0.00789694
0.00832249
0.00873929
0.00914846
0.00955239
0.00995503
0.010362
0.0107811
0.0112216
0.0116941
0.0122098
0.0127791
0.0134111
0.0141127
0.0148877
0.0157379
0.0166624
0.0176586
0.0187235
0.0198533
2.54581e-05
0.000110769
0.000191503
0.000284576
0.000419741
0.000586835
0.000786113
0.00101809
0.00128303
0.00158266
0.00191927
0.00229504
0.00271281
0.00317055
0.00365322
0.00414596
0.00464058
0.00513349
0.00562252
0.0061066
0.00658491
0.00705649
0.00752033
0.00797549
0.00842126
0.00885711
0.00928302
0.00969984
0.0101095
0.0105154
0.0109229
0.0113393
0.0117742
0.0122386
0.0127446
0.0133043
0.0139283
0.014625
0.0154
0.0162557
0.0171922
0.0182067
0.0192963
2.58553e-05
0.000112045
0.000191896
0.00028285
0.000415985
0.000580636
0.000776698
0.00100455
0.0012644
0.00155798
0.00188705
0.00225414
0.00266179
0.00311087
0.00359242
0.004091
0.00459615
0.00510229
0.00560618
0.00610639
0.00660178
0.00709126
0.00757378
0.00804823
0.0085136
0.00896889
0.00941343
0.00984707
0.0102703
0.0106848
0.0110937
0.0115021
0.0119173
0.0123488
0.0128081
0.0133085
0.0138628
0.0144834
0.0151799
0.0159595
0.0168254
0.0177777
0.0188151
2.6746e-05
0.000113615
0.000192641
0.000282055
0.000413829
0.000576841
0.000770578
0.000995516
0.00125178
0.00154075
0.00186432
0.00222481
0.00262467
0.00306589
0.00354384
0.00404544
0.00455855
0.00507584
0.00559302
0.00610785
0.00661873
0.00712461
0.00762433
0.00811676
0.00860065
0.0090748
0.00953813
0.00998982
0.0104297
0.0108579
0.0112761
0.0116872
0.0120964
0.0125109
0.0129405
0.0133973
0.0138951
0.0144481
0.0150699
0.0157716
0.0165609
0.0174423
0.0184166
3.69773e-05
0.00011646
0.000193726
0.000281945
0.000412839
0.000574718
0.0007669
0.000989764
0.00124337
0.00152903
0.00184847
0.00220386
0.00259776
0.00303218
0.00350579
0.00400836
0.0045273
0.00505407
0.00558304
0.0061111
0.00663632
0.00715744
0.00767311
0.00818227
0.00868356
0.00917567
0.00965727
0.0101272
0.0105846
0.0110291
0.0114608
0.0118814
0.0122939
0.0127033
0.0131172
0.0135459
0.0140021
0.0145004
0.0150562
0.015684
0.0163962
0.0172013
0.0181055
3.81315e-05
0.000117803
0.000194602
0.000282266
0.000412621
0.000573826
0.000764932
0.000986419
0.00123819
0.00152131
0.00183758
0.0021891
0.00257832
0.00300738
0.00347647
0.00397855
0.00450183
0.00503642
0.0055759
0.00611601
0.0066547
0.00719001
0.00772066
0.0082456
0.0087633
0.00927243
0.00977157
0.0102593
0.0107345
0.0111961
0.0116435
0.0120773
0.0124989
0.0129116
0.0133207
0.0137341
0.0141628
0.0146202
0.015122
0.0156846
0.0163236
0.0170525
0.0178816
3.87028e-05
0.000119001
0.000195506
0.000282851
0.000412995
0.00057385
0.000764312
0.000984853
0.00123524
0.0015165
0.0018304
0.00217895
0.00256452
0.00298919
0.00345422
0.00395515
0.00448127
0.0050224
0.00557107
0.00612251
0.00667368
0.00722245
0.00776738
0.00830719
0.00884045
0.0093658
0.00988172
0.0103867
0.0108793
0.0113581
0.0118223
0.0122712
0.0127056
0.0131268
0.0135386
0.0139467
0.0143597
0.0147894
0.0152501
0.0157588
0.016333
0.0169899
0.0177452
3.9254e-05
0.000120131
0.000196394
0.000283667
0.000413816
0.000574529
0.000764607
0.000984544
0.00123392
0.00151382
0.00182591
0.00217229
0.0025549
0.00297619
0.0034377
0.00393689
0.0044649
0.0050114
0.00556846
0.0061302
0.00669313
0.00725469
0.00781325
0.00836727
0.00891538
0.00945621
0.00998819
0.0105098
0.0110193
0.0115153
0.0119963
0.0124615
0.0129104
0.0133437
0.0137633
0.0141732
0.0145799
0.0149928
0.0154247
0.0158915
0.0164113
0.0170041
0.017691
3.97811e-05
0.000121184
0.000197287
0.000284616
0.000414937
0.000575675
0.000765658
0.000985238
0.00123392
0.00151287
0.00182374
0.00216818
0.00254855
0.00296709
0.00342553
0.00392299
0.00445213
0.00500314
0.00556748
0.00613882
0.00671285
0.00728666
0.00785819
0.0084259
0.0089883
0.00954406
0.0100915
0.010629
0.011155
0.0116678
0.0121656
0.0126473
0.0131119
0.0135591
0.0139899
0.0144066
0.0148138
0.015219
0.0156326
0.0160689
0.0165454
0.0170827
0.0177039
4.02672e-05
0.000122228
0.000198223
0.000285701
0.000416246
0.000577181
0.000767211
0.000986597
0.00123496
0.00151333
0.00182311
0.00216624
0.00254486
0.00296115
0.00341721
0.00391283
0.00444247
0.00499719
0.00556806
0.00614818
0.00673272
0.00731815
0.00790224
0.00848317
0.0090595
0.00962955
0.0101919
0.0107449
0.0112868
0.0118159
0.0123304
0.0128286
0.0133093
0.0137716
0.0142156
0.0146425
0.0150552
0.0154593
0.0158632
0.016279
0.0167226
0.0172135
0.0177736
4.07512e-05
0.000123228
0.000199117
0.000286844
0.000417772
0.000578992
0.000769148
0.000988526
0.00123678
0.00151469
0.00182381
0.00216597
0.00254324
0.00295777
0.00341179
0.00390567
0.0044355
0.0049933
0.00556991
0.00615814
0.00675252
0.00734913
0.00794542
0.00853923
0.00912881
0.00971284
0.0102896
0.0108576
0.011415
0.01196
0.0124907
0.0130053
0.0135023
0.0139804
0.0144388
0.014878
0.0152997
0.0157077
0.0161085
0.016512
0.016932
0.017386
0.0178938
4.12045e-05
0.000124174
0.000200025
0.000288024
0.000419382
0.000580998
0.000771406
0.000990962
0.00123914
0.00151681
0.00182553
0.00216699
0.00254319
0.00295644
0.00340873
0.00390104
0.00443092
0.00499112
0.0055728
0.00616843
0.00677216
0.00737957
0.00798756
0.00859374
0.00919654
0.00979407
0.0103849
0.0109674
0.0115399
0.0121004
0.012647
0.0131778
0.0136909
0.0141849
0.0146586
0.0151116
0.0155446
0.0159601
0.0163629
0.0167607
0.0171651
0.0175915
0.0180582
4.16507e-05
0.000125102
0.000200905
0.000289269
0.000421124
0.000583134
0.000773919
0.000993692
0.00124201
0.00151962
0.00182807
0.002169
0.00254451
0.00295661
0.0034075
0.00389863
0.00442826
0.00499037
0.00557661
0.00617923
0.0067916
0.0074093
0.00802861
0.00864702
0.00926249
0.00987327
0.0104779
0.0110747
0.0116618
0.0122373
0.0127995
0.0133461
0.0138754
0.0143853
0.0148746
0.0153421
0.015788
0.0162135
0.0166221
0.0170195
0.0174153
0.0178224
0.018258
4.20517e-05
0.00012598
0.000201797
0.000290537
0.000422903
0.000585386
0.000776532
0.000996698
0.0012452
0.00152289
0.0018312
0.00217186
0.00254676
0.00295806
0.00340795
0.00389795
0.00442726
0.00499107
0.00558136
0.00619018
0.00681087
0.00743835
0.00806862
0.00869894
0.00932686
0.00995071
0.0105687
0.0111793
0.0117808
0.0123711
0.0129485
0.0135107
0.0140557
0.0145816
0.0150866
0.0155693
0.016029
0.0164664
0.0168835
0.0172845
0.0176771
0.0180721
0.0184849
4.24684e-05
0.000126834
0.000202645
0.000291813
0.000424768
0.000587762
0.000779451
0.000999928
0.00124868
0.00152653
0.00183492
0.00217539
0.00255
0.00296069
0.00340975
0.00389877
0.00442789
0.00499296
0.00558671
0.00620126
0.00682982
0.00746667
0.00810773
0.00874948
0.00938956
0.0100261
0.0106574
0.0112817
0.0118972
0.012502
0.0130942
0.0136717
0.0142323
0.0147739
0.0152946
0.0157927
0.0162671
0.0167174
0.017145
0.0175528
0.0179464
0.0183351
0.0187315
4.28551e-05
0.000127657
0.000203508
0.000293165
0.000426653
0.000590171
0.000782322
0.00100325
0.0012524
0.0015306
0.00183906
0.00217952
0.00255381
0.00296417
0.00341246
0.00390084
0.00442963
0.00499569
0.0055926
0.0062125
0.00684846
0.00749437
0.00814551
0.0087986
0.00945075
0.0100999
0.0107441
0.0113817
0.012011
0.0126301
0.0132369
0.0138294
0.0144053
0.0149625
0.0154988
0.0160124
0.0165017
0.0169659
0.0174054
0.0178221
0.0182201
0.0186069
0.0189932
4.32094e-05
0.0001284
0.000204296
0.000294394
0.000428484
0.000592598
0.000785312
0.00100671
0.00125626
0.00153478
0.0018434
0.00218396
0.00255826
0.00296827
0.00341616
0.00390392
0.00443239
0.00499942
0.00559904
0.00622391
0.00686672
0.00752108
0.00818235
0.0088464
0.00951032
0.0101718
0.0108288
0.0114796
0.0121225
0.0127556
0.0133767
0.0139839
0.0145749
0.0151475
0.0156993
0.0162283
0.0167327
0.0172114
0.0176637
0.0180909
0.0184958
0.0188841
0.0192648
4.35765e-05
0.00012919
0.000205123
0.000295705
0.000430382
0.00059505
0.000788301
0.00101022
0.00126024
0.00153911
0.00184811
0.00218884
0.00256316
0.00297301
0.00342059
0.00390788
0.00443626
0.00500396
0.0056059
0.00623529
0.00688455
0.00754718
0.00821807
0.00889283
0.00956827
0.0102419
0.0109115
0.0115754
0.0122317
0.0128784
0.0135138
0.0141354
0.0147413
0.015329
0.0158962
0.0164405
0.0169602
0.0174534
0.0179194
0.0183582
0.0187717
0.019164
0.0195418
4.39107e-05
0.000129882
0.000205868
0.000296989
0.000432265
0.000597493
0.000791359
0.00101381
0.00126429
0.00154352
0.00185285
0.00219389
0.00256828
0.00297817
0.00342547
0.00391255
0.00444078
0.00500893
0.00561311
0.00624654
0.00690185
0.00757241
0.00825256
0.00893778
0.00962453
0.0103101
0.0109923
0.011669
0.0123385
0.012999
0.0136481
0.0142842
0.0149047
0.0155073
0.0160895
0.0166493
0.0171841
0.0176921
0.018172
0.0186233
0.0190467
0.0194451
0.0198232
4.42172e-05
0.000130508
0.000206616
0.000298264
0.000434068
0.00059989
0.000794341
0.00101735
0.00126832
0.00154802
0.00185783
0.00219915
0.00257376
0.00298352
0.0034309
0.00391779
0.00444573
0.00501451
0.00562053
0.00625765
0.00691869
0.00759674
0.00828583
0.0089813
0.00967915
0.0103766
0.0110711
0.0117605
0.0124431
0.013117
0.01378
0.0144301
0.015065
0.0156824
0.0162797
0.0168545
0.0174044
0.0179274
0.0184215
0.0188858
0.0193204
0.0197267
0.0201083
4.45374e-05
0.000131176
0.000207348
0.000299493
0.000435911
0.000602348
0.000797341
0.00102089
0.00127243
0.00155262
0.0018628
0.00220453
0.0025793
0.00298935
0.00343667
0.00392337
0.00445126
0.00502053
0.00562815
0.00626867
0.00693496
0.0076201
0.00831807
0.00902331
0.00973214
0.0104411
0.0111478
0.0118499
0.0125455
0.0132326
0.0139092
0.0145733
0.0152225
0.0158544
0.0164665
0.0170564
0.0176214
0.0181592
0.0186678
0.0191457
0.0195923
0.0200083
0.0203959
4.48323e-05
0.000131821
0.000208055
0.000300713
0.000437745
0.000604733
0.000800347
0.0010245
0.00127652
0.00155721
0.00186782
0.00220988
0.00258504
0.00299523
0.00344251
0.00392917
0.00445716
0.00502674
0.00563584
0.00627938
0.00695067
0.00764262
0.00834881
0.0090638
0.00978334
0.0105038
0.0112224
0.011937
0.0126455
0.0133458
0.0140359
0.0147138
0.015377
0.0160234
0.0166502
0.0172549
0.0178349
0.0183876
0.0189108
0.0194027
0.019862
0.0202888
0.0206842
4.50994e-05
0.000132401
0.000208697