/*--------------------------------*- C++ -*----------------------------------*\
| =========                 |                                                 |
| \\      /  F ield         | OpenFOAM: The Open Source CFD Toolbox           |
|  \\    /   O peration     | Version:  2.3.0                                 |
|   \\  /    A nd           | Web:      www.OpenFOAM.org                      |
|    \\/     M anipulation  |                                                 |
\*---------------------------------------------------------------------------*/
FoamFile
{
    version     2.0;
    format      ascii;
    class       volVectorField;
    location    "10000";
    object      U;
}
// * * * * * * * * * * * * * * * * * * * * * * * * * * * * * * * * * * * * * //

dimensions      [0 1 -1 0 0 0 0];

internalField   nonuniform List<vector> 
123316
(
(19.9084 24.2141 3.80666e-21)
(19.6127 24.5306 4.77629e-21)
(19.3113 24.8409 -4.38861e-22)
(19.0009 25.1482 -7.56837e-21)
(18.6807 25.4528 5.94564e-21)
(18.3499 25.7545 -5.37164e-21)
(18.0085 26.052 1.58622e-20)
(17.6556 26.3445 -2.75669e-20)
(17.2907 26.6308 2.71187e-21)
(16.9129 26.9094 -3.57119e-20)
(16.5216 27.1785 2.44175e-20)
(16.1159 27.4365 0)
(15.6955 27.6814 0)
(15.2593 27.9105 9.11228e-20)
(14.8071 28.1214 -7.57483e-20)
(14.3382 28.3111 -1.03416e-19)
(13.8522 28.4761 9.88455e-20)
(13.3482 28.6127 -1.16237e-19)
(12.8257 28.7166 -2.44762e-20)
(12.2839 28.7838 -1.20203e-20)
(11.7223 28.8096 2.71875e-19)
(11.1398 28.7901 -1.49431e-19)
(10.5357 28.7194 0)
(9.90809 28.5952 1.66104e-19)
(9.25552 28.4123 -3.8107e-19)
(8.57539 28.1695 1.95026e-19)
(7.86433 27.8683 0)
(7.11759 27.5029 0)
(6.32934 27.0804 1.45458e-19)
(5.49136 26.6013 -1.42397e-19)
(4.59332 26.0768 1.71738e-19)
(3.622 25.5104 -3.27611e-19)
(2.56109 24.9148 1.68787e-19)
(1.39208 24.3003 0)
(0.0941262 23.6765 -1.02639e-19)
(-1.35602 23.0564 1.42295e-19)
(-2.97831 22.459 0)
(-4.78905 21.8962 3.64165e-21)
(-6.80056 21.3411 -1.23159e-20)
(-9.05211 20.7765 -1.2439e-20)
(-11.5733 20.3903 3.98108e-21)
(-14.3993 20.4972 1.26401e-20)
(-17.2633 20.393 -6.81863e-20)
(19.5685 24.0299 6.77047e-21)
(19.2929 24.3056 2.42006e-22)
(19.0108 24.5805 -1.16406e-21)
(18.7207 24.8536 4.03544e-21)
(18.4223 25.1252 2.53162e-21)
(18.1149 25.3955 -4.44222e-21)
(17.7982 25.6641 3.42146e-21)
(17.472 25.9307 -2.64783e-21)
(17.1356 26.1952 1.49153e-22)
(16.7886 26.4572 -3.19496e-21)
(16.4301 26.716 -2.81475e-22)
(16.0593 26.971 -7.29352e-21)
(15.6752 27.2217 7.3522e-21)
(15.2772 27.4674 -5.37303e-21)
(14.864 27.7077 0)
(14.4349 27.9418 -2.50379e-20)
(13.9886 28.1691 3.26737e-20)
(13.5239 28.3887 7.94104e-21)
(13.0393 28.6001 1.62757e-21)
(12.5331 28.8023 -3.96078e-20)
(12.0037 28.9947 3.76533e-20)
(11.4492 29.1763 -4.65696e-20)
(10.8681 29.3466 4.21583e-20)
(10.2583 29.5039 2.271e-20)
(9.61786 29.6477 -2.22676e-20)
(8.94514 29.7766 -1.65227e-20)
(8.23805 29.8892 2.46942e-20)
(7.49462 29.984 8.15147e-22)
(6.71314 30.0573 2.12144e-20)
(5.8914 30.1079 -2.20222e-20)
(5.02724 30.1302 0)
(4.11895 30.1202 6.2288e-21)
(3.16426 30.0703 -7.7747e-21)
(2.16235 29.9702 1.82831e-21)
(1.11267 29.8095 -4.43284e-21)
(0.0164093 29.5678 -7.86179e-21)
(-1.12285 29.2312 -9.56871e-21)
(-2.29909 28.7782 7.28425e-21)
(-3.50124 28.1787 1.91387e-20)
(-4.69815 27.3946 -7.79479e-21)
(-5.81042 26.409 1.4137e-19)
(-6.76891 25.2024 -1.30367e-19)
(-7.53093 23.7442 -1.91038e-19)
(19.2806 23.8336 0)
(19.0154 24.0747 3.65466e-21)
(18.7458 24.3168 -3.67917e-21)
(18.4693 24.5562 -1.32831e-20)
(18.1848 24.7942 0)
(17.8917 25.0302 -6.77702e-22)
(17.5896 25.2649 6.02587e-21)
(17.2783 25.498 -9.4403e-21)
(16.9572 25.7292 3.68139e-21)
(16.6259 25.9586 3.36253e-21)
(16.2839 26.186 -6.12933e-21)
(15.9302 26.4107 6.44142e-21)
(15.5641 26.6323 4.91048e-21)
(15.1848 26.8507 -2.00576e-21)
(14.7914 27.0654 0)
(14.3827 27.2757 -2.86683e-21)
(13.958 27.4814 0)
(13.5164 27.6819 0)
(13.0566 27.8765 -1.59092e-21)
(12.577 28.0641 -6.16628e-22)
(12.0763 28.2436 -1.00506e-21)
(11.5528 28.414 -1.87359e-21)
(11.0047 28.5738 0)
(10.43 28.721 -1.11367e-21)
(9.82699 28.8537 6.46735e-21)
(9.19327 28.9696 -4.43792e-21)
(8.52705 29.0664 -7.9285e-21)
(7.82598 29.1406 7.41761e-21)
(7.08825 29.1886 0)
(6.31204 29.2059 0)
(5.4964 29.1875 1.25289e-20)
(4.64033 29.1275 -1.17847e-20)
(3.74506 29.0187 0)
(2.81261 28.8525 -1.75722e-21)
(1.84815 28.6195 0)
(0.85953 28.3092 3.65449e-21)
(-0.140315 27.9096 0)
(-1.13349 27.4077 6.57139e-23)
(-2.09605 26.7923 -6.72447e-23)
(-2.99564 26.0545 3.89194e-20)
(-3.79216 25.1931 -1.2295e-19)
(-4.44806 24.2224 4.15079e-20)
(-4.93736 23.1631 0)
(19.0271 23.6415 1.3022e-20)
(18.7788 23.8528 -1.28184e-20)
(18.5253 24.0677 -8.38736e-23)
(18.2657 24.279 2.58541e-21)
(17.9988 24.4886 6.11672e-21)
(17.7239 24.6962 3.98387e-21)
(17.4408 24.9024 -1.34814e-20)
(17.1491 25.1073 9.67658e-21)
(16.8485 25.3106 0)
(16.5385 25.512 -3.32413e-21)
(16.2189 25.7121 -5.71473e-21)
(15.889 25.9101 0)
(15.5481 26.1054 -5.75173e-21)
(15.1954 26.2978 -2.90016e-21)
(14.8298 26.4867 -5.90399e-21)
(14.4502 26.6716 2.8172e-21)
(14.0558 26.8519 -6.21741e-21)
(13.6457 27.0276 0)
(13.2191 27.1979 2.06551e-20)
(12.7749 27.3616 -4.13683e-20)
(12.312 27.5179 1.85534e-20)
(11.8293 27.6656 0)
(11.3255 27.8034 0)
(10.7991 27.9292 -2.03548e-21)
(10.249 28.041 -5.03787e-21)
(9.67388 28.1366 -3.67574e-20)
(9.07279 28.2132 7.93098e-20)
(8.44499 28.2677 -4.27341e-20)
(7.78958 28.2957 0)
(7.10636 28.2927 -3.07085e-20)
(6.39555 28.254 6.71572e-20)
(5.65777 28.1734 -3.66333e-20)
(4.89503 28.0438 -1.26236e-20)
(4.11083 27.8581 0)
(3.30981 27.6085 0)
(2.49951 27.2867 0)
(1.68958 26.8857 0)
(0.893063 26.3984 -1.90463e-22)
(0.12617 25.8217 1.94785e-22)
(-0.591863 25.1555 -3.08872e-20)
(-1.2386 24.4065 1.04631e-19)
(-1.79393 23.5896 -5.38891e-20)
(-2.24129 22.7268 4.10035e-20)
(18.8058 23.4567 -1.98489e-20)
(18.5746 23.6421 2.792e-20)
(18.3371 23.8335 -7.85897e-21)
(18.0939 24.0204 1.05123e-20)
(17.8439 24.2053 5.15388e-21)
(17.586 24.3884 -6.81835e-21)
(17.3202 24.5696 6.81506e-21)
(17.0458 24.7494 0)
(16.7629 24.9278 1.33837e-20)
(16.471 25.1045 -5.74456e-21)
(16.1698 25.2799 5.65977e-21)
(15.8586 25.4535 0)
(15.5374 25.625 5.68981e-21)
(15.2055 25.7938 2.78133e-20)
(14.8621 25.9596 -2.22302e-20)
(14.5056 26.121 8.44511e-21)
(14.135 26.2776 -2.58632e-21)
(13.7495 26.4296 0)
(13.3483 26.5761 0)
(12.9308 26.716 -4.96335e-21)
(12.4961 26.8485 3.67501e-21)
(12.0433 26.9722 -3.88936e-20)
(11.571 27.0857 3.9875e-20)
(11.0784 27.1872 0)
(10.5641 27.2745 1.18166e-20)
(10.0271 27.3456 0)
(9.46643 27.3974 -2.93101e-20)
(8.8817 27.4272 3.02408e-20)
(8.27288 27.4322 0)
(7.64021 27.4078 -1.08542e-20)
(6.98477 27.3501 -1.20478e-20)
(6.30746 27.2535 0)
(5.61122 27.1124 1.23098e-20)
(4.89919 26.921 -1.54143e-20)
(4.17709 26.6737 6.95531e-20)
(3.45179 26.3645 -1.69286e-20)
(2.73265 25.989 -9.53999e-21)
(2.03057 25.543 -3.81044e-20)
(1.3595 25.0253 4.36241e-20)
(0.733297 24.4378 1.51352e-20)
(0.167552 23.786 -3.32814e-20)
(-0.324695 23.0813 0)
(-0.732336 22.3388 -3.98817e-20)
(18.6095 23.2816 0)
(18.3968 23.4467 -1.70463e-20)
(18.1764 23.6169 -1.34865e-21)
(17.95 23.7832 1.39703e-21)
(17.7167 23.9473 1.44163e-21)
(17.4758 24.1097 1.7545e-20)
(17.2272 24.2702 -2.59542e-20)
(16.9697 24.429 -7.66895e-22)
(16.7042 24.5867 9.21272e-21)
(16.4296 24.7429 -7.59469e-21)
(16.1466 24.8976 0)
(15.8532 25.0505 0)
(15.55 25.2022 0)
(15.2374 25.352 -2.79022e-20)
(14.9145 25.4992 1.82065e-20)
(14.5801 25.6425 -1.87969e-20)
(14.2325 25.7807 1.94394e-20)
(13.8703 25.9142 2.99711e-20)
(13.4929 26.0426 -8.49482e-20)
(13.1004 26.1647 4.88262e-20)
(12.6916 26.2794 0)
(12.2667 26.3857 -6.82545e-21)
(11.8239 26.4822 -2.70669e-20)
(11.3629 26.5672 2.77873e-20)
(10.8828 26.6387 -6.78267e-21)
(10.3827 26.6941 3.38799e-20)
(9.86128 26.7308 -3.49132e-20)
(9.31804 26.7461 4.03197e-20)
(8.75303 26.7376 2.63085e-21)
(8.16727 26.7021 -2.23939e-20)
(7.56201 26.6352 1.18441e-20)
(6.93925 26.533 -1.52568e-20)
(6.30108 26.3899 -3.31183e-20)
(5.65071 26.2012 5.4577e-20)
(4.99285 25.9619 -1.73713e-20)
(4.33339 25.6683 -4.55607e-20)
(3.68055 25.3166 2.33852e-20)
(3.04442 24.9048 2.56088e-20)
(2.43589 24.4322 -1.30498e-20)
(1.86655 23.9002 -1.56639e-20)
(1.34829 23.3137 -1.09239e-19)
(0.890327 22.6811 -5.067e-21)
(0.500251 22.0137 3.79778e-20)
(18.4392 23.1308 -9.96318e-21)
(18.2451 23.2714 9.14417e-21)
(18.04 23.4198 9.14185e-21)
(17.8291 23.5672 -9.12084e-21)
(17.6117 23.7133 -9.10333e-21)
(17.386 23.8583 1.27045e-21)
(17.1541 24.0015 9.08753e-21)
(16.9114 24.1427 9.09846e-21)
(16.6621 24.2829 -9.14549e-21)
(16.4022 24.4218 0)
(16.1364 24.5599 0)
(15.8591 24.6948 0)
(15.5712 24.8294 0)
(15.2744 24.9627 4.25492e-20)
(14.9677 25.094 -5.51834e-20)
(14.6514 25.2229 3.25604e-20)
(14.3243 25.347 1.27982e-20)
(13.9823 25.4652 2.05819e-22)
(13.6246 25.5788 0)
(13.2531 25.6871 2.67546e-20)
(12.8648 25.788 -2.73229e-20)
(12.4625 25.881 6.77526e-21)
(12.0427 25.9635 -8.29531e-21)
(11.6057 26.0355 0)
(11.1513 26.0954 0)
(10.6797 26.1398 2.89189e-20)
(10.1888 26.1664 -8.23206e-20)
(9.67752 26.1718 -2.3e-21)
(9.1453 26.1528 4.71627e-20)
(8.59396 26.1084 4.1891e-20)
(8.02482 26.0356 -7.0704e-20)
(7.44063 25.9309 7.83316e-20)
(6.84388 25.7898 -3.36784e-20)
(6.2364 25.6067 1.98299e-20)
(5.62413 25.3771 -4.19769e-20)
(5.01022 25.0971 4.46975e-20)
(4.40324 24.7654 1.31597e-20)
(3.81085 24.3811 -4.19889e-20)
(3.24479 23.9443 0)
(2.71456 23.4556 0)
(2.23093 22.9191 7.13863e-20)
(1.80045 22.3381 7.90008e-20)
(1.42595 21.7225 -8.16422e-20)
(18.3033 22.971 1.55838e-20)
(18.1176 23.1032 -1.67202e-20)
(17.9242 23.2369 -8.44913e-23)
(17.7268 23.3701 8.44352e-23)
(17.5253 23.5014 0)
(17.312 23.6314 -1.02934e-20)
(17.0982 23.7614 0)
(16.8679 23.887 -1.09792e-20)
(16.636 24.0136 1.09721e-20)
(16.386 24.1368 -1.11874e-20)
(16.1358 24.2632 1.12174e-20)
(15.8746 24.3835 1.20215e-20)
(15.5991 24.5031 -1.13657e-20)
(15.3171 24.6222 -7.30354e-24)
(15.0234 24.7385 4.90706e-20)
(14.7203 24.8553 -3.81005e-20)
(14.4105 24.9689 1.35472e-20)
(14.0885 25.0755 5.66483e-22)
(13.7451 25.1762 -2.80779e-20)
(13.394 25.2747 1.55492e-20)
(13.0215 25.3647 3.16268e-20)
(12.6395 25.4492 -7.4335e-21)
(12.2398 25.5207 -2.5968e-20)
(11.8226 25.5817 -3.75925e-20)
(11.3877 25.6317 7.87047e-20)
(10.9393 25.6687 1.1772e-20)
(10.473 25.6893 -5.58236e-20)
(9.99001 25.6899 0)
(9.48424 25.6656 2.705e-20)
(8.96033 25.6155 -4.24533e-20)
(8.42128 25.5374 1.07133e-21)
(7.86563 25.4306 5.20714e-20)
(7.30469 25.2905 -3.57437e-20)
(6.72901 25.1146 1.27763e-21)
(6.15381 24.8954 -2.12731e-20)
(5.57477 24.6272 2.44528e-20)
(5.00258 24.3115 0)
(4.4403 23.9478 2.78681e-20)
(3.90602 23.5381 -1.16518e-22)
(3.40227 23.0835 0)
(2.94531 22.5883 -3.51858e-20)
(2.54027 22.0479 3.91543e-20)
(2.18177 21.4672 -7.94429e-20)
(18.1639 22.8171 -5.65422e-21)
(18.0015 22.9463 -9.67237e-21)
(17.8246 23.0704 3.01663e-21)
(17.6379 23.1927 -8.88405e-23)
(17.4528 23.311 0)
(17.2425 23.4244 0)
(17.0528 23.549 -1.31128e-20)
(16.83 23.6582 -1.79867e-22)
(16.6255 23.7788 -1.23322e-20)
(16.3881 23.8841 -1.30116e-20)
(16.1546 24.0047 0)
(15.9105 24.1147 -1.85728e-20)
(15.641 24.2211 -1.2313e-20)
(15.3746 24.3316 -1.36654e-20)
(15.0982 24.4322 -6.23513e-22)
(14.8064 24.5371 1.33325e-20)
(14.5073 24.6418 1.48093e-20)
(14.2117 24.7434 -3.03618e-20)
(13.8703 24.8271 0)
(13.5379 24.9222 -3.2251e-20)
(13.1756 25.0006 -3.39376e-20)
(12.8171 25.083 6.01366e-20)
(12.4378 25.1473 -3.61291e-20)
(12.04 25.1996 -2.05407e-20)
(11.6201 25.2402 0)
(11.1936 25.2696 -2.34688e-20)
(10.747 25.2853 -1.34011e-20)
(10.2988 25.2859 1.34291e-20)
(9.82579 25.2621 0)
(9.31518 25.2148 1.39277e-20)
(8.7899 25.1285 -1.55721e-20)
(8.23031 25.0187 -1.70864e-20)
(7.69489 24.8713 -2.0011e-20)
(7.13453 24.699 2.2407e-20)
(6.59845 24.4918 4.76064e-20)
(6.04265 24.2335 -4.78941e-20)
(5.49608 23.932 6.06689e-20)
(4.94246 23.5836 5.00734e-20)
(4.42819 23.1914 3.1041e-20)
(3.92939 22.759 0)
(3.46893 22.2959 0)
(3.06001 21.7914 7.18345e-20)
(2.72837 21.2249 -3.05765e-21)
(-18.9654 18.146 -1.06235e-19)
(-17.1701 16.7206 1.77391e-19)
(-15.471 15.3976 0)
(-13.9564 14.4393 2.05106e-20)
(-12.5869 13.6969 0)
(-11.3447 13.106 0)
(-10.2145 12.6252 -3.38567e-20)
(-9.18541 12.2313 1.03139e-18)
(-8.24547 11.905 -1.99287e-18)
(-7.38561 11.6262 1.95826e-18)
(-6.59679 11.3875 -8.8021e-19)
(-5.87014 11.1804 -9.11425e-19)
(-5.19843 10.996 9.00285e-19)
(-4.57581 10.8316 0)
(-3.9964 10.6839 8.2638e-20)
(-3.45492 10.5474 8.34601e-19)
(-2.947 10.4221 -8.03908e-19)
(-2.46908 10.3054 8.39307e-19)
(-2.01813 10.1946 -7.13058e-19)
(-1.59083 10.0906 -4.68869e-20)
(-1.18501 9.99219 7.76113e-19)
(-0.798418 9.89766 -7.10473e-19)
(-0.428552 9.80737 6.98701e-19)
(-0.074089 9.71978 -2.01318e-18)
(0.266828 9.635 1.43448e-18)
(0.595305 9.55248 8.33258e-20)
(0.912443 9.47116 6.57363e-19)
(1.21932 9.39143 -7.33447e-19)
(1.51668 9.31289 0)
(1.80535 9.23499 6.43974e-19)
(2.0859 9.15769 -6.40766e-19)
(2.35886 9.08112 0)
(2.62474 9.00461 0)
(2.88402 8.92827 0)
(3.13706 8.85216 -7.96108e-19)
(3.38421 8.77601 6.348e-19)
(3.62581 8.69988 0)
(3.86223 8.62367 -6.29345e-19)
(4.09374 8.54742 1.24982e-18)
(4.32054 8.47085 -5.19852e-22)
(4.5427 8.3941 -6.09064e-19)
(4.76032 8.3169 -1.48573e-19)
(4.97643 8.22795 1.38503e-19)
(-8.001 22.0796 -2.43774e-19)
(-8.08044 20.4914 4.20416e-19)
(-7.89572 19.1317 0)
(-7.55942 17.9596 0)
(-7.13006 16.9513 5.20198e-19)
(-6.65056 16.0833 -5.03805e-19)
(-6.14632 15.336 1.07284e-18)
(-5.63351 14.693 2.61692e-20)
(-5.12346 14.1368 -9.87512e-19)
(-4.62417 13.6528 -9.84071e-19)
(-4.13964 13.2308 1.50001e-20)
(-3.67238 12.8602 8.90315e-19)
(-3.22286 12.532 -9.27848e-19)
(-2.79179 12.24 8.64742e-19)
(-2.37812 11.9786 -5.1877e-20)
(-1.98122 11.7421 -4.97543e-20)
(-1.6009 11.527 0)
(-1.23554 11.3299 -7.68805e-19)
(-0.884164 11.1478 7.90526e-19)
(-0.546083 10.9788 4.51511e-20)
(-0.219897 10.8212 -7.0907e-19)
(0.0951596 10.6733 -1.1601e-21)
(0.399784 10.5331 6.78454e-19)
(0.694653 10.4 0)
(0.980427 10.2729 -6.5681e-19)
(1.25768 10.151 1.21492e-18)
(1.52694 10.0337 -7.20431e-19)
(1.78884 9.92071 7.3714e-22)
(2.04376 9.81129 6.29905e-19)
(2.29214 9.70503 -6.26528e-19)
(2.53432 9.60161 0)
(2.7706 9.50069 0)
(3.00132 9.40205 0)
(3.22678 9.30546 0)
(3.44727 9.21076 0)
(3.66323 9.11776 0)
(3.87488 9.02633 -6.20659e-19)
(4.08252 8.93635 1.39311e-18)
(4.28638 8.84737 -6.1698e-19)
(4.48653 8.7595 3.05794e-19)
(4.68305 8.67264 -1.51884e-19)
(4.87575 8.58677 0)
(5.06451 8.50063 -4.56802e-22)
(-5.24614 22.0589 0)
(-5.37665 20.9644 -2.34692e-20)
(-5.36256 19.9171 2.49848e-20)
(-5.23291 18.942 2.61419e-20)
(-5.01789 18.0472 -4.08567e-19)
(-4.74019 17.2356 3.69234e-19)
(-4.41862 16.5053 0)
(-4.06743 15.8519 0)
(-3.69968 15.2667 0)
(-3.32395 14.7431 -8.19059e-19)
(-2.94616 14.2741 -7.16685e-20)
(-2.57096 13.853 7.72765e-19)
(-2.2018 13.4731 5.23907e-20)
(-1.84046 13.1297 7.97908e-19)
(-1.48846 12.8177 5.65963e-20)
(-1.14717 12.5322 -6.54451e-19)
(-0.816007 12.2711 0)
(-0.495593 12.0298 0)
(-0.185685 11.8062 6.57227e-19)
(0.11459 11.5984 4.62782e-20)
(0.405163 11.4044 -6.67887e-19)
(0.68655 11.2225 0)
(0.958986 11.0509 4.01863e-20)
(1.22307 10.8886 0)
(1.47923 10.7347 6.27491e-19)
(1.72808 10.5882 -1.31573e-18)
(1.96998 10.4483 6.12629e-19)
(2.20536 10.3145 6.85525e-19)
(2.43461 10.1861 -6.04288e-19)
(2.65798 10.0624 6.77484e-19)
(2.8758 9.9429 -6.75112e-19)
(3.08841 9.82731 -7.46695e-20)
(3.29605 9.71525 6.00002e-19)
(3.49903 9.60633 -5.25388e-19)
(3.6976 9.50065 -6.00904e-19)
(3.89216 9.39771 6.01556e-19)
(4.08299 9.29739 0)
(4.27044 9.19915 -1.5096e-19)
(4.45455 9.10284 -1.49395e-19)
(4.63535 9.00809 0)
(4.81287 8.91467 1.47197e-19)
(4.98699 8.82254 -2.91428e-19)
(5.15699 8.73593 -1.40558e-19)
(-2.57281 21.8408 4.40999e-20)
(-2.79011 20.9513 2.15993e-19)
(-2.90075 20.0785 -2.15964e-19)
(-2.91794 19.2411 -4.47215e-19)
(-2.85771 18.4505 3.87768e-19)
(-2.73382 17.7136 -4.38111e-19)
(-2.56057 17.0331 8.65228e-19)
(-2.35034 16.4084 -4.79715e-19)
(-2.11332 15.8371 -4.33884e-19)
(-1.85678 15.3166 -6.14996e-20)
(-1.5883 14.8419 4.12028e-19)
(-1.3129 14.4091 4.61239e-19)
(-1.03411 14.014 5.22768e-21)
(-0.755617 13.6526 -3.38101e-19)
(-0.479375 13.3207 -8.08702e-19)
(-0.206612 13.0157 -5.25244e-20)
(0.0616129 12.7343 7.17355e-19)
(0.324434 12.4733 0)
(0.581868 12.231 0)
(0.83298 12.0046 -4.20381e-20)
(1.07814 11.7931 -6.57323e-19)
(1.3172 11.5944 6.8184e-19)
(1.55018 11.4072 5.93084e-19)
(1.77728 11.2302 -6.20561e-19)
(1.99869 11.0627 0)
(2.21461 10.9034 7.56931e-19)
(2.42534 10.7519 -1.19755e-18)
(2.63117 10.607 5.93337e-19)
(2.83223 10.4683 0)
(3.0288 10.3352 -7.36512e-20)
(3.22093 10.207 5.98478e-22)
(3.40875 10.0833 7.32912e-20)
(3.59241 9.96379 6.56875e-19)
(3.77216 9.84819 -6.57587e-19)
(3.9483 9.7364 0)
(4.12129 9.6283 -3.65899e-19)
(4.29146 9.52317 5.86525e-19)
(4.459 9.42077 -2.9326e-19)
(4.62386 9.32063 1.4686e-19)
(4.78591 9.22219 -3.64271e-19)
(4.94521 9.12531 2.8941e-19)
(5.10162 9.02996 0)
(5.25326 8.94315 1.40731e-19)
(-1.05197 21.5751 -2.20996e-19)
(-1.28421 20.8027 1.77337e-19)
(-1.4321 20.0362 0)
(-1.50261 19.2894 4.99298e-20)
(-1.50484 18.5739 5.10744e-20)
(-1.44945 17.8965 4.21292e-19)
(-1.34674 17.2613 -8.33009e-19)
(-1.20634 16.67 8.84607e-19)
(-1.03667 16.1229 -4.08368e-19)
(-0.844557 15.618 -4.63708e-19)
(-0.636381 15.1526 4.29658e-20)
(-0.41686 14.7245 3.42371e-19)
(-0.19061 14.3297 -4.81538e-20)
(0.0395503 13.9661 -4.76161e-20)
(0.270973 13.6301 0)
(0.502134 13.3196 -4.48574e-20)
(0.731931 13.0315 0)
(0.959284 12.7637 0)
(1.1834 12.5136 3.36609e-19)
(1.40336 12.2794 -3.27284e-19)
(1.61891 12.0598 0)
(1.8298 11.8533 -3.96364e-20)
(2.03579 11.6585 2.71666e-19)
(2.23721 11.4744 -3.42071e-19)
(2.43397 11.3001 3.0075e-19)
(2.6263 11.1345 -3.70726e-19)
(2.81437 10.977 2.93765e-19)
(2.99836 10.8267 5.81354e-22)
(3.17838 10.6829 5.03774e-22)
(3.35443 10.5451 -2.86937e-19)
(3.52645 10.4125 -2.1452e-19)
(3.69452 10.2848 3.56661e-19)
(3.85875 10.1616 -7.1648e-20)
(4.01946 10.0429 2.85739e-19)
(4.17702 9.92863 -2.85752e-19)
(4.33214 9.81848 4.5524e-22)
(4.48502 9.71166 0)
(4.63582 9.6078 0)
(4.7842 9.50625 0)
(4.92986 9.4068 3.57598e-19)
(5.0729 9.30935 -2.8416e-19)
(5.21294 9.21377 7.04087e-20)
(5.34754 9.12671 -2.77798e-19)
(0.182028 21.3254 0)
(-0.0635086 20.6274 -4.5978e-20)
(-0.236705 19.9313 1.94701e-19)
(-0.343115 19.2478 -2.41006e-19)
(-0.388296 18.5866 -2.54321e-19)
(-0.38023 17.9548 2.50456e-19)
(-0.328066 17.3563 0)
(-0.238661 16.7945 -5.09321e-20)
(-0.119258 16.2704 5.05548e-20)
(0.0242775 15.783 4.54816e-19)
(0.186213 15.3306 -8.88256e-19)
(0.361773 14.9109 8.24085e-19)
(0.546104 14.5218 -7.1229e-19)
(0.736733 14.1613 -4.29521e-21)
(0.931049 13.827 7.26791e-19)
(1.12795 13.517 -6.65209e-19)
(1.32602 13.2284 3.45267e-19)
(1.52363 12.9589 0)
(1.71972 12.7062 3.73325e-19)
(1.91266 12.4689 -6.88179e-19)
(2.1022 12.2459 5.95058e-19)
(2.28818 12.0359 -6.22426e-19)
(2.4708 11.8379 3.43309e-19)
(2.64982 11.6507 2.67642e-22)
(2.82506 11.4735 0)
(2.99675 11.3055 -2.92622e-19)
(3.16525 11.1458 2.8856e-19)
(3.33046 10.9932 0)
(3.49201 10.8474 3.54983e-19)
(3.65016 10.7076 -2.82078e-19)
(3.80453 10.5732 0)
(3.95519 10.444 -7.0345e-20)
(4.10226 10.3196 2.80335e-19)
(4.24628 10.2003 -2.79935e-19)
(4.38747 10.0859 6.98885e-20)
(4.52708 9.97584 7.03822e-20)
(4.6651 9.86948 0)
(4.80152 9.76583 0)
(4.93544 9.6645 0)
(5.06656 9.56559 -7.00191e-20)
(5.19536 9.46897 -1.3973e-19)
(5.32172 9.37441 2.07923e-19)
(5.44677 9.28501 -6.86569e-20)
(1.10996 21.0865 8.39716e-20)
(0.856336 20.4417 4.49159e-20)
(0.67072 19.7975 4.70273e-20)
(0.543523 19.1603 1.96233e-19)
(0.47298 18.5411 -1.92863e-19)
(0.452135 17.9447 -4.972e-20)
(0.471482 17.3757 0)
(0.526143 16.8386 -1.51818e-19)
(0.610958 16.3354 3.46605e-19)
(0.721697 15.8648 -1.45227e-19)
(0.851325 15.4255 4.84744e-20)
(0.996409 15.0163 3.82789e-19)
(1.14964 14.6346 -6.99243e-19)
(1.31126 14.2803 4.08539e-19)
(1.47834 13.9509 3.58939e-19)
(1.64989 13.6447 -6.98373e-19)
(1.8249 13.3588 6.82667e-19)
(2.00073 13.0903 -6.67508e-19)
(2.1753 12.8373 5.71327e-19)
(2.34708 12.5995 -2.78656e-19)
(2.51595 12.3759 -2.35578e-19)
(2.6827 12.1656 2.68165e-19)
(2.84724 11.9669 -3.7609e-20)
(3.00816 11.7788 7.41821e-20)
(3.16582 11.6012 -7.28589e-20)
(3.32108 11.4333 7.18974e-20)
(3.47402 11.2733 -7.10998e-20)
(3.62377 11.1203 2.82592e-19)
(3.77014 10.9744 -2.79927e-19)
(3.91365 10.8345 -2.78355e-19)
(4.05316 10.6998 -4.30596e-22)
(4.18893 10.5705 -3.71696e-22)
(4.32134 10.4468 2.75234e-19)
(4.45114 10.3284 0)
(4.57822 10.2151 -6.90379e-20)
(4.70515 10.107 0)
(4.83079 10.002 0)
(4.95516 9.89987 -1.38272e-19)
(5.0763 9.79962 1.38226e-19)
(5.1943 9.70253 6.91767e-20)
(5.31033 9.60808 -1.37544e-19)
(5.42279 9.51661 6.8233e-20)
(5.53383 9.42921 1.36122e-19)
(1.86558 20.8697 -8.69429e-20)
(1.60144 20.2632 1.76955e-19)
(1.40822 19.6628 4.27791e-21)
(1.26634 19.0593 9.89828e-20)
(1.17761 18.4727 6.37333e-21)
(1.13651 17.9057 -1.90791e-19)
(1.13096 17.3585 4.8722e-20)
(1.15746 16.841 0)
(1.21543 16.3554 0)
(1.30263 15.8995 -1.2715e-22)
(1.40556 15.471 -1.43211e-19)
(1.52829 15.0737 -2.65595e-21)
(1.65572 14.6994 1.81093e-19)
(1.7948 14.3529 1.35044e-19)
(1.93973 14.0285 -2.18018e-19)
(2.09173 13.7274 1.29528e-19)
(2.24904 13.4455 -3.77473e-19)
(2.40847 13.1782 1.63666e-19)
(2.56556 12.9265 -2.82258e-19)
(2.71959 12.6897 6.29827e-19)
(2.87145 12.4673 -3.85045e-19)
(3.02293 12.2583 -2.65685e-19)
(3.17322 12.06 3.34319e-19)
(3.31815 11.8715 -3.6689e-20)
(3.46062 11.6949 7.22742e-20)
(3.60264 11.5286 -7.13031e-20)
(3.74327 11.3689 5.06239e-22)
(3.88062 11.2171 2.78579e-19)
(4.0145 11.0727 -3.44754e-19)
(4.14643 10.9339 -6.82708e-20)
(4.27312 10.7994 0)
(4.3962 10.6713 0)
(4.51615 10.5494 -6.751e-20)
(4.63433 10.433 -1.35498e-19)
(4.74888 10.3216 2.03511e-19)
(4.8662 10.2167 -6.74294e-20)
(4.98109 10.113 -2.71656e-19)
(5.0957 10.0133 -1.13461e-22)
(5.20533 9.91425 1.36051e-19)
(5.31184 9.81981 0)
(5.41757 9.72788 0)
(5.51759 9.63839 0)
(5.62081 9.55111 0)
(2.39885 20.6659 7.7387e-20)
(2.12414 20.0731 8.56814e-20)
(1.94721 19.529 -4.62176e-20)
(1.81632 18.9484 0)
(1.71947 18.3862 9.39991e-20)
(1.66481 17.8513 -1.4517e-19)
(1.6507 17.3175 4.26319e-20)
(1.66575 16.8186 -3.8059e-21)
(1.71214 16.3484 1.8344e-19)
(1.78632 15.9046 2.24112e-19)
(1.86446 15.4834 -4.23912e-20)
(1.97413 15.109 -9.0072e-20)
(2.08178 14.7359 -4.47423e-20)
(2.20987 14.4012 -1.76947e-19)
(2.33977 14.0792 2.16932e-19)
(2.48123 13.7838 4.28671e-20)
(2.62885 13.5097 -4.12893e-20)
(2.77798 13.2424 1.55187e-19)
(2.9184 12.9957 1.57535e-19)
(3.05664 12.7596 -1.55765e-19)
(3.19521 12.5381 -3.88645e-20)
(3.33578 12.331 1.51261e-19)
(3.47466 12.1331 7.40983e-20)
(3.60338 11.9431 0)
(3.73467 11.7695 7.26994e-20)
(3.86898 11.6068 6.99048e-20)
(4.00074 11.4471 6.7787e-20)
(4.12586 11.2995 -6.87235e-20)
(4.24727 11.1563 1.36574e-19)
(4.36989 11.0185 -6.73249e-20)
(4.48303 10.8832 3.37287e-19)
(4.59402 10.7576 -1.35971e-19)
(4.70207 10.6384 2.05339e-19)
(4.80945 10.5239 -2.04716e-19)
(4.91044 10.4119 6.95743e-20)
(5.022 10.312 1.88504e-22)
(5.12727 10.2069 2.00733e-19)
(5.2353 10.1137 0)
(5.33379 10.0146 -6.52744e-20)
(5.42911 9.9245 1.35662e-19)
(5.52581 9.83496 0)
(5.61067 9.74647 0)
(5.70657 9.66657 6.71666e-20)
(-2.63763 -3.31384 0)
(-2.70771 -3.32025 0)
(-2.76029 -3.32949 5.77558e-21)
(-2.79471 -3.33904 5.82241e-21)
(-2.81142 -3.34872 -5.09593e-23)
(-2.81097 -3.35841 5.18823e-23)
(-2.79399 -3.368 2.44252e-22)
(-2.76112 -3.37734 -7.40249e-21)
(-2.71306 -3.38629 0)
(-2.6505 -3.39471 7.34127e-22)
(-2.57416 -3.40247 -3.29057e-20)
(-2.48477 -3.40944 0)
(-2.38302 -3.41549 8.69516e-21)
(-2.26965 -3.42049 0)
(-2.14534 -3.42432 -9.22494e-21)
(-2.01078 -3.42687 2.53841e-20)
(-1.86661 -3.42801 -2.10504e-20)
(-1.71348 -3.42766 -2.61504e-22)
(-1.55201 -3.42573 -5.11826e-21)
(-1.38278 -3.42215 5.28685e-21)
(-1.2063 -3.41688 5.47143e-21)
(-1.0231 -3.40989 5.67228e-21)
(-0.833659 -3.40112 -5.88661e-21)
(-0.638397 -3.3905 -6.81133e-21)
(-0.437653 -3.378 -3.58475e-21)
(-0.231698 -3.36354 3.78456e-21)
(-0.0207686 -3.34707 0)
(0.194953 -3.32851 0)
(0.41537 -3.30772 0)
(0.640427 -3.28453 4.1785e-21)
(0.870178 -3.25865 -2.60189e-20)
(1.10484 -3.22966 2.26221e-20)
(1.34483 -3.19684 1.46632e-20)
(1.59103 -3.15913 -1.32997e-20)
(1.84509 -3.11477 0)
(2.11046 -3.06096 -4.41308e-21)
(2.39438 -2.99327 8.9129e-21)
(2.71254 -2.90525 -9.20615e-21)
(3.10081 -2.78771 -4.2502e-20)
(3.64843 -2.62816 4.98644e-20)
(4.5876 -2.41615 -5.46593e-21)
(6.572 -2.20129 -8.61115e-20)
(11.8073 -2.36247 1.03764e-19)
(-2.67393 -3.32772 0)
(-2.73637 -3.33543 5.14119e-21)
(-2.78285 -3.34386 -1.05004e-20)
(-2.81387 -3.35227 -6.18967e-21)
(-2.82991 -3.36062 -5.93274e-21)
(-2.83138 -3.36885 6.23837e-21)
(-2.81869 -3.37693 6.82101e-21)
(-2.79224 -3.38479 -6.7593e-21)
(-2.75243 -3.39236 7.22687e-21)
(-2.69969 -3.39957 3.59657e-22)
(-2.63444 -3.40634 2.33501e-20)
(-2.55713 -3.41261 -2.36504e-20)
(-2.46817 -3.41833 7.61489e-21)
(-2.36797 -3.42345 0)
(-2.2569 -3.42788 -1.72562e-20)
(-2.13534 -3.43155 1.30822e-20)
(-2.00364 -3.43435 0)
(-1.86214 -3.43617 5.05201e-21)
(-1.71119 -3.43689 0)
(-1.55111 -3.43638 0)
(-1.38218 -3.43453 0)
(-1.20459 -3.43121 -5.85195e-21)
(-1.01847 -3.42629 0)
(-0.823901 -3.4196 3.80784e-20)
(-0.620904 -3.41094 -4.25583e-20)
(-0.409387 -3.40001 3.14287e-20)
(-0.18912 -3.38645 0)
(0.0403019 -3.36978 0)
(0.27953 -3.34939 0)
(0.529522 -3.32446 1.7833e-20)
(0.791719 -3.29394 -3.34121e-20)
(1.06841 -3.25633 3.07503e-20)
(1.36314 -3.2096 -1.6655e-20)
(1.68152 -3.15105 0)
(2.0328 -3.07696 6.37653e-21)
(2.43236 -2.98233 -1.34034e-20)
(2.90638 -2.86064 7.31871e-21)
(3.50077 -2.7045 -3.32819e-21)
(4.30293 -2.50743 0)
(5.48475 -2.27328 -1.94169e-20)
(7.39061 -2.05087 3.45268e-20)
(10.7317 -2.01404 0)
(16.9312 -2.60158 2.26616e-22)
(-2.70452 -3.33176 8.51026e-21)
(-2.75848 -3.33765 0)
(-2.79889 -3.3443 7.76071e-21)
(-2.82577 -3.35103 -1.19546e-20)
(-2.8394 -3.35776 4.42377e-21)
(-2.84005 -3.36444 -6.10241e-21)
(-2.82797 -3.37104 -9.24608e-21)
(-2.80337 -3.37751 2.2825e-20)
(-2.76648 -3.38375 -6.69425e-21)
(-2.71755 -3.38967 7.17641e-21)
(-2.65683 -3.39518 -1.47019e-20)
(-2.58462 -3.40017 -1.28948e-22)
(-2.50117 -3.40457 1.60519e-20)
(-2.40673 -3.40831 -3.64745e-21)
(-2.30147 -3.41132 4.6184e-21)
(-2.18556 -3.41347 -1.32743e-20)
(-2.0591 -3.41463 0)
(-1.92222 -3.41462 0)
(-1.77499 -3.41323 0)
(-1.61752 -3.41024 2.12494e-20)
(-1.44987 -3.40539 -2.19522e-20)
(-1.27206 -3.39843 -1.19368e-20)
(-1.08402 -3.38912 2.4211e-20)
(-0.885512 -3.37723 1.94385e-20)
(-0.676067 -3.36239 -3.33102e-20)
(-0.455011 -3.34414 -1.38839e-20)
(-0.221361 -3.32185 2.23472e-20)
(0.0261134 -3.2947 -2.35699e-20)
(0.289141 -3.26164 0)
(0.57021 -3.22133 2.19497e-20)
(0.872762 -3.1721 -1.87076e-20)
(1.20176 -3.11179 1.46226e-20)
(1.56436 -3.03764 -2.6617e-22)
(1.97101 -2.9463 -1.06395e-20)
(2.43762 -2.83363 1.11618e-22)
(2.98922 -2.6948 5.93742e-21)
(3.66633 -2.5247 -5.82927e-22)
(4.53587 -2.3198 1.1558e-20)
(5.71107 -2.08341 1.94107e-21)
(7.38657 -1.83963 -3.00483e-20)
(9.89288 -1.66542 -8.40355e-22)
(13.788 -1.75712 9.24891e-22)
(19.6664 -2.49876 1.08769e-20)
(-2.72576 -3.32517 4.09029e-21)
(-2.77256 -3.32918 -8.7637e-21)
(-2.80754 -3.33362 4.58251e-21)
(-2.83067 -3.33797 6.4191e-21)
(-2.84216 -3.34216 -6.40163e-21)
(-2.84218 -3.34618 0)
(-2.83086 -3.34999 5.98185e-21)
(-2.80826 -3.35357 2.75649e-21)
(-2.77442 -3.35685 -9.29001e-21)
(-2.72939 -3.35973 0)
(-2.67326 -3.36206 -3.34961e-21)
(-2.60614 -3.36371 7.24585e-21)
(-2.52817 -3.3646 -1.48632e-20)
(-2.43942 -3.36465 7.80223e-21)
(-2.33989 -3.3638 0)
(-2.22951 -3.36197 -2.12146e-20)
(-2.10814 -3.359 3.49504e-20)
(-1.97562 -3.3547 -3.20055e-20)
(-1.83171 -3.34883 1.89e-20)
(-1.67618 -3.34105 1.52153e-20)
(-1.50879 -3.33094 -1.56097e-20)
(-1.3293 -3.31804 -5.56693e-21)
(-1.13748 -3.30195 2.32334e-20)
(-0.932842 -3.28232 -2.41436e-20)
(-0.714517 -3.25876 0)
(-0.481198 -3.23071 1.33986e-20)
(-0.231176 -3.19732 -2.82239e-20)
(0.0376856 -3.15749 1.49997e-20)
(0.328129 -3.10992 -2.32627e-20)
(0.643926 -3.05305 1.22844e-20)
(0.990143 -2.98496 -8.41429e-21)
(1.3738 -2.90329 -4.54197e-21)
(1.80486 -2.80526 -9.2615e-21)
(2.29768 -2.68767 7.21293e-21)
(2.87364 -2.5469 2.5105e-21)
(3.5649 -2.37944 2.81467e-21)
(4.42074 -2.18304 1.8629e-21)
(5.51777 -1.95953 8.89582e-21)
(6.97591 -1.72201 4.33603e-21)
(8.9823 -1.50907 6.00628e-21)
(11.8242 -1.41093 -3.28852e-21)
(15.8927 -1.61307 0)
(21.3947 -2.40822 2.17344e-21)
(-2.73999 -3.31142 -3.83541e-21)
(-2.78 -3.31304 2.08771e-21)
(-2.80979 -3.31513 -2.12837e-21)
(-2.82917 -3.31698 5.66498e-21)
(-2.83825 -3.31849 8.59797e-21)
(-2.83711 -3.3197 0)
(-2.82578 -3.32057 0)
(-2.80418 -3.3211 -5.83009e-21)
(-2.77219 -3.32127 6.08422e-21)
(-2.72968 -3.32096 2.99969e-21)
(-2.67651 -3.31998 3.30198e-21)
(-2.61265 -3.31814 3.26646e-21)
(-2.53816 -3.31525 -3.69875e-21)
(-2.45304 -3.31125 1.44894e-20)
(-2.35719 -3.30608 7.71439e-21)
(-2.25034 -3.29968 -1.2023e-20)
(-2.13219 -3.29191 8.21077e-21)
(-2.00234 -3.28258 4.36556e-21)
(-1.86029 -3.27147 -1.37396e-20)
(-1.70542 -3.25825 2.85464e-20)
(-1.53699 -3.24245 -1.98672e-20)
(-1.35442 -3.22325 0)
(-1.15741 -3.19992 0)
(-0.945555 -3.17199 0)
(-0.717801 -3.13919 -5.96359e-21)
(-0.47231 -3.10115 -1.98127e-22)
(-0.206484 -3.05703 -6.60344e-21)
(0.0826576 -3.00552 7.10226e-21)
(0.398708 -2.9451 2.92046e-20)
(0.746374 -2.87418 -7.44085e-21)
(1.13225 -2.79075 1.5908e-20)
(1.56517 -2.69245 7.73789e-21)
(2.05726 -2.57664 -4.24248e-21)
(2.62562 -2.44058 3.80601e-21)
(3.29523 -2.28167 0)
(4.10269 -2.09823 0)
(5.10205 -1.89097 -6.46324e-22)
(6.37318 -1.66623 -9.26504e-21)
(8.03372 -1.44416 4.26368e-21)
(10.2558 -1.27155 0)
(13.2815 -1.2437 0)
(17.3829 -1.52855 0)
(22.582 -2.3437 -1.08441e-20)
(-2.74751 -3.29235 0)
(-2.78155 -3.29163 -1.93637e-21)
(-2.80657 -3.29132 -1.91819e-21)
(-2.8224 -3.29066 -4.99175e-21)
(-2.82908 -3.28954 -4.15815e-21)
(-2.8266 -3.28797 1.83291e-23)
(-2.81495 -3.28589 0)
(-2.79391 -3.28336 2.68583e-21)
(-2.76328 -3.28037 -2.70522e-21)
(-2.72276 -3.27684 -2.96174e-21)
(-2.6719 -3.27262 -2.91331e-21)
(-2.6105 -3.26736 -6.27002e-21)
(-2.5385 -3.26079 -1.79958e-22)
(-2.45601 -3.25278 -3.51121e-21)
(-2.36284 -3.24327 -7.25381e-21)
(-2.25854 -3.23224 3.55477e-21)
(-2.14267 -3.21955 0)
(-2.01476 -3.20503 0)
(-1.87405 -3.18845 -1.30512e-20)