/*--------------------------------*- C++ -*----------------------------------*\
| =========                 |                                                 |
| \\      /  F ield         | OpenFOAM: The Open Source CFD Toolbox           |
|  \\    /   O peration     | Version:  2.3.0                                 |
|   \\  /    A nd           | Web:      www.OpenFOAM.org                      |
|    \\/     M anipulation  |                                                 |
\*---------------------------------------------------------------------------*/
FoamFile
{
    version     2.0;
    format      ascii;
    class       volScalarField;
    location    "100";
    object      p;
}
// * * * * * * * * * * * * * * * * * * * * * * * * * * * * * * * * * * * * * //

dimensions      [0 2 -2 0 0 0 0];

internalField   nonuniform List<scalar> 
28256
(
-1.24915
19.8107
35.365
49.0269
60.3634
68.5046
73.2208
75.262
74.2967
71.044
65.9977
58.8756
50.4309
40.1459
28.6377
14.8725
1.37185
-14.5368
-23.4681
-33.7378
-7.59614
8.39125
19.4075
29.0014
37.114
43.4397
47.8558
50.3693
50.2532
47.4694
41.471
32.3495
19.9593
5.19862
-12.2016
-31.2324
-51.3923
-71.5665
-93.7577
-113.043
-14.6343
-2.36492
4.91122
10.3862
13.7689
14.6417
13.2002
9.22238
3.08388
-4.84668
-14.3554
-24.8797
-36.2808
-47.8668
-60.109
-71.7667
-83.8659
-95.1041
-106.317
-116.794
-23.6887
-12.8543
-8.28316
-5.60593
-4.74308
-5.89191
-8.77396
-13.4239
-19.5101
-26.7351
-34.9917
-44.0329
-53.5834
-63.2896
-73.2769
-83.0509
-92.763
-102.228
-111.531
-120.232
-32.9925
-23.2944
-20.7385
-20.1547
-21.2417
-23.9695
-28.0903
-33.4199
-39.6518
-46.5713
-53.9666
-61.6299
-69.3937
-77.1899
-84.9412
-92.6227
-100.137
-107.408
-114.569
-121.443
-41.8654
-32.9655
-31.7861
-32.5445
-34.6131
-37.8918
-42.205
-47.2933
-52.9934
-59.0729
-65.3985
-71.9105
-78.5169
-85.1154
-91.6601
-98.1346
-104.482
-110.693
-116.827
-122.79
-49.1048
-42.1071
-41.7942
-43.2938
-45.8631
-49.3305
-53.5429
-58.2798
-63.4232
-68.8059
-74.3608
-79.9917
-85.6337
-91.2513
-96.8161
-102.316
-107.797
-113.168
-118.407
-123.533
-53.6626
-50.0505
-50.5108
-52.3612
-55.0832
-58.4954
-62.4678
-66.82
-71.4371
-76.2149
-81.0934
-86.0313
-90.9769
-95.9196
-100.854
-105.729
-110.536
-115.26
-119.909
-124.465
-57.1055
-57.0242
-58.1109
-60.1392
-62.8616
-66.08
-69.7091
-73.6226
-77.7507
-82.0279
-86.3776
-90.7758
-95.1953
-99.6011
-103.973
-108.29
-112.553
-116.797
-120.955
-125.036
-63.9813
-63.7192
-64.8753
-66.8696
-69.425
-72.4278
-75.7664
-79.3257
-83.0433
-86.8718
-90.7884
-94.7434
-98.7066
-102.687
-106.63
-110.593
-114.461
-118.28
-122.048
-125.744
-71.4934
-69.8689
-70.8573
-72.78
-75.1584
-77.8539
-80.8269
-84.0284
-87.3911
-90.8736
-94.4232
-98.0263
-101.626
-105.264
-108.841
-112.412
-115.968
-119.455
-122.857
-126.245
-77.5933
-75.2537
-76.1989
-77.9802
-80.1401
-82.5883
-85.2852
-88.1844
-91.2227
-94.3571
-97.559
-100.827
-104.121
-107.429
-110.739
-113.983
-117.214
-120.422
-123.588
-126.675
-80.8779
-79.8645
-80.9624
-82.6523
-84.5937
-86.7851
-89.1999
-91.7951
-94.5323
-97.3997
-100.356
-103.354
-106.368
-109.39
-112.417
-115.434
-118.414
-121.336
-124.248
-127.096
-85.333
-84.6599
-85.5651
-87.0189
-88.7334
-90.6732
-92.8067
-95.143
-97.615
-100.189
-102.845
-105.547
-108.28
-111.047
-113.808
-116.551
-119.299
-122.009
-124.664
-127.289
-89.9389
-89.1907
-89.8652
-91.0767
-92.5481
-94.2544
-96.1554
-98.2058
-100.404
-102.712
-105.112
-107.591
-110.101
-112.632
-115.162
-117.684
-120.17
-122.644
-125.115
-127.539
-93.7458
-93.537
-94.0557
-95.0274
-96.2397
-97.6594
-99.2745
-101.059
-103.002
-105.034
-107.166
-109.356
-111.58
-113.861
-116.144
-118.416
-120.706
-122.972
-125.206
-127.43
-97.2239
-97.4149
-97.873
-98.6632
-99.6635
-100.873
-102.277
-103.826
-105.524
-107.343
-109.26
-111.232
-113.236
-115.296
-117.39
-119.453
-121.53
-123.577
-125.624
-127.651
-101.1
-100.976
-101.254
-101.843
-102.564
-103.455
-104.491
-105.723
-107.079
-108.563
-110.119
-111.801
-113.542
-115.359
-117.24
-119.126
-121.008
-122.897
-124.772
-126.661
-105.304
-105.118
-105.35
-106.054
-106.799
-107.738
-108.831
-110.114
-111.476
-112.937
-114.331
-115.784
-117.302
-118.95
-120.684
-122.35
-123.898
-125.431
-126.959
-128.631
-108.157
-105.872
-104.264
-103.344
-102.818
-102.416
-102.158
-102.518
-102.915
-104.151
-105.753
-106.908
-107.863
-108.805
-110.58
-113.133
-115.789
-117.578
-118.891
-120.245
-101.7
-147.505
-176.705
-199.341
-220.108
-237.422
-252.299
-264.318
-273.741
-280.78
-285.397
-287.712
-287.562
-284.909
-279.669
-271.945
-262.016
-250.415
-237.546
-228.137
-130.461
-148.599
-169.282
-187.609
-205.426
-221.705
-235.601
-247.847
-257.293
-264.176
-268.079
-269.5
-268.449
-265.348
-260.566
-254.338
-246.887
-238.307
-228.539
-222.907
-126.852
-136.559
-147.123
-158.104
-168.529
-179.277
-189.517
-199.686
-209.032
-217.737
-225.081
-231.051
-235.314
-237.569
-237.838
-236.055
-232.454
-227.174
-220.358
-216.37
-128.636
-137.196
-145.708
-154.322
-162.947
-171.48
-179.842
-187.885
-195.389
-202.453
-208.553
-213.724
-217.8
-220.484
-221.872
-221.751
-220.175
-217.093
-212.5
-208.94
-128.089
-134.743
-141.387
-148.058
-154.713
-161.234
-167.762
-174.212
-180.424
-186.419
-192.047
-197.163
-201.542
-205.117
-207.633
-208.967
-209.058
-207.816
-205.187
-202.455
-128.639
-134.404
-140.082
-145.695
-151.239
-156.751
-162.177
-167.501
-172.685
-177.665
-182.419
-186.819
-190.798
-194.197
-196.914
-198.824
-199.769
-199.702
-198.552
-198.041
-128.563
-133.503
-138.422
-143.257
-148.021
-152.668
-157.314
-161.854
-166.271
-170.545
-174.643
-178.529
-182.148
-185.42
-188.189
-190.374
-191.85
-192.521
-192.251
-192.666
-128.935
-133.298
-137.614
-141.818
-146.013
-150.1
-154.075
-157.973
-161.785
-165.526
-169.128
-172.585
-175.824
-178.789
-181.417
-183.622
-185.294
-186.347
-186.698
-187.817
-129.066
-132.987
-136.833
-140.57
-144.271
-147.92
-151.492
-154.963
-158.327
-161.62
-164.813
-167.822
-170.717
-173.424
-175.894
-178.064
-179.837
-181.092
-181.818
-183.33
-129.327
-132.874
-136.403
-139.818
-143.123
-146.34
-149.517
-152.662
-155.688
-158.632
-161.484
-164.238
-166.842
-169.287
-171.548
-173.565
-175.287
-176.644
-177.587
-179.245
-129.574
-132.808
-135.95
-139.023
-142.054
-145.039
-147.934
-150.766
-153.482
-156.159
-158.728
-161.204
-163.57
-165.828
-167.903
-169.802
-171.454
-172.788
-173.851
-175.598
-129.719
-132.687
-135.624
-138.471
-141.287
-143.983
-146.613
-149.197
-151.702
-154.139
-156.513
-158.793
-160.96
-162.999
-164.903
-166.636
-168.159
-169.45
-170.535
-172.265
-129.909
-132.642
-135.333
-137.926
-140.471
-142.977
-145.428
-147.811
-150.139
-152.387
-154.543
-156.609
-158.592
-160.483
-162.248
-163.869
-165.309
-166.512
-167.564
-169.239
-129.881
-132.415
-134.904
-137.327
-139.703
-142.03
-144.302
-146.507
-148.65
-150.738
-152.758
-154.704
-156.564
-158.3
-159.922
-161.388
-162.683
-163.808
-164.808
-166.354
-129.927
-132.257
-134.532
-136.777
-138.97
-141.108
-143.213
-145.252
-147.241
-149.177
-151.064
-152.848
-154.548
-156.157
-157.657
-159.042
-160.244
-161.247
-162.172
-163.685
-129.625
-131.801
-133.937
-136.011
-138.056
-140.053
-142.007
-143.934
-145.811
-147.612
-149.356
-151.04
-152.657
-154.159
-155.572
-156.847
-157.981
-158.944
-159.827
-161.6
-129.651
-131.632
-133.562
-135.479
-137.359
-139.197
-140.995
-142.748
-144.455
-146.101
-147.722
-149.26
-150.732
-152.13
-153.447
-154.642
-155.732
-156.674
-157.579
-158.963
-128.556
-130.424
-132.249
-134.085
-135.898
-137.703
-139.427
-141.088
-142.701
-144.28
-145.789
-147.274
-148.66
-149.965
-151.216
-152.367
-153.411
-154.343
-155.269
-156.6
-130.385
-132.089
-133.666
-135.223
-136.765
-138.355
-139.744
-141.141
-142.507
-143.818
-145.05
-146.38
-147.522
-148.617
-149.776
-150.772
-151.708
-152.577
-153.331
-154.116
-122.226
-123.93
-124.869
-126.132
-129.23
-132.461
-134.765
-135.599
-136.768
-137.76
-139.528
-141.82
-142.997
-143.609
-145.141
-146.119
-146.595
-147.339
-147.719
-147.401
-163.367
-162.094
-161.838
-162.241
-163.143
-164.47
-166.263
-168.625
-171.693
-175.565
-180.298
-185.829
-192.092
-199.048
-206.66
-214.829
-223.733
-234.673
-251.533
-272.275
-164.716
-164.216
-164.563
-165.523
-166.804
-168.128
-169.24
-169.919
-170.028
-169.471
-168.256
-166.408
-164.06
-161.264
-158.175
-154.837
-151.373
-147.847
-144.428
-141.136
-167.271
-167.558
-168.042
-168.887
-169.867
-170.816
-171.647
-172.307
-172.781
-173.008
-172.969
-172.609
-171.916
-170.85
-169.455
-167.682
-165.588
-163.127
-160.34
-157.272
-169.72
-170.658
-171.068
-171.635
-172.164
-172.499
-172.534
-172.203
-171.499
-170.431
-169.057
-167.394
-165.506
-163.385
-161.075
-158.545
-155.839
-152.906
-149.792
-146.511
-172.514
-173.733
-174.074
-174.463
-174.806
-174.99
-174.982
-174.744
-174.295
-173.605
-172.693
-171.521
-170.111
-168.422
-166.487
-164.269
-161.811
-159.087
-156.143
-152.992
-175.705
-176.904
-177.047
-177.211
-177.29
-177.194
-176.874
-176.32
-175.525
-174.503
-173.247
-171.777
-170.073
-168.16
-166.016
-163.671
-161.107
-158.365
-155.427
-152.369
-179.625
-179.921
-179.913
-179.9
-179.802
-179.568
-179.161
-178.577
-177.801
-176.837
-175.662
-174.286
-172.685
-170.878
-168.844
-166.614
-164.174
-161.562
-158.766
-155.848
-183.086
-182.952
-182.688
-182.468
-182.189
-181.788
-181.235
-180.517
-179.618
-178.54
-177.267
-175.808
-174.144
-172.297
-170.25
-168.032
-165.633
-163.089
-160.39
-157.591
-185.484
-185.51
-185.2
-184.867
-184.461
-183.961
-183.321
-182.546
-181.606
-180.511
-179.23
-177.785
-176.149
-174.347
-172.36
-170.221
-167.915
-165.481
-162.906
-160.24
-187.634
-187.757
-187.469
-187.063
-186.571
-185.979
-185.267
-184.417
-183.426
-182.277
-180.976
-179.506
-177.88
-176.089
-174.151
-172.06
-169.843
-167.493
-165.04
-162.486
-189.994
-190.218
-189.729
-189.182
-188.596
-187.921
-187.149
-186.249
-185.225
-184.052
-182.746
-181.284
-179.688
-177.937
-176.061
-174.043
-171.917
-169.668
-167.331
-164.897
-192.486
-192.29
-191.753
-191.148
-190.488
-189.756
-188.926
-187.988
-186.928
-185.746
-184.43
-182.987
-181.409
-179.709
-177.882
-175.946
-173.897
-171.757
-169.52
-167.213
-193.686
-194.042
-193.587
-192.957
-192.253
-191.481
-190.617
-189.653
-188.577
-187.39
-186.082
-184.662
-183.121
-181.472
-179.709
-177.85
-175.889
-173.847
-171.718
-169.525
-195.6
-195.883
-195.376
-194.689
-193.938
-193.127
-192.232
-191.248
-190.162
-188.978
-187.685
-186.291
-184.79
-183.194
-181.497
-179.715
-177.843
-175.899
-173.875
-171.792
-198.324
-198.028
-197.25
-196.433
-195.603
-194.736
-193.805
-192.8
-191.707
-190.528
-189.255
-187.893
-186.436
-184.896
-183.267
-181.563
-179.778
-177.927
-176.006
-174.032
-200.506
-199.84
-198.959
-198.073
-197.185
-196.277
-195.318
-194.298
-193.202
-192.033
-190.78
-189.451
-188.039
-186.554
-184.992
-183.364
-181.666
-179.91
-178.091
-176.223
-202.279
-201.295
-200.416
-199.538
-198.645
-197.73
-196.769
-195.753
-194.672
-193.525
-192.303
-191.014
-189.651
-188.224
-186.73
-185.179
-183.568
-181.904
-180.182
-178.412
-203.465
-202.924
-201.935
-200.992
-200.073
-199.145
-198.174
-197.149
-196.065
-194.926
-193.719
-192.456
-191.127
-189.745
-188.314
-186.842
-185.321
-183.755
-182.131
-180.459
-205.252
-204.128
-203.125
-202.257
-201.404
-200.55
-199.661
-198.704
-197.666
-196.587
-195.436
-194.231
-192.933
-191.583
-190.205
-188.805
-187.388
-185.968
-184.471
-182.821
-206.726
-205.546
-204.834
-204.025
-202.913
-201.873
-200.893
-199.672
-198.412
-197.291
-196.119
-194.889
-193.423
-192.023
-190.829
-189.7
-188.548
-187.316
-185.369
-183.077
-264.15
-237.228
-218.223
-205.732
-195.801
-187.04
-179.239
-172.272
-166.051
-160.511
-155.637
-151.444
-147.945
-145.132
-142.932
-141.212
-139.761
-138.334
-136.67
-135.107
-138.503
-136.52
-134.925
-133.806
-133.083
-132.716
-132.666
-132.935
-133.488
-134.275
-135.204
-136.16
-137.013
-137.651
-138.008
-138.065
-137.824
-137.248
-136.222
-135.133
-154.179
-151.197
-148.51
-146.124
-144.06
-142.282
-140.77
-139.491
-138.41
-137.513
-136.787
-136.258
-135.935
-135.82
-135.874
-136.005
-136.085
-135.959
-135.428
-134.556
-143.259
-140.179
-137.445
-135.101
-133.169
-131.658
-130.581
-129.924
-129.663
-129.76
-130.152
-130.764
-131.512
-132.31
-133.084
-133.768
-134.298
-134.576
-134.463
-133.878
-149.802
-146.677
-143.778
-141.134
-138.791
-136.737
-135
-133.577
-132.477
-131.685
-131.195
-130.995
-131.056
-131.349
-131.814
-132.374
-132.93
-133.361
-133.509
-133.112
-149.256
-146.238
-143.392
-140.791
-138.435
-136.365
-134.586
-133.122
-131.97
-131.135
-130.6
-130.346
-130.348
-130.562
-130.943
-131.436
-131.966
-132.437
-132.701
-132.414
-152.86
-149.924
-147.097
-144.448
-141.979
-139.729
-137.705
-135.936
-134.428
-133.193
-132.233
-131.548
-131.126
-130.953
-130.999
-131.215
-131.537
-131.876
-132.087
-131.649
-154.731
-151.907
-149.169
-146.571
-144.118
-141.85
-139.768
-137.906
-136.272
-134.88
-133.735
-132.839
-132.188
-131.767
-131.558
-131.526
-131.622
-131.782
-131.897
-131.514
-157.504
-154.791
-152.127
-149.572
-147.118
-144.809
-142.648
-140.671
-138.88
-137.3
-135.93
-134.785
-133.864
-133.167
-132.675
-132.37
-132.214
-132.151
-132.097
-131.706
-159.889
-157.279
-154.721
-152.226
-149.823
-147.522
-145.351
-143.319
-141.45
-139.754
-138.247
-136.934
-135.821
-134.908
-134.187
-133.644
-133.246
-132.957
-132.703
-132.195
-162.423
-159.925
-157.464
-155.038
-152.687
-150.406
-148.232
-146.166
-144.241
-142.453
-140.831
-139.373
-138.096
-136.993
-136.069
-135.306
-134.685
-134.17
-133.696
-132.995
-164.848
-162.472
-160.1
-157.767
-155.472
-153.243
-151.087
-149.026
-147.068
-145.236
-143.535
-141.98
-140.577
-139.333
-138.242
-137.297
-136.48
-135.763
-135.097
-134.246
-167.276
-165.01
-162.739
-160.493
-158.271
-156.099
-153.98
-151.938
-149.978
-148.122
-146.376
-144.753
-143.26
-141.902
-140.678
-139.582
-138.599
-137.697
-136.83
-135.805
-169.656
-167.5
-165.332
-163.179
-161.039
-158.936
-156.872
-154.868
-152.93
-151.076
-149.311
-147.65
-146.098
-144.663
-143.344
-142.134
-141.02
-139.982
-138.98
-137.899
-172.007
-169.96
-167.898
-165.84
-163.788
-161.763
-159.765
-157.816
-155.918
-154.089
-152.335
-150.668
-149.091
-147.613
-146.233
-144.95
-143.753
-142.621
-141.515
-140.355
-174.309
-172.372
-170.417
-168.461
-166.505
-164.567
-162.649
-160.769
-158.93
-157.147
-155.423
-153.77
-152.189
-150.689
-149.264
-147.912
-146.619
-145.348
-143.993
-142.517
-176.602
-174.769
-172.916
-171.057
-169.191
-167.337
-165.494
-163.688
-161.919
-160.202
-158.534
-156.928
-155.384
-153.909
-152.501
-151.158
-149.867
-148.603
-147.283
-145.952
-178.762
-177.051
-175.32
-173.57
-171.801
-170.053
-168.311
-166.619
-164.97
-163.361
-161.78
-160.243
-158.752
-157.313
-155.92
-154.581
-153.256
-151.91
-150.497
-149.062
-181.131
-179.44
-177.798
-176.186
-174.542
-172.881
-171.044
-169.315
-167.668
-166.124
-164.612
-163.158
-161.758
-160.407
-159.115
-157.943
-156.751
-155.491
-154.257
-153.094
-181.8
-181.52
-180.867
-179.173
-176.384
-173.963
-172.198
-171.658
-171.439
-170.673
-169.294
-167.811
-166.302
-165.013
-163.947
-163.144
-161.613
-160.041
-158.837
-157.209
515.04
508.599
495.927
480.895
465.25
452.604
435.903
414.362
389.074
360.79
329.352
295.137
258.444
219.928
180.854
142.416
105.871
72.3954
41.9609
12.5019
41.2041
41.6026
42.9739
44.7342
46.8288
48.6526
48.5361
47.7285
47.6916
47.7929
47.7138
47.3933
46.6721
45.3221
42.9695
39.1368
33.38
25.2941
14.5075
0.195168
52.0211
52.075
52.2266
52.4818
52.8012
53.0247
52.9075
52.7661
52.4404
51.6983
50.3617
48.2821
45.2609
41.1496
35.8099
29.2081
21.3749
12.4247
2.39447
-9.06239
7.80802
7.8525
8.01263
8.31639
8.61903
8.59868
8.44941
8.27824
8.02094
7.64272
7.10232
6.34492
5.28242
3.80436
1.74931
-1.06204
-4.83211
-9.7192
-15.8281
-23.3771
-43.7365
-43.6606
-43.3919
-42.767
-41.9323
-41.0108
-39.9804
-38.8491
-37.6355
-36.359
-35.0581
-33.7839
-32.6138
-31.6462
-31.018
-30.8924
-31.4693
-32.9451
-35.4533
-39.2916
-69.2681
-69.1732
-68.905
-68.3876
-67.6725
-66.8089
-65.809
-64.6756
-63.4128
-62.0293
-60.5465
-58.991
-57.4096
-55.8648
-54.4533
-53.2969
-52.5592
-52.4061
-52.9303
-54.386
-91.4979
-91.4039
-91.1666
-90.7093
-90.0489
-89.2144
-88.2147
-87.0492
-85.7134
-84.2066
-82.5358
-80.7145
-78.7676
-76.7379
-74.6938
-72.7283
-70.9775
-69.5954
-68.6806
-68.2668
-109.329
-109.246
-109.036
-108.625
-108.008
-107.215
-106.255
-105.119
-103.797
-102.28
-100.566
-98.6576
-96.5648
-94.3129
-91.9466
-89.5355
-87.1848
-85.0213
-83.1899
-82.1754
-123.258
-123.185
-123.008
-122.643
-122.08
-121.346
-120.446
-119.373
-118.11
-116.645
-114.971
-113.081
-110.977
-108.669
-106.184
-103.569
-100.901
-98.2854
-95.8312
-93.6396
-134.092
-134.035
-133.883
-133.573
-133.079
-132.421
-131.608
-130.626
-129.461
-128.098
-126.523
-124.724
-122.696
-120.438
-117.962
-115.295
-112.485
-109.617
-106.828
-104.232
-143.045
-142.992
-142.864
-142.595
-142.16
-141.572
-140.832
-139.933
-138.859
-137.593
-136.12
-134.426
-132.5
-130.333
-127.93
-125.304
-122.486
-119.53
-116.577
-114.138
-150.401
-150.357
-150.245
-150.01
-149.625
-149.095
-148.423
-147.603
-146.614
-145.444
-144.073
-142.486
-140.667
-138.605
-136.293
-133.734
-130.942
-127.957
-124.866
-121.76
-156.515
-156.476
-156.38
-156.175
-155.835
-155.361
-154.758
-154.012
-153.108
-152.032
-150.765
-149.291
-147.593
-145.658
-143.477
-141.047
-138.377
-135.497
-132.54
-130.053
-161.562
-161.528
-161.444
-161.265
-160.964
-160.541
-159.996
-159.318
-158.492
-157.501
-156.33
-154.96
-153.374
-151.554
-149.486
-147.16
-144.572
-141.729
-138.677
-135.617
-165.845
-165.815
-165.742
-165.583
-165.313
-164.931
-164.435
-163.815
-163.058
-162.146
-161.062
-159.791
-158.313
-156.61
-154.669
-152.477
-150.028
-147.327
-144.422
-141.581
-169.445
-169.419
-169.354
-169.213
-168.971
-168.626
-168.175
-167.61
-166.916
-166.075
-165.073
-163.892
-162.516
-160.925
-159.105
-157.042
-154.727
-152.16
-149.37
-146.568
-172.379
-172.357
-172.3
-172.175
-171.959
-171.649
-171.242
-170.728
-170.092
-169.319
-168.393
-167.299
-166.017
-164.531
-162.823
-160.876
-158.68
-156.226
-153.525
-150.71
-174.827
-174.808
-174.758
-174.646
-174.451
-174.17
-173.798
-173.326
-172.741
-172.027
-171.169
-170.151
-168.955
-167.565
-165.961
-164.127
-162.048
-159.712
-157.125
-154.396
-176.827
-176.81
-176.766
-176.665
-176.489
-176.233
-175.894
-175.461
-174.924
-174.266
-173.473
-172.529
-171.418
-170.121
-168.623
-166.906
-164.955
-162.757
-160.314
-157.744
-178.4
-178.386
-178.347
-178.257
-178.098
-177.864
-177.555
-177.159
-176.666
-176.06
-175.327
-174.45
-173.416
-172.206
-170.805
-169.191
-167.348
-165.26
-162.921
-160.367
-179.579
-179.568
-179.533
-179.453
-179.31
-179.1
-178.819
-178.46
-178.01
-177.455
-176.781
-175.974
-175.019
-173.901
-172.603
-171.108
-169.398
-167.457
-165.287
-163.018
-180.323
-180.314
-180.285
-180.216
-180.09
-179.903
-179.653
-179.332
-178.929
-178.43
-177.821
-177.09
-176.222
-175.202
-174.015
-172.645
-171.075
-169.29
-167.281
-165.172
-180.608
-180.602
-180.579
-180.52
-180.413
-180.252
-180.036
-179.758
-179.407
-178.971
-178.437
-177.79
-177.019
-176.105
-175.036
-173.793
-172.36
-170.719
-168.851
-166.812
-180.716
-180.71
-180.691
-180.641
-180.549
-180.408
-180.219
-179.975
-179.668
-179.284
-178.813
-178.24
-177.552
-176.736
-175.776
-174.654
-173.353
-171.853
-170.131
-168.221
-180.799
-180.794
-180.777
-180.734
-180.652
-180.528
-180.361
-180.145
-179.873
-179.532
-179.111
-178.597
-177.98
-177.244
-176.377
-175.361
-174.179
-172.812
-171.239
-169.469
-180.744
-180.74
-180.726
-180.689
-180.619
-180.511
-180.365
-180.177
-179.938
-179.638
-179.268
-178.813
-178.264
-177.608
-176.83
-175.915
-174.846
-173.603
-172.169
-170.54
-180.816
-180.813
-180.799
-180.765
-180.7
-180.601
-180.467
-180.293
-180.073
-179.798
-179.458
-179.042
-178.54
-177.94
-177.231
-176.396
-175.424
-174.295
-172.997
-171.563
-180.745
-180.742
-180.731
-180.701
-180.644
-180.556
-180.437
-180.282
-180.087
-179.842
-179.539
-179.167
-178.715
-178.171
-177.526
-176.763
-175.868
-174.821
-173.6
-172.208
-180.811
-180.808
-180.797
-180.769
-180.715
-180.632
-180.52
-180.375
-180.192
-179.963
-179.682
-179.335
-178.916
-178.411
-177.813
-177.106
-176.276
-175.306
-174.171
-172.863
-180.757
-180.754
-180.745
-180.72
-180.673
-180.6
-180.501
-180.372
-180.21
-180.007
-179.756
-179.446
-179.068
-178.611
-178.067
-177.421
-176.66
-175.767
-174.724
-173.516
-180.92
-180.917
-180.907
-180.883
-180.837
-180.765
-180.668
-180.542
-180.385
-180.189
-179.948
-179.653
-179.295
-178.865
-178.355
-177.754
-177.049
-176.226
-175.269
-174.189
-180.895
-180.892
-180.884
-180.863
-180.823
-180.759
-180.673
-180.562
-180.422
-180.248
-180.033
-179.768
-179.446
-179.056
-178.589
-178.033
-177.378
-176.609
-175.709
-174.669
-181.052
-181.05
-181.042
-181.021
-180.981
-180.919
-180.835
-180.726
-180.591
-180.422
-180.215
-179.962
-179.656
-179.286
-178.846
-178.325
-177.714
-176.997
-176.161
-175.233
-181.102
-181.099
-181.092
-181.074
-181.038
-180.982
-180.905
-180.808
-180.685
-180.533
-180.346
-180.116
-179.836
-179.496
-179.089
-178.605
-178.035
-177.363
-176.577
-175.69
-181.318
-181.315
-181.307
-181.289
-181.253
-181.198
-181.122
-181.025
-180.904
-180.754
-180.571
-180.347
-180.076
-179.75
-179.36
-178.899
-178.357
-177.721
-176.973
-176.121
-181.417
-181.414
-181.408
-181.392
-181.36
-181.31
-181.242
-181.155
-181.045
-180.91
-180.742
-180.537
-180.287
-179.986
-179.623
-179.191
-178.682
-178.086
-177.383
-176.582
-181.676
-181.674
-181.667
-181.65
-181.618
-181.568
-181.5
-181.413
-181.303
-181.168
-181.003
-180.801
-180.558
-180.265
-179.914
-179.498
-179.009
-178.435
-177.763
-176.98
-181.813
-181.81
-181.804
-181.79
-181.763
-181.718
-181.658
-181.581
-181.484
-181.363
-181.212
-181.028
-180.804
-180.532
-180.203
-179.811
-179.347
-178.802
-178.165
-177.448
-182.119
-182.117
-182.111
-182.096
-182.068
-182.024
-181.963
-181.886
-181.788
-181.668
-181.519
-181.337
-181.116
-180.849
-180.529
-180.15
-179.702
-179.178
-178.565
-177.87
-182.351
-182.349
-182.343
-182.33
-182.305
-182.265
-182.209
-182.138
-182.048
-181.936
-181.797
-181.626
-181.416
-181.162
-180.855
-180.488
-180.054
-179.541
-178.935
-178.235
-182.665
-182.662
-182.657
-182.644
-182.619
-182.58
-182.526
-182.456
-182.369
-182.26
-182.124
-181.958
-181.754
-181.508
-181.213
-180.863
-180.45
-179.969
-179.413
-178.819
-182.921
-182.918
-182.914
-182.902
-182.88
-182.844
-182.794
-182.731
-182.651
-182.55
-182.424
-182.269
-182.077
-181.845
-181.565
-181.229
-180.832
-180.369
-179.828
-179.223
-183.239
-183.237
-183.232
-183.221
-183.199
-183.164
-183.117
-183.055
-182.976
-182.878
-182.755
-182.603
-182.416
-182.188
-181.912
-181.58
-181.186
-180.722
-180.17
-179.53
-183.549
-183.547
-183.543
-183.532
-183.512
-183.479
-183.434
-183.376
-183.303
-183.21
-183.093
-182.948
-182.769
-182.55
-182.284
-181.965
-181.588
-181.147
-180.634
-180.081
-183.89
-183.887
-183.883
-183.873
-183.853
-183.822
-183.779
-183.722
-183.651
-183.561
-183.448
-183.308
-183.133
-182.919
-182.659
-182.348
-181.976
-181.54
-181.018
-180.354
-184.189
-184.188
-184.183
-184.174
-184.156
-184.128
-184.089
-184.038
-183.973
-183.89
-183.785
-183.654
-183.489
-183.287
-183.041
-182.745
-182.394
-181.986
-181.522
-181.045
-184.55
-184.549
-184.545
-184.536
-184.518
-184.49
-184.452
-184.401
-184.337
-184.256
-184.153
-184.023
-183.862
-183.662
-183.419
-183.124
-182.772
-182.355
-181.855
-181.196
-184.899
-184.897
-184.893
-184.885
-184.868
-184.842
-184.805
-184.757
-184.696
-184.618
-184.518
-184.393
-184.235
-184.04
-183.801
-183.509
-183.158
-182.741
-182.251
-181.643
-185.256
-185.255
-185.251
-185.243
-185.227
-185.202
-185.168
-185.122
-185.065
-184.991
-184.897
-184.777
-184.627
-184.44
-184.211
-183.932
-183.597
-183.204
-182.752
-182.217
-185.622
-185.621
-185.617
-185.61
-185.595
-185.571
-185.538
-185.495
-185.439
-185.368
-185.277
-185.162
-185.017
-184.836
-184.613
-184.34
-184.01
-183.618
-183.156
-182.566
-185.996
-185.995
-185.991
-185.984
-185.97
-185.947
-185.916
-185.874
-185.821
-185.753
-185.666
-185.555
-185.414
-185.237
-185.017
-184.748
-184.423
-184.036
-183.584
-183.025
-186.367
-186.366
-186.363
-186.356
-186.343
-186.322
-186.292
-186.253
-186.203
-186.138
-186.055
-185.948
-185.812
-185.64
-185.426
-185.163
-184.843
-184.46
-184.011
-183.441
-186.792
-186.791
-186.788
-186.781
-186.768
-186.747
-186.717
-186.678
-186.628
-186.564
-186.481
-186.375
-186.24
-186.069
-185.857
-185.595
-185.277
-184.894
-184.443
-183.876
-187.198
-187.197
-187.194
-187.188
-187.176
-187.156
-187.128
-187.091
-187.043
-186.982
-186.903
-186.801
-186.67
-186.505
-186.297
-186.042
-185.73
-185.355
-184.915
-184.384
-187.647
-187.646
-187.643
-187.637
-187.624
-187.605
-187.578
-187.541
-187.494
-187.433
-187.354
-187.253
-187.123
-186.959
-186.753
-186.497
-186.184
-185.805
-185.351
-184.757
-188.071
-188.07
-188.067
-188.062
-188.05
-188.032
-188.007
-187.973
-187.929
-187.871
-187.796
-187.699
-187.574
-187.415
-187.214
-186.965
-186.658
-186.287
-185.853
-185.306
-188.572
-188.571
-188.569
-188.563
-188.551
-188.532
-188.506
-188.471
-188.425
-188.366
-188.29
-188.191
-188.064
-187.903
-187.699
-187.445
-187.132
-186.752
-186.303
-185.702
-189.05
-189.049
-189.047
-189.041
-189.03
-189.012
-188.987
-188.954
-188.91
-188.853
-188.779
-188.681
-188.556
-188.396
-188.193
-187.938
-187.623
-187.238
-186.785
-186.247
-189.576
-189.576
-189.573
-189.568
-189.556
-189.539
-189.514
-189.481
-189.437
-189.379
-189.304
-189.206
-189.079
-188.917
-188.709
-188.448
-188.124
-187.726
-187.245
-186.622
-190.131
-190.13
-190.128
-190.122
-190.111
-190.094
-190.069
-190.035
-189.991
-189.933
-189.857
-189.758
-189.629
-189.462
-189.25
-188.981
-188.646
-188.235
-187.741
-187.12
-190.745
-190.745
-190.742
-190.737
-190.726
-190.708
-190.683
-190.649
-190.604
-190.543
-190.465
-190.361
-190.227
-190.054
-189.832
-189.551
-189.201
-188.771
-188.257
-187.621
-191.427
-191.426
-191.424
-191.417
-191.405
-191.386
-191.358
-191.321
-191.272
-191.207
-191.122
-191.011
-190.867
-190.682
-190.445
-190.146
-189.773
-189.317
-188.77
-188.097
-192.173
-192.172
-192.17
-192.163
-192.15
-192.128
-192.098
-192.057
-192.002
-191.93
-191.836
-191.713
-191.554
-191.35
-191.091
-190.764
-190.359
-189.863
-189.273
-188.548
-192.883
-192.882
-192.88
-192.873
-192.859
-192.836
-192.805
-192.761
-192.703
-192.627
-192.526
-192.395
-192.225
-192.004
-191.723
-191.367
-190.922
-190.377
-189.724
-188.923
-193.721
-193.72
-193.717
-193.709
-193.693
-193.666
-193.628
-193.577
-193.51
-193.42
-193.303
-193.151
-192.955
-192.703
-192.383
-191.982
-191.485
-190.879
-190.16
-189.303
-194.534
-194.533
-194.53
-194.521
-194.502
-194.473
-194.431
-194.373
-194.297
-194.196
-194.064
-193.893
-193.672
-193.388
-193.027
-192.574
-192.014
-191.334
-190.531
-189.581
-195.455
-195.454
-195.451
-195.44
-195.417
-195.382
-195.33
-195.261
-195.169
-195.047
-194.889
-194.684
-194.42
-194.084
-193.658
-193.127
-192.474
-191.685
-190.76
-189.673
-196.322
-196.322
-196.317
-196.304
-196.279
-196.237
-196.178
-196.096
-195.988
-195.845
-195.659
-195.417
-195.106
-194.708
-194.205
-193.577
-192.806
-191.881
-190.809
-189.574
-197.405
-197.404
-197.399
-197.382
-197.349
-197.295
-197.217
-197.111
-196.971
-196.785
-196.545
-196.234
-195.836
-195.331
-194.697
-193.914
-192.965
-191.842
-190.564
-189.134
-198.413
-198.412
-198.405
-198.385
-198.343
-198.274
-198.176
-198.041
-197.862
-197.626
-197.319
-196.921
-196.413
-195.769
-194.964
-193.976
-192.792
-191.418
-189.907
-188.315
-199.951
-199.948
-199.938
-199.907
-199.846
-199.748
-199.606
-199.409
-199.147
-198.801
-198.351
-197.772
-197.038
-196.12
-194.994
-193.645
-192.076
-190.323
-188.477
-186.655
-201.309
-201.309
-201.295
-201.25
-201.154
-200.995
-200.771
-200.469
-200.07
-199.551
-198.884
-198.038
-196.977
-195.669
-194.092
-192.247
-190.174
-187.967
-185.802
-183.903
-204.635
-204.631
-204.599
-204.511
-204.345
-204.081
-203.695
-203.156
-202.432
-201.492
-200.275
-198.723
-196.819
-194.567
-192.003
-189.212
-186.329
-183.553
-181.143
-179.424
-208.697
-208.339
-208.032
-207.613
-207.026
-206.257
-205.28
-204.063
-202.565
-200.741
-198.531
-195.885
-192.81
-189.376
-185.699
-181.986
-178.496
-175.548
-173.446
-172.549
-206.289
-209.626
-211.969
-212.094
-211.163
-209.926
-208.348
-206.266
-203.566
-200.172
-196.249
-191.964
-187.351
-182.567
-177.853
-173.53
-169.923
-167.32
-165.924
-165.953
-632.938
-617.056
-595.253
-575.912
-568.823
-566.844
-556.756
-540.04
-520.304
-498.324
-474.028
-447.561
-419.279
-389.844
-360.057
-330.872
-303.199
-277.865
-255.419
-237.311
-277.095
-278.066
-278.564
-278.916
-279.239
-279.192
-277.582
-275.382
-273.598
-271.852
-269.985
-268.019
-265.926
-263.583
-260.732
-257.004
-251.994
-245.319
-236.986
-228.479
-299.749
-299.774
-299.891
-300.116
-299.984
-299.142
-298.114
-296.941
-295.288
-293.025
-290.021
-286.176
-281.348
-275.469
-268.496
-260.522
-251.687
-242.22
-232.35
-222.884
-233.939
-233.942
-233.934
-233.916
-233.885
-233.821
-233.76
-233.68
-233.581
-233.444
-233.253
-232.977
-232.556
-231.895
-230.837
-229.183
-226.672
-223.072
-218.259
-212.899
-226.44
-226.435
-226.425
-226.414
-226.396
-226.352
-226.257
-226.097
-225.838
-225.447
-224.872
-224.067
-222.971
-221.539
-219.717
-217.468
-214.737
-211.466
-207.552
-202.949
-207.433
-207.417
-207.398
-207.372
-207.34
-207.296
-207.239
-207.167
-207.072
-206.943
-206.76
-206.499
-206.119
-205.573
-204.787
-203.681
-202.149
-200.092
-197.422
-194.183
-196.105
-196.09
-196.071
-196.052
-196.033
-196.012
-195.98
-195.929
-195.854
-195.742
-195.578
-195.341
-195.004
-194.535
-193.889
-193.021
-191.862
-190.35
-188.412
-185.749
-185.619
-185.601
-185.58
-185.555
-185.535
-185.518
-185.498
-185.468
-185.426
-185.366
-185.277
-185.148
-184.955
-184.676
-184.271
-183.7
-182.906
-181.836
-180.46
-178.788
-176.531
-176.514
-176.493
-176.471
-176.454
-176.445
-176.438
-176.427
-176.409
-176.381
-176.336
-176.267
-176.158
-175.991
-175.739
-175.369
-174.833
-174.09
-173.11
-171.684
-169.028
-169.009
-168.986
-168.963
-168.944
-168.933
-168.926
-168.914
-168.898