/*--------------------------------*- C++ -*----------------------------------*\
| =========                 |                                                 |
| \\      /  F ield         | OpenFOAM: The Open Source CFD Toolbox           |
|  \\    /   O peration     | Version:  2.3.0                                 |
|   \\  /    A nd           | Web:      www.OpenFOAM.org                      |
|    \\/     M anipulation  |                                                 |
\*---------------------------------------------------------------------------*/
FoamFile
{
    version     2.0;
    format      ascii;
    class       surfaceScalarField;
    location    "100";
    object      phi;
}
// * * * * * * * * * * * * * * * * * * * * * * * * * * * * * * * * * * * * * //

dimensions      [0 3 -1 0 0 0 0];

internalField   nonuniform List<scalar> 
56247
(
3.08058e-05
-0.000116299
0.000120801
-3.51521e-05
2.74789e-05
-9.68703e-05
0.000100197
2.51914e-05
-8.08628e-05
8.31499e-05
2.38176e-05
-6.76896e-05
6.90631e-05
2.32284e-05
-5.68431e-05
5.74317e-05
2.32641e-05
-4.79161e-05
4.78807e-05
2.37853e-05
-4.05575e-05
4.00359e-05
2.46926e-05
-3.44592e-05
3.35521e-05
2.58755e-05
-2.9389e-05
2.8206e-05
2.72529e-05
-2.5151e-05
2.37738e-05
2.87884e-05
-2.15941e-05
2.00586e-05
3.04381e-05
-1.85976e-05
1.69479e-05
3.21955e-05
-1.60653e-05
1.4308e-05
3.4039e-05
-1.39218e-05
1.20783e-05
3.59627e-05
-1.21028e-05
1.01795e-05
3.79402e-05
-1.05607e-05
8.58315e-06
3.99862e-05
-9.25451e-06
7.20902e-06
4.20715e-05
-8.14758e-06
6.0622e-06
4.42361e-05
-7.21038e-06
5.04625e-06
-6.41864e-06
4.65138e-05
4.14091e-06
3.3897e-05
-0.000112338
-3.78582e-05
3.11877e-05
-9.41616e-05
2.95246e-05
-7.92003e-05
2.87061e-05
-6.68714e-05
2.85712e-05
-5.67084e-05
2.89583e-05
-4.83032e-05
2.97442e-05
-4.13433e-05
3.08252e-05
-3.55402e-05
3.21215e-05
-3.06851e-05
3.35725e-05
-2.6602e-05
3.51298e-05
-2.31512e-05
3.67709e-05
-2.02387e-05
3.84669e-05
-1.77611e-05
4.02162e-05
-1.56711e-05
4.20003e-05
-1.38869e-05
4.383e-05
-1.23904e-05
4.56864e-05
-1.11109e-05
4.75859e-05
-1.00471e-05
4.9512e-05
-9.13642e-06
-8.37297e-06
5.14663e-05
3.65085e-05
-0.00010872
-4.01272e-05
3.41274e-05
-9.1781e-05
3.27226e-05
-7.77959e-05
3.20853e-05
-6.62343e-05
3.20414e-05
-5.66646e-05
3.24418e-05
-4.87036e-05
3.31637e-05
-4.20651e-05
3.41168e-05
-3.64933e-05
3.52296e-05
-3.17978e-05
3.64804e-05
-2.78528e-05
3.78432e-05
-2.45139e-05
3.92835e-05
-2.16789e-05
4.08091e-05
-1.92866e-05
4.24152e-05
-1.72773e-05
4.40831e-05
-1.55547e-05
4.58202e-05
-1.41274e-05
4.7625e-05
-1.29156e-05
4.94721e-05
-1.18942e-05
5.13687e-05
-1.10329e-05
-1.03212e-05
5.33169e-05
3.86617e-05
-0.000105353
-4.20296e-05
3.6393e-05
-8.95126e-05
3.50146e-05
-7.64178e-05
3.43354e-05
-6.55553e-05
3.41797e-05
-5.65089e-05
3.44171e-05
-4.89411e-05
3.49606e-05
-4.26085e-05
3.57269e-05
-3.72596e-05
3.66893e-05
-3.27601e-05
3.78051e-05
-2.89686e-05
3.90496e-05
-2.57584e-05
4.0416e-05
-2.30453e-05
4.18796e-05
-2.07502e-05
4.34307e-05
-1.88284e-05
4.5088e-05
-1.72119e-05
4.6803e-05
-1.58424e-05
4.85775e-05
-1.46901e-05
5.04218e-05
-1.37386e-05
5.23191e-05
-1.29302e-05
-1.22579e-05
5.42558e-05
4.04032e-05
-0.000102022
-4.37342e-05
3.81201e-05
-8.72298e-05
3.66673e-05
-7.49651e-05
3.58499e-05
-6.47381e-05
3.55309e-05
-5.61898e-05
3.56052e-05
-4.90154e-05
3.59695e-05
-4.29727e-05
3.66069e-05
-3.7897e-05
3.74411e-05
-3.35942e-05
3.84396e-05
-2.99672e-05
3.96006e-05
-2.69193e-05
4.09039e-05
-2.43486e-05
4.23324e-05
-2.21787e-05
4.38495e-05
-2.03455e-05
4.54638e-05
-1.88262e-05
4.71633e-05
-1.75419e-05
4.89369e-05
-1.64637e-05
5.0776e-05
-1.55777e-05
5.2661e-05
-1.48152e-05
-1.42005e-05
5.46035e-05
4.18355e-05
-9.8673e-05
-4.51843e-05
3.94621e-05
-8.48566e-05
3.78695e-05
-7.33726e-05
3.68917e-05
-6.37602e-05
3.64034e-05
-5.57016e-05
3.63084e-05
-4.89204e-05
3.65432e-05
-4.32075e-05
3.70406e-05
-3.83943e-05
3.77807e-05
-3.43343e-05
3.87186e-05
-3.09051e-05
3.98371e-05
-2.80379e-05
4.10908e-05
-2.56023e-05
4.2481e-05
-2.35688e-05
4.39903e-05
-2.18548e-05
4.55925e-05
-2.04284e-05
4.72837e-05
-1.9233e-05
4.90598e-05
-1.82398e-05
5.0886e-05
-1.74039e-05
5.27773e-05
-1.67064e-05
-1.61341e-05
5.47109e-05
4.29851e-05
-9.52318e-05
-4.64263e-05
4.04823e-05
-8.23538e-05
3.87278e-05
-7.16182e-05
3.75887e-05
-6.26211e-05
3.69501e-05
-5.5063e-05
3.67328e-05
-4.87031e-05
3.68553e-05
-4.333e-05
3.72742e-05
-3.88133e-05
3.79333e-05
-3.49934e-05
3.88295e-05
-3.18012e-05
3.98871e-05
-2.90955e-05
4.11236e-05
-2.68388e-05
4.24938e-05
-2.4939e-05
4.39902e-05
-2.33513e-05
4.55918e-05
-2.203e-05
4.72764e-05
-2.09176e-05
4.90325e-05
-1.99959e-05
5.08632e-05
-1.92345e-05
5.27544e-05
-1.85976e-05
-1.80643e-05
5.46846e-05
4.39461e-05
-9.16202e-05
-4.75577e-05
4.12744e-05
-7.96822e-05
3.93703e-05
-6.97141e-05
3.80963e-05
-6.13471e-05
3.73281e-05
-5.42948e-05
3.69901e-05
-4.83651e-05
3.70244e-05
-4.33643e-05
3.73625e-05
-3.91514e-05
3.798e-05
-3.56109e-05
3.88257e-05
-3.26469e-05
3.98662e-05
-3.01359e-05
4.10827e-05
-2.80552e-05
4.244e-05
-2.62963e-05
4.39229e-05
-2.4834e-05
4.55084e-05
-2.36155e-05
4.71902e-05
-2.25994e-05
4.89504e-05
-2.1756e-05
5.07784e-05
-2.10625e-05
5.26569e-05
-2.04761e-05
-2.00034e-05
5.4596e-05
4.4735e-05
-8.78555e-05
-4.84998e-05
4.19118e-05
-7.6859e-05
3.98678e-05
-6.76701e-05
3.84438e-05
-5.99231e-05
3.75665e-05
-5.34174e-05
3.71502e-05
-4.79488e-05
3.71135e-05
-4.33275e-05
3.74082e-05
-3.9446e-05
3.79843e-05
-3.61871e-05
3.87884e-05
-3.3451e-05
3.98165e-05
-3.11641e-05
4.1005e-05
-2.92437e-05
4.23493e-05
-2.76407e-05
4.38272e-05
-2.63119e-05
4.54066e-05
-2.51949e-05
4.7089e-05
-2.42818e-05
4.88454e-05
-2.35125e-05
5.06638e-05
-2.28809e-05
5.25506e-05
-2.2363e-05
-2.19302e-05
5.44775e-05
4.53554e-05
-8.39694e-05
-4.92414e-05
4.24117e-05
-7.39153e-05
4.02326e-05
-6.5491e-05
3.8723e-05
-5.84134e-05
3.77561e-05
-5.24506e-05
3.72457e-05
-4.74384e-05
3.71519e-05
-4.32338e-05
3.74024e-05
-3.96965e-05
3.79447e-05
-3.67293e-05
3.87344e-05
-3.42407e-05
3.97322e-05
-3.21619e-05
4.09175e-05
-3.0429e-05
4.22513e-05
-2.89745e-05
4.3719e-05
-2.77796e-05
4.52925e-05
-2.67684e-05
4.69627e-05
-2.5952e-05
4.87175e-05
-2.52673e-05
5.05396e-05
-2.4703e-05
5.24136e-05
-2.4237e-05
-2.38649e-05
5.43482e-05
4.58853e-05
-7.99591e-05
-4.98956e-05
4.28204e-05
-7.08504e-05
4.05354e-05
-6.32061e-05
3.89247e-05
-5.68028e-05
3.78842e-05
-5.141e-05
3.73365e-05
-4.68907e-05
3.71961e-05
-4.30933e-05
3.741e-05
-3.99105e-05
3.79146e-05
-3.72338e-05
3.86812e-05
-3.50073e-05
3.96626e-05
-3.31434e-05
4.08346e-05
-3.1601e-05
4.21582e-05
-3.0298e-05
4.36105e-05
-2.92319e-05
4.51955e-05
-2.83535e-05
4.68519e-05
-2.76083e-05
4.85983e-05
-2.70137e-05
5.04186e-05
-2.65234e-05
5.22976e-05
-2.6116e-05
-2.5789e-05
5.42218e-05
4.63401e-05
-7.58362e-05
-5.04631e-05
4.31584e-05
-6.76688e-05
4.08049e-05
-6.08526e-05
3.91197e-05
-5.51176e-05
3.80184e-05
-5.03087e-05
3.74112e-05
-4.62835e-05
3.72319e-05
-4.2914e-05
3.74038e-05
-4.00824e-05
3.78931e-05
-3.77231e-05
3.86424e-05
-3.57566e-05
3.96201e-05
-3.41211e-05
4.07679e-05
-3.27487e-05
4.20812e-05
-3.16114e-05
4.35324e-05
-3.06831e-05
4.50923e-05
-2.99134e-05
4.67602e-05
-2.92762e-05
4.85055e-05
-2.8759e-05
5.03116e-05
-2.83294e-05
5.21889e-05
-2.79933e-05
-2.77083e-05
5.41082e-05
4.67492e-05
-7.15882e-05
-5.09972e-05
4.34826e-05
-6.44022e-05
4.10293e-05
-5.83992e-05
3.92813e-05
-5.33696e-05
3.81413e-05
-4.91687e-05
3.74938e-05
-4.5636e-05
3.72821e-05
-4.27022e-05
3.74401e-05
-4.02405e-05
3.79088e-05
-3.81918e-05
3.86286e-05
-3.64764e-05
3.95801e-05
-3.50725e-05
4.07199e-05
-3.38885e-05
4.20303e-05
-3.29217e-05
4.34726e-05
-3.21254e-05
4.50252e-05
-3.14659e-05
4.66802e-05
-3.09311e-05
4.84161e-05
-3.04949e-05
5.02277e-05
-3.0141e-05
5.20914e-05
-2.9857e-05
-2.96339e-05
5.4017e-05
4.71049e-05
-6.72448e-05
-5.14484e-05
4.37633e-05
-6.10607e-05
4.1249e-05
-5.58849e-05
3.94526e-05
-5.15732e-05
3.82621e-05
-4.79782e-05
3.75942e-05
-4.4968e-05
3.7358e-05
-4.24661e-05
3.74822e-05
-4.03646e-05
3.79328e-05
-3.86424e-05
3.86491e-05
-3.71928e-05
3.95852e-05
-3.60085e-05
4.07208e-05
-3.50242e-05
4.20247e-05
-3.42256e-05
4.3449e-05
-3.35497e-05
4.50023e-05
-3.30193e-05
4.66462e-05
-3.2575e-05
4.8372e-05
-3.22207e-05
5.01764e-05
-3.19453e-05
5.20453e-05
-3.1726e-05
-3.15464e-05
5.39578e-05
4.74247e-05
-6.28326e-05
-5.18371e-05
4.40242e-05
-5.76601e-05
4.1475e-05
-5.33357e-05
3.96415e-05
-4.97397e-05
3.84214e-05
-4.67581e-05
3.77181e-05
-4.42648e-05
3.74489e-05
-4.21968e-05
3.7579e-05
-4.04947e-05
3.80021e-05
-3.90656e-05
3.87152e-05
-3.79058e-05
3.96431e-05
-3.69364e-05
4.07563e-05
-3.61373e-05
4.20393e-05
-3.55087e-05
4.34639e-05
-3.49743e-05
4.50008e-05
-3.45561e-05
4.66398e-05
-3.4214e-05
4.83737e-05
-3.39546e-05
5.01667e-05
-3.37384e-05
5.20216e-05
-3.35809e-05
-3.34644e-05
5.39397e-05
4.77333e-05
-5.8367e-05
-5.21989e-05
4.42616e-05
-5.41884e-05
4.16776e-05
-5.07517e-05
3.98178e-05
-4.78799e-05
3.85771e-05
-4.55175e-05
3.78693e-05
-4.35569e-05
3.7596e-05
-4.19236e-05
3.7692e-05
-4.05907e-05
3.8116e-05
-3.94896e-05
3.88066e-05
-3.85963e-05
3.97226e-05
-3.78525e-05
4.08381e-05
-3.72528e-05
4.21125e-05
-3.67831e-05
4.3531e-05
-3.63928e-05
4.50583e-05
-3.60834e-05
4.6701e-05
-3.58568e-05
4.84124e-05
-3.56659e-05
5.0206e-05
-3.55319e-05
5.20658e-05
-3.54407e-05
-3.53692e-05
5.39706e-05
4.80045e-05
-5.3828e-05
-5.25435e-05
4.45176e-05
-5.07015e-05
4.18954e-05
-4.81295e-05
4.00301e-05
-4.60146e-05
3.87758e-05
-4.42632e-05
3.80444e-05
-4.28255e-05
3.77665e-05
-4.16456e-05
3.78635e-05
-4.06876e-05
3.82799e-05
-3.9906e-05
3.89521e-05
-3.92685e-05
3.98605e-05
-3.87609e-05
4.09688e-05
-3.83611e-05
4.2236e-05
-3.80504e-05
4.36457e-05
-3.78025e-05
4.51701e-05
-3.76077e-05
4.67941e-05
-3.74807e-05
4.85081e-05
-3.73799e-05
5.03007e-05
-3.73246e-05
5.21444e-05
-3.72844e-05
-3.72799e-05
5.40551e-05
4.82583e-05
-4.92499e-05
-5.28365e-05
4.47456e-05
-4.71889e-05
4.21202e-05
-4.55041e-05
4.02205e-05
-4.41148e-05
3.89628e-05
-4.30055e-05
3.82306e-05
-4.20934e-05
3.79589e-05
-4.13739e-05
3.80442e-05
-4.0773e-05
3.84581e-05
-4.03199e-05
3.91373e-05
-3.99477e-05
4.00542e-05
-3.96778e-05
4.11476e-05
-3.94544e-05
4.2408e-05
-3.93108e-05
4.38129e-05
-3.92074e-05
4.53391e-05
-3.9134e-05
4.69523e-05
-3.90939e-05
4.867e-05
-3.90975e-05
5.04454e-05
-3.91e-05
5.22951e-05
-3.91341e-05
-3.91795e-05
5.41947e-05
4.8468e-05
-4.4645e-05
-5.30729e-05
4.49426e-05
-4.36634e-05
4.22998e-05
-4.28613e-05
4.04258e-05
-4.22409e-05
3.91712e-05
-4.1751e-05
3.84412e-05
-4.13634e-05
3.81519e-05
-4.10846e-05
3.82641e-05
-4.08851e-05
3.86663e-05
-4.07222e-05
3.93476e-05
-4.0629e-05
4.02511e-05
-4.05813e-05
4.13538e-05
-4.05571e-05
4.26146e-05
-4.05716e-05
4.40096e-05
-4.06023e-05
4.55312e-05
-4.06557e-05
4.71569e-05
-4.07196e-05
4.88548e-05
-4.07954e-05
5.06358e-05
-4.0881e-05
5.24857e-05
-4.0984e-05
-4.10752e-05
5.43814e-05
4.86213e-05
-5.32648e-05
-4.00016e-05
4.50719e-05
-4.01139e-05
4.24453e-05
-4.02347e-05
4.0574e-05
-4.03696e-05
3.93305e-05
-4.05075e-05
3.86292e-05
-4.0662e-05
3.83665e-05
-4.0822e-05
3.8463e-05
-4.09816e-05
3.88945e-05
-4.11537e-05
3.95848e-05
-4.13192e-05
4.04876e-05
-4.14842e-05
4.15909e-05
-4.16604e-05
4.28538e-05
-4.18345e-05
4.42584e-05
-4.20069e-05
4.57765e-05
-4.21737e-05
4.73888e-05
-4.23319e-05
4.90872e-05
-4.24939e-05
5.08643e-05
-4.26581e-05
5.26994e-05
-4.28191e-05
5.46047e-05
-4.29805e-05
4.85003e-05
-6.47584e-06
4.48968e-06
5.03892e-05
-7.40987e-06
5.52106e-06
5.22058e-05
-8.54343e-06
6.72714e-06
5.39309e-05
-9.91279e-06
8.1877e-06
5.55554e-05
-1.15748e-05
9.95043e-06
5.70564e-05
-1.35841e-05
1.20831e-05
5.8407e-05
-1.60165e-05
1.4666e-05
5.95877e-05
-1.89674e-05
1.77867e-05
6.05549e-05
-2.2533e-05
2.15658e-05
6.12752e-05
-2.68438e-05
2.61235e-05
6.16975e-05
-3.20362e-05
3.16136e-05
6.17876e-05
-3.83036e-05
3.82137e-05
6.14876e-05
-4.58268e-05
4.61264e-05
6.07426e-05
-5.48492e-05
5.55942e-05
5.94938e-05
-6.56447e-05
6.68935e-05
5.7658e-05
-7.85382e-05
8.03739e-05
5.51267e-05
-9.39147e-05
9.64461e-05
5.17456e-05
-0.000112244
0.000115625
4.73154e-05
-0.000134111
0.00013854
-0.000160217
0.000165904
4.1628e-05
5.34151e-05
-8.42463e-06
5.53209e-05
-9.31572e-06
5.71558e-05
-1.03783e-05
5.8908e-05
-1.16651e-05
6.05583e-05
-1.3225e-05
6.20796e-05
-1.51054e-05
6.34471e-05
-1.73839e-05
6.46194e-05
-2.01399e-05
6.55622e-05
-2.34758e-05
6.62314e-05
-2.7513e-05
6.6585e-05
-3.23899e-05
6.6555e-05
-3.82737e-05
6.60944e-05
-4.53664e-05
6.51291e-05
-5.3884e-05
6.35912e-05
-6.41071e-05
6.1389e-05
-7.63359e-05
5.84203e-05
-9.09461e-05
5.45622e-05
-0.000108386
4.96462e-05
-0.000129195
-0.000154096
4.35248e-05
5.5268e-05
-1.03757e-05
5.71662e-05
-1.12139e-05
5.90192e-05
-1.22313e-05
6.08052e-05
-1.3451e-05
6.24981e-05
-1.49178e-05
6.40807e-05
-1.66881e-05
6.55173e-05
-1.88205e-05
6.67787e-05
-2.14014e-05
6.78233e-05
-2.45203e-05
6.85945e-05
-2.82842e-05
6.90391e-05
-3.28346e-05
6.90911e-05
-3.83258e-05
6.86813e-05
-4.49567e-05
6.77281e-05
-5.29309e-05
6.61493e-05
-6.25284e-05
6.38548e-05
-7.40416e-05
6.07475e-05
-8.78388e-05
5.66951e-05
-0.000104333
5.15584e-05
-0.000124058
-0.000147687
4.51485e-05
5.61961e-05
-1.2316e-05
5.80972e-05
-1.3115e-05
5.99469e-05
-1.4081e-05
6.17241e-05
-1.52283e-05
6.34095e-05
-1.66032e-05
6.49945e-05
-1.82731e-05
6.64465e-05
-2.02725e-05
6.77284e-05
-2.26833e-05
6.88057e-05
-2.55977e-05
6.96308e-05
-2.91093e-05
7.01455e-05
-3.33493e-05
7.02867e-05
-3.84671e-05
6.99714e-05
-4.46415e-05
6.91249e-05
-5.20844e-05
6.76448e-05
-6.10485e-05
6.5425e-05
-7.18218e-05
6.23426e-05
-8.47564e-05
5.82755e-05
-0.000100266
5.30648e-05
-0.000118847
-0.000141139
4.65173e-05
5.65488e-05
-1.42613e-05
5.84446e-05
-1.50108e-05
6.02913e-05
-1.59277e-05
6.20654e-05
-1.70024e-05
6.37661e-05
-1.83039e-05
6.53558e-05
-1.98629e-05
6.68204e-05
-2.17371e-05
6.81242e-05
-2.39872e-05
6.92332e-05
-2.67067e-05
7.01029e-05
-2.9979e-05
7.06757e-05
-3.39221e-05
7.08898e-05
-3.86813e-05
7.06633e-05
-4.4415e-05
6.99159e-05
-5.1337e-05
6.85354e-05
-5.9668e-05
6.64186e-05
-6.97051e-05
6.34325e-05
-8.17704e-05
5.94369e-05
-9.62708e-05
5.42673e-05
-0.000113678
-0.000134565
4.76933e-05
5.66482e-05
-1.61987e-05
5.85483e-05
-1.69109e-05
6.03877e-05
-1.77671e-05
6.21709e-05
-1.87856e-05
6.38653e-05
-1.99983e-05
6.54571e-05
-2.14546e-05
6.69296e-05
-2.32097e-05
6.82445e-05
-2.5302e-05
6.93736e-05
-2.78359e-05
7.02681e-05
-3.08735e-05
7.08791e-05
-3.45332e-05
7.11449e-05
-3.89472e-05
7.0992e-05
-4.42621e-05
7.03271e-05
-5.06721e-05
6.90538e-05
-5.83947e-05
6.70468e-05
-6.76982e-05
6.4172e-05
-7.88956e-05
6.02824e-05
-9.23813e-05
5.51914e-05
-0.000108587
-0.000128082
4.87083e-05
5.66268e-05
-1.81409e-05
5.85196e-05
-1.88037e-05
6.03633e-05
-1.96108e-05
6.21354e-05
-2.05577e-05
6.3837e-05
-2.16999e-05
6.54305e-05
-2.30482e-05
6.68994e-05
-2.46786e-05
6.82255e-05
-2.66281e-05
6.93647e-05
-2.89752e-05
7.02828e-05
-3.17915e-05
7.09222e-05
-3.51727e-05
7.12288e-05
-3.92538e-05
7.1127e-05
-4.41604e-05
7.05302e-05
-5.00753e-05
6.93388e-05
-5.72034e-05
6.74305e-05
-6.57899e-05
6.46694e-05
-7.61346e-05
6.08853e-05
-8.85972e-05
5.58932e-05
-0.000103595
-0.000121663
4.94742e-05
5.65305e-05
-2.00754e-05
5.84276e-05
-2.07008e-05
6.02697e-05
-2.14529e-05
6.20457e-05
-2.23338e-05
6.37353e-05
-2.33894e-05
6.53357e-05
-2.46486e-05
6.68104e-05
-2.61533e-05
6.81451e-05
-2.79628e-05
6.92881e-05
-3.01182e-05
7.02154e-05
-3.27187e-05
7.08774e-05
-3.58347e-05
7.12107e-05
-3.9587e-05
7.11489e-05
-4.40986e-05
7.061e-05
-4.95365e-05
6.94861e-05
-5.60795e-05
6.76589e-05
-6.39628e-05
6.49919e-05
-7.34677e-05
6.13112e-05
-8.49166e-05
5.64325e-05
-9.87161e-05
-0.00011535
5.01192e-05
5.64083e-05
-2.20063e-05
5.83055e-05
-2.2598e-05
6.01479e-05
-2.32954e-05
6.19228e-05
-2.41086e-05
6.36142e-05
-2.50809e-05
6.52086e-05
-2.62429e-05
6.66888e-05
-2.76336e-05
6.80197e-05
-2.92936e-05
6.91761e-05
-3.12746e-05
7.01095e-05
-3.36521e-05
7.07909e-05
-3.65162e-05
7.11471e-05
-3.99432e-05
7.11185e-05
-4.407e-05
7.06172e-05
-4.90351e-05
6.95495e-05
-5.50119e-05
6.77955e-05
-6.22089e-05
6.52094e-05
-7.08816e-05
6.16313e-05
-8.13385e-05
5.6853e-05
-9.39377e-05
-0.00010914
5.06432e-05
5.62868e-05
-2.39448e-05
5.81727e-05
-2.44838e-05
6.00045e-05
-2.51272e-05
6.17802e-05
-2.58843e-05
6.34795e-05
-2.67802e-05
6.50799e-05
-2.78433e-05
6.65538e-05
-2.91075e-05
6.78877e-05
-3.06275e-05
6.90448e-05
-3.24317e-05
6.99949e-05
-3.46022e-05
7.06796e-05
-3.72009e-05
7.10565e-05
-4.03201e-05
7.1054e-05
-4.40675e-05
7.05879e-05
-4.8569e-05
6.9566e-05
-5.39901e-05
6.78696e-05
-6.05125e-05
6.53578e-05
-6.83699e-05
6.18631e-05
-7.78437e-05
5.71828e-05
-8.92575e-05
-0.000103034
5.10766e-05
5.61506e-05
-2.58736e-05
5.80417e-05
-2.6375e-05
5.9881e-05
-2.69664e-05
6.16513e-05
-2.76547e-05
6.33437e-05
-2.84726e-05
6.49385e-05
-2.94382e-05
6.64215e-05
-3.05905e-05
6.77582e-05
-3.19643e-05
6.89246e-05
-3.35981e-05
6.98777e-05
-3.55553e-05
7.05765e-05
-3.78997e-05
7.09683e-05
-4.07119e-05
7.09819e-05
-4.40811e-05
7.05483e-05
-4.81355e-05
6.95606e-05
-5.30023e-05
6.79118e-05
-5.88637e-05
6.54631e-05
-6.59212e-05
6.20371e-05
-7.44178e-05
5.7448e-05
-8.46684e-05
-9.70255e-05
5.14393e-05
5.60396e-05
-2.78051e-05
5.79238e-05
-2.82591e-05
5.97593e-05
-2.8802e-05
6.15267e-05
-2.9422e-05
6.3219e-05
-3.01648e-05
6.48203e-05
-3.10395e-05
6.63029e-05
-3.20731e-05
6.76427e-05
-3.33041e-05
6.88116e-05
-3.4767e-05
6.97737e-05
-3.65174e-05
7.04844e-05
-3.86104e-05
7.08865e-05
-4.11141e-05
7.09209e-05
-4.41155e-05
7.05072e-05
-4.77217e-05
6.95539e-05
-5.20491e-05
6.79464e-05
-5.72562e-05
6.55444e-05
-6.35191e-05
6.21864e-05
-7.10599e-05
5.76672e-05
-8.01492e-05
-9.11057e-05
5.17475e-05
5.59407e-05
-2.97288e-05
5.78276e-05
-3.01461e-05
5.96574e-05
-3.06318e-05
6.14324e-05
-3.11969e-05
6.31266e-05
-3.18591e-05
6.47232e-05
-3.2636e-05
6.62076e-05
-3.35576e-05
6.75486e-05
-3.4645e-05
6.8722e-05
-3.59405e-05
6.96928e-05
-3.74882e-05
7.04104e-05
-3.9328e-05
7.08275e-05
-4.15312e-05
7.08793e-05
-4.41673e-05
7.04835e-05
-4.73258e-05
6.95578e-05
-5.11235e-05
6.79819e-05
-5.56803e-05
6.56223e-05
-6.11595e-05
6.2314e-05
-6.77516e-05
5.78589e-05
-7.56941e-05
-8.52644e-05
5.20176e-05
5.58835e-05
-3.16545e-05
5.77635e-05
-3.2026e-05
5.95962e-05
-3.24645e-05
6.13682e-05
-3.2969e-05
6.30586e-05
-3.35495e-05
6.46562e-05
-3.42337e-05
6.61428e-05
-3.50441e-05
6.74912e-05
-3.59934e-05
6.86716e-05
-3.71209e-05
6.96424e-05
-3.8459e-05
7.03704e-05
-4.00559e-05
7.07952e-05
-4.19559e-05
7.08589e-05
-4.42311e-05
7.0487e-05
-4.69539e-05
6.95796e-05
-5.02161e-05
6.80314e-05
-5.41321e-05
6.57078e-05
-5.88358e-05
6.24439e-05
-6.44877e-05
5.80412e-05
-7.12913e-05
-7.94826e-05
5.22594e-05
5.58576e-05
-3.35724e-05
5.774e-05
-3.39084e-05
5.95734e-05
-3.42979e-05
6.13369e-05
-3.47325e-05
6.30354e-05
-3.5248e-05
6.46343e-05
-3.58326e-05
6.6123e-05
-3.65329e-05
6.74726e-05
-3.7343e-05
6.86554e-05
-3.83037e-05
6.96363e-05
-3.94399e-05
7.03681e-05
-4.07878e-05
7.08067e-05
-4.23945e-05
7.08814e-05
-4.43057e-05
7.05221e-05
-4.65946e-05
6.96345e-05
-4.93285e-05
6.8108e-05
-5.26056e-05
6.58113e-05
-5.65391e-05
6.258e-05
-6.12564e-05
5.82205e-05
-6.69319e-05
-7.37563e-05
5.24942e-05
5.58903e-05
-3.54922e-05
5.77657e-05
-3.57838e-05
5.95892e-05
-3.61214e-05
6.13642e-05
-3.65075e-05
6.30534e-05
-3.69372e-05
6.46621e-05
-3.74413e-05
6.61496e-05
-3.80204e-05
6.7502e-05
-3.86955e-05
6.86865e-05
-3.94881e-05
6.96748e-05
-4.04282e-05
7.04147e-05
-4.15277e-05
7.08568e-05
-4.28367e-05
7.09443e-05
-4.43933e-05
7.05951e-05
-4.62454e-05
6.97225e-05
-4.8456e-05
6.82177e-05
-5.11007e-05
6.59416e-05
-5.4263e-05
6.27419e-05
-5.80567e-05
5.84196e-05
-6.26096e-05
-6.80786e-05
5.27419e-05
5.5967e-05
-3.74041e-05
5.78429e-05
-3.76597e-05
5.96754e-05
-3.79539e-05
6.14372e-05
-3.82693e-05
6.31339e-05
-3.86339e-05
6.47364e-05
-3.90438e-05
6.62285e-05
-3.95125e-05
6.75832e-05
-4.00501e-05
6.87753e-05
-4.06802e-05
6.97637e-05
-4.14166e-05
7.05089e-05
-4.2273e-05
7.09609e-05
-4.32887e-05
7.10541e-05
-4.44865e-05
7.07156e-05
-4.59068e-05
6.98546e-05
-4.7595e-05
6.83598e-05
-4.96059e-05
6.6104e-05
-5.20072e-05
6.29248e-05
-5.48775e-05
5.86286e-05
-5.83134e-05
-6.24353e-05
5.29853e-05
5.61036e-05
-3.93129e-05
5.79795e-05
-3.95356e-05
5.98066e-05
-3.97811e-05
6.15737e-05
-4.00365e-05
6.3268e-05
-4.03282e-05
6.48682e-05
-4.06439e-05
6.63555e-05
-4.09999e-05
6.77151e-05
-4.14096e-05
6.89098e-05
-4.1875e-05
6.9899e-05
-4.24057e-05
7.0653e-05
-4.30269e-05
7.11061e-05
-4.37418e-05
7.12076e-05
-4.4588e-05
7.08749e-05
-4.5574e-05
7.00218e-05
-4.6742e-05
6.85392e-05
-4.81233e-05
6.62957e-05
-4.97637e-05
6.31311e-05
-5.17129e-05
5.88583e-05
-5.40405e-05
-5.68178e-05
5.32408e-05
5.62937e-05
-4.12253e-05
5.81623e-05
-4.14043e-05
5.99886e-05
-4.16073e-05
6.17572e-05
-4.18051e-05
6.34489e-05
-4.20198e-05
6.5046e-05
-4.2241e-05
6.65417e-05
-4.24955e-05
6.78993e-05
-4.27672e-05
6.90959e-05
-4.30716e-05
7.00897e-05
-4.33995e-05
7.08402e-05
-4.37775e-05
7.13024e-05
-4.4204e-05
7.14038e-05
-4.46894e-05
7.10777e-05
-4.52479e-05
7.023e-05
-4.58943e-05
6.87526e-05
-4.66459e-05
6.65138e-05
-4.75248e-05
6.33582e-05
-4.85573e-05
5.90954e-05
-4.97777e-05
-5.12213e-05
5.34989e-05
5.65083e-05
-4.31288e-05
5.83795e-05
-4.32755e-05
6.02018e-05
-4.34296e-05
6.19736e-05
-4.35769e-05
6.3662e-05
-4.37082e-05
6.52678e-05
-4.38468e-05
6.67555e-05
-4.39831e-05
6.81163e-05
-4.4128e-05
6.93082e-05
-4.42636e-05
7.0309e-05
-4.44002e-05
7.10669e-05
-4.45354e-05
7.15248e-05
-4.46619e-05
7.1625e-05
-4.47896e-05
7.13021e-05
-4.49249e-05
7.04548e-05
-4.5047e-05
6.89763e-05
-4.51674e-05
6.67437e-05
-4.52923e-05
6.35934e-05
-4.5407e-05
5.93414e-05
-4.55257e-05
5.37634e-05
-4.56433e-05
1.38902e-06
0.000177291
-0.000185533
6.85214e-06
7.84024e-06
0.000146112
-0.000152563
1.26456e-05
0.00012044
-0.000125245
1.60438e-05
9.93658e-05
-0.000102764
1.82718e-05
8.21675e-05
-8.43953e-05
1.95638e-05
6.80854e-05
-6.93775e-05
2.0034e-05
5.66486e-05
-5.71189e-05
1.99234e-05
4.72486e-05
-4.71381e-05
1.92975e-05
3.95857e-05
-3.896e-05
1.82868e-05
3.32499e-05
-3.22393e-05
1.69514e-05
2.80519e-05
-2.67167e-05
1.53657e-05
2.37413e-05
-2.21558e-05
1.35605e-05
2.0179e-05
-1.83739e-05
1.15825e-05
1.71955e-05
-1.52176e-05
9.47392e-06
1.4744e-05
-1.26356e-05
7.2186e-06
1.27037e-05
-1.04483e-05
4.87378e-06
1.09943e-05
-8.64973e-06
2.45729e-06
9.55652e-06
-7.13996e-06
-5.9503e-08
8.3706e-06
-5.854e-06
7.39812e-06
-2.71274e-06
-4.74478e-06
1.32541e-06
0.000169259
6.70666e-06
7.43186e-06
0.000140005
1.19004e-05
0.000115972
1.49868e-05
9.62794e-05
1.69301e-05
8.02242e-05
1.79154e-05
6.71001e-05
1.82013e-05
5.63626e-05
1.78931e-05
4.75569e-05
1.7159e-05
4.03196e-05
1.60545e-05
3.43545e-05
1.47196e-05
2.93866e-05
1.31479e-05
2.53131e-05
1.14233e-05
2.19034e-05
9.56765e-06
1.90512e-05
7.59884e-06
1.67127e-05
5.55437e-06
1.47482e-05
3.4508e-06
1.30978e-05
1.24633e-06
1.17611e-05
-9.83511e-07
1.06004e-05
9.65515e-06
-3.2405e-06
1.29616e-06
0.000161513
6.44986e-06
7.11007e-06
0.000134191
1.13297e-05
0.000111752
1.41814e-05
9.34278e-05
1.59619e-05
7.84436e-05
1.68988e-05
6.61634e-05
1.71812e-05
5.608e-05
1.69193e-05
4.78188e-05
1.62446e-05
4.09942e-05
1.52754e-05
3.53237e-05
1.40018e-05
3.06602e-05
1.25464e-05
2.67686e-05
1.09295e-05
2.35202e-05
9.13061e-06
2.08502e-05
7.22626e-06
1.8617e-05
5.23451e-06
1.674e-05
3.15315e-06
1.51791e-05
1.02006e-06
1.38942e-05
-1.18594e-06
1.28063e-05
1.19153e-05
-3.44605e-06
1.30789e-06
0.000154055
6.14971e-06
6.89534e-06
0.000128604
1.08822e-05
0.000107766
1.36277e-05
9.06822e-05
1.53633e-05
7.67081e-05
1.62841e-05
6.52425e-05
1.65452e-05
5.58189e-05
1.63426e-05
4.80214e-05
1.57378e-05
4.15989e-05
1.47825e-05
3.62791e-05
1.36004e-05
3.18422e-05
1.21733e-05
2.81957e-05
1.05795e-05
2.51139e-05
8.83744e-06
2.25923e-05
6.98464e-06
2.04697e-05
4.99997e-06
1.87248e-05
2.94117e-06
1.72378e-05
8.27082e-07
1.60083e-05
-1.38296e-06
1.50163e-05
1.41426e-05
-3.61025e-06
1.34744e-06
0.000146836
5.87167e-06
6.71952e-06
0.000123232
1.05955e-05
0.000103889
1.3269e-05
8.80089e-05
1.49598e-05
7.50172e-05
1.5889e-05
6.43133e-05
1.62173e-05
5.54905e-05
1.60304e-05
4.82084e-05
1.54421e-05
4.21872e-05
1.45396e-05
3.71817e-05
1.33654e-05
3.30162e-05
1.19803e-05
2.9581e-05
1.04033e-05
2.66909e-05
8.67347e-06
2.43222e-05
6.80946e-06
2.23336e-05
4.85018e-06
2.06841e-05
2.79463e-06
1.92933e-05
6.62174e-07
1.81408e-05
-1.5083e-06
1.71867e-05
1.6391e-05
-3.75662e-06
1.39607e-06
0.000139834
5.60598e-06
6.62221e-06
0.000118006
1.04262e-05
0.000100085
1.30323e-05
8.54028e-05
1.47086e-05
7.33409e-05
1.56428e-05
6.33791e-05
1.59661e-05
5.51672e-05
1.58173e-05
4.83572e-05
1.52669e-05
4.27376e-05
1.43801e-05
3.80685e-05
1.32191e-05
3.41772e-05
1.18242e-05
3.09758e-05
1.0255e-05
2.826e-05
8.53074e-06
2.60465e-05
6.67067e-06
2.41938e-05
4.73361e-06
2.26211e-05
2.67938e-06
2.13475e-05
5.47092e-07
2.02731e-05
-1.64364e-06
1.93775e-05
1.86406e-05
-3.89329e-06
1.43477e-06
0.000132984
5.41616e-06
6.58888e-06
0.000112852
1.02854e-05
9.63888e-05
1.288e-05
8.28082e-05
1.45675e-05
7.16534e-05
1.54855e-05
6.2461e-05
1.58387e-05
5.4814e-05
1.56812e-05
4.85146e-05
1.51212e-05
4.32976e-05
1.42428e-05
3.89469e-05
1.30879e-05
3.53322e-05
1.17167e-05
3.23469e-05
1.01495e-05
2.98273e-05
8.42547e-06
2.77704e-05
6.58424e-06
2.6035e-05
4.60532e-06
2.46e-05
2.54808e-06
2.34048e-05
4.1205e-07
2.24091e-05
-1.78304e-06
2.15726e-05
2.08752e-05
-4.0177e-06
1.51346e-06
0.000126236
5.23458e-06
6.54526e-06
0.00010782
1.02334e-05
9.27006e-05
1.27838e-05
8.02578e-05
1.44432e-05
6.9994e-05
1.54021e-05
6.15021e-05
1.57196e-05
5.44965e-05
1.55874e-05
4.86468e-05
1.50521e-05
4.38329e-05
1.4177e-05
3.98219e-05
1.3004e-05
3.65052e-05
1.16534e-05
3.36976e-05
1.00655e-05
3.14152e-05
8.33977e-06
2.94961e-05
6.47598e-06
2.78988e-05
4.51353e-06
2.65624e-05
2.4522e-06
2.54662e-05
3.31417e-07
2.45298e-05
-1.86887e-06
2.37729e-05
2.31354e-05
-4.12908e-06
1.60087e-06
0.000119623
5.0119e-06
6.55537e-06
0.000102865
1.01807e-05
8.90753e-05
1.27305e-05
7.77079e-05
1.43819e-05
6.83426e-05
1.53195e-05
6.05645e-05
1.56788e-05
5.41373e-05
1.55289e-05
4.87966e-05
1.49756e-05
4.43864e-05
1.41014e-05
4.0696e-05
1.29681e-05
3.76385e-05
1.15762e-05
3.50894e-05
1.00059e-05
3.29856e-05
8.27676e-06
3.12252e-05
6.40882e-06
2.97668e-05
4.44151e-06
2.85297e-05
2.37468e-06
2.7533e-05
2.27885e-07
2.66766e-05
-1.97902e-06
2.59799e-05
2.53828e-05
-4.22643e-06
1.69927e-06
0.000113103
4.82095e-06
6.60939e-06
9.79551e-05
1.01982e-05
8.54865e-05
1.27093e-05
7.51969e-05
1.43726e-05
6.66793e-05
1.52874e-05
5.96497e-05
1.56463e-05
5.37784e-05
1.54967e-05
4.89462e-05
1.49633e-05
4.49198e-05
1.40685e-05
4.15908e-05
1.29136e-05
3.87934e-05
1.15392e-05
3.64638e-05
9.96546e-06
3.45593e-05
8.23229e-06
3.29584e-05
6.37936e-06
3.16197e-05
4.3866e-06
3.05225e-05
2.3335e-06
2.95861e-05
1.80005e-07
2.88301e-05
-2.03429e-06
2.81941e-05
2.76579e-05
-4.30943e-06
1.78698e-06
0.000106663
4.65287e-06
6.63245e-06
9.31097e-05
1.01944e-05
8.19245e-05
1.2711e-05
7.26803e-05
1.43471e-05
6.50432e-05
1.52991e-05
5.86978e-05
1.56166e-05
5.34608e-05
1.54664e-05
4.90964e-05
1.4932e-05
4.54542e-05
1.40758e-05
4.24471e-05
1.29185e-05
3.99506e-05
1.15211e-05
3.78613e-05
9.9434e-06
3.6137e-05
8.20555e-06
3.46963e-05
6.32722e-06
3.3498e-05
4.34832e-06
3.25014e-05
2.26848e-06
3.16659e-05
1.07592e-07
3.0991e-05
-2.09471e-06
3.03964e-05
2.99417e-05
-4.37847e-06
1.8829e-06
0.000100277
4.50264e-06
6.68809e-06
8.83045e-05
1.02469e-05
7.83656e-05
1.27308e-05
7.01964e-05
1.43604e-05
6.34135e-05
1.52891e-05
5.77691e-05
1.56452e-05
5.31047e-05
1.54937e-05
4.92479e-05
1.49379e-05
4.601e-05
1.40596e-05
4.33255e-05
1.28998e-05
4.11105e-05
1.15188e-05
3.92422e-05
9.93696e-06
3.77189e-05
8.19408e-06
3.64391e-05
6.31009e-06
3.5382e-05
4.32472e-06
3.44868e-05
2.23782e-06
3.37528e-05
8.90953e-08
3.31397e-05
-2.16162e-06
3.26471e-05
3.22146e-05
-4.43454e-06
1.96266e-06
9.39743e-05
4.34025e-06
6.77328e-06
8.34938e-05
1.02715e-05
7.48674e-05
1.27644e-05
6.77035e-05
1.44084e-05
6.17695e-05
1.53139e-05
5.68635e-05
1.56481e-05
5.27705e-05
1.55152e-05
4.93808e-05
1.49778e-05
4.65474e-05
1.40972e-05
4.4206e-05
1.29345e-05
4.22732e-05
1.15299e-05
4.06468e-05
9.94369e-06
3.93051e-05
8.19567e-06
3.81871e-05
6.32583e-06
3.72519e-05
4.31379e-06
3.64988e-05
2.21952e-06
3.58471e-05
4.26792e-08
3.53165e-05
-2.17677e-06
3.48666e-05
3.45171e-05
-4.47927e-06
2.07805e-06
8.76996e-05
4.19655e-06
6.81972e-06
7.87521e-05
1.03222e-05
7.13649e-05
1.28064e-05
6.52193e-05
1.44256e-05
6.01503e-05
1.53487e-05
5.59404e-05
1.57014e-05
5.24178e-05
1.5547e-05
4.95352e-05
1.49878e-05
4.71067e-05
1.4105e-05
4.50888e-05
1.29393e-05
4.34389e-05
1.15511e-05
4.20349e-05
9.9605e-06
4.08958e-05
8.20729e-06
3.99403e-05
6.31144e-06
3.91478e-05
4.3127e-06
3.84975e-05
2.231e-06
3.79288e-05
4.58447e-08
3.75017e-05
-2.20273e-06
3.71152e-05
3.68294e-05
-4.5151e-06
2.15891e-06
8.1461e-05
4.07966e-06
6.88149e-06
7.40295e-05
1.03935e-05
6.78528e-05
1.28518e-05
6.27611e-05
1.4468e-05
5.85341e-05
1.54096e-05
5.49988e-05
1.57209e-05
5.21065e-05
1.55853e-05
4.96708e-05
1.50445e-05
4.76475e-05
1.41394e-05
4.59938e-05
1.2991e-05
4.45873e-05
1.15791e-05
4.34468e-05
9.98404e-06
4.24909e-05
8.22564e-06
4.16987e-05
6.32376e-06
4.10497e-05
4.33832e-06
4.04829e-05
2.20879e-06
4.00584e-05
1.5164e-08
3.96953e-05
-2.24271e-06
3.93731e-05
3.91318e-05
-4.54508e-06
2.23477e-06
7.5248e-05
3.97825e-06
6.96231e-06
6.93019e-05
1.04255e-05
6.43897e-05
1.28994e-05
6.02871e-05
1.45334e-05
5.69001e-05
1.54334e-05
5.40988e-05
1.57839e-05
5.17561e-05
1.5627e-05
4.98277e-05
1.50644e-05
4.821e-05
1.41973e-05
4.68609e-05
1.30057e-05
4.57789e-05
1.16103e-05
4.48423e-05
1.00108e-05
4.40904e-05
8.24716e-06
4.34623e-05
6.35935e-06
4.29375e-05
4.32683e-06
4.25154e-05
2.20964e-06
4.21756e-05
2.75667e-08
4.18773e-05
-2.23977e-06
4.16405e-05
4.14646e-05
-4.57262e-06
2.31092e-06
6.90558e-05
3.88128e-06
7.00388e-06
6.4609e-05
1.04993e-05
6.08942e-05
1.29486e-05
5.78378e-05
1.456e-05
5.52888e-05
1.54785e-05
5.31802e-05
1.58075e-05
5.14271e-05
1.56692e-05
4.9966e-05
1.51249e-05
4.87544e-05
1.4215e-05
4.77707e-05
1.30606e-05
4.69334e-05
1.16412e-05
4.62616e-05
1.00372e-05
4.56944e-05
8.26829e-06
4.52312e-05
6.35425e-06
4.48516e-05
4.33488e-06
4.45348e-05
2.20982e-06
4.43007e-05
1.90165e-08
4.40681e-05
-2.27821e-06
4.39377e-05
4.37878e-05
-4.60142e-06
2.38008e-06