/*--------------------------------*- C++ -*----------------------------------*\
| =========                 |                                                 |
| \\      /  F ield         | OpenFOAM: The Open Source CFD Toolbox           |
|  \\    /   O peration     | Version:  2.3.0                                 |
|   \\  /    A nd           | Web:      www.OpenFOAM.org                      |
|    \\/     M anipulation  |                                                 |
\*---------------------------------------------------------------------------*/
FoamFile
{
    version     2.0;
    format      ascii;
    class       volVectorField;
    location    "100";
    object      U;
}
// * * * * * * * * * * * * * * * * * * * * * * * * * * * * * * * * * * * * * //

dimensions      [0 1 -1 0 0 0 0];

internalField   nonuniform List<vector> 
28256
(
(15.734 0.91917 -3.77719e-20)
(15.6336 0.959371 -1.04022e-19)
(15.5855 0.930549 1.79595e-19)
(15.5699 0.877244 -8.73116e-20)
(15.599 0.797059 1.84239e-19)
(15.6813 0.695558 0)
(15.8168 0.587812 1.4881e-19)
(16.0029 0.483135 -1.63061e-19)
(16.2336 0.388768 0)
(16.4965 0.314355 0)
(16.783 0.260377 2.18163e-20)
(17.0824 0.22805 0)
(17.3865 0.214286 0)
(17.6874 0.21625 5.30322e-22)
(17.98 0.229189 2.88001e-21)
(18.2578 0.254474 2.95834e-21)
(18.5203 0.285924 -3.61839e-21)
(18.7634 0.324952 7.72063e-21)
(18.9934 0.359849 3.62742e-21)
(19.2066 0.387759 -9.8602e-21)
(16.0095 0.460036 2.37243e-20)
(16.0116 0.393145 -2.94135e-20)
(16.0773 0.275223 -1.1586e-19)
(16.1917 0.142158 9.03796e-20)
(16.3586 -0.000375251 -1.34946e-20)
(16.5757 -0.142457 0)
(16.8349 -0.273838 0)
(17.1257 -0.389435 7.52885e-20)
(17.4348 -0.484238 -1.10335e-19)
(17.7496 -0.556056 4.63e-20)
(18.0589 -0.604748 0)
(18.3541 -0.631491 1.68927e-22)
(18.6291 -0.638689 -6.84531e-21)
(18.8801 -0.629645 4.09804e-21)
(19.1056 -0.607941 -7.03466e-21)
(19.305 -0.575605 2.26472e-20)
(19.4806 -0.537296 6.79135e-21)
(19.6328 -0.494862 -1.6581e-20)
(19.7643 -0.449806 -2.45981e-20)
(19.8779 -0.403795 2.29223e-20)
(16.3089 0.076188 1.02895e-20)
(16.3964 -0.0374827 -5.86493e-22)
(16.5452 -0.189492 2.7468e-21)
(16.7382 -0.34582 2.88792e-20)
(16.9716 -0.499179 -3.57842e-20)
(17.2367 -0.639149 -2.83747e-21)
(17.5227 -0.75813 0)
(17.8184 -0.851574 7.12486e-21)
(18.1126 -0.917332 0)
(18.3967 -0.957132 1.21857e-20)
(18.6645 -0.973973 -1.29618e-20)
(18.9117 -0.971934 1.95017e-20)
(19.1362 -0.954929 5.49849e-21)
(19.3377 -0.927441 -1.66599e-20)
(19.517 -0.892378 -1.90232e-21)
(19.6755 -0.852572 0)
(19.8149 -0.810166 -5.91407e-22)
(19.9378 -0.767043 2.55561e-20)
(20.0457 -0.723844 -2.33083e-20)
(20.1407 -0.681151 -3.88525e-22)
(16.6164 -0.237612 0)
(16.762 -0.355166 0)
(16.9667 -0.506809 -1.3508e-20)
(17.2048 -0.650565 8.75949e-21)
(17.4684 -0.780714 -6.48482e-21)
(17.7473 -0.890653 8.3536e-21)
(18.0308 -0.976937 0)
(18.3095 -1.03885 -4.65641e-21)
(18.5758 -1.07747 -1.78052e-20)
(18.8246 -1.09612 1.80314e-20)
(19.0531 -1.09839 0)
(19.2599 -1.08755 1.14428e-21)
(19.4453 -1.06674 0)
(19.6105 -1.03909 3.52375e-22)
(19.757 -1.00664 1.42129e-21)
(19.8869 -0.971242 1.68056e-21)
(20.0019 -0.934221 0)
(20.104 -0.896401 0)
(20.1949 -0.858391 -8.36962e-22)
(20.2763 -0.82072 0)
(16.9136 -0.466058 0)
(17.0978 -0.584258 2.60638e-20)
(17.3334 -0.720752 -5.69911e-20)
(17.5898 -0.841221 3.00189e-20)
(17.8579 -0.943359 2.97456e-20)
(18.1278 -1.02416 -1.50219e-20)
(18.3914 -1.08295 -2.69376e-20)
(18.6423 -1.12099 8.49926e-20)
(18.8763 -1.14059 -4.97662e-20)
(19.0911 -1.14494 -7.85575e-21)
(19.286 -1.13726 0)
(19.4614 -1.12043 -3.05533e-21)
(19.6183 -1.09692 0)
(19.7585 -1.06871 2.53262e-22)
(19.8835 -1.03745 -2.97707e-20)
(19.9951 -1.00429 2.55489e-20)
(20.0951 -0.969909 1.80582e-21)
(20.1849 -0.935067 8.9586e-22)
(20.2658 -0.900169 8.73884e-22)
(20.3391 -0.865331 0)
(17.1918 -0.65796 -9.47913e-20)
(17.3994 -0.750682 -3.54384e-20)
(17.6477 -0.863205 6.29996e-20)
(17.9057 -0.956721 -2.70075e-20)
(18.1647 -1.0312 8.02523e-21)
(18.4171 -1.08636 -1.81626e-20)
(18.6569 -1.1231 0)
(18.8806 -1.14354 9.20944e-21)
(19.0861 -1.15025 2.58599e-20)
(19.2729 -1.14587 1.0704e-20)
(19.4415 -1.13296 -1.14319e-21)
(19.5929 -1.11371 -3.03501e-20)
(19.7287 -1.08981 -3.67925e-20)
(19.8505 -1.06261 -4.22839e-21)
(19.96 -1.03316 5.93134e-20)
(20.0585 -1.0023 -6.07766e-20)
(20.1474 -0.970558 -3.65593e-21)
(20.2281 -0.938369 2.83955e-20)
(20.3016 -0.905921 0)
(20.3688 -0.8734 0)
(17.4524 -0.783784 1.3441e-19)
(17.6671 -0.86846 -1.39976e-19)
(17.914 -0.956617 4.55983e-20)
(18.163 -1.02533 0)
(18.406 -1.07646 0)
(18.6375 -1.11135 4.27138e-20)
(18.8536 -1.13171 1.93614e-20)
(19.0525 -1.1397 -3.44966e-20)
(19.2338 -1.13761 4.67017e-20)
(19.3979 -1.12757 -2.50154e-20)
(19.5459 -1.11142 -4.61089e-22)
(19.6791 -1.09074 0)
(19.799 -1.06673 4.01135e-21)
(19.9073 -1.04037 3.39723e-20)
(20.0052 -1.01234 -3.16674e-20)
(20.094 -0.983205 3.30359e-20)
(20.175 -0.953302 -4.18579e-22)
(20.249 -0.922912 -3.12958e-20)
(20.317 -0.89221 -3.4871e-20)
(20.3798 -0.861322 3.19492e-20)
(17.6795 -0.889888 0)
(17.9005 -0.955673 2.37468e-19)
(18.1384 -1.01884 -8.82833e-20)
(18.3728 -1.06543 0)
(18.5973 -1.09737 4.53908e-20)
(18.8078 -1.11644 -1.39356e-20)
(19.0022 -1.12452 -1.07033e-19)
(19.1799 -1.12349 5.80439e-20)
(19.3412 -1.11521 0)
(19.4871 -1.10127 -9.00323e-21)
(19.6189 -1.08302 4.40921e-21)
(19.738 -1.06154 -3.69921e-20)
(19.8457 -1.03767 3.4256e-20)
(19.9436 -1.01206 0)
(20.0327 -0.985144 2.0951e-21)
(20.1141 -0.957293 -3.04841e-20)
(20.189 -0.928743 3.31156e-20)
(20.2578 -0.899718 0)
(20.3215 -0.870346 3.68352e-20)
(20.3806 -0.840697 -3.39296e-20)
(17.8815 -0.96445 0)
(18.1017 -1.01915 -9.5653e-20)
(18.3262 -1.06069 0)
(18.5438 -1.0889 0)
(18.7494 -1.1055 4.91508e-20)
(18.9404 -1.1123 -6.76321e-20)
(19.1156 -1.11105 4.23722e-20)
(19.2753 -1.1033 2.08674e-20)
(19.4202 -1.09045 -3.11619e-20)
(19.5515 -1.07361 3.82599e-20)
(19.6704 -1.05378 -9.781e-21)
(19.7783 -1.03162 -4.76051e-21)
(19.8766 -1.00774 0)
(19.9663 -0.982531 3.6907e-20)
(20.0486 -0.95632 -3.50216e-20)
(20.1243 -0.929348 3.18727e-20)
(20.1942 -0.901785 -6.42833e-20)
(20.259 -0.87374 3.49532e-20)
(20.3192 -0.84531 -3.868e-20)
(20.3755 -0.816547 3.80227e-20)
(18.0632 -1.02839 0)
(18.2738 -1.06372 0)
(18.4834 -1.08896 5.28924e-20)
(18.6837 -1.10289 -4.95126e-20)
(18.8713 -1.10765 -9.54318e-20)
(19.0446 -1.10508 6.97032e-20)
(19.2032 -1.09672 0)
(19.3477 -1.08379 -5.45452e-20)
(19.479 -1.06732 7.32921e-20)
(19.5984 -1.04814 1.79683e-21)
(19.707 -1.02688 -2.89295e-20)
(19.806 -1.00402 4.71445e-21)
(19.8967 -0.97992 -4.34931e-20)
(19.98 -0.954842 3.67807e-20)
(20.0568 -0.929 3.79336e-20)
(20.1279 -0.902507 1.31224e-21)
(20.1939 -0.875496 -3.36189e-21)
(20.2554 -0.848042 -3.67558e-20)
(20.3129 -0.820194 2.34186e-21)
(20.3669 -0.792009 2.40153e-21)
(18.2304 -1.07959 -5.79422e-20)
(18.4234 -1.09678 5.81136e-20)
(18.6162 -1.10965 0)
(18.7992 -1.11268 5.34418e-20)
(18.9698 -1.1084 0)
(19.1272 -1.09863 1.54502e-21)
(19.2714 -1.08474 0)
(19.403 -1.06773 0)
(19.5231 -1.04832 1.08262e-20)
(19.6327 -1.02708 4.20699e-20)
(19.7329 -1.00443 -3.95699e-20)
(19.8248 -0.980687 0)
(19.9094 -0.956097 4.81541e-21)
(19.9876 -0.930787 4.43987e-20)
(20.06 -0.904907 -3.31325e-20)
(20.1274 -0.878529 -3.43649e-20)
(20.1903 -0.851711 3.33047e-20)
(20.2491 -0.824506 4.8915e-21)
(20.3044 -0.796966 -3.98254e-20)
(20.3565 -0.7691 3.93227e-20)
(18.3755 -1.11888 -1.38172e-21)
(18.5533 -1.12425 -5.63428e-20)
(18.7293 -1.12744 0)
(18.8954 -1.12213 -5.06128e-20)
(19.0503 -1.111 5.08339e-20)
(19.1934 -1.09575 -7.05078e-20)
(19.325 -1.07755 -2.35404e-20)
(19.4456 -1.05718 0)
(19.5561 -1.03521 -1.05513e-20)
(19.6576 -1.01204 -1.06758e-20)
(19.7509 -0.98798 0)
(19.8369 -0.963217 -4.12591e-20)
(19.9166 -0.937876 7.03313e-20)
(19.9907 -0.912035 -4.43674e-20)
(20.0595 -0.885783 -4.5522e-20)
(20.124 -0.859173 7.51054e-20)
(20.1844 -0.832225 -7.54032e-20)
(20.2412 -0.804966 3.49332e-20)
(20.2948 -0.777406 4.65638e-20)
(20.3454 -0.749561 -4.61683e-20)
(18.5083 -1.15068 -6.14605e-20)
(18.6679 -1.15025 1.13807e-19)
(18.8262 -1.14554 2.95048e-20)
(18.9762 -1.13388 -1.33183e-19)
(19.1167 -1.11759 2.40722e-20)
(19.247 -1.09816 2.46907e-20)
(19.3675 -1.07658 -4.81435e-20)
(19.4786 -1.05351 4.4291e-20)
(19.5811 -1.02936 0)
(19.6758 -1.00443 1.05171e-20)
(19.7634 -0.978908 0)
(19.8447 -0.952936 -5.28276e-20)
(19.9204 -0.926581 9.30862e-20)
(19.991 -0.899933 -4.07043e-20)
(20.0572 -0.873018 -5.22654e-20)
(20.1193 -0.845843 4.09673e-20)
(20.1778 -0.818424 5.24174e-21)
(20.2331 -0.79078 -4.2622e-20)
(20.2854 -0.762904 3.67685e-20)
(20.335 -0.734807 0)
(18.6232 -1.17952 0)
(18.7671 -1.17399 -1.99217e-21)
(18.9094 -1.16426 -5.68216e-20)
(19.0449 -1.14854 5.16279e-20)
(19.1723 -1.12893 -2.66114e-20)
(19.2912 -1.10669 2.43713e-20)
(19.4019 -1.08272 3.49343e-20)
(19.5048 -1.05757 0)
(19.6004 -1.03159 5.62882e-20)
(19.6893 -1.00504 -5.40579e-20)
(19.7722 -0.978089 0)
(19.8496 -0.950855 -3.26664e-20)
(19.922 -0.923399 4.19309e-20)
(19.99 -0.895774 0)
(20.054 -0.867947 1.0584e-20)
(20.1144 -0.839975 4.33272e-20)
(20.1716 -0.81183 6.44685e-21)
(20.2258 -0.783525 -4.3146e-20)
(20.2773 -0.75509 3.90111e-20)
(20.3263 -0.72651 -4.42023e-20)
(18.7271 -1.20426 1.30702e-19)
(18.8557 -1.19635 -9.07373e-20)
(18.9829 -1.18435 2.60268e-20)
(19.1046 -1.16674 2.61993e-20)
(19.2201 -1.14547 0)
(19.3288 -1.12173 0)
(19.4308 -1.0963 3.98698e-22)
(19.5265 -1.06975 0)
(19.6161 -1.04247 -1.112e-20)
(19.7002 -1.01464 1.09637e-20)
(19.7791 -0.98649 -5.55522e-20)
(19.8532 -0.958053 -1.01369e-21)
(19.9231 -0.929437 4.32282e-20)
(19.989 -0.900696 -1.10071e-20)
(20.0515 -0.871812 -4.45128e-20)
(20.1106 -0.842832 7.75858e-20)
(20.1669 -0.813751 9.87612e-22)
(20.2204 -0.784618 -4.46744e-20)
(20.2715 -0.755391 5.70058e-21)
(20.3204 -0.72608 0)
(18.8247 -1.22445 3.51901e-20)
(18.9374 -1.21816 2.84738e-20)
(19.0498 -1.20603 -5.78736e-20)
(19.1586 -1.18842 0)
(19.2629 -1.16701 5.19899e-20)
(19.3623 -1.14303 -4.9233e-20)
(19.4565 -1.11719 3.6615e-20)
(19.5458 -1.09009 8.63019e-22)
(19.6302 -1.06207 -4.55607e-20)
(19.71 -1.03342 0)
(19.7854 -1.00433 5.67047e-20)
(19.857 -0.974857 -1.01195e-19)
(19.9249 -0.9452 -9.05781e-22)
(19.9893 -0.915412 5.5865e-20)
(20.0505 -0.885463 -4.58349e-20)
(20.1089 -0.855429 5.66763e-20)
(20.1647 -0.825372 3.5078e-20)
(20.218 -0.795223 -4.62392e-20)
(20.269 -0.765056 4.75744e-20)
(20.318 -0.734895 -4.73257e-20)
(18.915 -1.24512 1.27396e-21)
(19.0134 -1.24027 8.89574e-20)
(19.1122 -1.22922 2.94044e-20)
(19.2091 -1.21295 -5.40647e-20)
(19.3032 -1.19278 0)
(19.394 -1.16976 7.58947e-20)
(19.4812 -1.14456 -4.84239e-20)
(19.5647 -1.11774 0)
(19.6445 -1.08972 -1.1827e-20)
(19.7207 -1.06079 -3.52656e-20)
(19.7934 -1.03116 9.27726e-20)
(19.8628 -1.00101 -9.2791e-20)
(19.9291 -0.970567 3.43915e-20)
(19.9923 -0.939902 0)
(20.0529 -0.908975 -3.56699e-20)
(20.1108 -0.877916 3.5179e-20)
(20.1664 -0.846797 0)
(20.2197 -0.815611 0)
(20.271 -0.784463 1.21853e-20)
(20.3204 -0.753324 0)
(18.9989 -1.26219 -6.74246e-20)
(19.0843 -1.25975 -1.15005e-21)
(19.1709 -1.25172 -5.71589e-20)
(19.2569 -1.23844 0)
(19.3416 -1.22092 5.26571e-20)
(19.4245 -1.20017 -8.85515e-20)
(19.5051 -1.17685 6.23608e-20)
(19.5832 -1.15149 -1.17862e-20)
(19.6587 -1.12442 -4.79611e-20)
(19.7315 -1.09602 -1.18184e-20)
(19.8018 -1.06654 -1.20641e-20)
(19.8694 -1.03631 -4.79741e-20)
(19.9345 -1.00552 2.32142e-20)
(19.9969 -0.974383 -7.66278e-22)
(20.057 -0.942826 -6.0639e-22)
(20.1148 -0.910919 1.14144e-20)
(20.1705 -0.878804 -7.65214e-22)
(20.2243 -0.846643 4.92796e-20)
(20.2763 -0.814436 6.59369e-23)
(20.3264 -0.78236 -5.1183e-20)
(19.0813 -1.26796 1.33684e-19)
(19.1548 -1.27134 2.95662e-20)
(19.2306 -1.26836 2.82406e-20)
(19.3071 -1.25981 0)
(19.3838 -1.24631 0)
(19.4599 -1.2291 6.54324e-20)
(19.5349 -1.20873 -1.15518e-19)
(19.6084 -1.1858 1.18277e-20)
(19.6801 -1.16057 6.23822e-20)
(19.7499 -1.13343 -1.20625e-20)
(19.8179 -1.10473 2.36805e-22)
(19.884 -1.07489 1.23386e-20)
(19.9481 -1.04427 -1.24037e-20)
(20.01 -1.01312 1.216e-20)
(20.0695 -0.981409 -5.19485e-20)
(20.1269 -0.949043 1.03225e-19)
(20.1825 -0.916296 -6.43483e-20)
(20.2367 -0.883269 0)
(20.2895 -0.850273 -1.31323e-20)
(20.3405 -0.817449 1.29483e-20)
(19.1633 -1.26057 9.31889e-20)
(19.2208 -1.27278 -1.05869e-21)
(19.2824 -1.2764 -5.46853e-20)
(19.3471 -1.27684 0)
(19.415 -1.26946 4.99029e-20)
(19.4834 -1.25825 -4.86652e-20)
(19.5515 -1.24317 -6.02172e-20)
(19.6194 -1.22499 4.64292e-20)
(19.6866 -1.20401 3.34834e-20)
(19.7537 -1.18059 -4.60332e-20)
(19.8205 -1.1534 5.85661e-20)
(19.8856 -1.12436 -1.05608e-19)
(19.9489 -1.09436 -1.29321e-20)
(20.0101 -1.06432 3.43045e-20)
(20.0692 -1.03419 -2.51788e-20)
(20.1275 -1.00194 4.86323e-20)
(20.1851 -0.967815 -7.2318e-20)
(20.2409 -0.933007 4.93373e-20)
(20.295 -0.898571 0)
(20.3469 -0.86518 -1.30564e-20)
(19.3976 0.440429 0)
(19.5634 0.530892 -4.08792e-22)
(19.733 0.63958 -1.57071e-19)
(19.9002 0.766728 1.77882e-19)
(20.0667 0.903257 -2.51386e-19)
(20.2271 1.05379 2.8552e-19)
(20.3817 1.21483 0)
(20.5282 1.38496 4.40006e-19)
(20.6627 1.56274 1.63855e-20)
(20.7821 1.74271 -3.50029e-20)
(20.8822 1.92008 -3.61173e-20)
(20.9604 2.08877 -9.60661e-19)
(21.0147 2.2432 -1.1606e-19)
(21.0457 2.37584 1.02937e-18)
(21.0556 2.47996 -1.09176e-18)
(21.049 2.55054 -1.06098e-18)
(21.0316 2.58554 2.06009e-18)
(21.009 2.58787 -1.92908e-18)
(20.9899 2.55871 -8.42599e-19)
(20.9519 2.54543 1.34154e-18)
(19.9803 -0.355485 3.02509e-20)
(20.0818 -0.301386 -3.27904e-20)
(20.188 -0.237332 -4.66662e-20)
(20.2984 -0.160354 5.4025e-20)
(20.4124 -0.0688512 2.79008e-22)
(20.5295 0.0372167 0)
(20.648 0.160478 0)
(20.7664 0.300761 1.66944e-20)
(20.8816 0.459411 0)
(20.9907 0.634039 4.10906e-19)
(21.09 0.822381 -4.78328e-19)
(21.1759 1.01974 7.31876e-20)
(21.2443 1.22073 1.58875e-19)
(21.292 1.4179 0)
(21.3168 1.60344 -1.80478e-19)
(21.318 1.76979 3.89004e-19)
(21.2975 1.91056 -7.65308e-19)
(21.26 2.0221 3.08724e-20)
(21.2157 2.09785 9.44057e-19)
(21.1522 2.18 1.29011e-18)
(20.2275 -0.638277 0)
(20.3136 -0.592292 0)
(20.4025 -0.539769 -6.26084e-22)
(20.4946 -0.479523 0)
(20.59 -0.41074 1.12326e-19)
(20.6885 -0.331047 3.56998e-21)
(20.7896 -0.239254 -3.07455e-19)
(20.8923 -0.13314 1.75319e-19)
(20.9944 -0.0118888 -2.17201e-19)
(21.0937 0.125621 -1.01677e-20)
(21.1868 0.280156 3.26126e-19)
(21.2701 0.449855 0)
(21.3394 0.633272 -5.17982e-19)
(21.3909 0.826164 -2.91849e-21)
(21.4219 1.02227 8.55412e-19)
(21.4307 1.21518 -2.85732e-19)
(21.4181 1.39717 1.22316e-18)
(21.3866 1.56157 -1.56117e-20)
(21.3438 1.69919 -1.38693e-18)
(21.2887 1.8345 -7.08423e-19)
(20.3512 -0.78273 2.98893e-20)
(20.4249 -0.741773 -3.14081e-20)
(20.5 -0.696285 -3.806e-20)
(20.5767 -0.645425 4.13509e-20)
(20.6555 -0.587759 -1.57343e-21)
(20.7365 -0.521812 1.18488e-19)
(20.8196 -0.446573 -1.32479e-19)
(20.9046 -0.359926 4.8284e-21)
(20.9905 -0.260976 -1.22568e-20)
(21.0761 -0.148044 -2.27339e-19)
(21.1592 -0.020127 2.77406e-19)
(21.2377 0.123249 0)
(21.3083 0.282296 4.04596e-19)
(21.3673 0.454406 -9.47842e-20)
(21.4113 0.637301 -1.16374e-19)
(21.4373 0.826046 -4.90578e-19)
(21.4435 1.01481 -7.54456e-19)
(21.4307 1.19724 1.01392e-18)
(21.4031 1.36511 -2.53732e-19)
(21.363 1.53018 2.14143e-19)
(20.4072 -0.830161 0)
(20.474 -0.792744 1.03639e-21)
(20.5412 -0.751788 0)
(20.6092 -0.706699 -4.49267e-20)
(20.6786 -0.656214 4.87176e-20)
(20.7494 -0.599811 3.43221e-21)
(20.8216 -0.536283 3.74814e-21)
(20.8955 -0.464031 -1.47654e-19)
(20.9703 -0.381921 1.49886e-19)
(21.0454 -0.288861 -1.91728e-19)
(21.1196 -0.18311 2.167e-19)
(21.1914 -0.0634899 0)
(21.2582 0.0701433 -3.70582e-19)
(21.3178 0.218399 8.18877e-20)
(21.3671 0.379914 3.72104e-19)
(21.4031 0.551907 -4.08286e-19)
(21.4238 0.730877 1.08298e-18)
(21.4285 0.911843 -6.56144e-19)
(21.4193 1.08838 -4.36763e-19)
(21.4008 1.26097 3.8822e-19)
(20.4316 -0.84043 3.29066e-20)
(20.4929 -0.805532 -3.5067e-20)
(20.5542 -0.76776 -4.1071e-20)
(20.6156 -0.726639 4.35565e-20)
(20.6776 -0.681475 -9.69837e-20)
(20.7405 -0.631512 1.01209e-19)
(20.8043 -0.575933 -7.24495e-21)
(20.8692 -0.513571 1.32749e-19)
(20.935 -0.443426 1.3844e-20)
(21.0011 -0.364461 -1.7724e-19)
(21.0675 -0.274929 -1.96089e-19)
(21.1325 -0.17403 2.46115e-19)
(21.1951 -0.0606242 6.34013e-20)
(21.2534 0.0661524 2.18034e-19)
(21.3051 0.206113 3.793e-21)
(21.3479 0.358425 -6.9845e-19)
(21.3797 0.52105 3.72201e-19)
(21.3994 0.690844 1.96754e-19)
(21.4081 0.86285 1.86403e-19)
(21.4044 1.03917 -1.83127e-19)
(20.4387 -0.829907 -3.45435e-20)
(20.4961 -0.796894 3.31925e-20)
(20.553 -0.761462 4.44946e-20)
(20.6097 -0.723292 -8.43526e-20)
(20.6665 -0.681876 4.52706e-20)
(20.7236 -0.636592 0)
(20.7813 -0.586757 3.54347e-21)
(20.8396 -0.531569 -1.33242e-19)
(20.8984 -0.470262 1.36443e-19)
(20.9577 -0.401811 9.9132e-21)
(21.0172 -0.324946 2.15445e-20)
(21.0763 -0.238582 -2.49179e-19)
(21.1342 -0.141643 1.92179e-19)
(21.1897 -0.0329393 6.41408e-20)
(21.2413 0.087911 -3.48603e-19)
(21.2874 0.22105 5.3497e-19)
(21.3262 0.365808 -4.87952e-19)
(21.3567 0.520884 -3.42779e-19)
(21.379 0.68257 1.68394e-19)
(21.3898 0.855609 -1.64249e-19)
(20.4363 -0.810485 3.6345e-20)
(20.4905 -0.778878 -3.23947e-20)
(20.5439 -0.745228 -2.51997e-21)
(20.5969 -0.709284 0)
(20.6496 -0.670625 0)
(20.7023 -0.628807 1.01726e-19)
(20.7551 -0.583307 -1.07743e-19)
(20.8082 -0.533593 1.28323e-19)
(20.8616 -0.478922 -1.29788e-19)
(20.9154 -0.418423 0)
(20.9695 -0.351139 -1.841e-19)
(21.0236 -0.276015 1.94866e-20)
(21.0772 -0.191952 1.75035e-19)
(21.1298 -0.0979965 0)
(21.1802 0.0065924 6.32994e-20)
(21.2274 0.122562 3.42466e-19)
(21.2705 0.250138 -2.8666e-19)
(21.3084 0.388916 -3.08714e-19)
(21.3408 0.536577 4.69173e-19)
(21.3646 0.698574 1.6285e-21)
(20.4287 -0.787215 -2.34523e-21)
(20.4803 -0.756648 -4.90738e-21)
(20.5309 -0.724377 4.71225e-20)
(20.5808 -0.690162 -8.23291e-20)
(20.6304 -0.65364 4.62143e-20)
(20.6797 -0.61449 0)
(20.7288 -0.572361 6.68902e-21)
(20.7778 -0.526814 -1.17657e-19)
(20.827 -0.477193 2.53242e-19)
(20.8765 -0.422778 -1.19976e-19)
(20.9263 -0.362859 0)
(20.9762 -0.29663 0)
(21.0262 -0.223038 -1.40241e-19)
(21.0758 -0.141173 2.53338e-19)
(21.1247 -0.0500837 0)
(21.1721 0.0510771 -3.07608e-19)
(21.2174 0.163007 3.98163e-19)
(21.26 0.285791 1.38528e-19)
(21.2999 0.418552 -2.94092e-19)
(21.3338 0.566646 0)
(20.418 -0.763301 7.345e-21)
(20.4675 -0.733515 7.64264e-21)
(20.516 -0.702233 -5.35502e-21)
(20.5635 -0.669276 -5.11797e-20)
(20.6105 -0.634411 4.69401e-20)
(20.657 -0.597397 1.01631e-19)
(20.7033 -0.557908 -1.19252e-19)
(20.7493 -0.515576 -1.22803e-19)
(20.7953 -0.46991 1.22138e-19)
(20.8416 -0.420319 -1.51358e-19)
(20.888 -0.366328 1.25505e-19)
(20.9347 -0.307169 -1.78732e-19)
(20.9816 -0.242 1.49531e-19)
(21.0288 -0.169965 -1.06068e-21)
(21.076 -0.0900939 5.11737e-20)
(21.123 -0.00150771 2.83018e-19)
(21.1695 0.0964486 -2.41166e-19)
(21.2152 0.204582 -5.16136e-19)
(21.26 0.322359 2.65687e-19)
(21.3017 0.45442 3.99388e-19)
(20.406 -0.740735 3.1154e-20)
(20.4538 -0.711417 -5.23829e-20)
(20.5006 -0.680836 5.00199e-20)
(20.5464 -0.648874 -9.18718e-20)
(20.5914 -0.615337 5.36188e-20)
(20.6358 -0.579989 1.0232e-19)
(20.6799 -0.54255 -9.91818e-20)
(20.7237 -0.50277 1.14458e-19)
(20.7674 -0.460283 -1.1965e-19)
(20.8111 -0.41464 -1.30271e-19)
(20.8551 -0.365389 2.77951e-19)
(20.8993 -0.311955 -1.48461e-19)
(20.9439 -0.253641 1.63676e-19)
(20.9891 -0.189639 -4.2343e-20)
(21.0349 -0.119169 -2.39186e-19)
(21.0813 -0.0414152 2.08961e-19)
(21.1282 0.0445748 -2.22759e-19)
(21.1756 0.139374 1.20433e-19)
(21.2236 0.243147 -1.26222e-19)
(21.2703 0.360186 -2.55699e-19)
(20.3937 -0.721284 -3.76148e-20)
(20.4404 -0.692219 4.3249e-20)
(20.4859 -0.662095 -5.67246e-21)
(20.5303 -0.630792 -4.75473e-20)
(20.5741 -0.598144 4.85225e-20)
(20.617 -0.564028 1.03258e-19)
(20.6596 -0.528246 1.9037e-21)
(20.7017 -0.490566 -1.04545e-19)
(20.7437 -0.450693 -1.34645e-19)
(20.7857 -0.408261 1.40803e-19)
(20.8278 -0.362895 3.36135e-20)
(20.8703 -0.314148 -1.26735e-19)
(20.9133 -0.261394 1.53629e-19)
(20.957 -0.204077 -1.67619e-19)
(21.0016 -0.141506 2.23434e-19)
(21.0472 -0.0728414 1.46715e-19)
(21.094 0.00261879 -2.0721e-19)
(21.1422 0.0856909 1.10016e-19)
(21.1921 0.176907 0)
(21.2419 0.279881 -1.20298e-19)
(20.3825 -0.706366 3.90003e-20)
(20.4284 -0.677273 -3.9114e-20)
(20.473 -0.647309 5.8227e-21)
(20.5167 -0.616397 0)
(20.5595 -0.584426 -6.24289e-21)
(20.6016 -0.551275 1.04213e-19)
(20.6431 -0.516777 -9.32163e-20)
(20.6842 -0.480747 1.13128e-19)
(20.7251 -0.442937 -8.73611e-20)
(20.7659 -0.403083 -1.4026e-19)
(20.8068 -0.360933 1.13371e-19)
(20.8481 -0.316069 1.22381e-19)
(20.89 -0.268031 -1.46934e-19)
(20.9326 -0.216321 0)
(20.9762 -0.16032 1.6986e-19)
(21.0211 -0.0994387 -3.18163e-19)
(21.0676 -0.0328603 1.94327e-19)
(21.1159 0.0400818 -5.33252e-20)
(21.1665 0.119915 1.10297e-19)
(21.2179 0.210079 -2.23433e-19)
(20.3733 -0.697675 -4.02592e-20)
(20.4188 -0.66834 4.03301e-20)
(20.4631 -0.638306 5.4236e-20)
(20.5063 -0.607562 -9.83265e-20)
(20.5486 -0.575982 -5.19317e-20)
(20.5903 -0.54343 2.09176e-19)
(20.6313 -0.509831 -1.20889e-19)
(20.6718 -0.475055 -1.39678e-20)
(20.7122 -0.438867 -1.42407e-22)
(20.7523 -0.401124 1.37883e-19)
(20.7926 -0.361598 -1.27e-19)
(20.8331 -0.319918 2.04749e-22)
(20.8742 -0.275726 1.43404e-19)
(20.9161 -0.228633 -1.719e-20)
(20.959 -0.178169 -2.01093e-19)
(21.0032 -0.1238 1.72753e-19)
(21.0491 -0.0648876 -1.82838e-19)
(21.0969 -0.000741227 -1.96862e-19)
(21.1472 0.0691826 3.10212e-19)
(21.1986 0.148226 -2.09601e-19)
(20.3673 -0.696631 1.1755e-20)
(20.4127 -0.666804 -5.98297e-21)
(20.457 -0.636484 -6.1834e-20)
(20.5002 -0.605637 4.99026e-20)
(20.5424 -0.574142 1.28641e-20)
(20.584 -0.541934 1.31973e-20)
(20.6249 -0.508926 1.35732e-20)
(20.6653 -0.475057 1.41142e-20)
(20.7054 -0.440111 -1.31652e-19)
(20.7454 -0.403993 -1.67018e-20)
(20.7854 -0.36648 1.40563e-19)
(20.8256 -0.327328 1.65288e-20)
(20.8662 -0.28634 0)
(20.9076 -0.243121 2.41128e-22)
(20.9498 -0.197351 1.54474e-19)
(20.9933 -0.148513 -1.6266e-19)
(21.0383 -0.0961194 -4.31199e-20)
(21.0851 -0.0396253 -2.31319e-19)
(21.1342 0.0214935 4.81678e-20)
(21.1839 0.0907241 3.02016e-19)
(20.3652 -0.704665 -6.1031e-20)
(20.4109 -0.674194 -7.79121e-22)
(20.4555 -0.643343 3.74314e-20)
(20.499 -0.612132 0)
(20.5415 -0.580509 -1.18991e-19)
(20.5833 -0.548343 9.31568e-20)
(20.6244 -0.515657 -1.3802e-20)
(20.665 -0.482282 1.13664e-19)
(20.7053 -0.448124 -1.15461e-19)
(20.7454 -0.413143 -1.20539e-19)
(20.7854 -0.377178 2.32248e-19)
(20.8256 -0.340042 -2.57534e-19)
(20.866 -0.301551 1.50227e-19)
(20.907 -0.2615 1.76841e-20)
(20.9487 -0.21957 -3.67023e-20)
(20.9915 -0.175324 1.95199e-19)
(21.0356 -0.128555 -1.63745e-19)
(21.0812 -0.0787151 0)
(21.1288 -0.0255232 -4.63889e-20)
(21.1775 0.0343099 9.54997e-20)
(20.3681 -0.722224 5.05533e-20)
(20.4144 -0.690942 -3.78389e-20)
(20.4595 -0.659422 8.1471e-23)
(20.5035 -0.627725 1.31079e-20)
(20.5465 -0.595717 -1.07971e-19)
(20.5887 -0.563413 1.08489e-19)
(20.6302 -0.530703 0)
(20.6713 -0.497492 1.41508e-20)
(20.712 -0.463736 -1.44694e-20)
(20.7524 -0.429517 -1.34865e-19)
(20.7926 -0.394646 1.2214e-19)
(20.8329 -0.358959 1.27354e-19)
(20.8734 -0.322402 -2.95047e-19)
(20.9141 -0.284809 1.52723e-19)
(20.9554 -0.245908 1.78866e-19)
(20.9974 -0.205525 -3.6495e-20)
(21.0404 -0.163307 -1.16988e-19)
(21.0845 -0.118906 2.07385e-19)
(21.1302 -0.0720687 -8.67055e-20)
(21.177 -0.0202171 -1.91925e-19)
(20.3749 -0.750305 1.0299e-19)
(20.4219 -0.718139 -1.04428e-19)
(20.4678 -0.685898 2.58803e-20)
(20.5126 -0.653543 3.98532e-20)
(20.5563 -0.621018 -9.61414e-20)
(20.5992 -0.588252 1.24725e-20)
(20.6414 -0.555122 1.26251e-19)
(20.6831 -0.521696 1.15368e-19)
(20.7244 -0.488029 -2.19012e-19)
(20.7654 -0.454068 1.18805e-19)
(20.8061 -0.419747 1.52242e-20)
(20.8466 -0.385055 -1.25823e-19)
(20.8872 -0.34978 1.44553e-19)
(20.9278 -0.313939 -1.94804e-22)
(20.9686 -0.277377 0)
(21.0098 -0.239919 -1.44232e-19)
(21.0514 -0.201352 1.4968e-19)
(21.0938 -0.161438 -5.22116e-22)
(21.137 -0.119979 -8.3187e-20)
(21.1807 -0.0752626 9.1442e-20)
(20.3898 -0.784612 -5.44998e-20)
(20.4377 -0.751584 1.25889e-20)
(20.4844 -0.718508 -1.44191e-20)
(20.5299 -0.685596 5.56493e-20)
(20.5739 -0.652771 -3.4254e-22)
(20.6169 -0.619667 1.00994e-19)
(20.6597 -0.586076 -1.29985e-19)
(20.7022 -0.552311 -2.83992e-22)
(20.7442 -0.518479 0)
(20.7858 -0.484484 -1.06292e-19)
(20.8269 -0.450541 -1.64988e-20)
(20.8675 -0.416572 1.24792e-19)
(20.908 -0.382192 0)
(20.9486 -0.347507 1.15315e-19)
(20.9887 -0.312783 -2.53431e-19)
(21.0287 -0.277553 1.38924e-19)
(21.0688 -0.241769 1.62696e-19)
(21.1088 -0.20529 -3.70365e-20)
(21.149 -0.167853 -7.79989e-20)
(21.1893 -0.128934 -8.66069e-20)
(20.3967 -0.832147 0)
(20.4455 -0.798126 -2.69764e-20)
(20.4935 -0.764478 0)
(20.5405 -0.731964 0)
(20.5864 -0.698208 -1.36189e-20)
(20.6309 -0.663801 0)
(20.6764 -0.627843 -1.41947e-20)
(20.7191 -0.593485 -1.43226e-20)
(20.7617 -0.559459 0)
(20.8043 -0.525444 1.15421e-19)
(20.8469 -0.490969 1.67759e-21)
(20.8877 -0.457277 -2.37789e-19)
(20.929 -0.422669 2.45569e-19)
(20.9693 -0.387654 -1.2295e-19)
(21.008 -0.355056 -1.58372e-20)
(21.0467 -0.321219 1.62497e-20)
(21.0842 -0.287781 -1.68411e-20)
(21.1212 -0.254234 1.73978e-20)
(21.1576 -0.220347 7.07211e-20)
(21.1938 -0.187543 -7.77574e-20)
(21.5772 1.20027 1.44399e-19)
(21.2732 0.857428 -1.51043e-19)
(20.9501 0.547642 -2.98918e-19)
(20.6309 0.291518 2.89117e-19)
(20.3354 0.0957387 0)
(20.0776 -0.0414503 0)
(19.8639 -0.127297 0)
(19.6946 -0.171298 0)
(19.5661 -0.182443 0)
(19.4728 -0.168484 -1.56397e-19)
(19.4084 -0.135514 1.32021e-19)
(19.367 -0.0885811 0)
(19.3428 -0.0317094 0)
(19.3313 0.0319555 0)
(19.3287 0.100173 0)
(19.3321 0.171555 0)
(19.3385 0.244821 0)
(19.3458 0.320249 0)
(19.3528 0.401643 0)
(19.3603 0.494035 0)
(21.3753 1.18511 0)
(21.0784 0.882068 0)
(20.7804 0.634019 -2.13055e-19)
(20.5029 0.447956 2.04073e-19)
(20.2602 0.323706 0)
(20.0596 0.254237 1.74665e-19)
(19.9022 0.228837 -3.07353e-19)
(19.7847 0.235826 1.3228e-19)
(19.7015 0.264267 -1.11813e-19)
(19.6461 0.305133 1.86458e-19)
(19.612 0.351435 -1.54008e-19)
(19.5934 0.398478 6.37657e-20)
(19.5853 0.443208 0)
(19.5838 0.484012 0)
(19.586 0.520226 0)
(19.5896 0.551795 -1.48096e-20)
(19.5932 0.579003 1.28014e-20)
(19.5956 0.602429 0)
(19.5961 0.622561 2.30997e-21)
(19.5945 0.640075 -2.12225e-21)
(21.1975 1.15768 8.55886e-20)
(20.9174 0.900366 -8.93932e-20)
(20.6501 0.708463 0)
(20.413 0.574832 1.65842e-19)
(20.2153 0.493372 -1.51778e-19)
(20.0595 0.453328 0)
(19.9431 0.443121 0)
(19.8605 0.452371 0)
(19.8051 0.472903 0)
(19.7701 0.498811 0)
(19.7499 0.52624 0)
(19.7395 0.552798 0)
(19.7355 0.577274 0)
(19.7351 0.599153 0)
(19.7365 0.618369 -1.62822e-20)
(19.7384 0.635129 2.84045e-20)
(19.7399 0.649748 -1.25327e-20)
(19.7404 0.662579 0)
(19.7394 0.673983 -2.43863e-21)
(19.7368 0.684284 2.28468e-21)
(21.0412 1.12379 7.38054e-20)
(20.7834 0.91069 -1.53646e-19)
(20.5494 0.763247 -7.44368e-20)
(20.35 0.665114 1.38653e-19)
(20.1889 0.608131 -1.26737e-19)
(20.0647 0.58156 1.12564e-19)
(19.9728 0.575509 0)
(19.9075 0.581945 0)
(19.8627 0.595058 -7.20484e-20)
(19.8331 0.610963 6.16901e-20)
(19.8145 0.627292 0)
(19.8033 0.642786 0)
(19.7971 0.656841 0)
(19.794 0.669302 0)
(19.7926 0.680235 0)
(19.792 0.689819 -1.27593e-20)
(19.7914 0.698259 1.15636e-20)
(19.7904 0.705785 5.10357e-21)
(19.7886 0.712622 -4.73112e-21)
(19.7857 0.718948 0)
(20.9082 1.08645 0)
(20.6753 0.914111 0)
(20.4727 0.79951 0)
(20.3051 0.724581 0)
(20.1724 0.681107 1.09511e-19)
(20.0712 0.659872 -1.94981e-19)
(19.9965 0.653204 6.42764e-23)
(19.9429 0.655334 1.48904e-19)
(19.9054 0.6623 -6.45925e-20)
(19.8799 0.671549 5.56991e-20)
(19.8629 0.681552 -4.86179e-20)
(19.852 0.691445 -4.21319e-20)
(19.8452 0.700802 3.39295e-22)
(19.8411 0.709444 3.3062e-20)
(19.8386 0.71735 0)
(19.837 0.724566 -1.31196e-20)
(19.8358 0.731186 1.20892e-20)
(19.8344 0.737317 -5.4407e-21)
(19.8326 0.743073 2.60769e-21)
(19.8301 0.748579 2.40748e-21)
(20.796 1.05046 0)
(20.5875 0.912681 6.07753e-20)
(20.4124 0.822186 -5.76456e-20)
(20.2705 0.763261 0)
(20.1593 0.728634 0)
(20.0745 0.710901 0)
(20.0113 0.704203 0)
(19.9651 0.70429 0)
(19.932 0.708277 0)
(19.9086 0.714313 0)
(19.8925 0.721251 0)
(19.8815 0.728437 0)
(19.8742 0.735497 0)
(19.8696 0.74226 3.1907e-20)
(19.8666 0.74866 -2.92523e-20)
(19.8646 0.754686 0)
(19.8632 0.760383 0)
(19.862 0.7658 5.59564e-21)
(19.8605 0.771006 -5.32063e-21)
(19.8585 0.776082 0)
(20.7029 1.0176 0)
(20.5156 0.908159 0)
(20.3639 0.834824 -1.04484e-19)
(20.243 0.787301 9.66549e-20)
(20.1488 0.758859 0)
(20.0768 0.743625 0)
(20.0227 0.737123 0)
(19.9827 0.736175 -6.20362e-20)
(19.9535 0.738612 5.52173e-20)
(19.9325 0.743023 0)
(19.9177 0.748502 0)
(19.9074 0.754493 -3.90437e-20)
(19.9005 0.760655 3.56221e-20)
(19.896 0.7668 0)
(19.8931 0.772825 1.47166e-20)
(19.8914 0.778691 -1.3783e-20)
(19.8903 0.784389 -1.2643e-20)
(19.8894 0.789948 1.79595e-20)
(19.8885 0.795398 -5.67842e-21)
(19.8873 0.800793 0)
(20.6155 0.990868 4.98895e-20)
(20.4541 0.900257 -5.66842e-23)
(20.3236 0.840239 -1.43783e-19)
(20.2203 0.801337 1.77106e-19)
(20.1399 0.777803 -8.07084e-20)
(20.0782 0.764921 -7.25909e-20)
(20.0314 0.759209 2.29818e-22)
(19.9965 0.758198 2.6227e-22)
(19.9706 0.760192 1.04389e-19)
(19.9518 0.764057 -4.70618e-20)
(19.9384 0.769046 4.22036e-20)
(19.929 0.77467 -3.86704e-20)
(19.9227 0.780627 3.50451e-20)
(19.9186 0.786721 -3.26372e-20)
(19.9162 0.792841 0)
(19.9149 0.798925 1.39613e-20)
(19.9143 0.804951 -2.64233e-20)
(19.9141 0.81092 1.25894e-20)
(19.9139 0.816854 0)
(19.9135 0.822787 0)
(20.5453 0.960959 4.85212e-20)
(20.4027 0.887365 -4.73309e-20)
(20.2902 0.839118 0)
(20.2017 0.807602 8.19002e-20)
(20.1328 0.788376 -7.4934e-20)
(20.0798 0.7778 6.77223e-20)
(20.0395 0.773182 -2.37153e-22)
(20.009 0.7726 -1.10585e-19)
(19.9864 0.77471 5.01739e-20)
(19.9699 0.778589 -4.53176e-20)
(19.958 0.783608 3.16071e-22)
(19.9498 0.789345 3.83395e-20)
(19.9444 0.795516 3.51454e-20)
(19.9412 0.80194 -3.3069e-20)
(19.9395 0.808496 0)
(19.9389 0.815113 0)
(19.9391 0.821757 -1.36692e-20)
(19.9397 0.828417 1.32147e-20)
(19.9405 0.835103 0)
(19.9411 0.841839 0)
(20.4856 0.929725 4.51296e-20)
(20.3609 0.87167 -4.4197e-20)
(20.2634 0.833327 -8.26912e-20)
(20.1872 0.808183 1.52973e-19)