/*--------------------------------*- C++ -*----------------------------------*\
| =========                 |                                                 |
| \\      /  F ield         | OpenFOAM: The Open Source CFD Toolbox           |
|  \\    /   O peration     | Version:  2.3.0                                 |
|   \\  /    A nd           | Web:      www.OpenFOAM.org                      |
|    \\/     M anipulation  |                                                 |
\*---------------------------------------------------------------------------*/
FoamFile
{
    version     2.0;
    format      ascii;
    class       volScalarField;
    location    "2000";
    object      p;
}
// * * * * * * * * * * * * * * * * * * * * * * * * * * * * * * * * * * * * * //

dimensions      [0 2 -2 0 0 0 0];

internalField   nonuniform List<scalar> 
14767
(
0.0471402
-0.644656
-1.36669
-2.11839
-2.85832
-3.56897
-4.22723
-4.79567
-5.24393
-5.52918
-5.59014
-5.38029
-4.79869
-3.7614
-2.19337
0.0755278
3.13376
7.13234
12.3339
19.3227
28.4381
35.8074
36.2277
46.6468
11.7592
12.2955
13.0564
13.9545
15.034
16.3325
17.8881
19.7795
22.1063
24.9715
28.4987
32.8119
38.041
44.3142
51.7624
60.4987
70.6359
82.2516
95.4016
110.157
126.464
144
162.575
182.109
21.7551
22.9429
24.4806
26.2144
28.162
30.3455
32.778
35.4898
38.5111
41.8739
45.6208
49.7959
54.4496
59.6456
65.4351
71.8683
78.9941
86.8433
95.4229
104.718
114.646
125.11
136.054
147.361
29.798
31.7682
33.8809
36.188
38.7193
41.507
44.5844
47.9911
51.7611
55.9356
60.5503
65.6415
71.2358
77.3605
84.0293
91.2497
99.0106
107.287
116.028
125.156
134.56
144.099
153.608
162.908
36.9327
39.1594
41.4968
44.0198
46.7407
49.678
52.8521
56.2834
59.9944
64.0142
68.3658
73.0705
78.1557
83.6395
89.5376
95.8528
102.579
109.7
117.177
124.953
132.946
141.058
149.167
157.156
42.9299
45.2804
47.7345
50.3518
53.1583
56.1662
59.399
62.8754
66.6147
70.6399
74.9696
79.6211
84.608
89.9363
95.6157
101.637
107.994
114.661
121.6
128.758
136.064
143.439
150.784
158.001
48.1187
50.3754
52.8319
55.4254
58.1938
61.1452
64.3033
67.6742
71.2735
75.1336
79.2598
83.68
88.41
93.4458
98.7887
104.425
110.35
116.557
123.008
129.64
136.401
143.222
150.024
156.72
52.3474
54.5276
56.9927
59.5267
62.2327
65.1043
68.1695
71.4586
74.9554
78.6998
82.6736
86.8899
91.3698
96.1486
101.241
106.607
112.22
118.082
124.154
130.385
136.76
143.179
149.579
155.885
56.2364
58.1955
60.5124
62.8941
65.5207
68.2796
71.2145
74.3452
77.6495
81.2451
85.0719
89.1552
93.4723
98.0791
102.925
108.037
113.372
119.027
124.867
130.789
136.848
142.942
149.05
155.092
60.7092
61.7415
63.5606
65.6576
68.1705
70.7522
73.4506
76.2124
78.9931
82.0965
85.463
89.4986
94.5486
99.5085
104.299
109.147
114.041
119.154
125.688
131.512
137.224
142.969
148.922
154.973
110.789
150.843
176.896
196.832
212.802
225.563
235.627
243.614
250.041
255.163
259.126
262.047
264.031
265.167
265.552
265.268
264.405
263.049
261.286
259.195
256.832
254.249
251.593
249.026
200.082
213.834
224.987
234.169
241.651
247.619
252.262
255.766
258.279
259.925
260.834
261.128
260.926
260.333
259.438
258.308
256.994
255.528
253.925
252.193
250.326
248.33
246.245
244.142
158.763
169.981
180.696
190.653
199.723
207.855
215.039
221.304
226.695
231.262
235.068
238.172
240.631
242.5
243.835
244.684
245.095
245.115
244.789
244.156
243.26
242.146
240.807
239.232
171.851
180.403
188.483
195.983
202.829
208.983
214.436
219.204
223.316
226.811
229.737
232.141
234.074
235.582
236.71
237.498
237.981
238.189
238.146
237.874
237.398
236.745
235.806
234.378
164.959
172.563
179.872
186.784
193.22
199.13
204.488
209.29
213.543
217.269
220.496
223.252
225.572
227.488
229.035
230.242
231.139
231.753
232.107
232.226
232.145
231.887
231.245
229.915
165.029
171.843
178.38
184.567
190.342
195.67
200.529
204.91
208.819
212.276
215.302
217.917
220.153
222.038
223.601
224.869
225.867
226.617
227.141
227.456
227.588
227.536
227.113
225.918
163.256
169.593
175.673
181.434
186.828
191.83
196.423
200.579
204.317
207.658
210.611
213.175
215.404
217.309
218.921
220.256
221.347
222.209
222.866
223.337
223.634
223.738
223.81
224.264
162.046
168.021
173.748
179.167
184.239
188.962
193.339
197.289
200.865
204.095
206.968
209.446
211.634
213.502
215.111
216.451
217.583
218.496
219.231
219.794
220.171
220.286
220.462
221.109
161.001
166.734
172.159
177.288
182.135
186.673
190.943
194.727
198.133
201.27
204.082
206.448
208.565
210.322
211.911
213.217
214.375
215.304
216.088
216.703
217.11
217.208
217.658
219.035
160.805
166.372
171.277
175.97
180.529
185.013
189.359
192.564
195.736
198.908
201.668
203.374
205.689
207.329
208.959
210.152
211.333
212.215
212.971
213.556
214.022
213.959
215.151
216.442
-27.7881
-28.1704
-28.5332
-28.8273
-29.0434
-29.1855
-29.2589
-29.2679
-29.218
-29.1158
-28.9701
-28.788
-28.5737
-28.3259
-28.042
-27.7105
-27.312
-26.8076
-26.152
-25.3016
-24.2178
-22.8057
-20.6279
-15.8718
-27.6189
-27.8982
-28.2395
-28.5136
-28.7054
-28.8303
-28.9002
-28.9246
-28.91
-28.8579
-28.7666
-28.6289
-28.4335
-28.1608
-27.7881
-27.2874
-26.6234
-25.7304
-24.4994
-22.7574
-20.2635
-16.6778
-11.7237
-5.49224
-27.2579
-27.6237
-28.0686
-28.4597
-28.7727
-29.0151
-29.1911
-29.2988
-29.3354
-29.2953
-29.1699
-28.9456
-28.6064
-28.1284
-27.4791
-26.6141
-25.4759
-23.9853
-22.0315
-19.4551
-16.068
-11.7071
-6.32556
-0.223283
-26.7542
-27.0545
-27.4907
-27.8776
-28.1795
-28.3999
-28.5406
-28.6002
-28.575
-28.4553
-28.2305
-27.8844
-27.3986
-26.747
-25.893
-24.7903
-23.3774
-21.5738
-19.277
-16.3759
-12.7619
-8.38839
-3.3386
2.11463
-26.1148
-26.3038
-26.6999
-27.0569
-27.3328
-27.5285
-27.6392
-27.6576
-27.5792
-27.3943
-27.0921
-26.6579
-26.0689
-25.2921
-24.2943
-23.0276
-21.429
-19.434
-16.9631
-13.9271
-10.2641
-5.97651
-1.1593
3.932
-25.3292
-25.3858
-25.7334
-26.0503
-26.2917
-26.4567
-26.5364
-26.5206
-26.4004
-26.1675
-25.8129
-25.3176
-24.664
-23.8185
-22.739
-21.381
-19.6934
-17.6075
-15.0607
-11.9969
-8.36244
-4.16726
0.493818
5.37554
-24.5468
-24.3555
-24.6675
-24.9305
-25.1329
-25.2848
-25.3484
-25.3133
-25.1645
-24.8824
-24.4757
-23.9338
-23.2439
-22.3622
-21.2464
-19.8408
-18.0909
-15.9606
-13.404
-10.3622
-6.7609
-2.64345
1.89901
6.62841
-23.0758
-23.2329
-23.556
-23.7358
-23.8762
-24.0427
-24.1178
-24.0873
-23.939
-23.627
-23.1803
-22.6029
-21.9153
-21.0424
-19.9419
-18.5494
-16.7985
-14.6582
-12.1321
-9.19919
-5.66942
-1.67054
2.77099
7.35001
-21.7011
-22.0917
-22.5302
-22.5466
-22.4791
-22.6699
-22.8041
-22.8099
-22.6966
-22.3179
-21.7384
-20.9185
-20.1676
-19.3265
-18.2729
-16.9147
-15.1319
-12.8947
-10.2924
-7.60349
-4.09932
-0.0784279
4.42816
8.83746
-21.8891
-22.3724
-23.3844
-23.1504
-22.8361
-22.9731
-23.4772
-24.0281
-24.5735
-24.7452
-25.202
-23.7964
-22.8209
-22.1096
-21.6384
-21.05
-20.2132
-17.0505
-12.9122
-10.5097
-8.17261
-4.07402
0.343596
4.70791
-5.61271
-0.242109
3.77
7.50965
11.084
14.4551
17.6228
20.6069
23.4335
26.1342
28.7471
31.306
33.8336
36.3494
38.8646
41.3871
43.9216
46.4703
49.0348
51.6181
54.2227
56.8229
59.4346
62.3906
1.39242
5.12413
7.46096
9.84796
12.4135
15.1028
17.8565
20.6288
23.3855
26.1064
28.7773
31.394
33.955
36.4655
38.9319
41.3644
43.7708
46.1608
48.5425
50.9252
53.3165
55.6999
58.0843
60.6586
5.78711
10.3318
12.809
14.8403
16.9173
19.0781
21.3028
23.5689
25.857
28.1536
30.4468
32.7311
34.9996
37.2518
39.4864
41.7061
43.9125
46.1093
48.2999
50.4896
52.6831
54.8758
57.0752
59.3299
7.5089
12.1524
14.846
16.8399
18.841
20.885
22.9612
25.0547
27.1544
29.2558
31.3523
33.4434
35.5265
37.6023
39.6708
41.7344
43.7932
45.85
47.9066
49.9662
52.0301
54.096
56.1831
58.3563
8.94204
13.3596
16.149
18.0875
20.0238
21.9948
23.9967
26.0124
28.0303
30.0453
32.0511
34.0462
36.0295
38.0001
39.9586
41.9076
43.8483
45.7829
47.7135
49.6439
51.5738
53.4962
55.4328
57.4527
10.1693
14.4424
17.3553
19.3125
21.2242
23.1461
25.0878
27.0346
28.9788
30.9145
32.8381
34.7481
36.6426
38.5214
40.3833
42.2309
44.0646
45.8871
47.7008
49.5079
51.307
53.0868
54.8713
56.76
11.252
15.393
18.3785
20.3792
22.2887
24.1834
26.0814
27.9735
29.8559
31.7242
33.5765
35.4135
37.2331
39.0324
40.8113
42.5716
44.3138
46.0397
47.7528
49.4554
51.143
52.8006
54.4637
56.255
11.91
16.0504
19.1576
21.2482
23.1748
25.05
26.9107
28.7596
30.5956
32.4111
34.2089
35.9935
37.7606
39.4989
41.2102
42.8999
44.5665
46.2148
47.8475
49.4666
51.0618
52.6051
54.1506
55.8703
13.1606
17.0631
20.0957
22.1632
24.0152
25.8199
27.6249
29.4329
31.2352
33.0068
34.761
36.512
38.2481
39.9344
41.5863
43.2212
44.8213
46.3978
47.9585
49.506
51.0169
52.4381
53.8959
55.47
10.759
16.5585
20.5561
22.8984
24.7395
26.476
28.2274
30.0179
31.8129
33.5175
35.217
36.9695
38.7215
40.3419
41.9267
43.5321
45.0603
46.5925
48.1365
49.6789
51.1619
52.4471
53.8993
55.316
-131.889
-128.782
-126.186
-123.375
-118.845
-112.783
-105.814
-98.3025
-90.3695
-82.2931
-74.329
-66.6213
-59.2474
-52.3006
-45.865
-39.9978
-34.733
-30.0798
-25.9959
-22.4384
-19.3381
-16.6288
-14.2395
-12.2088
-85.8378
-85.8588
-85.4445
-84.7204
-83.8195
-82.9563
-82.2879
-81.8755
-81.5846
-81.0497
-79.9056
-77.9947
-75.2948
-71.8471
-67.6989
-62.9785
-57.8383
-52.4701
-47.0713
-41.8224
-36.8578
-32.266
-28.0404
-24.4889
-95.3452
-95.2525
-95.2817
-95.3153
-95.3172
-95.2185
-94.8903
-94.1845
-93.0678
-91.6048
-89.8989
-87.9918
-85.7749
-83.0857
-79.8697
-76.1144
-71.8336
-67.0719
-61.9345
-56.5547
-51.1059
-45.7555
-40.5747
-36.1091
-90.4189
-90.3925
-90.3098
-90.1928
-90.0494
-89.8838
-89.6927
-89.4639
-89.1706
-88.782
-88.2464
-87.4841
-86.4948
-85.2931
-83.7481
-81.6967
-79.0404
-75.7299
-71.7724
-67.2324
-62.2375
-56.9842
-51.606
-47.0601
-91.3949
-91.3847
-91.3802
-91.3618
-91.325
-91.2645
-91.1713
-91.0356
-90.8401
-90.5624
-90.1743
-89.646
-88.9336
-87.995
-86.8173
-85.3625
-83.5182
-81.1861
-78.2795
-74.7502
-70.6026
-65.9312
-60.8041
-56.4891
-90.6987
-90.6926
-90.6719
-90.6366
-90.5872
-90.5234
-90.4427
-90.3426
-90.2161
-90.0557
-89.8457
-89.5681
-89.1955
-88.6923
-88.0034
-87.0874
-85.893
-84.3304
-82.2965
-79.6978
-76.4689
-72.5475
-68.0407
-60.876
-90.8799
-90.876
-90.8659
-90.8457
-90.815
-90.7729
-90.7166
-90.6438
-90.5487
-90.4264
-90.267
-90.0599
-89.7877
-89.4316
-88.9583
-88.3267
-87.4882
-86.3872
-84.937
-83.0383
-80.6023
-77.4888
-74.0491
-67.3449
-90.9128
-90.9083
-90.896
-90.8752
-90.8454
-90.8066
-90.7571
-90.6959
-90.6194
-90.5249
-90.406
-90.257
-90.066
-89.8204
-89.4979
-89.0702
-88.4954
-87.7261
-86.7002
-85.3269
-83.5227
-81.121
-78.4851
-72.2602
-91.1211
-91.1171
-91.1066
-91.0892
-91.064
-91.0312
-90.9891
-90.9373
-90.8728
-90.7938
-90.695
-90.5732
-90.421
-90.2302
-89.9863
-89.6705
-89.2533
-88.6957
-87.9487
-86.9482
-85.6134
-83.785
-81.7526
-76.1866
-91.3571
-91.3536
-91.3432
-91.327
-91.3036
-91.2735
-91.2355
-91.1893
-91.1328
-91.0648
-90.9812
-90.8798
-90.7554
-90.6031
-90.4127
-90.1714
-89.8581
-89.4453
-88.8936
-88.1531
-87.1653
-85.8047
-84.2995
-79.8035
-91.6551
-91.6523
-91.6425
-91.6278
-91.6067
-91.5795
-91.5454
-91.5041
-91.454
-91.394
-91.3209
-91.233
-91.1264
-90.9984
-90.842
-90.6486
-90.4037
-90.0869
-89.6684
-89.1094
-88.3651
-87.3382
-86.1452
-82.6224
-91.9902
-91.9878
-91.9787
-91.9653
-91.946
-91.9213
-91.8904
-91.8533
-91.8084
-91.7551
-91.6907
-91.6138
-91.5212
-91.4114
-91.2798
-91.1209
-90.9236
-90.6735
-90.349
-89.9183
-89.3471
-88.5669
-87.6249
-84.6892
-92.3615
-92.3589
-92.3498
-92.3374
-92.3198
-92.2973
-92.2695
-92.2364
-92.1965
-92.1494
-92.0929
-92.0255
-91.9447
-91.8496
-91.7373
-91.604
-91.4425
-91.2421
-90.9864
-90.6524
-90.214
-89.6247
-88.926
-86.7667
-92.7554
-92.7531
-92.7446
-92.7333
-92.7174
-92.6973
-92.6727
-92.6434
-92.6085
-92.5674
-92.5183
-92.4601
-92.3905
-92.3087
-92.213
-92.1015
-91.9689
-91.8076
-91.6056
-91.3458
-91.0075
-90.5529
-89.9824
-88.4788
-93.1626
-93.1607
-93.1529
-93.143
-93.1292
-93.1117
-93.0905
-93.0655
-93.0358
-93.001
-92.9597
-92.9106
-92.8521
-92.7832
-92.7032
-92.6108
-92.5029
-92.3742
-92.2161
-92.0158
-91.7575
-91.4101
-90.9464
-89.8019
-93.5801
-93.578
-93.5705
-93.5615
-93.5493
-93.5341
-93.5159
-93.4947
-93.4699
-93.441
-93.4071
-93.3671
-93.3193
-93.2632
-93.1981
-93.1237
-93.0383
-92.9385
-92.8174
-92.6655
-92.4705
-92.2078
-91.8494
-90.9072
-93.9887
-93.987
-93.9804
-93.9729
-93.9627
-93.9501
-93.9353
-93.9183
-93.8986
-93.8761
-93.8497
-93.8186
-93.7816
-93.738
-93.6873
-93.63
-93.565
-93.4902
-93.401
-93.2901
-93.1481
-92.9552
-92.674
-91.8996
-94.3898
-94.3881
-94.382
-94.3755
-94.3667
-94.3563
-94.3442
-94.3308
-94.3156
-94.2984
-94.2786
-94.2557
-94.2285
-94.1964
-94.1592
-94.1171
-94.0701
-94.0171
-93.9546
-93.8765
-93.7754
-93.6335
-93.4135
-92.7719
-94.7658
-94.7645
-94.7591
-94.7536
-94.7466
-94.7383
-94.7291
-94.7192
-94.7083
-94.6964
-94.6829
-94.6675
-94.6493
-94.6277
-94.6024
-94.5739
-94.5424
-94.5072
-94.4654
-94.4118
-94.3386
-94.2268
-94.0371
-93.4728
-95.116
-95.1151
-95.1106
-95.1063
-95.1008
-95.0944
-95.0875
-95.0804
-95.073
-95.0653
-95.057
-95.0479
-95.0372
-95.0245
-95.0094
-94.9925
-94.9739
-94.9532
-94.9285
-94.8952
-94.8469
-94.7678
-94.6259
-94.164
-95.4336
-95.4324
-95.4282
-95.4246
-95.4202
-95.4153
-95.4104
-95.4057
-95.4014
-95.3975
-95.3937
-95.3898
-95.3855
-95.3802
-95.3736
-95.3659
-95.3575
-95.3479
-95.3349
-95.3137
-95.2766
-95.2096
-95.097
-94.6351
-95.7154
-95.7146
-95.7111
-95.7082
-95.7046
-95.7009
-95.6975
-95.6946
-95.6926
-95.6912
-95.6907
-95.6909
-95.6914
-95.6919
-95.6921
-95.6921
-95.6921
-95.6917
-95.6892
-95.6805
-95.6596
-95.6132
-95.5219
-95.1827
-95.956
-95.9553
-95.9522
-95.9498
-95.9471
-95.9444
-95.9423
-95.941
-95.9409
-95.9419
-95.9442
-95.9476
-95.952
-95.9571
-95.9625
-95.9683
-95.9746
-95.9808
-95.9852
-95.9835
-95.969
-95.9292
-95.8501
-95.5261
-96.158
-96.1574
-96.1548
-96.1528
-96.1506
-96.1486
-96.1473
-96.1471
-96.1482
-96.1506
-96.1546
-96.1602
-96.1673
-96.1756
-96.1849
-96.195
-96.206
-96.2174
-96.2276
-96.2331
-96.2284
-96.2006
-96.1304
-95.892
-96.3155
-96.3151
-96.3129
-96.3114
-96.31
-96.3088
-96.3085
-96.3093
-96.3115
-96.3154
-96.3209
-96.3282
-96.3372
-96.3477
-96.3595
-96.3724
-96.3863
-96.4005
-96.4134
-96.421
-96.4171
-96.3913
-96.329
-96.0138
-96.439
-96.4386
-96.4366
-96.4352
-96.4339
-96.4329
-96.4328
-96.4338
-96.4364
-96.4404
-96.4464
-96.4543
-96.4642
-96.4759
-96.4892
-96.5037
-96.5194
-96.5356
-96.5505
-96.561
-96.5618
-96.5438
-96.4915
-96.247
-96.5203
-96.5199
-96.5181
-96.5171
-96.516
-96.5153
-96.5156
-96.517
-96.5199
-96.5246
-96.5311
-96.5394
-96.5498
-96.562
-96.5759
-96.5912
-96.6075
-96.6242
-96.6394
-96.6498
-96.6499
-96.6309
-96.5707
-96.3186
-96.5689
-96.5684
-96.5668
-96.5657
-96.5647
-96.564
-96.5643
-96.5656
-96.5685
-96.5728
-96.579
-96.5873
-96.5975
-96.6097
-96.6237
-96.639
-96.6555
-96.6723
-96.6877
-96.6987
-96.7002
-96.6816
-96.6177
-96.4365
-96.5791
-96.5788
-96.5773
-96.5765
-96.5758
-96.5755
-96.576
-96.5776
-96.5805
-96.5851
-96.5914
-96.5995
-96.6095
-96.6214
-96.6351
-96.6502
-96.6665
-96.6833
-96.6994
-96.7125
-96.7181
-96.7036
-96.6527
-96.7017
-96.5642
-96.5638
-96.5625
-96.5615
-96.5606
-96.56
-96.5601
-96.5613
-96.5637
-96.5675
-96.5731
-96.5804
-96.5896
-96.6007
-96.6135
-96.6276
-96.6429
-96.6587
-96.6738
-96.6859
-96.6902
-96.6755
-96.6333
-96.7385
-96.5164
-96.5159
-96.5146
-96.5136
-96.5128
-96.5122
-96.5123
-96.5134
-96.5157
-96.5194
-96.5246
-96.5313
-96.5398
-96.55
-96.5616
-96.5744
-96.5881
-96.602
-96.6146
-96.623
-96.6226
-96.6121
-96.5946
-96.4112
-96.4446
-96.4443
-96.4432
-96.4423
-96.4414
-96.4407
-96.4407
-96.4414
-96.4433
-96.4462
-96.4507
-96.4567
-96.4642
-96.4732
-96.4837
-96.4952
-96.5073
-96.5193
-96.5299
-96.5361
-96.5343
-96.5263
-96.5122
-96.2834
-96.3461
-96.3458
-96.3446
-96.3439
-96.3431
-96.3426
-96.3426
-96.3435
-96.3453
-96.3483
-96.3526
-96.3581
-96.365
-96.3732
-96.3826
-96.393
-96.4037
-96.4142
-96.4231
-96.428
-96.4252
-96.4098
-96.3732
-96.3062
-96.2314
-96.231
-96.23
-96.229
-96.2281
-96.2273
-96.227
-96.2274
-96.2288
-96.231
-96.2345
-96.2394
-96.2456
-96.253
-96.2616
-96.271
-96.2807
-96.2901
-96.2978
-96.3014
-96.2966
-96.2759
-96.2246
-96.1457
-96.0928
-96.0923
-96.0912
-96.0904
-96.0895
-96.0888
-96.0886
-96.0891
-96.0904
-96.0928
-96.0963
-96.1009
-96.1069
-96.114
-96.1223
-96.1314
-96.1411
-96.1507
-96.1591
-96.1647
-96.1645
-96.1539
-96.1252
-96.0952
-95.9387
-95.9384
-95.9374
-95.9365
-95.9355
-95.9347
-95.9344
-95.9347
-95.9358
-95.9378
-95.9409
-95.9453
-95.9509
-95.9578
-95.966
-95.9751
-95.9849
-95.9951
-96.0046
-96.012
-96.0147
-96.0085
-95.9853
-95.9594
-95.7632
-95.7628
-95.7619
-95.7612
-95.7606
-95.7601
-95.7601
-95.7607
-95.7621
-95.7644
-95.7679
-95.7723
-95.778
-95.785
-95.7933
-95.8027
-95.8132
-95.8242
-95.8352
-95.8452
-95.852
-95.8531
-95.8439
-95.8238
-95.5774
-95.5771
-95.5762
-95.5754
-95.5746
-95.5739
-95.5736
-95.5739
-95.5751
-95.5769
-95.58
-95.5842
-95.5898
-95.5967
-95.605
-95.6146
-95.6255
-95.6374
-95.6499
-95.6623
-95.6726
-95.6783
-95.6762
-95.6914
-95.3717
-95.3712
-95.3703
-95.3697
-95.369
-95.3684
-95.3684
-95.3689
-95.3702
-95.3725
-95.3758
-95.38
-95.3857
-95.3926
-95.401
-95.4108
-95.422
-95.4344
-95.448
-95.4623
-95.4763
-95.4872
-95.4918
-95.5528
-95.1543
-95.1539
-95.1532
-95.1524
-95.1517
-95.1512
-95.151
-95.1514
-95.1526
-95.1545
-95.1576
-95.1617
-95.1672
-95.1739
-95.1821
-95.1917
-95.2026
-95.2147
-95.2278
-95.2409
-95.2526
-95.2597
-95.2496
-95.1875
-94.9188
-94.9184
-94.9177
-94.9172
-94.9168
-94.9165
-94.9167
-94.9174
-94.9189
-94.9213
-94.9246
-94.9289
-94.9344
-94.9412
-94.9493
-94.9588
-94.9696
-94.9814
-94.9942
-95.0069
-95.0177
-95.0228
-95.0184
-95.0051
-94.6755
-94.6752
-94.6745
-94.6739
-94.6733
-94.6728
-94.6728
-94.6733
-94.6746
-94.6765
-94.6796
-94.6837
-94.6891
-94.6957
-94.7038
-94.7131
-94.7238
-94.7358
-94.7486
-94.7619
-94.7742
-94.7835
-94.789
-94.8258
-94.4148
-94.4144
-94.4137
-94.4132
-94.4128
-94.4125
-94.4127
-94.4135
-94.415
-94.4174
-94.4208
-94.425
-94.4306
-94.4374
-94.4456
-94.4551
-94.466
-94.4779
-94.4907
-94.5034
-94.5147
-94.5238
-94.5229
-94.3747
-94.1448
-94.1445
-94.1438
-94.1433
-94.1428
-94.1425
-94.1427
-94.1433
-94.1448
-94.147
-94.1503
-94.1547
-94.1604
-94.1673
-94.1757
-94.1855
-94.1968
-94.2096
-94.2237
-94.2387
-94.2541
-94.2672
-94.2764
-94.3665
-93.8582
-93.8578
-93.8572
-93.8568
-93.8566
-93.8566
-93.8572
-93.8583
-93.8602
-93.8629
-93.8667
-93.8715
-93.8775
-93.8849
-93.8937
-93.904
-93.9159
-93.9291
-93.9436
-93.9588
-93.9733
-93.9863
-93.9902
-93.8831
-93.5638
-93.5636
-93.5631
-93.5627
-93.5625
-93.5625
-93.563
-93.564
-93.5658
-93.5684
-93.5722
-93.5771
-93.5834
-93.591
-93.6003
-93.6112
-93.6238
-93.6384
-93.6548
-93.6732
-93.6932
-93.7135
-93.7373
-93.8334
-93.2538
-93.2535
-93.2531
-93.2528
-93.2528
-93.253
-93.2538
-93.2551
-93.2573
-93.2604
-93.2647
-93.2699
-93.2766
-93.2847
-93.2945
-93.3059
-93.3193
-93.3346
-93.3518
-93.3709
-93.3913
-93.4112
-93.4307
-93.4566
-92.9349
-92.9347
-92.9342
-92.934
-92.9339
-92.9341
-92.9349
-92.9362
-92.9385
-92.9415
-92.9458
-92.9512
-92.9582
-92.9666
-92.9769
-92.9889
-93.0029
-93.019
-93.0372
-93.0573
-93.0791
-93.101
-93.1217
-93.1213
-92.6
-92.5998
-92.5994
-92.5994
-92.5997
-92.6002
-92.6014
-92.6031
-92.6058
-92.6094
-92.6142
-92.62
-92.6275
-92.6364
-92.6471
-92.6597
-92.6745
-92.6912
-92.7102
-92.7313
-92.7541
-92.7764
-92.7952
-92.8508
-92.2585
-92.2583
-92.258
-92.2578
-92.258
-92.2584
-92.2595
-92.2611
-92.2637
-92.2671
-92.2718
-92.2778
-92.2854
-92.2945
-92.3057
-92.3189
-92.3342
-92.3519
-92.3717
-92.3933
-92.4158
-92.4388
-92.4542
-92.3669
-91.9014
-91.901
-91.9008
-91.9008
-91.9011
-91.9017
-91.903
-91.9049
-91.9077
-91.9116
-91.9167
-91.923
-91.931
-91.9406
-91.9523
-91.9663
-91.9827
-92.0017
-92.0236
-92.0488
-92.0773
-92.1086
-92.1447
-92.2524
-91.5353
-91.535
-91.5347
-91.5347
-91.5349
-91.5355
-91.5367
-91.5386
-91.5414
-91.5451
-91.5502
-91.5566
-91.5647
-91.5746
-91.5867
-91.6011
-91.6181
-91.638
-91.661
-91.6874
-91.717
-91.7483
-91.7797
-91.8257
-91.1532
-91.153
-91.1528
-91.1529
-91.1535
-91.1544
-91.156
-91.1583
-91.1615
-91.1657
-91.1712
-91.1778
-91.1862
-91.1963
-91.2086
-91.2233
-91.2408
-91.2614
-91.2854
-91.3134
-91.3456
-91.3828
-91.4284
-91.4863
-90.7638
-90.764
-90.7641
-90.7644
-90.765
-90.7659
-90.7675
-90.7695
-90.7726
-90.7764
-90.7816
-90.7881
-90.7963
-90.8062
-90.8185
-90.833
-90.8503
-90.8706
-90.8943
-90.9216
-90.9522
-90.9863
-91.0262
-91.0524
-90.3641
-90.3636
-90.3632
-90.3633
-90.3638
-90.3645
-90.366
-90.3681
-90.3711
-90.3751
-90.3803
-90.3867
-90.3948
-90.4046
-90.4165
-90.4308
-90.4477
-90.4676
-90.4908
-90.5176
-90.5478
-90.581
-90.617
-90.6496
-89.952
-89.952
-89.9519
-89.952
-89.9525
-89.9533
-89.9548
-89.9568
-89.9598
-89.9636
-89.9686
-89.9748
-89.9826
-89.992
-90.0036
-90.0173
-90.0336
-90.0528
-90.0752
-90.101
-90.13
-90.1613
-90.1935
-90.2271
-89.5275
-89.5276
-89.5279
-89.5284
-89.5292
-89.5304
-89.5321
-89.5344
-89.5375
-89.5414
-89.5465
-89.5525
-89.5601
-89.5692
-89.5802
-89.5933
-89.6089
-89.627
-89.6482
-89.6726
-89.6998
-89.7296
-89.7627
-89.7989
-89.1017
-89.1012
-89.1009
-89.1009
-89.1013
-89.1021
-89.1034
-89.1052
-89.1079
-89.1113
-89.1158
-89.1215
-89.1286
-89.1371
-89.1475
-89.1598
-89.1744
-89.1915
-89.2112
-89.2335
-89.2578
-89.2826
-89.3084
-89.3274
-88.6599
-88.6597
-88.6596
-88.6597
-88.6602
-88.6611
-88.6625
-88.6645
-88.6673
-88.6708
-88.6753
-88.6808
-88.6877
-88.6958
-88.7057
-88.7174
-88.7314
-88.7475
-88.7663
-88.7877
-88.8116
-88.8376
-88.8658
-88.896
-88.2113
-88.2114
-88.2116
-88.212
-88.2128
-88.2137
-88.2152
-88.2171
-88.2198
-88.223
-88.2272
-88.2324
-88.2389
-88.2466
-88.2559
-88.2669
-88.2798
-88.295
-88.3126
-88.3327
-88.355
-88.3791
-88.4081
-88.437
-87.7557
-87.7555
-87.7555
-87.7557
-87.7562
-87.7572
-87.7587
-87.7606
-87.7633
-87.7666
-87.7709
-87.7759
-87.7821
-87.7894
-87.7982
-87.8085
-87.8208
-87.8351
-87.8516
-87.8705
-87.8914
-87.914
-87.9403
-87.9648
-87.2933
-87.2934
-87.2936
-87.2941
-87.2947
-87.2956
-87.297
-87.2988
-87.3013
-87.3042
-87.308
-87.3127
-87.3185
-87.3254
-87.3337
-87.3434
-87.3549
-87.3681
-87.3835
-87.4008
-87.4198
-87.4398
-87.4607
-87.4769
-86.8255
-86.825
-86.8247
-86.8248
-86.8253
-86.826
-86.8272
-86.8289
-86.8312
-86.8342
-86.838
-86.8425
-86.8481
-86.8546
-86.8625
-86.8718
-86.8826
-86.8952
-86.9097
-86.9261
-86.9439
-86.962
-86.9788
-86.9924
-86.3486
-86.3486
-86.3486
-86.3487
-86.3492
-86.35
-86.3512
-86.3529
-86.3552
-86.3579
-86.3615
-86.3659
-86.3712
-86.3775
-86.385
-86.3939
-86.4043
-86.4166
-86.4308
-86.4472
-86.4661
-86.4869
-86.5105
-86.5549
-85.8634
-85.8636
-85.8639
-85.8645
-85.8653
-85.8663
-85.8678
-85.8697
-85.8721
-85.8751
-85.8787
-85.883
-85.8882
-85.8942
-85.9014
-85.9099
-85.9197
-85.9312
-85.9446
-85.9601
-85.9774
-85.9971
-86.0232
-86.047
-85.3792
-85.3788
-85.3787
-85.3788
-85.3792
-85.38
-85.3812
-85.3827
-85.3849
-85.3874
-85.3908
-85.3948
-85.3996
-85.4053
-85.412
-85.4199
-85.4292
-85.4401
-85.4527
-85.4673
-85.4837
-85.502
-85.5246
-85.5599
-84.8837
-84.8838
-84.8838
-84.8841
-84.8847
-84.8856
-84.8869
-84.8885
-84.8907
-84.8933
-84.8966
-84.9005
-84.9051
-84.9106
-84.917
-84.9245
-84.9333
-84.9434
-84.9551
-84.9687
-84.984
-85.0013
-85.0199
-85.0363
-84.3867
-84.3864
-84.3863
-84.3864
-84.3869
-84.3876
-84.3887
-84.3901
-84.3922
-84.3946
-84.3976
-84.4012
-84.4057
-84.4108
-84.4168
-84.4238
-84.4319
-84.4414
-84.4523
-84.4651
-84.4798
-84.4964
-84.5164
-84.5449
-83.8802
-83.8802
-83.8803
-83.8806
-83.8812
-83.8822
-83.8834
-83.8851
-83.8872
-83.8898
-83.8929
-83.8965
-83.9008
-83.9057
-83.9114
-83.9179
-83.9256
-83.9344
-83.9445
-83.9562
-83.9697
-83.9855
-84.0065
-84.0414
-83.3718
-83.372
-83.3723
-83.3728
-83.3735
-83.3744
-83.3757
-83.3772
-83.3792
-83.3814
-83.3843
-83.3876
-83.3915
-83.396
-83.4013
-83.4073
-83.4142
-83.4221
-83.4312
-83.4415
-83.4531
-83.4668
-83.4862
-83.5206
-82.8611
-82.8607
-82.8605
-82.8607
-82.8612
-82.8618
-82.8629
-82.8642
-82.866
-82.8682
-82.8709
-82.874
-82.8777
-82.8819
-82.8868
-82.8923
-82.8985
-82.9056
-82.9136
-82.9223
-82.9315
-82.941
-82.9505
-82.9356
-82.3432
-82.3433
-82.3433
-82.3434
-82.3439
-82.3447
-82.3458
-82.3471
-82.3489
-82.3509
-82.3534
-82.3562
-82.3596
-82.3635
-82.3679
-82.3729
-82.3787
-82.3854
-82.3929
-82.4017
-82.4115
-82.4229
-82.4423
-82.5219
-81.8206
-81.8208
-81.8211
-81.8216
-81.8224
-81.8232
-81.8244
-81.8258
-81.8276
-81.8296
-81.832
-81.8347
-81.8377
-81.8412
-81.8451
-81.8496
-81.8545
-81.8602
-81.8667
-81.8739
-81.8818
-81.8921
-81.9076
-81.8876
-81.2998
-81.2994
-81.2992
-81.2992
-81.2996
-81.3002
-81.3011
-81.3022
-81.3036
-81.3053
-81.3074
-81.3097
-81.3123
-81.3153
-81.3186
-81.3223
-81.3265
-81.3313
-81.3367
-81.3429
-81.3497
-81.3573
-81.3633
-81.3694
-80.7695
-80.7698
-80.77
-80.7704
-80.7711
-80.7719
-80.7729
-80.7741
-80.7756
-80.7772
-80.7791
-80.7812
-80.7835
-80.7859
-80.7887
-80.7917
-80.795
-80.7988
-80.803
-80.8077
-80.813
-80.8185
-80.8208
-80.8168
-80.2424
-80.2421
-80.2418
-80.2419
-80.2423
-80.2427
-80.2435
-80.2444
-80.2456
-80.2469
-80.2484
-80.2501
-80.2519
-80.2538
-80.2558
-80.258
-80.2602
-80.2627
-80.2656
-80.2692
-80.2732
-80.2783
-80.2918
-80.3469
-79.7074
-79.7075
-79.7075
-79.7076
-79.7081
-79.7087
-79.7096
-79.7106
-79.7118
-79.7131
-79.7145
-79.7159
-79.7174
-79.7188
-79.7201
-79.7213
-79.7225
-79.7236
-79.7246
-79.7256
-79.7261
-79.7263
-79.7302
-79.7402
-79.172
-79.1723
-79.1725
-79.1729
-79.1734
-79.1741
-79.1749
-79.1758
-79.1769
-79.1779
-79.179
-79.1801
-79.1811
-79.1818
-79.1824
-79.1827
-79.1826
-79.1821
-79.1814
-79.1804
-79.1791
-79.1777
-79.1782
-79.204
-78.6376
-78.6373
-78.6369
-78.6369
-78.6371
-78.6376
-78.6382
-78.6389
-78.6397
-78.6406
-78.6415
-78.6422
-78.6428
-78.6431
-78.643
-78.6423
-78.641
-78.6389
-78.6359
-78.6315
-78.6251
-78.6166
-78.6086
-78.5887
-78.0977
-78.0977
-78.0976
-78.0976
-78.0979
-78.0984
-78.0991
-78.0998
-78.1007
-78.1014
-78.1022
-78.1027
-78.1031
-78.103
-78.1024
-78.1011
-78.099
-78.0957
-78.0911
-78.0847
-78.0757
-78.0632
-78.0464
-78.0164
-77.5558
-77.556
-77.556
-77.5563
-77.5569
-77.5575
-77.5582
-77.5591
-77.56
-77.5608
-77.5615
-77.562
-77.5622
-77.5619
-77.5611
-77.5594
-77.5567
-77.5528
-77.5476
-77.5408
-77.5321
-77.5205
-77.503
-77.4947
-77.015
-77.0148
-77.0146
-77.0146
-77.015
-77.0156
-77.0163
-77.0171
-77.0179
-77.0187
-77.0194
-77.0199
-77.02
-77.0197
-77.0186
-77.0167
-77.0138
-77.0096
-77.0039
-76.9965
-76.9872
-76.9752
-76.9596
-76.96
-76.4693
-76.4696
-76.4696
-76.47
-76.4705
-76.4712
-76.4721
-76.473
-76.474
-76.4749
-76.4757
-76.4763
-76.4765
-76.4761
-76.4751
-76.4732
-76.4701
-76.4657
-76.4595
-76.4513
-76.4407
-76.4272
-76.4118
-76.368
-75.9256
-75.9252
-75.9249
-75.925
-75.9254
-75.9259
-75.9267
-75.9276
-75.9286
-75.9296
-75.9304
-75.9311
-75.9314
-75.9312
-75.9303
-75.9285
-75.9255
-75.9211
-75.9153
-75.9077
-75.8984
-75.8873
-75.8734
-75.8557
-75.3762
-75.3762
-75.376
-75.3761
-75.3766
-75.3773
-75.3782
-75.3792
-75.3804
-75.3815
-75.3826
-75.3835
-75.3841
-75.3841
-75.3835
-75.3819
-75.3792
-75.3752
-75.3694
-75.3619
-75.3523
-75.34
-75.3215
-75.2986
-74.8247
-74.8246
-74.8243
-74.8245
-74.825
-74.8258
-74.8268
-74.8281
-74.8295
-74.8309
-74.8323
-74.8335
-74.8344
-74.8349
-74.8346
-74.8335
-74.8311
-74.8273
-74.8219
-74.8145
-74.805
-74.7927
-74.7742
-74.7502
-74.2674
-74.2674
-74.2674
-74.268
-74.2689
-74.2701
-74.2716
-74.2733
-74.2751
-74.2769
-74.2788
-74.2805
-74.2819
-74.2829
-74.2832
-74.2826
-74.2808
-74.2775
-74.2724
-74.2652
-74.2553
-74.2419
-74.2231
-74.1798
-73.7089
-73.7089
-73.7089
-73.7094
-73.7104
-73.7117
-73.7134
-73.7153
-73.7175
-73.7197
-73.7221
-73.7242
-73.7263
-73.7279
-73.7289
-73.729
-73.7281
-73.7258
-73.7217
-73.7157
-73.7078
-73.6978
-73.6843
-73.6609
-73.1452
-73.1454
-73.1457
-73.1465
-73.1479
-73.1494
-73.1514
-73.1537
-73.1562
-73.1589
-73.1617
-73.1644
-73.1671
-73.1694
-73.1712
-73.1722
-73.1722
-73.1708
-73.1677
-73.1627
-73.1554
-73.1451
-73.1279
-73.0965
-72.5804
-72.5801
-72.5799
-72.5803
-72.5814
-72.583
-72.585
-72.5874
-72.5902
-72.5933
-72.5966
-72.6
-72.6034
-72.6065
-72.6093
-72.6114
-72.6126
-72.6126
-72.6109
-72.6073
-72.6016
-72.5928
-72.5761
-72.5593
-72.005
-72.005
-72.0053
-72.0063
-72.0078
-72.0097
-72.0122
-72.0151
-72.0185
-72.0222
-72.0261
-72.0303
-72.0346
-72.0388
-72.0427
-72.0462
-72.0488
-72.0502
-72.0501
-72.0479
-72.0431
-72.0349
-72.0208
-71.9814
-71.4272
-71.4267
-71.4267
-71.4275
-71.4291
-71.4311
-71.4339
-71.4371
-71.4408
-71.4451
-71.4498
-71.4548
-71.4601
-71.4654
-71.4707
-71.4757
-71.4801
-71.4835
-71.4857
-71.4863
-71.485
-71.4819
-71.475
-71.4541
-70.8411
-70.8409
-70.841
-70.8418
-70.8433
-70.8456
-70.8485
-70.852
-70.8563
-70.8609
-70.8663
-70.8722
-70.8786
-70.8852
-70.892
-70.8988
-70.9053
-70.9111
-70.9158
-70.919
-70.9203
-70.919
-70.9118
-70.8852
-70.2469
-70.2462
-70.2458
-70.2463
-70.2478
-70.2501
-70.2533
-70.2573
-70.2621
-70.2677
-70.2741
-70.2811
-70.2889
-70.2971
-70.3058
-70.3146
-70.3235
-70.332
-70.3399
-70.3468
-70.3526
-70.3568
-70.3564
-70.3491
-69.6326
-69.6328
-69.6338
-69.6356
-69.6386
-69.6423
-69.6467
-69.6519
-69.6579
-69.6647
-69.6724
-69.6809
-69.6901
-69.7001
-69.7108
-69.7219
-69.7333
-69.7448
-69.756
-69.7667
-69.7769
-69.7857
-69.7899
-69.7923
-69.0186
-69.0186
-69.0192
-69.021
-69.024
-69.0278
-69.0326
-69.0383
-69.0451
-69.0527
-69.0615
-69.0712
-69.0819
-69.0935
-69.1061
-69.1195
-69.1336
-69.1481
-69.1628
-69.1774
-69.1918
-69.2053
-69.2151
-69.2327
-68.3916
-68.3918
-68.3927
-68.3949
-68.3983
-68.4026
-68.4079
-68.4142
-68.4217
-68.4302
-68.4399
-68.4508
-68.463
-68.4763
-68.4909
-68.5066
-68.5232
-68.5406
-68.5587
-68.5772
-68.5959
-68.6145
-68.6308
-68.6377
-67.7559
-67.7556
-67.7562
-67.7581
-67.7614
-67.7659
-67.7715
-67.7784
-67.7865
-67.7959
-67.8067
-67.8189
-67.8325
-67.8475
-67.864
-67.8819
-67.9012
-67.9216
-67.9431
-67.9653
-67.9881
-68.0108
-68.0297
-68.0569
-67.1032
-67.1034
-67.1045
-67.1071
-67.111
-67.116
-67.1223
-67.1297
-67.1387
-67.149
-67.1609
-67.1743
-67.1894
-67.2062
-67.2247
-67.2449
-67.2667
-67.29
-67.3145
-67.3401
-67.3662
-67.3921
-67.4159
-67.4312
-66.4399
-66.4396
-66.4405
-66.443
-66.4471
-66.4524
-66.4592
-66.4674
-66.4771
-66.4885
-66.5016
-66.5165
-66.5332
-66.5518
-66.5724
-66.5949
-66.6193
-66.6455
-66.6733
-66.7026