/*--------------------------------*- C++ -*----------------------------------*\
| =========                 |                                                 |
| \\      /  F ield         | OpenFOAM: The Open Source CFD Toolbox           |
|  \\    /   O peration     | Version:  2.3.0                                 |
|   \\  /    A nd           | Web:      www.OpenFOAM.org                      |
|    \\/     M anipulation  |                                                 |
\*---------------------------------------------------------------------------*/
FoamFile
{
    version     2.0;
    format      ascii;
    class       volScalarField;
    location    "10000";
    object      nut;
}
// * * * * * * * * * * * * * * * * * * * * * * * * * * * * * * * * * * * * * //

dimensions      [0 2 -1 0 0 0 0];

internalField   nonuniform List<scalar> 
121807
(
0.0380517
0.0368072
0.0355803
0.0343721
0.0331822
0.032011
0.0308583
0.0297248
0.0286092
0.0275121
0.026434
0.0253753
0.0243347
0.0233133
0.0223108
0.0213275
0.0203636
0.0194187
0.0184926
0.017586
0.0166985
0.0158307
0.0149827
0.0141553
0.0133482
0.0125633
0.0118023
0.011067
0.0103607
0.00968789
0.00905071
0.00845433
0.00790435
0.00740271
0.0069296
0.00646298
0.00599176
0.00551335
0.00501972
0.00450289
0.0039453
0.00334579
0.0028115
0.0389159
0.0377965
0.0366942
0.0356072
0.0345355
0.0334793
0.0324382
0.0314118
0.0303998
0.0294028
0.0284213
0.0274542
0.026502
0.025565
0.024643
0.0237366
0.0228454
0.02197
0.0211098
0.0202655
0.0194372
0.0186247
0.0178284
0.0170492
0.0162865
0.0155412
0.0148142
0.0141065
0.01342
0.0127555
0.012114
0.0114991
0.0109132
0.0103598
0.00984154
0.00936208
0.00892706
0.00854187
0.00821253
0.00794775
0.00775452
0.00764109
0.00761338
0.0397215
0.0387163
0.0377232
0.0367419
0.0357735
0.0348169
0.0338718
0.0329382
0.032016
0.0311057
0.030207
0.0293188
0.0284422
0.0275772
0.0267246
0.0258838
0.0250547
0.0242381
0.0234337
0.0226417
0.0218635
0.0210987
0.0203475
0.0196104
0.0188886
0.0181824
0.017493
0.0168212
0.0161694
0.0155381
0.0149298
0.014347
0.0137929
0.0132718
0.0127854
0.0123393
0.0119398
0.0115908
0.0112982
0.0110663
0.0109014
0.010807
0.0107831
0.0404751
0.0395693
0.0386717
0.0377833
0.0369044
0.0360346
0.0351735
0.0343207
0.0334766
0.0326411
0.0318132
0.0309933
0.0301816
0.0293785
0.0285848
0.0277997
0.0270236
0.0262572
0.0255004
0.0247535
0.0240166
0.0232909
0.0225773
0.0218755
0.0211869
0.0205122
0.019853
0.0192104
0.0185857
0.0179809
0.0173987
0.0168408
0.0163107
0.0158124
0.0153493
0.014926
0.0145463
0.0142156
0.0139381
0.0137186
0.013561
0.0134672
0.0134386
0.0411807
0.040358
0.0395438
0.0387362
0.0379359
0.0371421
0.0363539
0.0355716
0.034795
0.0340238
0.0332575
0.0324966
0.0317411
0.030991
0.0302469
0.0295086
0.0287777
0.028054
0.0273377
0.0266287
0.025927
0.0252341
0.0245508
0.0238781
0.0232162
0.0225669
0.0219316
0.0213115
0.0207085
0.0201239
0.0195608
0.0190213
0.0185084
0.0180262
0.0175789
0.0171693
0.0168017
0.0164808
0.0162115
0.0159976
0.0158406
0.0157451
0.0157112
0.0418241
0.0410824
0.0403429
0.039607
0.0388752
0.0381471
0.0374229
0.0367017
0.0359833
0.0352684
0.0345561
0.0338463
0.0331391
0.0324348
0.0317328
0.0310343
0.0303411
0.0296534
0.028971
0.0282943
0.0276228
0.0269571
0.026299
0.0256492
0.025009
0.0243806
0.0237647
0.0231628
0.0225763
0.0220071
0.0214581
0.0209319
0.0204316
0.0199607
0.0195237
0.0191233
0.0187636
0.0184489
0.0181841
0.0179712
0.0178139
0.0177159
0.0176765
0.0424234
0.0417491
0.0410745
0.040401
0.0397289
0.0390585
0.03839
0.0377216
0.0370541
0.0363884
0.0357232
0.0350573
0.0343919
0.0337275
0.0330622
0.0323974
0.0317354
0.031077
0.0304237
0.0297752
0.0291295
0.0284872
0.0278502
0.0272192
0.0265964
0.0259842
0.0253841
0.024797
0.0242243
0.023667
0.0231281
0.0226118
0.0221207
0.0216575
0.021227
0.0208333
0.0204794
0.0201693
0.0199067
0.0196939
0.0195352
0.0194334
0.0193889
0.0429768
0.0423608
0.0417433
0.0411232
0.0405047
0.0398823
0.0392643
0.0386428
0.038018
0.0373946
0.0367713
0.036144
0.0355139
0.0348851
0.0342533
0.033617
0.032981
0.0323452
0.0317155
0.031092
0.0304696
0.0298471
0.0292292
0.0286149
0.0280065
0.0274046
0.0268159
0.0262414
0.025682
0.0251347
0.0246016
0.0240928
0.0236104
0.0231533
0.0227246
0.022336
0.0219871
0.0216807
0.0214205
0.0212062
0.0210452
0.02094
0.0208898
0.0434864
0.0429224
0.0423557
0.0417779
0.0412112
0.0406223
0.0400528
0.0394731
0.038883
0.0382959
0.0377097
0.0371184
0.036515
0.035915
0.0353178
0.0347064
0.0340973
0.0334771
0.0328601
0.0322544
0.0316586
0.0310515
0.0304555
0.0298545
0.0292608
0.0286636
0.02808
0.027512
0.0269638
0.0264326
0.0259029
0.0253982
0.0249255
0.0244784
0.0240418
0.0236597
0.0233149
0.02301
0.0227599
0.0225398
0.0223769
0.0222705
0.0222126
0.00309323
0.00389492
0.00439723
0.00488701
0.00541059
0.00596442
0.00654807
0.00715434
0.00777878
0.00841834
0.00907124
0.00973635
0.0104117
0.0110977
0.0117924
0.0124973
0.0132121
0.0139356
0.0146695
0.0154127
0.0161656
0.0169283
0.0177015
0.0184854
0.0192792
0.0200844
0.0209004
0.0217279
0.0225668
0.0234172
0.0242797
0.0251544
0.0260415
0.0269411
0.0278536
0.0287789
0.0297173
0.0306688
0.0316336
0.0326114
0.0336021
0.0346056
0.0356218
0.00767494
0.00782707
0.0080621
0.0083735
0.00875008
0.00918431
0.00966414
0.0101835
0.0107327
0.0113092
0.0119068
0.0125215
0.0131526
0.0137952
0.0144511
0.0151168
0.0157919
0.0164768
0.0171699
0.0178712
0.0185808
0.0192987
0.0200242
0.0207579
0.0215001
0.0222503
0.0230089
0.0237761
0.0245521
0.0253369
0.0261311
0.0269346
0.0277474
0.02857
0.0294025
0.0302452
0.0310981
0.0319615
0.0328355
0.0337201
0.0346155
0.0355216
0.0364388
0.0108293
0.0109462
0.0111344
0.01139
0.0117062
0.0120776
0.0124961
0.0129548
0.0134489
0.0139721
0.0145196
0.0150892
0.0156746
0.0162766
0.0168906
0.0175165
0.0181525
0.0187976
0.0194502
0.020111
0.0207784
0.0214531
0.022134
0.0228214
0.0235154
0.0242154
0.0249217
0.0256352
0.0263547
0.0270808
0.0278141
0.028554
0.0293011
0.0300553
0.0308173
0.031587
0.0323645
0.03315
0.0339437
0.0347457
0.0355565
0.0363761
0.0372043
0.0134742
0.0135742
0.0137382
0.0139629
0.0142453
0.0145791
0.0149595
0.0153805
0.0158361
0.0163221
0.0168346
0.0173676
0.0179196
0.0184874
0.0190687
0.0196611
0.0202637
0.0208744
0.0214928
0.0221181
0.0227498
0.0233866
0.0240288
0.0246757
0.0253277
0.0259841
0.0266457
0.0273115
0.0279816
0.0286568
0.0293365
0.0300212
0.0307106
0.0314055
0.0321057
0.0328113
0.0335226
0.0342396
0.0349625
0.0356916
0.0364274
0.0371702
0.0379201
0.0157386
0.0158267
0.0159744
0.0161802
0.0164399
0.0167503
0.017105
0.0174993
0.0179281
0.0183877
0.0188728
0.0193795
0.0199047
0.0204461
0.0210003
0.0215656
0.0221406
0.0227229
0.0233124
0.0239079
0.0245086
0.0251139
0.0257225
0.0263349
0.0269508
0.0275702
0.0281925
0.0288178
0.0294458
0.0300761
0.03071
0.0313466
0.0319865
0.0326296
0.0332759
0.0339256
0.0345789
0.0352358
0.0358965
0.0365613
0.0372305
0.0379045
0.0385837
0.0176965
0.0177751
0.0179118
0.0181038
0.0183487
0.0186412
0.0189779
0.0193529
0.0197619
0.0202014
0.0206661
0.0211519
0.0216569
0.0221769
0.0227096
0.0232531
0.0238049
0.0243641
0.0249298
0.0255005
0.0260753
0.0266532
0.0272336
0.0278166
0.0284019
0.0289897
0.0295791
0.0301693
0.0307605
0.0313531
0.0319467
0.032542
0.0331387
0.0337369
0.0343366
0.0349377
0.0355402
0.0361444
0.0367506
0.0373585
0.0379687
0.038581
0.0391945
0.0194019
0.0194735
0.0196018
0.0197841
0.0200168
0.0202966
0.0206194
0.0209804
0.0213748
0.0217985
0.0222471
0.0227174
0.0232055
0.0237089
0.024224
0.0247486
0.0252817
0.0258217
0.0263676
0.0269183
0.0274712
0.0280254
0.0285811
0.0291388
0.0296987
0.0302604
0.0308212
0.0313811
0.0319404
0.0324997
0.0330589
0.0336187
0.0341783
0.034738
0.0352972
0.0358555
0.0364137
0.0369721
0.0375302
0.038088
0.0386463
0.0392053
0.0397655
0.020897
0.0209626
0.0210847
0.0212587
0.0214827
0.0217519
0.022063
0.0224147
0.0227969
0.0232081
0.0236442
0.0241016
0.0245767
0.0250686
0.0255662
0.0260759
0.0265933
0.0271165
0.0276471
0.0281822
0.0287153
0.0292474
0.0297817
0.0303193
0.0308585
0.0313995
0.0319346
0.0324663
0.0329983
0.0335292
0.0340589
0.0345891
0.0351157
0.0356428
0.0361661
0.0366867
0.0372064
0.0377253
0.0382408
0.0387544
0.0392669
0.0397787
0.0402909
0.0222141
0.0222746
0.0223936
0.0225591
0.0227777
0.0230373
0.023336
0.023683
0.0240528
0.024455
0.0248792
0.0253291
0.025793
0.0262797
0.0267506
0.0272534
0.0277564
0.0282658
0.0287864
0.0293078
0.0298181
0.0303304
0.0308489
0.0313731
0.0318952
0.0324236
0.0329267
0.0334334
0.0339449
0.0344507
0.0349552
0.0354649
0.0359579
0.0364616
0.0369504
0.037438
0.0379242
0.0384099
0.0388859
0.0393609
0.0398346
0.0403045
0.0407702
0.013413
0.0128852
0.0123684
0.0118622
0.0113667
0.010882
0.0104082
0.00994541
0.00949375
0.00905328
0.00862402
0.00820599
0.00779914
0.00740343
0.00701881
0.00664514
0.00628235
0.00593025
0.00558869
0.0052575
0.0049365
0.00462545
0.00432418
0.00403249
0.00375009
0.0034768
0.00321242
0.00295672
0.00270956
0.00247073
0.00224014
0.00201771
0.00180341
0.00159731
0.00139954
0.00121031
0.00102991
0.000858754
0.000697279
0.000545549
0.000401967
0.000259332
0.000114704
0.0133949
0.0129071
0.0124283
0.0119584
0.0114974
0.0110453
0.0106022
0.0101681
0.00974294
0.00932689
0.00891992
0.00852195
0.00813301
0.00775302
0.00738193
0.00701969
0.00666618
0.00632132
0.00598499
0.00565704
0.00533739
0.00502587
0.00472237
0.00442672
0.0041388
0.00385852
0.00358572
0.00332037
0.00306232
0.00281152
0.00256802
0.00233182
0.002103
0.00188175
0.0016683
0.00146295
0.00126602
0.00107784
0.000898132
0.000724977
0.00055295
0.000398024
0.000241905
0.0133801
0.0129308
0.0124886
0.0120534
0.0116252
0.0112041
0.01079
0.0103829
0.00998286
0.0095898
0.00920374
0.00882462
0.00845244
0.00808717
0.00772878
0.0073772
0.00703239
0.00669428
0.00636278
0.00603787
0.00571945
0.00540745
0.00510183
0.00480247
0.00450938
0.00422245
0.00394169
0.00366705
0.00339857
0.00313625
0.00288017
0.00263047
0.00238729
0.00215085
0.00192144
0.00169934
0.00148482
0.00127777
0.00107696
0.000879318
0.000684531
0.000509245
0.000328082
0.0133676
0.0129535
0.0125446
0.012141
0.0117427
0.0113497
0.0109619
0.0105793
0.0102018
0.00982951
0.00946235
0.00910026
0.00874327
0.00839135
0.00804446
0.00770256
0.00736565
0.00703369
0.00670667
0.00638456
0.00606734
0.00575501
0.00544749
0.00514483
0.00484703
0.00455409
0.004266
0.00398286
0.00370473
0.00343169
0.0031639
0.00290152
0.00264474
0.00239386
0.00214916
0.00191089
0.00167909
0.0014531
0.00123082
0.00100908
0.000797106
0.000598119
0.000391254
0.0133571
0.0129747
0.012596
0.012221
0.0118497
0.0114819
0.0111177
0.0107571
0.0103999
0.0100462
0.00969602
0.00934925
0.00900595
0.00866603
0.00832947
0.0079963
0.00766653
0.00734013
0.00701717
0.00669759
0.00638145
0.00606878
0.00575961
0.00545399
0.00515192
0.00485349
0.00455874
0.0042678
0.0039808
0.0036979
0.00341929
0.00314515
0.00287577
0.0026114
0.00235237
0.00209883
0.00185048
0.00160597
0.00136162
0.00111066
0.00088829
0.000668404
0.000439691
0.013349
0.0129947
0.0126432
0.0122939
0.0119468
0.0116018
0.0112589
0.0109179
0.0105789
0.0102419
0.00990688
0.00957389
0.00924294
0.00891388
0.00858669
0.00826139
0.00793803
0.00761666
0.00729729
0.00697995
0.00666474
0.00635172
0.00604102
0.00573269
0.0054268
0.00512339
0.00482257
0.0045245
0.0042294
0.00393745
0.00364885
0.00336391
0.00308289
0.00280608
0.00253377
0.00226594
0.00200207
0.00174017
0.00147614
0.00120695
0.000966817
0.000725313
0.000478267
0.0133396
0.0130129
0.0126861
0.0123601
0.0120349
0.0117105
0.0113868
0.0110636
0.0107409
0.0104187
0.010097
0.00977632
0.00945667
0.00913778
0.0088193
0.00850116
0.00818357
0.00786677
0.00755076
0.00723546
0.00692086
0.00660726
0.00629495
0.00598413
0.00567492
0.00536715
0.00506088
0.00475635
0.00445384
0.0041536
0.00385585
0.00356098
0.0032693
0.00298108
0.00269644
0.00241527
0.00213687
0.0018589
0.00157738
0.00129416
0.00103589
0.000772457
0.000510047
0.0133356
0.0130304
0.0127255
0.0124202
0.0121146
0.011809
0.0115027
0.0111959
0.010888
0.0105789
0.0102686
0.00995787
0.00964862
0.00933998
0.00903058
0.00871932
0.00840681
0.00809419
0.00778159
0.00746866
0.00715443
0.00683966
0.00652498
0.00621119
0.00589929
0.00558858
0.00527783
0.00496753
0.0046585
0.00435086
0.00404475
0.00374075
0.00343943
0.00314119
0.00284538
0.00255121
0.00225842
0.00196494
0.0016672
0.00137107
0.00109636
0.000812278
0.000537488
0.0133287
0.0130462
0.0127612
0.0124743
0.0121856
0.0118978
0.0116078
0.0113166
0.0110227
0.0107259
0.0104253
0.0101188
0.00981762
0.00952086
0.00922389
0.00892124
0.00861218
0.00830296
0.00799347
0.00768624
0.00737312
0.00705605
0.00673727
0.00641643
0.00610092
0.00579193
0.00547983
0.00516449
0.00485034
0.00453767
0.00422449
0.00391222
0.00360201
0.00329753
0.00299656
0.00268959
0.00237908
0.00206732
0.00175228
0.00144347
0.00115271
0.000845387
0.000558359
8.26602e-05
0.000187845
0.000265426
0.000340148
0.00041613
0.000499828
0.00059756
0.000715249
0.000850646
0.000999896
0.00116192
0.00133647
0.00152354
0.00172325
0.00193595
0.00216193
0.00240159
0.00265537
0.00292359
0.00320673
0.00350518
0.0038194
0.00414979
0.0044968
0.00486094
0.00524266
0.00564241
0.0060607
0.00649799
0.00695473
0.00743133
0.00792809
0.00844532
0.00898318
0.00954175
0.0101209
0.0107203
0.0113394
0.0119775
0.0126331
0.0133045
0.0139894
0.0146846
0.000176734
0.000252895
0.000333816
0.000421015
0.000517781
0.000629089
0.00075746
0.000903785
0.00106776
0.00124467
0.00143383
0.00163497
0.00184812
0.00207329
0.00231067
0.00256042
0.00282275
0.00309791
0.00338611
0.00368759
0.00400259
0.0043314
0.00467427
0.00503156
0.00540356
0.00579065
0.00619311
0.00661128
0.00704542
0.00749584
0.00796279
0.00844638
0.00894674
0.00946388
0.00999774
0.010548
0.0111144
0.0116961
0.0122924
0.0129019
0.0135231
0.0141538
0.0147913
0.000247374
0.000312376
0.000404127
0.00051076
0.000633343
0.00077353
0.000930588
0.00110417
0.00129496
0.00149814
0.00171313
0.00193967
0.00217764
0.00242695
0.00268761
0.00295968
0.00324317
0.00353813
0.0038447
0.00416293
0.00449292
0.00483481
0.00518876
0.00555492
0.00593352
0.00632473
0.0067287
0.00714562
0.00757563
0.0080188
0.00847525
0.00894499
0.00942794
0.00992402
0.010433
0.0109545
0.011488
0.0120329
0.0125883
0.0131529
0.0137255
0.0143041
0.0148871
0.000302324
0.000368622
0.0004766
0.000606085
0.000755055
0.00092211
0.0011051
0.00130445
0.00152003
0.00174766
0.00198667
0.00223668
0.00249749
0.0027689
0.0030508
0.00334307
0.00364561
0.00395835
0.0042812
0.00461413
0.00495713
0.00531024
0.00567352
0.00604697
0.00643068
0.00682471
0.00722902
0.0076437
0.00806876
0.00850414
0.00894981
0.00940566
0.00987149
0.0103471
0.0108321
0.0113262
0.0118287
0.0123391
0.0128563
0.0133794
0.013907
0.0144374
0.0149684
0.000348277
0.00042353
0.000550756
0.000703791
0.000877592
0.00106881
0.00127532
0.00149919
0.00173774
0.00198792
0.00224901
0.00252059
0.00280232
0.00309385
0.00339495
0.00370541
0.004025
0.0043535
0.00469073
0.00503654
0.00539086
0.00575359
0.00612468
0.006504
0.00689157
0.00728731
0.00769108
0.00810282
0.00852244
0.00894975
0.00938464
0.00982689
0.0102762
0.0107323
0.0111947
0.0116631
0.0121367
0.0126151
0.0130972
0.0135822
0.0140689
0.0145558
0.0150413
0.000388922
0.000477635
0.000625219
0.000800977
0.000997518
0.00121071
0.00143909
0.00168556
0.00194532
0.00221626
0.00249766
0.00278895
0.00308969
0.0033995
0.003718
0.00404486
0.00437972
0.00472224
0.00507221
0.00542936
0.0057935
0.00616451
0.00654216
0.00692626
0.0073167
0.00771325
0.00811573
0.008524
0.00893786
0.00935708
0.00978138
0.0102105
0.0106441
0.0110817
0.011523
0.0119674
0.0124143
0.0128632
0.0133133
0.0137637
0.0142133
0.014661
0.0151054
0.000426752
0.00053166
0.000699491
0.000896233
0.00111324
0.00134647
0.00159531
0.0018621
0.0021413
0.00243127
0.00273121
0.00304055
0.00335874
0.00368522
0.00401955
0.00436124
0.00470986
0.00506505
0.00542641
0.00579362
0.00616642
0.00654452
0.00692767
0.00731557
0.00770793
0.00810447
0.00850495
0.00890927
0.00931724
0.0097284
0.0101424
0.0105589
0.0109777
0.0113982
0.0118198
0.0122418
0.012664
0.013086
0.013507
0.0139262
0.0143425
0.0147552
0.0151637
0.000461103
0.000581488
0.000767788
0.000983797
0.00122023
0.00147308
0.00174191
0.0020275
0.00232464
0.00263244
0.00295005
0.0032765
0.00361108
0.00395326
0.00430244
0.00465797
0.00501927
0.00538597
0.00575759
0.00613368
0.0065139
0.00689781
0.00728527
0.0076758
0.00806863
0.00846374
0.0088611
0.00926103
0.00966321
0.0100664
0.0104703
0.0108749
0.0112803
0.0116853
0.0120882
0.0124888
0.012888
0.0132856
0.0136808
0.0140721
0.0144583
0.0148392
0.0152137
0.000498573
0.000643346
0.000854039
0.00109248
0.00134787
0.00161502
0.00189566
0.00219261
0.00250829
0.00283658
0.00317355
0.00351614
0.00386576
0.00422246
0.00458523
0.00495235
0.00532421
0.00570034
0.00607957
0.00646197
0.0068469
0.00723365
0.00762358
0.00801435
0.00840357
0.00879422
0.00918596
0.00958195
0.00997961
0.010374
0.0107673
0.0111607
0.011556
0.0119478
0.0123311
0.0127095
0.0130878
0.0134635
0.0138375
0.0142041
0.0145627
0.0149149
0.0152588
0.000126334
0.000659642
0.00137704
0.00209049
0.00277167
0.00341764
0.00402886
0.00461052
0.00516737
0.00570719
0.00623971
0.00677693
0.00732114
0.00787121
0.00844021
0.00907911
0.00978375
0.0105374
0.0113299
0.0121552
0.0130084
0.013887
0.0147893
0.0157138
0.0166606
0.0176287
0.0186173
0.0196266
0.0206569
0.0217081
0.0227795
0.0238719
0.024984
0.0261169
0.0272708
0.0284443
0.0296382
0.0308527
0.0320873
0.0333419
0.0346162
0.0359106
0.0372245
7.72333e-05
0.000567699
0.00124212
0.00185253
0.00241304
0.00294987
0.00347322
0.00398788
0.00449727
0.0050028
0.00550747
0.00601496
0.00652869
0.00705317
0.0075981
0.0081781
0.00879554
0.00944347
0.0101303
0.0108951
0.0117204
0.0125916
0.0134992
0.0144373
0.0154024
0.0163923
0.0174052
0.0184402
0.0194975
0.0205755
0.0216747
0.0227946
0.0239348
0.0250958
0.0262773
0.0274784
0.0286998
0.0299418
0.0312031
0.0324843
0.0337859
0.0351066
0.0364471
3.44186e-05
0.000444442
0.000988151
0.00166328
0.00232576
0.00291782
0.00345318
0.00394849
0.00441799
0.00487285
0.0053222
0.00577337
0.00623314
0.00670796
0.00720466
0.00772886
0.00828458
0.0088736
0.00949967
0.0101685
0.0108786
0.0116583
0.0125137
0.0134246
0.0143782
0.0153668
0.0163853
0.0174307
0.0185003
0.0195934
0.0207087
0.0218457
0.023004
0.0241832
0.025383
0.0266027
0.0278436
0.0291043
0.0303843
0.0316849
0.0330053
0.0343453
0.0357055
3.07128e-05
0.000414838
0.000917207
0.00154134
0.00223968
0.00290035
0.00349679
0.0040353
0.0045268
0.00498226
0.00541301
0.00583031
0.00624495
0.00666725
0.0071063
0.00756948
0.00806308
0.00859152
0.00915759
0.00976315
0.0104091
0.0111006
0.0118414
0.0126603
0.0135576
0.0145139
0.0155156
0.016553
0.0176216
0.0187183
0.0198402
0.0209859
0.0221543
0.023345
0.0245571
0.0257905
0.0270451
0.02832
0.0296152
0.0309308
0.0322661
0.0336211
0.034994
2.5349e-05
0.00039053
0.000863669
0.00144629
0.00212752
0.00283007
0.00348698
0.00408512
0.00462778
0.00512167
0.00557544
0.00599858
0.00640201
0.00679733
0.00719594
0.00760878
0.00804529
0.00851316
0.00901771
0.00956255
0.0101495
0.0107793
0.0114536
0.0121779
0.0129639
0.0138435
0.014796
0.015804
0.0168559
0.0179434
0.0190616
0.0202075
0.0213793
0.0225757
0.0237952
0.0250368
0.0263004
0.0275855
0.028892
0.0302188
0.0315661
0.032933
0.0343181
2.30737e-05
0.000376726
0.00083142
0.00138823
0.00204249
0.00275679
0.00345512
0.00410275
0.004694
0.00523279
0.00572458
0.00617596
0.0065952
0.00699188
0.00737688
0.00776189
0.00815841
0.00857705
0.00902657
0.00951352
0.010042
0.0106144
0.0112318
0.0118946
0.0126068
0.0133793
0.0142415
0.0151903
0.016204
0.0172674
0.0183713
0.019509
0.020677
0.0218725
0.0230938
0.0243388
0.0256077
0.0268992
0.0282131
0.0295482
0.0309046
0.0322821
0.0336815
2.0593e-05
0.000362822
0.000801552
0.00133669
0.00196491
0.00266971
0.00339303
0.00408236
0.00471989
0.00530382
0.0058373
0.00632508
0.00677339
0.0071895
0.00758208
0.0079616
0.00833934
0.00872683
0.00913511
0.0095735
0.0100492
0.0105672
0.0111301
0.0117393
0.0123956
0.0131021
0.0138691
0.0147224
0.0156713
0.0166925
0.0177684
0.0188876
0.020044
0.0212329
0.0224502
0.0236947
0.0249645
0.0262589
0.0275766
0.0289171
0.0302802
0.0316646
0.0330695
1.8683e-05
0.000351543
0.000777084
0.00129425
0.00190025
0.00258691
0.00331794
0.00403731
0.00471403
0.00533891
0.0059123
0.00643776
0.00691982
0.00736364
0.00777624
0.00816597
0.00854256
0.00891693
0.00930042
0.009704
0.0101373
0.0106076
0.0111206
0.0116791
0.0122847
0.0129388
0.0136443
0.0144109
0.0152662
0.0162218
0.0172533
0.018343
0.0194791
0.020654
0.0218626
0.0231017
0.024369
0.0256626
0.0269812
0.0283242
0.0296909
0.0310804
0.0324913
1.69711e-05
0.00034076
0.000754319
0.0012552
0.00184137
0.00250712
0.00323314
0.00397099
0.00467946
0.00534131
0.00595241
0.00651463
0.00703092
0.00750585
0.00794454
0.00835345
0.00874079
0.00911604
0.00948973
0.0098729
0.0102762
0.010709
0.0111791
0.0116918
0.0122504
0.0128569
0.0135124
0.0142209
0.0149933
0.0158592
0.016828
0.0178744
0.0189805
0.0201348
0.0213292
0.0225584
0.0238189
0.0251082
0.026425
0.0277678
0.0291361
0.0305294
0.0319488
1.54141e-05
0.000330619
0.0007329
0.00121925
0.00178772
0.00243363
0.00314658
0.00389101
0.00462275
0.00531623
0.00596182
0.00655834
0.0071083
0.00761488
0.00808199
0.00851493
0.00892022
0.00930581
0.00968098
0.010056
0.0104415
0.010848
0.0112843
0.0117581
0.0122747
0.0128372
0.0134482
0.0141092
0.0148246
0.0156086
0.0164946
0.0174825
0.0185481
0.0196736
0.0208476
0.0220619
0.0233119
0.0245941
0.0259061
0.0272464
0.0286137
0.0300071
0.0314271
1.40606e-05
0.000321021
0.000712992
0.00118593
0.00173796
0.0023649
0.00306101
0.00380313
0.00454951
0.00526833
0.00594423
0.0065728
0.00715468
0.00769206
0.0081883
0.00864745
0.00907466
0.00947658
0.00986118
0.0102375
0.0106156
0.0110059
0.0114182
0.0118612
0.0123419
0.0128657
0.0134358
0.0140544
0.0147241
0.0154511
0.0162541
0.0171681
0.018181
0.019269
0.0204159
0.0216108
0.0228467
0.0241182
0.0254228
0.0267578
0.0281213
0.0295119
0.0309276
1.28301e-05
0.000311869
0.000694128
0.00115416
0.00169078
0.00230035
0.00297897
0.00371182
0.00446463
0.00520236
0.0059043
0.00656193
0.00717352
0.00774054
0.00826538
0.00875121
0.00920228
0.00962408
0.0100232
0.0104076
0.0107864
0.0111693
0.0115663
0.0119868
0.012439
0.0129296
0.0134633
0.0140437
0.0146731
0.0153552
0.0160993
0.0169314
0.0178789
0.01892
0.0200331
0.0212034
0.0224211
0.0236791
0.0249732
0.0263001
0.0276581
0.0290441
0.0304563
1.16786e-05
0.000302945
0.000675695
0.00112364
0.00164597
0.00223929
0.00290014
0.00361964
0.00437209
0.00512243
0.00584571
0.00652915
0.00716832
0.00776318
0.00831535
0.00882763
0.00930331
0.00974688
0.0101637
0.0105608
0.0109462
0.0113287
0.011718
0.0121235
0.0125543
0.0130179
0.0135206
0.014067
0.0146603
0.0153036
0.0160024
0.0167703
0.0176413
0.0186257
0.0196975
0.020838
0.0220332
0.0232742
0.0245554
0.0258727
0.0272228
0.0286033
0.0300125
1.06805e-05
0.000294521
0.000658454
0.00109481
0.0016037
0.00218147
0.00282525
0.00352984
0.00427608
0.00503306
0.00577256
0.00647814
0.00714215
0.00776268
0.00834109
0.00887906
0.00937917
0.00984517
0.0102816
0.0106945
0.0110906
0.0114781
0.0118658
0.012263
0.0126789
0.0131218
0.0135988
0.0141157
0.0146768
0.0152856
0.015946
0.0166661
0.0174668
0.0183848
0.0194082
0.0205131
0.0216814
0.0229025
0.0241686
0.0254737
0.0268145
0.0281877
0.0295921
9.75709e-06
0.000286277
0.000641742
0.00106741
0.00156337
0.00212641
0.00275431
0.0034427
0.00417896
0.00493721
0.00568826
0.00641186
0.00709772
0.00774234
0.00834539
0.00890767
0.00943164
0.00992018
0.0103772
0.0108076
0.0112174
0.0116138
0.0120048
0.0123991
0.0128059
0.0132337
0.0136904
0.0141826
0.0147156
0.0152936
0.0159204
0.0166015
0.0173496
0.0181967
0.0191641
0.0202272
0.0213649
0.0225628
0.0238106
0.0251016
0.0264312
0.0277957
0.0291924
8.88205e-06
0.000278149
0.000625764
0.00104111
0.00152466
0.00207375
0.00268626
0.00335878
0.00408272
0.00483775
0.00559555
0.0063333
0.00703838
0.0077047
0.00833036
0.00891588
0.00946287
0.00997374
0.0104515
0.0109004
0.0113257
0.0117337
0.0121317
0.0125276
0.0129302
0.0133481
0.0137895
0.0142616
0.0147706
0.0153215
0.0159183
0.0165659
0.0172728
0.0180593
0.0189636
0.0199792
0.0210817
0.0222528
0.0234801
0.0247551
0.0260719
0.0274263
0.0288145
8.15359e-06
0.000270779
0.000610617
0.00101615
0.00148815
0.00202377
0.00262127
0.00327841
0.00398885
0.00473705
0.0054972
0.00624565
0.00696674
0.00765226
0.0082989
0.00890622
0.00947514
0.0100075
0.0105058
0.0109736
0.0114156
0.0118372
0.0122447
0.0126457
0.0130482
0.0134606
0.0138912
0.0143477
0.0148368
0.0153641
0.0159345
0.0165527
0.017225
0.0179651
0.0188048
0.0197678
0.0208304
0.0219716
0.0231759
0.0244331
0.0257358
0.0270788
0.0284588
7.4601e-06
0.000263258
0.000595765
0.000991893
0.00145292
0.00197581
0.00255926
0.00320156
0.00389803
0.00463644
0.00539517
0.00615045
0.00688469
0.00758701
0.00825293
0.00888054
0.00947018
0.0100232
0.0105416
0.0110285
0.0114879
0.011924
0.0123431
0.0127517
0.0131574
0.013568
0.0139918
0.0144366
0.0149097
0.0154172
0.0159645
0.0165566
0.0171989
0.0179015
0.0186861
0.0195915
0.0206103
0.021718
0.0228969
0.0241342
0.0254212
0.026752
0.0281232
6.80727e-06
0.000256
0.000581607
0.000968715
0.00141901
0.00193001
0.00250027
0.00312808
0.00381016
0.00453745
0.00529183
0.00605076
0.00679487
0.0075117
0.00819458
0.00884084
0.00944993
0.0100228
0.0105607
0.0110664
0.011543
0.0119948
0.0124267
0.0128449
0.0132562
0.0136681
0.0140885
0.0145254
0.014986
0.015477
0.0160045
0.0165735
0.0171896
0.0178605
0.0186018
0.0194486
0.0204196
0.0214909
0.0226416
0.0238569
0.0251268
0.0264435
0.0278025
6.23865e-06
0.000249219
0.000568284
0.000946659
0.00138695
0.00188665
0.00244395
0.00305768
0.00372548
0.00444082
0.00518868
0.00594789
0.00669918
0.0074279
0.00812584
0.00878901
0.00941641
0.0100078
0.0105645
0.0110883
0.0115823
0.0120499
0.0124956
0.0129248
0.0133437
0.0137594
0.0141794
0.0146114
0.0150628
0.0155406
0.0160512
0.0166002
0.0171931
0.0178366
0.0185427
0.0193374
0.0202571
0.0212888
0.0224088
0.0236004
0.0248512
0.0261524
0.0274977
5.76482e-06
0.000243029
0.000555669
0.000925799
0.00135632
0.00184495
0.00239027
0.00299091
0.00364477
0.00434731
0.00508655
0.00584365
0.00659905
0.00733735
0.00804832
0.00872708
0.00937113
0.00997998
0.0105545
0.011096
0.0116069
0.0120904
0.0125504
0.0129916
0.0134197
0.0138411
0.014263
0.0146929
0.0151379
0.0156054
0.0161021
0.0166338
0.0172064
0.0178259
0.0185024
0.0192547
0.0201212
0.0211104
0.0221978
0.0233635
0.0245938
0.0258783
0.0272095
5.3317e-06
0.000236861
0.000543503
0.000905617
0.00132677
0.00180498
0.00233885
0.00292676
0.00356731
0.00425715
0.00498639
0.005739
0.0064963
0.00724146
0.00796353
0.00865607
0.00931544
0.00994084
0.0105321
0.0110905
0.0116181
0.0121174
0.0125918
0.0130456
0.0134839
0.0139126
0.0143384
0.0147684
0.0152097
0.0156697
0.0161551
0.0166722
0.0172268
0.0178254
0.0184761
0.0191939
0.0200103
0.0209547
0.022007
0.0231454
0.0243532
0.0256197
0.0269359
4.8944e-06
0.000230633
0.000531525
0.000886277
0.00129864
0.00176698
0.00228944
0.00286489
0.00349285
0.00416999
0.00488859
0.00563519
0.00639177
0.00714165
0.00787295
0.00857747
0.00925105
0.00989154
0.0104986
0.0110733
0.0116168
0.0121316
0.0126205
0.0130872
0.0135366
0.0139738
0.0144051
0.0148371
0.0152769
0.0157316
0.0162082
0.0167131
0.0172524
0.0178324
0.0184607
0.0191493
0.0199228
0.0208204
0.0218355
0.0229443
0.024129
0.0253763
0.026675
4.51755e-06
0.00022466
0.000520154
0.000867701
0.00127159
0.00173019
0.00224193
0.00280593
0.00342141
0.00408577
0.00479329
0.00553232
0.00628655
0.00703937
0.00777777
0.00849285
0.00917885
0.00983333
0.0104555
0.0110454
0.0116045
0.0121343
0.0126374
0.0131174
0.0135782
0.0140247
0.0144627
0.0148984
0.0153385
0.0157901
0.0162601
0.0167551
0.0172813
0.0178451
0.0184535
0.0191172
0.0198555
0.0207061
0.0216823
0.0227603
0.0239208
0.0251485
0.0264333
4.16956e-06
0.000219002
0.000509146
0.000849738
0.00124537
0.00169471
0.00219625
0.00274929
0.00335267
0.00400478
0.00470095
0.00543154
0.00618172
0.00693536
0.00767927
0.00840293
0.0091
0.00976753
0.0104035
0.011008
0.0115818
0.0121262
0.0126434
0.0131365
0.0136091
0.0140656
0.0145112
0.0149519
0.0153941
0.0158444
0.0163098
0.0167967
0.0173119
0.0178616
0.0184528
0.0190947
0.0198035
0.0206106
0.0215466
0.0225929
0.023728
0.0249361
0.0262048
3.87063e-06
0.000213659
0.000498779
0.000832654
0.0012206
0.00166106
0.00215273
0.00269499
0.0032868
0.0039272
0.00461191
0.00533315
0.00607783
0.00683073
0.00757827
0.00830891
0.00901595
0.00969501
0.0103439
0.010962
0.0115497
0.0121083
0.0126393
0.0131454
0.0136298
0.0140968
0.0145508
0.0149975
0.0154429
0.0158936
0.016356
0.0168371
0.0173431
0.0178808
0.0184567
0.0190796
0.0197629
0.0205326
0.0214273
0.0224406
0.0235503
0.0247391
0.0259979
3.58844e-06
0.000208425
0.000488698
0.000816152
0.00119673
0.00162871
0.00211109
0.00264283
0.00322391
0.00385252
0.00452567
0.00523735
0.00597539
0.00672615
0.00747545
0.00821174
0.00892724
0.00961659
0.0102774
0.0109083
0.0115094
0.0120815
0.0126258
0.0131448
0.0136412
0.0141187
0.0145817
0.0150352
0.0154851
0.0159373
0.0163985
0.0168752
0.0173739
0.0179013
0.0184639
0.01907
0.0197313
0.0204696
0.0213234
0.0223029
0.0233857
0.0245535
0.025793
3.31414e-06
0.000203175
0.00047891
0.000800304
0.00117366
0.00159753
0.0020708
0.00259285
0.00316303
0.00378044
0.00444259
0.00514417
0.00587501
0.006622
0.00737163
0.00811229
0.00883491
0.00953353
0.0102051
0.0108482
0.0114619
0.0120466
0.0126039
0.0131354
0.0136436
0.0141318
0.0146041
0.0150652
0.0155203
0.0159753
0.0164365
0.0169103
0.0174033
0.0179221
0.0184733
0.0190647
0.019707
0.0204185
0.021234
0.0221787
0.0232334
0.0243782
0.0255975
3.09836e-06
0.000198153
0.000469589
0.000785352
0.00115168
0.00156759
0.00203218
0.00254458
0.00310448
0.00371115
0.00436252
0.00505412
0.00577695
0.00651919
0.00726802
0.00801155
0.00873989
0.00944655
0.010128
0.010782
0.0114076
0.0120046
0.0125742
0.0131178
0.0136376
0.0141367
0.0146186
0.0150876
0.0155487
0.0160074
0.0164697
0.016942
0.0174308
0.0179425
0.0184838
0.0190624
0.019688
0.0203766
0.0211577
0.0220667
0.0230923
0.0242129
0.0254115
2.92044e-06
0.000193447
0.000460687
0.00077086
0.00113065
0.0015391
0.00199521
0.00249841
0.00304843
0.00364463
0.00428555
0.00496682
0.00568129