/*--------------------------------*- C++ -*----------------------------------*\
| =========                 |                                                 |
| \\      /  F ield         | OpenFOAM: The Open Source CFD Toolbox           |
|  \\    /   O peration     | Version:  2.3.0                                 |
|   \\  /    A nd           | Web:      www.OpenFOAM.org                      |
|    \\/     M anipulation  |                                                 |
\*---------------------------------------------------------------------------*/
FoamFile
{
    version     2.0;
    format      ascii;
    class       volScalarField;
    location    "10000";
    object      p;
}
// * * * * * * * * * * * * * * * * * * * * * * * * * * * * * * * * * * * * * //

dimensions      [0 2 -2 0 0 0 0];

internalField   nonuniform List<scalar> 
121807
(
-0.000236733
-2.7655
-7.00124
-11.4341
-15.9688
-20.6171
-25.3828
-30.28
-35.3121
-40.4949
-45.7922
-51.2414
-56.8261
-62.5647
-68.4366
-74.4368
-80.547
-86.8101
-93.1409
-99.6028
-106.156
-112.773
-119.405
-126.131
-132.926
-139.744
-146.517
-153.345
-160.075
-166.859
-173.412
-179.725
-185.726
-190.979
-195
-197.415
-197.577
-194.449
-185.801
-169.125
-151.489
-144.739
-106.173
9.08762
6.77798
3.3384
-0.188556
-3.72653
-7.29816
-10.901
-14.5512
-18.231
-21.943
-25.6691
-29.4382
-33.2047
-37.0141
-40.8063
-44.6367
-48.4295
-52.2543
-56.044
-59.8165
-63.5279
-67.2038
-70.7155
-74.1038
-77.3072
-80.1779
-82.6805
-84.6496
-85.8538
-86.2984
-85.4941
-83.3218
-79.3405
-73.2682
-64.534
-52.6596
-36.8259
-16.5584
9.31398
41.4821
80.9285
128.759
185.282
17.7335
15.6245
12.9141
10.1892
7.49058
4.79358
2.10227
-0.59943
-3.2935
-5.96687
-8.63587
-11.2885
-13.9135
-16.4912
-19.0031
-21.4834
-23.8441
-26.1104
-28.2887
-30.2871
-32.1164
-33.7531
-35.1759
-36.2983
-37.1207
-37.5676
-37.6011
-37.0858
-35.9661
-34.153
-31.4512
-27.7783
-22.75
-16.3456
-8.30937
1.82888
14.1829
29.0341
46.591
66.917
90.1538
116.29
145.094
24.2109
23.0775
21.1601
19.128
17.0948
15.0702
13.061
11.075
9.11975
7.20363
5.31419
3.49286
1.69555
0.00867378
-1.62538
-3.16446
-4.59714
-5.88837
-7.03853
-8.01051
-8.79178
-9.28884
-9.55169
-9.44933
-8.98059
-8.0292
-6.55896
-4.45271
-1.64643
2.0213
6.63444
12.3186
19.3276
27.6954
37.6756
49.3956
63.0002
78.584
96.1244
115.467
136.421
158.434
180.814
31.5655
30.3497
28.7223
27.0915
25.5091
23.9788
22.4803
21.0295
19.616
18.2458
16.9265
15.7002
14.5085
13.4362
12.4192
11.5337
10.7565
10.1368
9.69697
9.4143
9.36264
9.55836
10.0374
10.8354
11.9801
13.5931
15.6577
18.3512
21.621
25.6813
30.5508
36.3227
43.1802
51.2154
60.5509
71.2091
83.382
96.9738
112.105
128.448
145.911
164.07
182.44
37.1913
36.5803
35.275
34.0351
32.8191
31.6838
30.5739
29.5337
28.5255
27.5574
26.6577
25.8532
25.1144
24.4775
23.9169
23.4757
23.1516
22.9621
22.9788
23.1735
23.6012
24.263
25.2139
26.466
28.102
30.1715
32.6942
35.8007
39.5071
43.915
49.075
55.079
62.0242
70.0671
79.1691
89.4035
100.896
113.62
127.477
142.224
157.804
173.802
189.933
42.3918
42.0439
41.0331
40.105
39.1508
38.3432
37.514
36.8509
36.1586
35.4932
34.9021
34.4141
34.0215
33.6896
33.4838
33.3782
33.346
33.4808
33.8219
34.3607
35.1202
36.1144
37.2983
38.8284
40.7594
43.0951
45.8505
49.179
53.1054
57.6357
62.7284
68.5822
75.326
83.0941
91.8096
101.477
112.256
124.059
136.828
150.416
164.595
179.175
193.857
47.6389
47.1701
46.1796
45.3972
44.5198
43.9831
43.2685
42.9864
42.6052
42.1517
41.8146
41.5957
41.4347
41.2967
41.3607
41.5926
41.7804
42.1553
42.563
43.2493
44.3303
45.6421
47.0298
48.7986
50.8297
53.3322
56.0204
59.4668
63.5138
68.4527
73.7258
79.3939
85.9585
93.5114
101.725
110.728
121.012
132.113
144.303
157.078
170.09
183.761
197.351
52.801
52.2353
51.0965
50.9317
49.5364
49.4543
48.2259
48.2036
48.2462
47.486
46.9497
47.0158
46.9908
46.6924
47.1208
48.2975
48.514
48.9422
48.7861
48.6876
49.8874
52.6593
54.0189
55.7514
57.5614
60.1257
61.9994
64.3929
67.3131
72.9856
80.4253
86.1453
92.414
100.479
110.078
115.938
125.754
139.015
151.799
163.67
175.18
187.85
200.04
71.1489
165.261
218.034
253.732
279.95
300.3
316.181
328.614
338.556
346.436
352.712
357.638
361.54
364.588
366.98
368.765
370.062
370.971
371.519
371.791
371.835
371.692
371.384
370.932
370.391
369.75
369.047
368.29
367.492
366.668
365.821
364.953
364.075
363.187
362.29
361.393
360.49
359.587
358.684
357.785
356.887
356.02
355.515
236.969
270.83
295.529
314.753
329.931
341.818
351.039
358.045
363.324
367.173
369.897
371.764
372.918
373.579
373.805
373.739
373.435
372.963
372.361
371.684
370.938
370.151
369.334
368.506
367.665
366.808
365.961
365.104
364.245
363.391
362.533
361.675
360.822
359.97
359.123
358.282
357.45
356.626
355.813
355.01
354.221
353.453
352.822
174.349
201.674
226.176
247.503
265.897
281.494
294.708
305.805
315.077
322.833
329.282
334.625
339.09
342.777
345.822
348.333
350.389
352.058
353.414
354.487
355.328
355.954
356.415
356.722
356.898
356.95
356.927
356.8
356.605
356.356
356.044
355.687
355.292
354.866
354.408
353.926
353.424
352.907
352.377
351.836
351.289
350.732
350.085
202.654
223.056
241.731
258.413
273.105
285.867
296.847
306.235
314.206
320.956
326.612
331.368
335.351
338.666
341.412
343.701
345.577
347.114
348.379
349.384
350.191
350.818
351.298
351.656
351.904
352.046
352.122
352.119
352.059
351.947
351.789
351.583
351.35
351.086
350.79
350.478
350.143
349.793
349.43
349.057
348.676
348.25
347.575
200.576
217.955
234.245
249.197
262.706
274.707
285.295
294.532
302.568
309.517
315.468
320.6
325.002
328.761
331.974
334.729
337.052
339.044
340.736
342.155
343.354
344.351
345.185
345.862
346.414
346.846
347.186
347.441
347.616
347.731
347.776
347.77
347.718
347.628
347.504
347.354
347.175
346.976
346.76
346.528
346.291
345.978
345.288
205.767
221.031
235.484
248.866
261.075
272.087
281.875
290.526
298.159
304.808
310.576
315.614
319.944
323.735
326.997
329.807
332.226
334.312
336.089
337.614
338.938
340.05
341.001
341.775
342.439
342.988
343.45
343.837
344.118
344.348
344.495
344.603
344.654
344.685
344.676
344.638
344.57
344.483
344.377
344.248
344.11
343.934
343.514
208.3
222.201
235.425
247.72
259.034
269.327
278.512
286.715
294.006
300.466
306.102
311.099
315.41
319.305
322.598
325.454
327.954
330.138
332.012
333.634
335.082
336.305
337.334
338.204
338.967
339.658
340.251
340.734
341.093
341.411
341.629
341.846
341.988
342.132
342.199
342.247
342.271
342.28
342.26
342.196
342.127
342.08
342.277
210.56
223.321
235.686
247.126
257.802
267.601
276.314
284.139
291.182
297.495
302.973
307.916
312.142
316.168
319.393
322.257
324.742
326.929
328.856
330.586
332.107
333.343
334.355
335.313
336.204
337.049
337.67
338.152
338.54
338.924
339.174
339.541
339.728
339.951
340.022
340.151
340.28
340.367
340.367
340.307
340.289
340.351
341.03
211.296
222.453
234.189
245.227
255.566
265.289
273.546
282.45
289.702
295.718
300.753
305.223
308.737
313.681
316.441
319.659
322.251
324.221
326.064
327.983
329.827
330.981
331.933
332.89
333.587
334.49
335.202
335.742
336.222
336.781
337.073
337.487
337.332
337.789
337.987
338.313
338.43
338.416
338.57
338.582
338.607
338.696
339.372
18.435
18.8824
19.36
19.8587
20.3724
20.8965
21.4277
21.9633
22.5012
23.039
23.5742
24.1047
24.6282
25.1427
25.6455
26.1346
26.6074
27.0619
27.496
27.9075
28.2946
28.6552
28.9879
29.2906
29.5616
29.7999
30.004
30.1733
30.3073
30.4057
30.4687
30.4966
30.4911
30.4538
30.388
30.2982
30.1893
30.0694
29.9486
29.8402
29.7647
29.8871
30.5355
18.9079
19.1729
19.4308
19.693
19.9574
20.2227
20.4883
20.7544
21.0203
21.2864
21.5534
21.822
22.093
22.3671
22.6457
22.9291
23.2176
23.5123
23.8133
24.121
24.4359
24.7583
25.0882
25.4263
25.7733
26.1288
26.493
26.8656
27.2465
27.6361
28.0343
28.441
28.8565
29.2807
29.7136
30.1546
30.6018
31.0515
31.5004
31.9762
32.5947
33.6086
34.5851
19.3699
19.5959
19.8111
20.0347
20.267
20.5086
20.7597
21.0209
21.2924
21.5733
21.8626
22.1604
22.4671
22.7824
23.1058
23.4364
23.7732
24.1157
24.4641
24.8175
25.1752
25.5367
25.9024
26.2718
26.6453
27.0234
27.4069
27.7964
28.1928
28.5959
29.0069
29.4266
29.8551
30.2924
30.7375
31.1894
31.6462
32.1055
32.572
33.0903
33.8113
35.0625
36.8204
19.8461
20.1001
20.3428
20.5974
20.8603
21.1304
21.4086
21.6964
21.9934
22.2979
22.6091
22.9255
23.2482
23.579
23.9188
24.2657
24.6186
24.9777
25.3432
25.7155
26.0944
26.4778
26.8648
27.2553
27.6502
28.0503
28.4555
28.8663
29.2824
29.7039
30.1307
30.5622
30.9986
31.4399
31.8848
32.3323
32.78
33.2297
33.699
34.2536
35.0464
36.2572
38.0958
20.2307
20.4905
20.7339
20.9876
21.2448
21.5047
21.7682
22.04
22.3235
22.6141
22.9121
23.2126
23.5163
23.8264
24.1527
24.4916
24.8382
25.1917
25.5533
25.9264
26.3109
26.7059
27.1081
27.5128
27.9207
28.3348
28.7594
29.1941
29.6364
30.0855
30.5408
31.0012
31.465
31.9311
32.3996
32.8712
33.3471
33.8304
34.3475
34.9791
35.8877
37.1064
38.9572
20.6416
20.8205
21.0458
21.2896
21.535
21.7798
22.0241
22.2746
22.5477
22.8272
23.1232
23.418
23.71
23.9944
24.3069
24.6412
24.9827
25.3288
25.6783
26.045
26.4309
26.8362
27.2558
27.6765
28.0951
28.5102
28.9358
29.377
29.8281
30.286
30.7495
31.2188
31.6897
32.1566
32.6185
33.0859
33.5747
34.0877
34.646
35.3328
36.3374
37.6046
39.4911
20.7771
21.0628
21.2944
21.5443
21.7932
22.0389
22.2701
22.4975
22.7738
23.046
23.357
23.6551
23.9503
24.1814
24.4824
24.8445
25.2121
25.5714
25.898
26.244
26.6172
27.0251
27.4709
27.8999
28.3212
28.7212
29.1436
29.6037
30.0766
30.5511
31.0263
31.5093
31.9917
32.4629
32.9037
33.3222
33.7855
34.2956
34.8487
35.5433
36.625
38.011
40.0085
21.1175
21.295
21.533
21.7862
22.0277
22.2494
22.4411
22.5464
22.8234
23.0284
23.3776
23.7242
24.1308
24.1901
24.2735
24.5798
24.9622
25.4048
25.7306
26.0153
26.345
26.7379
27.2933
27.8581
28.3826
28.6866
28.9798
29.4111
29.8853
30.3647
30.8411
31.3418
31.8513
32.3317
32.7393
33.0542
33.5325
34.1859
34.8461
35.5593
36.7058
38.192
40.1079
20.5527
21.0739
21.4846
21.9593
22.4265
23.0189
23.3888
23.4459
23.7463
23.772
24.0326
24.113
25.4595
25.8903
25.9783
26.1139
26.2952
26.8321
27.1434
27.4711
27.5082
27.3916
27.7922
28.128
29.2928
30.0152
30.1993
30.5477
31.1247
31.6914
32.118
32.6214
33.1949
33.9523
34.552
34.3288
34.2459
34.6438
35.0729
35.4
36.4955
38.8627
41.7659
35.8187
41.844
46.9456
51.5783
55.7362
59.4853
62.878
65.9669
68.8052
71.4368
73.8974
76.2138
78.4065
80.4934
82.4868
84.3966
86.2309
87.9964
89.6978
91.3391
92.923
94.452
95.9263
97.3483
98.7181
100.035
101.299
102.509
103.665
104.765
105.808
106.792
107.714
108.573
109.365
110.089
110.741
111.318
111.815
112.232
112.58
112.806
112.745
37.9979
41.2035
44.5149
48.1692
51.8146
55.3758
58.7869
62.0253
65.0842
67.9669
70.6814
73.2373
75.6477
77.9218
80.0707
82.1033
84.0288
85.8541
87.5839
89.2253
90.7824
92.2596
93.6594
94.9858
96.2411
97.4271
98.5453
99.5976
100.585
101.509
102.369
103.166
103.9
104.57
105.174
105.713
106.183
106.582
106.908
107.159
107.336
107.4
107.356
40.5169
43.5692
46.6501
49.81
52.9056
55.9509
58.9023
61.7439
64.4622
67.0514
69.5118
71.8442
74.0538
76.1454
78.1253
79.9996
81.7737
83.4543
85.0454
86.552
87.9784
89.3284
90.6049
91.811
92.9485
94.0203
95.0274
95.9712
96.8528
97.6733
98.4323
99.1306
99.767
100.34
100.85
101.294
101.671
101.979
102.215
102.376
102.456
102.449
102.402
41.3321
44.1405
47.0691
49.9843
52.8367
55.6257
58.3183
60.9085
63.3892
65.7579
68.0142
70.1594
72.1972
74.1301
75.9636
77.701
79.3471
80.9059
82.3814
83.7774
85.0979
86.345
87.5225
88.6307
89.6733
90.6514
91.5666
92.4215
93.2161
93.9521
94.6286
95.2464
95.8051
96.3035
96.74
97.1141
97.4239
97.6684
97.8444
97.9463
97.9647
97.9071
97.8179
41.8356
44.377
47.0471
49.7116
52.3628
54.9677
57.4946
59.9334
62.2744
64.5137
66.6492
68.6805
70.6094
72.4386
74.1721
75.8126
77.3635
78.8282
80.2112
81.5152
82.7433
83.8986
84.9836
85.9984
86.9472
87.8309
88.6521
89.4143
90.1171
90.7634
91.351
91.882
92.3557
92.7711
93.1263
93.4224
93.658
93.8357
93.9504
93.9993
93.9784
93.9109
93.8635
42.2253
44.6316
47.1249
49.6096
52.0949
54.5375
56.9151
59.216
61.4297
63.5489
65.5698
67.491
69.3149
71.0424
72.6764
74.2187
75.6722
77.0413
78.3302
79.5412
80.6776
81.7409
82.7333
83.6548
84.5084
85.2988
86.0313
86.7078
87.3276
87.8928
88.4
88.8533
89.2523
89.5924
89.8733
90.0983
90.267
90.3892
90.4482
90.4444
90.3743
90.2481
90.0747
42.645
44.8761
47.2146
49.5492
51.8839
54.1762
56.413
58.5847
60.6767
62.6767
64.5818
66.3928
68.11
69.7359
71.2735
72.7208
74.08
75.3565
76.5576
77.6853
78.7393
79.7213
80.6313
81.4692
82.2385
82.9487
83.6067
84.2142
84.7639
85.2611
85.6972
86.0814
86.4179
86.6913
86.9051
87.0715
87.1817
87.2653
87.273
87.2199
87.1064
86.9522
86.7341
42.5258
44.6861
47.0067
49.2883
51.5567
53.7567
55.8948
57.9755
59.9834
61.8941
63.7116
65.4409
67.0767
68.6286
70.0982
71.464
72.7411
73.9422
75.0771
76.1404
77.1209
78.0293
78.8595
79.6006
80.2685
80.8878
81.4713
82.0167
82.4952
82.9224
83.2798
83.6082
83.9023
84.1031
84.2388
84.3453
84.3915
84.4731
84.4204
84.3326
84.1798
84.0182
83.8535
43.7005
45.0652
47.211
49.3155
51.3804
53.3772
55.3572
57.356
59.2932
61.068
62.7504
64.3688
65.8905
67.3391
68.7142
69.9492
71.1277
72.2374
73.297
74.2786
75.1546
75.9844
76.7196
77.3346
77.9142
78.5356
79.1667
79.7394
80.1413
80.5395
80.8429
81.2134
81.5081
81.5491
81.553
81.6659
81.6878
81.9598
81.7945
81.648
81.3581
81.1655
80.9882
-721.477
-696.162
-665.694
-636.623
-604.172
-568.421
-531.779
-495.376
-459.883
-425.943
-393.846
-363.743
-335.881
-310.329
-286.891
-265.533
-246.168
-228.573
-212.489
-197.661
-183.959
-171.235
-159.385
-148.27
-137.771
-127.821
-118.368
-109.351
-100.708
-92.4262
-84.4488
-76.7651
-69.3714
-62.2343
-55.3353
-48.6734
-42.2327
-36.0074
-29.9889
-24.1631
-18.5285
-13.0698
-8.50698
-566.738
-564.523
-558.926
-552.414
-545.883
-537.542
-526.175
-511.736
-494.474
-474.878
-453.211
-430.122
-406.083
-381.764
-357.572
-333.886
-311.105
-289.427
-268.93
-249.693
-231.739
-214.908
-199.208
-184.531
-170.781
-157.89
-145.787
-134.382
-123.601
-113.408
-103.738
-94.5424
-85.8009
-77.4496
-69.4821
-61.8693
-54.5663
-47.5748
-40.8748
-34.4352
-28.2527
-22.2859
-17.0671
-568.382
-568.016
-567.992
-566.366
-562.181
-555.698
-547.219
-536.371
-523.12
-507.482
-489.59
-469.77
-448.373
-425.788
-402.565
-379.092
-355.771
-333.008
-311.015
-289.925
-269.94
-250.958
-233.066
-216.23
-200.375
-185.463
-171.425
-158.21
-145.749
-133.965
-122.845
-112.295
-102.305
-92.806
-83.7833
-75.1963
-67.0028
-59.2003
-51.7469
-44.6119
-37.7864
-31.2511
-25.7469
-526.537
-526.264
-525.706
-524.706
-523.03
-520.334
-516.407
-511.135
-504.248
-495.468
-484.647
-471.682
-456.665
-439.71
-421.184
-401.425
-380.858
-359.871
-338.914
-318.165
-298.032
-278.546
-259.867
-242.047
-225.082
-208.971
-193.709
-179.261
-165.594
-152.64
-140.395
-128.777
-117.762
-107.307
-97.3838
-87.9359
-78.9432
-70.3933
-62.2356
-54.4634
-47.0409
-39.9974
-34.8012
-502.324
-502.459
-502.693
-502.7
-502.256
-501.035
-498.733
-495.18
-490.257
-483.809
-475.729
-465.956
-454.394
-441.118
-426.18
-409.784
-392.206
-373.748
-354.745
-335.47
-316.283
-297.34
-278.894
-261.036
-243.807
-227.273
-211.483
-196.388
-182.034
-168.365
-155.377
-143.035
-131.295
-120.129
-109.516
-99.4183
-89.7906
-80.6247
-71.8794
-63.5321
-55.5392
-47.8087
-41.1559
-472.23
-472.398
-472.62
-472.698
-472.525
-471.949
-470.735
-468.715
-465.724
-461.609
-456.207
-449.388
-441.034
-431.147
-419.667
-406.716
-392.377
-376.888
-360.466
-343.384
-325.969
-308.372
-290.933
-273.753
-256.964
-240.667
-224.934
-209.733
-195.156
-181.183
-167.827
-155.068
-142.888
-131.254
-120.173
-109.598
-99.518
-89.8829
-80.6986
-71.9109
-63.5038
-55.4044
-48.5699
-445.454
-445.669
-446.05
-446.365
-446.534
-446.419
-445.848
-444.615
-442.589
-439.661
-435.718
-430.66
-424.354
-416.746
-407.781
-397.454
-385.817
-372.981
-359.095
-344.332
-328.947
-313.118
-297.107
-281.073
-265.211
-249.576
-234.348
-219.498
-205.106
-191.178
-177.788
-164.9
-152.541
-140.686
-129.349
-118.475
-108.092
-98.1407
-88.6396
-79.5374
-70.8196
-62.4672
-55.9804
-418.666
-418.928
-419.347
-419.737
-420.025
-420.148
-419.961
-419.31
-418.072
-416.133
-413.373
-409.677
-404.983
-399.198
-392.245
-384.083
-374.728
-364.222
-352.65
-340.116
-326.812
-312.884
-298.511
-283.908
-269.241
-254.593
-240.166
-225.953
-212.062
-198.498
-185.341
-172.598
-160.279
-148.417
-137.003
-126.024
-115.483
-105.363
-95.6534
-86.3207
-77.3469
-68.6984
-61.9303
-393.7
-393.976
-394.443
-394.896
-395.302
-395.585
-395.664
-395.408
-394.667
-393.338
-391.339
-388.612
-385.056
-380.572
-375.132
-368.668
-361.138
-352.553
-342.937
-332.371
-320.988
-308.887
-296.223
-283.15
-269.819
-256.354
-242.907
-229.539
-216.354
-203.387
-190.667
-178.277
-166.212
-154.512
-143.193
-132.255
-121.703
-111.539
-101.755
-92.3327
-83.2536
-74.523
-67.8311
-369.971
-370.26
-370.727
-371.212
-371.67
-372.055
-372.306
-372.312
-371.958
-371.139
-369.769
-367.757
-365.057
-361.619
-357.355
-352.199
-346.124
-339.124
-331.202
-322.373
-312.699
-302.278
-291.221
-279.645
-267.693
-255.479
-243.116
-230.726
-218.371
-206.13
-194.033
-182.132
-170.476
-159.08
-148.003
-137.239
-126.809
-116.714
-106.954
-97.5464
-88.4782
-79.7388
-72.9258
-347.851
-348.145
-348.624
-349.137
-349.636
-350.085
-350.44
-350.625
-350.534
-350.067
-349.141
-347.698
-345.679
-343.011
-339.647
-335.54
-330.643
-324.904
-318.337
-310.948
-302.766
-293.853
-284.274
-274.12
-263.519
-252.536
-241.31
-229.936
-218.487
-207.048
-195.675
-184.374
-173.245
-162.274
-151.549
-141.058
-130.844
-120.91
-111.259
-101.905
-92.8359
-84.0031
-76.5304
-327.259
-327.543
-328.02
-328.526
-329.035
-329.522
-329.956
-330.271
-330.371
-330.169
-329.59
-328.566
-327.049
-324.993
-322.351
-319.07
-315.108
-310.417
-305
-298.82
-291.903
-284.286
-276.029
-267.166
-257.803
-248.029
-237.919
-227.575
-217.061
-206.467
-195.847
-185.236
-174.695
-164.243
-153.948
-143.812
-133.902
-124.205
-114.746
-105.532
-96.5589
-87.7985
-80.2131
-308.155
-308.437
-308.895
-309.402
-309.921
-310.438
-310.91
-311.297
-311.533
-311.528
-311.223
-310.543
-309.439
-307.876
-305.805
-303.179
-299.962
-296.114
-291.612
-286.444
-280.618
-274.122
-267.013
-259.31
-251.095
-242.42
-233.354
-224
-214.41
-204.666
-194.82
-184.929
-175.024
-165.142
-155.334
-145.626
-136.074
-126.681
-117.479
-108.471
-99.6756
-91.0771
-83.7547
-290.477
-290.753
-291.204
-291.696
-292.215
-292.738
-293.236
-293.682
-294.008
-294.155
-294.046
-293.63
-292.855
-291.669
-290.044
-287.949
-285.347
-282.202
-278.476
-274.145
-269.214
-263.676
-257.555
-250.865
-243.669
-236.004
-227.932
-219.519
-210.818
-201.905
-192.836
-183.659
-174.407
-165.131
-155.839
-146.61
-137.462
-128.419
-119.523
-110.774
-102.208
-93.7975
-86.7608
-274.212
-274.469
-274.894
-275.378
-275.888
-276.404
-276.917
-277.39
-277.777
-278.025
-278.075
-277.86
-277.33
-276.452
-275.207
-273.547
-271.434
-268.84
-265.739
-262.112
-257.943
-253.214
-247.949
-242.159
-235.869
-229.109
-221.933
-214.391
-206.53
-198.412
-190.088
-181.615
-173.012
-164.341
-155.603
-146.866
-138.149
-129.491
-120.931
-112.458
-104.117
-95.8599
-88.8776
-259.18
-259.427
-259.844
-260.31
-260.804
-261.321
-261.836
-262.321
-262.753
-263.083
-263.246
-263.183
-262.862
-262.245
-261.291
-259.974
-258.262
-256.134
-253.557
-250.512
-246.988
-242.96
-238.426
-233.399
-227.893
-221.937
-215.564
-208.818
-201.733
-194.368
-186.758
-178.961
-170.994
-162.917
-154.741
-146.5
-138.24
-129.991
-121.794
-113.648
-105.591
-97.5913
-90.9525
-245.371
-245.611
-246.005
-246.456
-246.933
-247.432
-247.941
-248.436
-248.888
-249.264
-249.507
-249.566
-249.399
-248.972
-248.259
-247.231
-245.863
-244.127
-241.993
-239.431
-236.423
-232.977
-229.072
-224.711
-219.901
-214.665
-209.013
-202.987
-196.612
-189.943
-182.996
-175.839
-168.486
-160.984
-153.357
-145.62
-137.824
-129.993
-122.169
-114.365
-106.609
-98.8715
-92.3715
-232.669
-232.886
-233.263
-233.696
-234.16
-234.641
-235.135
-235.629
-236.1
-236.512
-236.82
-236.976
-236.943
-236.68
-236.164
-235.365
-234.262
-232.829
-231.043
-228.888
-226.349
-223.402
-220.035
-216.248
-212.033
-207.415
-202.403
-197.025
-191.295
-185.262
-178.938
-172.38
-165.607
-158.654
-151.55
-144.314
-136.976
-129.568
-122.131
-114.683
-107.26
-99.8388
-93.5323
-220.973
-221.177
-221.535
-221.95
-222.392
-222.86
-223.348
-223.839
-224.307
-224.727
-225.067
-225.287
-225.345
-225.212
-224.859
-224.261
-223.389
-222.225
-220.747
-218.941
-216.778
-214.242
-211.324
-208.027
-204.348
-200.282
-195.829
-191.023
-185.88
-180.424
-174.679
-168.679
-162.447
-156.022
-149.414
-142.657
-135.771
-128.779
-121.728
-114.629
-107.52
-100.366
-93.9766
-210.221
-210.417
-210.759
-211.152
-211.576
-212.029
-212.499
-212.975
-213.441
-213.878
-214.254
-214.529
-214.669
-214.634
-214.402
-213.953
-213.269
-212.327
-211.105
-209.577
-207.731
-205.56
-203.044
-200.165
-196.921
-193.327
-189.383
-185.096
-180.471
-175.532
-170.311
-164.824
-159.094
-153.163
-147.025
-140.727
-134.272
-127.691
-121.015
-114.262
-107.472
-100.598
-94.2044
-200.325
-200.519
-200.841
-201.216
-201.622
-202.055
-202.509
-202.968
-203.423
-203.861
-204.248
-204.556
-204.749
-204.8
-204.673
-204.356
-203.827
-203.063
-202.045
-200.765
-199.201
-197.328
-195.14
-192.631
-189.792
-186.616
-183.098
-179.257
-175.108
-170.647
-165.9
-160.888
-155.622
-150.141
-144.451
-138.587
-132.543
-126.361
-120.053
-113.649
-107.186
-100.625
-94.3297
-191.237
-191.415
-191.722
-192.076
-192.46
-192.874
-193.313
-193.762
-194.203
-194.632
-195.029
-195.36
-195.597
-195.707
-195.668
-195.458
-195.053
-194.441
-193.604
-192.52
-191.178
-189.569
-187.674
-185.479
-182.978
-180.16
-177.035
-173.601
-169.853
-165.811
-161.491
-156.909
-152.08
-147.02
-141.749
-136.289
-130.638
-124.834
-118.888
-112.824
-106.68
-100.433
-94.2773
-182.844
-183.012
-183.3
-183.64
-184.007
-184.405
-184.824
-185.253
-185.69
-186.113
-186.506
-186.851
-187.12
-187.276
-187.304
-187.178
-186.882
-186.402
-185.716
-184.814
-183.676
-182.283
-180.63
-178.697
-176.485
-173.986
-171.196
-168.111
-164.741
-161.09
-157.159
-152.965
-148.522
-143.85
-138.96
-133.877
-128.6
-123.154
-117.551
-111.815
-105.967
-100.001
-94.1501
-175.13
-175.284
-175.56
-175.882
-176.233
-176.61
-177.008
-177.419
-177.839
-178.255
-178.652
-179.004
-179.286
-179.479
-179.557
-179.504
-179.298
-178.916
-178.348
-177.58
-176.603
-175.405
-173.968
-172.278
-170.33
-168.108
-165.615
-162.843
-159.796
-156.476
-152.893
-149.054
-144.97
-140.658
-136.127
-131.392
-126.465
-121.361
-116.096
-110.685
-105.173
-99.5758
-94.4314
-168.01
-168.154
-168.413
-168.72
-169.05
-169.41
-169.793
-170.192
-170.595
-170.992
-171.374
-171.729
-172.032
-172.253
-172.378
-172.381
-172.24
-171.953
-171.502
-170.869
-170.037
-168.994
-167.731
-166.239
-164.509
-162.527
-160.291
-157.789
-155.03
-152.013
-148.746
-145.23
-141.473
-137.487
-133.281
-128.868
-124.267
-119.474
-114.518
-109.393
-104.151
-98.7738
-93.8162
-161.442
-161.578
-161.823
-162.112
-162.427
-162.768
-163.131
-163.511
-163.899
-164.289
-164.669
-165.021
-165.325
-165.564
-165.715
-165.759
-165.683
-165.467
-165.092
-164.556
-163.848
-162.952
-161.849
-160.533
-158.993
-157.22
-155.213
-152.964
-150.47
-147.726
-144.733
-141.502
-138.036
-134.346
-130.444
-126.329
-122.026
-117.528
-112.863
-108.023
-103.053
-97.9635
-93.6799
-155.383
-155.507
-155.74
-156.015
-156.316
-156.638
-156.986
-157.346
-157.718
-158.091
-158.455
-158.801
-159.109
-159.361
-159.54
-159.623
-159.594
-159.439
-159.149
-158.705
-158.092
-157.308
-156.341
-155.175
-153.804
-152.219
-150.412
-148.372
-146.1
-143.597
-140.856
-137.889
-134.689
-131.274
-127.642
-123.804
-119.77
-115.547
-111.145
-106.56
-101.821
-96.8893
-92.6512
-149.779
-149.892
-150.113
-150.375
-150.659
-150.967
-151.295
-151.642
-151.998
-152.355
-152.708
-153.047
-153.355
-153.615
-153.806
-153.915
-153.922
-153.814
-153.579
-153.209
-152.695
-152.018
-151.168
-150.134
-148.909
-147.486
-145.85
-143.998
-141.931
-139.644
-137.128
-134.395
-131.437
-128.269
-124.887
-121.304
-117.522
-113.551
-109.394
-105.052
-100.537
-95.8031
-91.5996
-144.599
-144.704
-144.914
-145.166
-145.434
-145.725
-146.039
-146.366
-146.705
-147.049
-147.388
-147.717
-148.018
-148.278
-148.481
-148.61
-148.653
-148.589
-148.411
-148.108
-147.664
-147.067
-146.317
-145.405
-144.305
-143.016
-141.539
-139.862
-137.972
-135.875
-133.564
-131.039
-128.299
-125.353
-122.199
-118.849
-115.301
-111.564
-107.642
-103.534
-99.2516
-94.7541
-90.6573
-139.807
-139.903
-140.105
-140.343
-140.596
-140.87
-141.165
-141.477
-141.8
-142.128
-142.456
-142.776
-143.073
-143.332
-143.546
-143.694
-143.76
-143.73
-143.592
-143.341
-142.964
-142.45
-141.783
-140.959
-139.976
-138.816
-137.471
-135.936
-134.206
-132.276
-130.145
-127.811
-125.271
-122.531
-119.588
-116.448
-113.119
-109.6
-105.899
-102.011
-97.9518
-93.6842
-89.7384
-135.37
-135.459
-135.65
-135.874
-136.116
-136.378
-136.659
-136.955
-137.262
-137.578
-137.893
-138.196
-138.486
-138.746
-138.959
-139.114
-139.193
-139.187
-139.087
-138.88
-138.556
-138.104
-137.518
-136.783
-135.89
-134.839
-133.621
-132.224
-130.638
-128.859
-126.886
-124.723
-122.363
-119.806
-117.055
-114.112
-110.984
-107.668
-104.173
-100.494
-96.6414
-92.5952
-88.8886
-131.255
-131.343
-131.523
-131.733
-131.96
-132.207
-132.473
-132.757
-133.049
-133.344
-133.643
-133.939
-134.218
-134.47
-134.683
-134.845
-134.946
-134.966
-134.898
-134.73
-134.454
-134.056
-133.531
-132.879
-132.081
-131.122
-129.998
-128.708
-127.249
-125.612
-123.792
-121.779
-119.577
-117.189
-114.615
-111.852
-108.906
-105.779
-102.474
-98.9931
-95.3396
-91.5011
-88.0596
-127.441
-127.525
-127.694
-127.893
-128.108
-128.342
-128.596
-128.864
-129.141
-129.427
-129.714
-129.994
-130.262
-130.51
-130.726
-130.894
-131
-131.035
-130.987
-130.846
-130.605
-130.261
-129.797
-129.201
-128.468
-127.596
-126.576
-125.392
-124.045
-122.527
-120.833
-118.965
-116.914
-114.676
-112.26
-109.66
-106.885
-103.929
-100.8
-97.4987
-94.0189
-90.3408
-87.0358
-123.907
-123.986
-124.147
-124.333
-124.536
-124.759
-124.998
-125.249
-125.511
-125.781
-126.054
-126.323
-126.579
-126.821
-127.03
-127.198
-127.312
-127.361
-127.335
-127.229
-127.03
-126.721
-126.3
-125.761
-125.099
-124.302
-123.358
-122.267
-121.019
-119.606
-118.03
-116.281
-114.36
-112.265
-109.996
-107.549
-104.927
-102.131
-99.1665
-96.031
-92.7219
-89.2216
-86.0859
-120.62
-120.698
-120.848
-121.024
-121.216
-121.424
-121.65
-121.892
-122.144
-122.4
-122.657
-122.913
-123.162
-123.392
-123.594
-123.76
-123.88
-123.942
-123.932
-123.84
-123.66
-123.39
-123.019
-122.534
-121.924
-121.187
-120.32
-119.308
-118.151
-116.84
-115.369
-113.736
-111.939
-109.967
-107.827
-105.514
-103.035
-100.387
-97.5722
-94.5888
-91.4345
-88.0864
-85.0279
-117.57
-117.643
-117.785
-117.951
-118.133
-118.332
-118.545
-118.77
-119.004
-119.248
-119.495
-119.739
-119.975
-120.197
-120.396
-120.561
-120.68
-120.745
-120.747
-120.675
-120.525
-120.284
-119.943
-119.497
-118.942
-118.267
-117.463
-116.528
-115.45
-114.225
-112.846
-111.311
-109.618
-107.764
-105.748
-103.564
-101.215
-98.6999
-96.0222
-93.1818
-90.1769
-86.9834
-84.0231
-114.734
-114.804
-114.938
-115.094
-115.266
-115.453
-115.655
-115.87
-116.095
-116.324
-116.555
-116.785
-117.009
-117.222
-117.415
-117.575
-117.697
-117.77
-117.784
-117.731
-117.596
-117.378
-117.071
-116.665
-116.149
-115.522
-114.773
-113.896
-112.888
-111.744
-110.455
-109.014
-107.419
-105.666
-103.758
-101.689
-99.4601
-97.0693
-94.5202
-91.8057
-88.9318
-85.8624
-82.9825
-112.096
-112.161
-112.287
-112.436
-112.598
-112.775
-112.965
-113.168
-113.38
-113.599
-113.823
-114.043
-114.257
-114.459
-114.641
-114.795
-114.914
-114.985
-115
-114.951
-114.835
-114.643
-114.363
-113.989
-113.516
-112.935
-112.242
-111.426
-110.481
-109.402
-108.184
-106.826
-105.324
-103.669
-101.859
-99.893
-97.7749
-95.498
-93.0681
-90.4744
-87.7279
-84.7946
-82.0635
-109.645
-109.707
-109.826
-109.966
-110.118
-110.284
-110.464
-110.655
-110.855
-111.059
-111.264
-111.471
-111.674
-111.868
-112.045
-112.196
-112.313
-112.387
-112.413
-112.38
-112.278
-112.098
-111.84
-111.495
-111.054
-110.508
-109.852
-109.084
-108.2
-107.188
-106.043
-104.76
-103.334
-101.763
-100.048
-98.1808
-96.1617
-93.9883
-91.6667
-89.1866
-86.555
-83.7446
-81.1847
-107.365
-107.423
-107.535
-107.667
-107.811
-107.967
-108.136
-108.316
-108.505
-108.7
-108.898
-109.095
-109.286
-109.467
-109.631
-109.774
-109.888
-109.962
-109.986
-109.955
-109.865
-109.706
-109.468
-109.143
-108.73
-108.224
-107.618
-106.901
-106.061
-105.101
-104.014
-102.797
-101.447
-99.9541
-98.319
-96.5406
-94.616
-92.5429
-90.3216
-87.9476
-85.4316
-82.7542
-80.4902
-105.238
-105.293
-105.398
-105.522
-105.657
-105.804
-105.965
-106.135
-106.312
-106.495
-106.679
-106.863
-107.044
-107.215
-107.373
-107.512
-107.621
-107.692
-107.721
-107.698
-107.615
-107.465
-107.242
-106.944
-106.558
-106.079
-105.497
-104.812
-104.026
-103.122
-102.095
-100.939
-99.655
-98.2354
-96.6764
-94.9772
-93.1349
-91.1495
-89.0214
-86.7453
-84.3267
-81.7383
-79.5361
-103.257
-103.309
-103.408
-103.526
-103.653
-103.793
-103.944
-104.104
-104.27
-104.442
-104.616
-104.791
-104.962
-105.126
-105.275
-105.402
-105.503
-105.572
-105.598
-105.576
-105.502
-105.365
-105.156
-104.874
-104.511
-104.061
-103.52
-102.876
-102.121
-101.256
-100.28
-99.1818
-97.9543
-96.5975
-95.1103
-93.4852
-91.721
-89.817
-87.7722
-85.5775
-83.2365
-80.7066
-78.4367
-101.414
-101.463
-101.556
-101.667
-101.787
-101.916
-102.058
-102.21
-102.369
-102.531
-102.694
-102.856
-103.014
-103.164
-103.305
-103.428
-103.526
-103.593
-103.622
-103.604
-103.528
-103.397
-103.205
-102.936
-102.59
-102.162
-101.643
-101.032
-100.32
-99.5001
-98.5654
-97.5163
-96.3481
-95.0511
-93.6262
-92.0681
-90.3747
-88.5413
-86.5702
-84.4577
-82.1999
-79.755
-77.4803
-99.7002
-99.7454
-99.8322
-99.9352
-100.047
-100.17
-100.302
-100.442
-100.587
-100.739
-100.894
-101.047
-101.197
-101.34
-101.47
-101.581
-101.671
-101.733
-101.756
-101.739
-101.677
-101.555
-101.369
-101.117
-100.789
-100.38
-99.8848
-99.2994
-98.6198
-97.8383
-96.9461
-95.9412
-94.8197
-93.5776
-92.2116
-90.7144
-89.0892
-87.3295
-85.4322
-83.3953
-81.2175
-78.8685
-76.6296