/*--------------------------------*- C++ -*----------------------------------*\
| =========                 |                                                 |
| \\      /  F ield         | OpenFOAM: The Open Source CFD Toolbox           |
|  \\    /   O peration     | Version:  2.3.0                                 |
|   \\  /    A nd           | Web:      www.OpenFOAM.org                      |
|    \\/     M anipulation  |                                                 |
\*---------------------------------------------------------------------------*/
FoamFile
{
    version     2.0;
    format      ascii;
    class       volVectorField;
    location    "2000";
    object      U;
}
// * * * * * * * * * * * * * * * * * * * * * * * * * * * * * * * * * * * * * //

dimensions      [0 1 -1 0 0 0 0];

internalField   nonuniform List<vector> 
14201
(
(23.3629 8.4318 0)
(23.2784 8.85518 -1.44481e-20)
(23.185 9.28123 -3.03878e-20)
(23.0786 9.72274 -2.28209e-20)
(22.9583 10.1818 0)
(22.8248 10.6619 -9.40824e-20)
(22.6785 11.165 1.27323e-19)
(22.5186 11.6921 1.59214e-19)
(22.3419 12.2411 -3.32445e-19)
(22.1413 12.8074 2.04328e-19)
(21.9059 13.3834 0)
(21.6215 13.9591 -1.8953e-19)
(21.2719 14.5235 1.92181e-19)
(20.8397 15.065 -1.73371e-19)
(20.3065 15.573 1.8421e-20)
(19.6538 16.0378 2.86436e-19)
(18.8637 16.4519 -1.05199e-19)
(17.9196 16.81 -1.03189e-20)
(16.8059 17.1056 6.02127e-20)
(15.5062 17.3247 -6.28621e-20)
(14.0053 17.445 -2.47436e-19)
(12.3099 17.4835 2.79028e-19)
(10.4537 17.5156 0)
(8.45643 17.367 -8.95237e-21)
(22.9608 8.35611 1.13325e-19)
(22.8464 8.71642 -2.80626e-20)
(22.7233 9.07481 -5.49842e-21)
(22.584 9.43678 -3.53007e-20)
(22.4251 9.80216 6.13661e-20)
(22.2447 10.1718 -1.24727e-19)
(22.0411 10.5465 1.41262e-19)
(21.8128 10.9272 7.83443e-24)
(21.558 11.3148 0)
(21.2746 11.7092 -1.8415e-19)
(20.9604 12.1092 1.85235e-19)
(20.6125 12.5119 2.60442e-19)
(20.2274 12.9127 5.52162e-20)
(19.8016 13.3048 -3.08694e-19)
(19.3316 13.6796 2.33209e-20)
(18.8145 14.0259 -5.87136e-19)
(18.2488 14.3307 5.83718e-19)
(17.6354 14.5792 0)
(16.9772 14.7545 5.64306e-19)
(16.2802 14.8386 -5.59516e-19)
(15.5558 14.812 -7.75412e-19)
(14.8218 14.656 1.72263e-18)
(14.0943 14.3529 -9.68045e-19)
(13.3785 13.8891 -2.09419e-20)
(22.6119 8.25911 -4.94158e-20)
(22.4877 8.562 1.09051e-19)
(22.3501 8.86448 -1.77199e-19)
(22.1983 9.16843 1.77094e-20)
(22.03 9.47172 1.52441e-19)
(21.8439 9.77392 -1.52525e-19)
(21.6388 10.0741 -1.48109e-20)
(21.413 10.3712 0)
(21.1646 10.6638 2.97759e-20)
(20.8913 10.9502 3.23533e-20)
(20.5908 11.2285 3.53773e-20)
(20.2607 11.4962 0)
(19.899 11.75 0)
(19.5042 11.9859 -3.40243e-19)
(19.0752 12.1994 3.33489e-19)
(18.6117 12.3845 -2.15149e-20)
(18.115 12.5352 -4.72963e-19)
(17.5877 12.6447 5.03625e-19)
(17.0346 12.7058 -5.79852e-20)
(16.4629 12.7118 0)
(15.8829 12.657 -2.29304e-20)
(15.3079 12.5374 -4.33055e-19)
(14.7541 12.3508 9.36443e-19)
(14.2409 12.0976 -4.40657e-19)
(22.3214 8.12862 0)
(22.1908 8.39446 9.73889e-20)
(22.0495 8.65034 1.47206e-19)
(21.895 8.90476 -3.49421e-20)
(21.7255 9.15612 1.09359e-20)
(21.5402 9.40438 -4.56508e-19)
(21.3386 9.64898 4.84037e-19)
(21.12 9.88903 -2.49631e-19)
(20.8837 10.1232 -3.17083e-19)
(20.6286 10.3499 2.55957e-19)
(20.3538 10.5672 -3.5373e-20)
(20.0581 10.7726 0)
(19.7409 10.9635 4.59943e-19)
(19.4016 11.1365 -4.35536e-19)
(19.0403 11.2879 5.28422e-19)
(18.6577 11.4134 -5.37657e-19)
(18.2553 11.5083 0)
(17.8359 11.568 0)
(17.4033 11.5877 7.86206e-19)
(16.9629 11.5632 6.56483e-20)
(16.5218 11.4915 -8.27306e-19)
(16.0881 11.3709 -4.86437e-19)
(15.6709 11.202 -3.4962e-20)
(15.28 10.9882 4.59553e-19)
(22.0783 8.01791 -5.45478e-20)
(21.9492 8.23372 0)
(21.8096 8.44757 -6.76543e-20)
(21.659 8.66069 7.03108e-20)
(21.4958 8.87028 3.66423e-20)
(21.319 9.0759 0)
(21.1279 9.27702 -3.08258e-19)
(20.9223 9.47287 3.0841e-19)
(20.7016 9.66231 -4.50243e-20)
(20.4653 9.84397 0)
(20.2124 10.0161 4.00485e-19)
(19.9423 10.1766 -7.80969e-19)
(19.6545 10.3235 3.24359e-19)
(19.3488 10.4541 5.08425e-19)
(19.0257 10.5656 6.72166e-21)
(18.6862 10.6549 -1.16759e-18)
(18.3319 10.7186 6.12494e-19)
(17.9653 10.7532 7.18193e-19)
(17.5898 10.7557 -7.28794e-19)
(17.2099 10.7232 -4.24568e-19)
(16.8311 10.6541 4.29976e-19)
(16.4597 10.5475 0)
(16.1024 10.4044 0)
(15.7659 10.2275 3.50283e-19)
(21.8774 7.88069 -5.61377e-21)
(21.7501 8.07237 -1.44058e-19)
(21.6153 8.25615 2.12032e-19)
(21.4718 8.43772 4.39247e-20)
(21.3176 8.61508 -1.91348e-19)
(21.1515 8.78812 0)
(20.9727 8.95664 0)
(20.781 9.12016 -4.76165e-20)
(20.5763 9.27786 -4.81557e-21)
(20.3587 9.42857 0)
(20.1277 9.57053 0)
(19.8826 9.70183 -1.1584e-19)
(19.6229 9.82064 1.24449e-19)
(19.3485 9.92493 -4.8782e-19)
(19.0598 10.0124 5.65172e-19)
(18.7579 10.0804 -2.87557e-19)
(18.4441 10.1262 3.31096e-19)
(18.1206 10.1472 -3.35167e-19)
(17.7901 10.1408 4.38801e-19)
(17.4562 10.105 0)
(17.1231 10.0386 0)
(16.7958 9.94101 -5.12796e-19)
(16.4792 9.81303 5.84754e-19)
(16.1784 9.65672 0)
(21.7029 7.76106 -5.26517e-21)
(21.5832 7.92452 2.82793e-19)
(21.456 8.08224 -1.18899e-19)
(21.3214 8.23805 4.04454e-20)
(21.1778 8.38997 1.79698e-19)
(21.0235 8.53758 -1.79272e-19)
(20.8573 8.6808 4.95428e-20)
(20.6787 8.81955 4.79824e-20)
(20.488 8.9533 5.06169e-20)
(20.2855 9.08127 0)
(20.0719 9.20174 0)
(19.8464 9.3126 3.19101e-19)
(19.6081 9.41217 -3.26641e-19)
(19.3568 9.49863 1.52398e-19)
(19.0927 9.57039 -3.00424e-19)
(18.8174 9.62501 0)
(18.5316 9.66018 0)
(18.2375 9.67381 -4.7592e-20)
(17.9375 9.66343 3.22832e-19)
(17.6341 9.62742 -4.33455e-19)
(17.3314 9.5648 4.89923e-19)
(17.0331 9.475 -8.21877e-19)
(16.7436 9.35853 1.28952e-19)
(16.4667 9.21693 7.14478e-20)
(21.5587 7.6474 0)
(21.4454 7.7892 -4.21559e-20)
(21.3253 7.92505 -2.26419e-19)
(21.1989 8.0603 1.82239e-19)
(21.0654 8.1924 -1.94984e-19)
(20.9227 8.32039 -7.69223e-21)
(20.7688 8.44397 1.52247e-19)
(20.6029 8.56347 2.19759e-19)
(20.4252 8.67866 -2.20665e-19)
(20.2354 8.78936 0)
(20.0359 8.89425 2.56489e-19)
(19.827 8.99047 -2.59241e-19)
(19.6066 9.07649 0)
(19.3746 9.15022 -2.40531e-21)
(19.1292 9.21129 0)
(18.875 9.25688 -3.54144e-19)
(18.6109 9.28457 4.53406e-19)
(18.3392 9.29393 -3.06855e-19)
(18.0633 9.28162 4.66296e-19)
(17.783 9.24626 1.13839e-19)
(17.5028 9.18703 0)
(17.2261 9.10334 3.2805e-19)
(16.957 8.99563 -1.98599e-19)
(16.6983 8.86464 -2.16091e-19)
(21.4377 7.54737 9.15463e-20)
(21.3312 7.66541 -1.41695e-19)
(21.2174 7.78292 0)
(21.0985 7.90153 2.01101e-19)
(20.9745 8.01818 -3.55417e-19)
(20.843 8.13125 2.59743e-19)
(20.7007 8.24006 -2.77269e-19)
(20.5458 8.34512 -8.93636e-21)
(20.3806 8.44582 2.3243e-19)
(20.2012 8.54219 -2.53625e-19)
(20.0113 8.63532 5.89058e-19)
(19.8167 8.72064 -2.69939e-19)
(19.6088 8.79683 0)
(19.3953 8.86033 7.67374e-20)
(19.1623 8.91404 0)
(18.9252 8.95481 -3.61683e-19)
(18.6786 8.97629 2.74279e-19)
(18.421 8.9842 1.06158e-19)
(18.1653 8.97085 1.02825e-20)
(17.9023 8.93621 -3.37191e-19)
(17.6396 8.88002 -1.26737e-19)
(17.3789 8.80112 -1.13703e-20)
(17.1252 8.70054 2.63834e-19)
(16.8806 8.57808 2.84104e-19)
(21.3297 7.451 -4.67296e-20)
(21.232 7.55017 5.02309e-20)
(21.1266 7.65468 0)
(21.0177 7.7606 1.09005e-19)
(20.9054 7.86504 -1.61576e-19)
(20.7878 7.96584 7.12121e-22)
(20.6598 8.06225 -5.48004e-20)
(20.511 8.15625 -5.77029e-20)
(20.3519 8.24757 -2.42939e-19)
(20.1794 8.33163 2.54869e-19)
(19.9964 8.416 -1.33808e-19)
(19.8145 8.49255 0)
(19.6118 8.56226 0)
(19.4193 8.6174 8.1316e-20)
(19.1983 8.66185 -2.55052e-19)
(18.9782 8.7042 8.2648e-20)
(18.7453 8.71645 9.73714e-20)
(18.4891 8.7265 -2.97533e-19)
(18.246 8.71508 -1.07884e-19)
(17.9928 8.68081 0)
(17.7462 8.62802 -2.46036e-19)
(17.4975 8.55195 -2.62081e-19)
(17.2509 8.45549 -1.38868e-19)
(17.0129 8.34516 0)
(6.45977 16.3254 6.61986e-19)
(6.13963 14.817 -6.8139e-19)
(6.22165 13.5214 0)
(6.46796 12.3866 6.17207e-20)
(6.80992 11.3852 0)
(7.2112 10.486 -2.30214e-20)
(7.64904 9.67639 0)
(8.10773 8.94695 1.12289e-18)
(8.57526 8.28981 1.15487e-18)
(9.04196 7.69787 -4.39571e-18)
(9.50024 7.16464 4.71171e-18)
(9.94425 6.68451 8.03517e-21)
(10.3699 6.25234 -4.51505e-18)
(10.7748 5.86307 4.17433e-18)
(11.1576 5.51194 -2.19544e-18)
(11.5187 5.19433 -2.67568e-19)
(11.8594 4.90579 1.51504e-20)
(12.1816 4.64196 5.12599e-19)
(12.4874 4.39879 1.01848e-18)
(12.7791 4.17267 0)
(13.0587 3.96057 -9.4399e-19)
(13.3279 3.7606 4.49306e-19)
(13.5883 3.56886 0)
(13.8409 3.36679 7.82801e-19)
(12.6902 13.2857 0)
(12.148 12.5883 3.44266e-19)
(11.753 11.8682 -4.4474e-19)
(11.4822 11.159 -1.64892e-19)
(11.3106 10.4766 1.14512e-19)
(11.2195 9.82918 -5.90104e-20)
(11.1941 9.22188 -1.14686e-19)
(11.2225 8.65705 0)
(11.2942 8.13499 -1.19676e-19)
(11.4005 7.65458 -1.16234e-18)
(11.5342 7.2136 -1.03008e-18)
(11.689 6.80909 4.117e-18)
(11.8601 6.43753 -2.05198e-18)
(12.0432 6.09521 0)
(12.2352 5.77842 2.5505e-19)
(12.4333 5.48372 2.52372e-19)
(12.6355 5.20793 -1.70256e-18)
(12.8401 4.94845 1.21284e-18)
(13.0455 4.70321 -4.8012e-19)
(13.2508 4.47059 9.1809e-19)
(13.455 4.24954 -8.99324e-19)
(13.6577 4.04 -5.35104e-20)
(13.859 3.8405 5.15736e-20)
(14.0593 3.63156 -1.4053e-20)
(13.7843 11.7804 3.4647e-20)
(13.3931 11.4028 7.8937e-20)
(13.0687 10.9778 4.49195e-20)
(12.8111 10.524 -8.82979e-20)
(12.617 10.0559 1.8076e-19)
(12.4813 9.58483 0)
(12.3981 9.11908 1.09059e-19)
(12.3613 8.66492 0)
(12.3643 8.22659 8.62203e-19)
(12.4011 7.80694 -7.48321e-19)
(12.466 7.40763 0)
(12.5537 7.02934 8.86902e-19)
(12.6596 6.67204 -8.87243e-19)
(12.7795 6.33519 -2.19706e-19)
(12.9101 6.01799 0)
(13.0486 5.71936 -8.96182e-19)
(13.1929 5.43808 6.74904e-19)
(13.3412 5.17291 2.26968e-19)
(13.4923 4.92261 0)
(13.6455 4.68591 0)
(13.8001 4.46171 -4.18303e-19)
(13.9557 4.24976 0)
(14.1122 4.04842 0)
(14.2693 3.83724 0)
(14.9206 10.7338 -3.55988e-20)
(14.5939 10.4412 1.21352e-19)
(14.304 10.116 -2.85578e-19)
(14.0546 9.76723 4.28572e-20)
(13.8472 9.40336 -1.80884e-19)
(13.6807 9.03202 0)
(13.5532 8.65946 0)
(13.4619 8.29067 -9.73499e-20)
(13.4031 7.92967 9.22296e-19)
(13.3733 7.57923 -9.39483e-20)
(13.369 7.24128 -8.27479e-19)
(13.3868 6.917 2.0488e-19)
(13.4233 6.60687 0)
(13.4759 6.31102 -4.23859e-19)
(13.5419 6.02911 -1.65023e-21)
(13.6192 5.76066 2.07152e-19)
(13.7061 5.50501 8.50324e-19)
(13.8008 5.26141 -8.39101e-19)
(13.9023 5.02906 2.1525e-21)
(14.0094 4.80717 8.26456e-19)
(14.121 4.59507 9.85431e-21)
(14.2364 4.39271 -2.47594e-20)
(14.3549 4.19858 -1.68403e-19)
(14.4766 3.99151 -5.47051e-19)
(15.4535 10.0195 -5.08989e-19)
(15.166 9.78196 1.43528e-19)
(14.9062 9.51783 1.61548e-19)
(14.6776 9.233 4.32916e-20)
(14.4818 8.93331 2.26741e-19)
(14.3187 8.62444 -1.79708e-19)
(14.1875 8.31143 3.78576e-19)
(14.0862 7.99832 -2.79756e-19)
(14.0125 7.68867 0)
(13.9638 7.38506 6.93519e-19)
(13.9374 7.08935 9.61409e-21)
(13.9304 6.80295 -9.96049e-19)
(13.9404 6.52664 -1.97315e-19)
(13.965 6.26085 -4.02411e-19)
(14.002 6.00566 1.98343e-19)
(14.0496 5.76103 7.99629e-19)
(14.1063 5.52668 -5.9912e-19)
(14.1707 5.30217 8.02198e-19)
(14.2419 5.08706 -7.98536e-19)
(14.3189 4.88078 0)
(14.4009 4.68292 9.78797e-19)
(14.4874 4.49336 -1.92691e-19)
(14.5774 4.31119 0)
(14.6698 4.12163 3.53177e-19)
(15.8963 9.47449 -2.27357e-19)
(15.6339 9.26778 2.31719e-19)
(15.3941 9.03922 4.09013e-20)
(15.1796 8.79314 4.19597e-20)
(14.9921 8.53395 0)
(14.832 8.2659 8.95533e-20)
(14.6986 7.9932 0)
(14.5906 7.71931 3.79272e-19)
(14.5064 7.44716 -7.60064e-19)
(14.4441 7.17903 4.77698e-19)
(14.4013 6.91667 -7.7586e-19)
(14.3759 6.66138 7.70361e-19)
(14.3659 6.41404 9.75779e-19)
(14.3693 6.175 -1.35702e-18)
(14.3841 5.94462 1.35754e-18)
(14.409 5.72296 -7.80025e-19)
(14.4428 5.50988 5.8039e-19)
(14.4843 5.30501 -3.86809e-19)
(14.5325 5.10807 0)
(14.5867 4.91863 0)
(14.646 4.73646 -1.95335e-19)
(14.7102 4.56128 1.85728e-19)
(14.7786 4.39217 -1.80847e-19)
(14.8496 4.22131 -8.53697e-19)
(16.2049 9.05233 0)
(15.96 8.86661 -7.95136e-20)
(15.735 8.66217 0)
(15.5323 8.44248 1.27744e-19)
(15.3535 8.21121 4.56252e-20)
(15.1989 7.97159 -3.60348e-19)
(15.0676 7.72728 8.99051e-20)
(14.9587 7.48152 0)
(14.8711 7.23682 0)
(14.8031 6.99504 -3.78339e-19)
(14.7525 6.75786 3.74905e-19)
(14.7174 6.5266 1.92706e-19)
(14.6964 6.30203 -3.76747e-19)
(14.6876 6.08447 0)
(14.6891 5.87438 3.79087e-19)
(14.6998 5.6721 -5.67537e-19)
(14.7189 5.47723 -1.90396e-19)
(14.7451 5.28955 1.8635e-19)
(14.7778 5.1089 0)
(14.8156 4.9349 -1.84937e-19)
(14.8584 4.76752 -3.71817e-19)
(14.9059 4.60657 1.00252e-20)
(14.958 4.45133 1.73038e-19)
(15.0131 4.29795 3.51567e-19)
(16.4512 8.71217 1.50865e-19)
(16.2181 8.5413 8.03004e-20)
(16.0037 8.35418 -2.43548e-19)
(15.8099 8.15358 -8.50609e-20)
(15.6385 7.94249 1.72348e-19)
(15.489 7.72364 0)
(15.36 7.50023 2.69283e-19)
(15.2512 7.27558 -2.88135e-21)
(15.162 7.05173 -3.69904e-19)
(15.091 6.83026 3.65996e-19)
(15.0351 6.61273 0)
(14.9938 6.40065 -1.50896e-21)
(14.9655 6.19446 -3.21799e-21)
(14.9485 5.99441 7.39466e-19)
(14.9404 5.80138 -3.68078e-19)
(14.9409 5.6158 0)
(14.95 5.43644 -3.68347e-19)
(14.9651 5.26343 3.63374e-19)
(14.9865 5.09731 -1.47514e-21)
(15.0122 4.93691 5.47801e-19)
(15.0424 4.78298 -1.81024e-19)
(15.0774 4.63528 -1.67083e-19)
(15.1171 4.49299 -8.74843e-21)
(15.1606 4.35119 0)
(16.6452 8.43328 -3.00865e-19)
(16.4203 8.27317 7.65671e-20)
(16.2142 8.09971 2.21527e-19)
(16.027 7.91433 4.16218e-20)
(15.8624 7.71791 -3.62831e-19)
(15.7179 7.51457 0)
(15.591 7.30669 -1.77663e-19)
(15.4827 7.09873 -2.00918e-21)
(15.3932 6.89078 3.62212e-19)
(15.3216 6.68548 4.50905e-21)
(15.2625 6.48337 4.23098e-21)
(15.2173 6.28676 -3.62881e-19)
(15.1848 6.09544 -3.63725e-19)
(15.1621 5.90947 -2.65237e-21)
(15.1469 5.73139 5.39363e-19)
(15.1411 5.5601 -3.61124e-19)
(15.144 5.39309 7.18898e-19)
(15.1497 5.23189 -5.38752e-19)
(15.164 5.07968 -1.80166e-19)
(15.1814 4.93031 -1.77074e-19)
(15.2025 4.78837 0)
(15.2281 4.6522 1.77485e-19)
(15.2581 4.52071 8.82989e-20)
(15.2913 4.38695 -8.48298e-20)
(16.7923 8.20625 -7.43804e-20)
(16.5763 8.0517 -1.94894e-19)
(16.3787 7.88741 -5.98885e-20)
(16.193 7.71707 1.97644e-20)
(16.0318 7.53293 2.45215e-19)
(15.8935 7.34272 2.57792e-19)
(15.7705 7.1436 -3.45515e-21)
(15.6629 6.95069 -2.30471e-21)
(15.5742 6.75631 1.73674e-19)
(15.5055 6.56609 3.68283e-19)
(15.4456 6.37418 1.95233e-21)
(15.3995 6.18888 -5.55011e-19)
(15.3647 6.00908 1.81352e-19)
(15.3379 5.83466 0)
(15.3184 5.6719 -5.37615e-19)
(15.3118 5.51043 1.74467e-19)
(15.312 5.35004 1.70473e-19)
(15.3083 5.19791 1.75336e-19)
(15.3204 5.06289 0)
(15.331 4.9197 1.72984e-19)
(15.3443 4.7891 1.76632e-19)
(15.3628 4.66163 1.78697e-19)
(15.3853 4.53701 1.78668e-19)
(15.4107 4.4032 1.83641e-21)
(5.38259 -1.77443 1.76965e-19)
(4.90277 -1.7375 5.97996e-19)
(4.46895 -1.70605 4.20858e-19)
(4.07491 -1.67832 -6.8194e-19)
(3.71614 -1.65418 7.32763e-19)
(3.38945 -1.63343 5.24951e-19)
(3.0925 -1.61588 -1.40694e-18)
(2.82346 -1.60135 1.19669e-18)
(2.58073 -1.58967 -1.28575e-18)
(2.3629 -1.58059 -1.69457e-19)
(2.1687 -1.57381 0)
(1.99702 -1.56891 -9.80208e-20)
(1.84704 -1.56533 -1.59966e-18)
(1.71831 -1.56219 1.85855e-18)
(1.61109 -1.55815 2.01192e-18)
(1.52687 -1.55104 -1.10749e-18)
(1.46963 -1.53743 -4.35399e-21)
(1.44847 -1.51187 -1.32876e-18)
(1.48348 -1.46622 0)
(1.61793 -1.38861 1.02626e-19)
(1.94156 -1.26382 -1.12972e-19)
(2.63936 -1.07207 -9.31591e-19)
(4.12793 -0.794747 1.10393e-18)
(7.43067 -0.556187 9.21021e-20)
(5.35836 -1.80589 -5.93363e-21)
(4.92606 -1.77757 -4.03514e-19)
(4.52751 -1.75336 0)
(4.16071 -1.73229 0)
(3.82267 -1.71413 -7.2787e-19)
(3.51067 -1.69857 7.70663e-19)
(3.22266 -1.68532 2.71255e-19)
(2.95714 -1.67414 0)
(2.71302 -1.6647 -1.55267e-19)
(2.48956 -1.65659 -1.65279e-19)
(2.28643 -1.64911 1.76277e-19)
(2.1039 -1.64129 1.48913e-18)
(1.9431 -1.63166 -1.80082e-18)
(1.80661 -1.61806 0)
(1.6994 -1.59734 1.16841e-19)
(1.63043 -1.56489 1.25908e-19)
(1.61552 -1.51432 0)
(1.68165 -1.43708 -6.44681e-19)
(1.87271 -1.32355 1.2254e-18)
(2.25962 -1.16501 -6.55173e-19)
(2.96207 -0.957513 -9.10534e-20)
(4.185 -0.715481 0)
(6.26605 -0.498979 0)
(9.69025 -0.436663 2.07564e-18)
(5.34314 -1.83233 1.87284e-19)
(4.93896 -1.80492 1.27995e-20)
(4.56532 -1.782 -1.35284e-20)
(4.21889 -1.76303 2.2691e-19)
(3.89701 -1.74662 -2.43749e-19)
(3.59742 -1.7321 5.03573e-19)
(3.31844 -1.719 -5.33353e-19)
(3.05898 -1.70681 5.61709e-19)
(2.81858 -1.69494 -1.04337e-18)
(2.59735 -1.68257 7.8869e-19)
(2.39611 -1.6685 -1.66118e-19)
(2.21671 -1.65106 0)
(2.06253 -1.62794 9.43821e-20)
(1.93936 -1.596 0)
(1.85673 -1.55102 6.53964e-19)
(1.82982 -1.48746 -9.31008e-19)
(1.88196 -1.39869 9.9464e-19)
(2.04741 -1.27819 -3.92381e-19)
(2.37607 -1.12087 -5.61575e-19)
(2.94394 -0.925089 7.3426e-20)
(3.86606 -0.698788 3.5887e-21)
(5.31063 -0.471747 0)
(7.50232 -0.313479 0)
(10.6461 -0.353274 -1.16729e-19)
(5.32739 -1.83178 -2.53649e-21)
(4.9502 -1.81345 0)
(4.60045 -1.79601 -1.10007e-19)
(4.27416 -1.77947 -5.67604e-19)
(3.96887 -1.76404 -6.36356e-22)
(3.6828 -1.74932 8.68397e-19)
(3.41464 -1.73476 -5.22891e-19)
(3.16373 -1.7197 0)
(2.93013 -1.70333 5.8018e-19)
(2.71477 -1.68457 -6.15943e-19)
(2.51962 -1.66191 1.64614e-19)
(2.34799 -1.63333 0)
(2.20515 -1.59613 -1.86878e-19)
(2.09935 -1.54688 0)
(2.04323 -1.48132 1.04511e-19)
(2.05543 -1.39435 -1.11301e-19)
(2.16234 -1.28106 0)
(2.40013 -1.1376 3.84159e-19)
(2.82042 -0.962339 -5.42908e-19)
(3.49706 -0.758762 1.45473e-19)
(4.53368 -0.54108 -1.60177e-19)
(6.06835 -0.34329 -1.8374e-19)
(8.26458 -0.229703 -8.09659e-19)
(11.2434 -0.305519 8.39622e-20)
(5.30403 -1.84026 1.96968e-19)
(4.9582 -1.82202 -1.30266e-20)
(4.63294 -1.80448 2.29354e-19)
(4.32655 -1.78797 -1.12983e-21)
(4.03768 -1.77203 1.17091e-19)
(3.76521 -1.75603 2.45495e-19)
(3.50841 -1.73927 0)
(3.2671 -1.72089 0)
(3.04181 -1.69991 -1.43706e-19)
(2.83419 -1.67513 0)
(2.64714 -1.64491 -1.58919e-19)
(2.48521 -1.60703 1.71776e-19)
(2.35501 -1.55864 1.80203e-19)
(2.26638 -1.49633 6.78174e-19)
(2.23368 -1.41617 -8.28709e-19)
(2.27716 -1.31396 -4.41715e-19)
(2.4242 -1.1863 4.68565e-19)
(2.71166 -1.03129 0)
(3.19092 -0.84959 0)
(3.9326 -0.647515 -1.47181e-19)
(5.03122 -0.441948 0)
(6.60704 -0.266957 5.34435e-19)
(8.79383 -0.181324 -3.81944e-19)
(11.6838 -0.271492 2.09184e-19)
(5.28851 -1.84056 0)
(4.96789 -1.82366 -1.31152e-20)
(4.66445 -1.80711 1.36157e-20)
(4.3765 -1.79037 0)
(4.10316 -1.7735 -1.39716e-21)
(3.84377 -1.75597 1.50031e-21)
(3.59823 -1.73702 -1.28001e-19)
(3.36672 -1.71563 -1.34391e-19)
(3.15022 -1.69069 8.43989e-19)
(2.9507 -1.66094 -7.46226e-19)
(2.77191 -1.62489 0)
(2.61955 -1.58019 -8.39409e-19)
(2.50117 -1.52379 -1.80066e-19)
(2.42755 -1.45237 1.05421e-18)
(2.41394 -1.36241 -4.08851e-19)
(2.48122 -1.2506 4.34881e-19)
(2.65702 -1.11458 0)
(2.9786 -0.953601 0)
(3.49662 -0.769854 0)
(4.27898 -0.571222 -7.52876e-20)
(5.41441 -0.375435 1.5888e-19)
(7.01184 -0.215437 -8.63702e-20)
(9.19033 -0.145474 -5.70301e-19)
(12.0258 -0.241613 -6.15799e-19)
(5.27124 -1.8414 2.94743e-19)
(4.97745 -1.82443 0)
(4.69507 -1.80685 -2.18515e-19)
(4.42446 -1.78911 2.2519e-19)
(4.16567 -1.77095 -1.17863e-19)
(3.91857 -1.7518 -1.20309e-19)
(3.68364 -1.73087 1.25457e-19)
(3.46157 -1.707 -1.5347e-21)
(3.25371 -1.67879 1.39912e-19)
(3.06188 -1.64496 -2.96755e-19)
(2.89032 -1.60457 3.12581e-19)
(2.74639 -1.55534 -5.00471e-19)
(2.63831 -1.49367 1.76254e-19)
(2.57738 -1.41617 2.47762e-21)
(2.57908 -1.31962 -6.0728e-19)
(2.66459 -1.20148 4.29372e-19)
(2.86174 -1.06013 0)
(3.20783 -0.895535 -1.23266e-19)
(3.75317 -0.71092 -1.32675e-19)
(4.56361 -0.515209 1.41886e-19)
(5.72458 -0.326572 0)
(7.33887 -0.176461 0)
(9.51502 -0.11589 -4.63016e-21)
(12.3158 -0.215414 3.86417e-19)
(5.26175 -1.84667 -2.51782e-19)
(4.98912 -1.82431 5.31529e-20)
(4.72535 -1.80444 1.08761e-19)
(4.47044 -1.78528 0)
(4.22503 -1.76567 -4.50689e-22)
(3.98907 -1.74488 1.20468e-19)
(3.76394 -1.72222 -1.25963e-19)
(3.55071 -1.69654 2.62348e-19)
(3.35133 -1.66586 0)
(3.1667 -1.62823 4.36672e-19)
(3.00029 -1.58431 -7.74673e-19)
(2.86318 -1.53249 8.21994e-19)
(2.764 -1.46792 -3.50815e-19)
(2.71415 -1.38687 -1.85823e-19)
(2.72834 -1.28618 1.97921e-19)
(2.82771 -1.1641 4.24978e-19)
(3.04044 -1.01936 -2.25184e-19)
(3.40332 -0.852455 -1.229e-19)
(3.96657 -0.667136 2.59726e-19)
(4.79346 -0.473406 1.39801e-19)
(5.96859 -0.291108 3.09129e-19)
(7.59049 -0.149292 -3.35674e-19)
(9.75898 -0.0930076 1.81651e-19)
(12.5278 -0.186014 -3.82428e-19)
(5.25943 -1.84228 0)
(5.00565 -1.82052 0)
(4.75894 -1.80023 0)
(4.51742 -1.77994 0)
(4.28356 -1.75893 1.16177e-19)
(4.05658 -1.7366 1.19719e-19)
(3.83898 -1.71224 3.73308e-19)
(3.63235 -1.68485 -6.49598e-19)
(3.44286 -1.65286 4.58166e-22)
(3.26658 -1.61131 -1.44467e-19)
(3.10163 -1.56392 6.11863e-19)
(2.96768 -1.51103 -1.63556e-19)
(2.8747 -1.4453 -1.73918e-19)
(2.83513 -1.36228 -3.67712e-19)
(2.86175 -1.25873 3.90735e-19)
(2.97539 -1.134 -2.06557e-19)
(3.20538 -0.987256 -5.99651e-22)
(3.58666 -0.818244 5.89448e-19)
(4.17269 -0.63106 -3.79127e-19)
(5.01895 -0.435246 2.73574e-19)
(6.21176 -0.256188 -6.33454e-19)
(7.86026 -0.120642 3.62101e-19)
(10.0607 -0.0716426 -6.83609e-19)
(12.8358 -0.170435 0)
(5.23366 -1.84205 5.06643e-20)
(5.00211 -1.8139 -5.6467e-20)
(4.77575 -1.79107 5.85093e-20)
(4.55129 -1.77015 -5.74458e-20)
(4.33298 -1.74831 -1.18543e-19)
(4.11834 -1.72514 0)
(3.9138 -1.70008 5.72313e-22)
(3.71022 -1.67232 -1.33095e-19)
(3.51879 -1.64065 -2.71504e-19)
(3.35987 -1.59403 -2.85541e-19)
(3.19757 -1.54206 3.08157e-19)
(3.0712 -1.48919 -3.27444e-19)
(2.98287 -1.42492 -1.55867e-21)
(2.94659 -1.34309 1.84332e-19)
(2.97216 -1.23963 -1.61668e-21)
(3.08085 -1.11326 -4.1001e-19)
(3.30643 -0.967034 -4.35986e-19)
(3.6797 -0.796763 -2.34342e-19)
(4.25436 -0.607342 -2.49992e-19)
(5.08549 -0.395568 -2.29905e-19)
(6.26085 -0.216708 2.5459e-19)
(7.86307 -0.0857064 0)
(9.97516 -0.0226681 3.32213e-19)
(12.6705 -0.0611554 3.47073e-19)
(14.2634 -1.12966 1.33935e-19)
(17.4299 -1.76876 -8.03033e-20)
(18.7042 -1.97697 0)
(19.4366 -2.07654 -1.13531e-19)
(19.9595 -2.13652 0)
(20.3522 -2.17622 -5.77406e-18)
(20.6521 -2.20093 1.04684e-17)
(20.8791 -2.21428 -4.81055e-18)
(21.0461 -2.2185 -1.41183e-19)
(21.162 -2.21515 4.41827e-18)
(21.2343 -2.2055 -4.11783e-18)
(21.2703 -2.19065 -3.82652e-18)
(21.2778 -2.17167 3.48078e-18)
(21.2635 -2.14958 -2.16238e-19)
(21.2326 -2.12519 2.09015e-19)
(21.1894 -2.09912 0)
(21.137 -2.07178 0)
(21.0778 -2.04348 3.77655e-19)
(21.0136 -2.01439 2.96254e-18)
(20.9458 -1.98463 -2.86263e-18)
(20.8755 -1.95432 3.54411e-19)
(20.8036 -1.92324 -6.94705e-19)
(20.7308 -1.89016 2.0407e-18)
(20.657 -1.8646 -1.96752e-18)
(14.2402 -0.868244 -2.11651e-18)
(17.7701 -1.51529 6.699e-20)
(19.2134 -1.76162 0)
(19.907 -1.8587 1.05918e-19)
(20.374 -1.92051 -3.05664e-18)
(20.7099 -1.9657 2.74032e-18)
(20.9521 -1.99783 1.61314e-19)
(21.1223 -2.01948 -4.79425e-18)
(21.235 -2.03238 4.57798e-18)
(21.3018 -2.03786 4.12517e-18)
(21.3325 -2.03721 -8.02007e-18)
(21.3355 -2.03157 3.79213e-18)
(21.3184 -2.02201 1.14183e-19)
(21.2865 -2.00936 2.19333e-19)
(21.244 -1.99436 0)
(21.1938 -1.97746 0)
(21.138 -1.95905 -3.01182e-18)
(21.0782 -1.9394 2.51321e-18)
(21.0155 -1.91866 0)
(20.9508 -1.89698 0)
(20.8847 -1.87446 1.47736e-18)
(20.8179 -1.85077 -1.43745e-18)
(20.7506 -1.82563 -3.56929e-19)
(20.6827 -1.80646 0)
(14.5254 -0.750554 -1.22686e-19)
(17.9776 -1.33759 0)
(19.5344 -1.61822 -3.75136e-18)
(20.1936 -1.71587 3.11944e-18)
(20.6102 -1.77442 0)
(20.8993 -1.81737 -2.79562e-18)
(21.0977 -1.84895 2.40237e-18)
(21.2279 -1.87153 0)
(21.3058 -1.88673 0)
(21.344 -1.89586 -1.3522e-19)
(21.3528 -1.90004 2.0537e-18)
(21.3404 -1.90024 -1.93565e-18)
(21.313 -1.89722 -2.34436e-19)
(21.275 -1.89159 -3.61482e-18)
(21.2293 -1.88377 3.45497e-18)
(21.1784 -1.87408 0)
(21.1237 -1.86278 -2.04917e-19)
(21.0664 -1.85006 2.00426e-19)
(21.0073 -1.83605 0)
(20.947 -1.82088 0)
(20.8859 -1.80468 3.80885e-19)
(20.8245 -1.78713 -1.50889e-18)
(20.7631 -1.76821 1.10303e-18)
(20.7015 -1.7537 7.22936e-19)
(14.8544 -0.671539 1.14811e-18)
(18.1639 -1.20903 1.89825e-18)
(19.7765 -1.5098 -2.01328e-18)
(20.405 -1.60906 2.03959e-19)
(20.7756 -1.66525 1.89783e-19)
(21.0222 -1.70661 0)
(21.1828 -1.73764 2.61693e-18)
(21.2806 -1.76063 2.77654e-20)
(21.3324 -1.77715 -2.29319e-18)
(21.351 -1.78843 1.35794e-19)
(21.3462 -1.79552 -1.30671e-19)
(21.3253 -1.79923 -1.99934e-18)
(21.2931 -1.80015 2.13666e-18)
(21.253 -1.79873 0)
(21.2075 -1.7953 0)
(21.1581 -1.79013 -2.16897e-19)
(21.106 -1.78341 1.69603e-18)
(21.0521 -1.77529 -1.4377e-18)
(20.9969 -1.7659 -1.42696e-18)
(20.941 -1.75536 3.1954e-18)
(20.8845 -1.74378 -1.96368e-18)
(20.8278 -1.73095 0)
(20.7715 -1.71686 -3.84918e-19)
(20.7152 -1.70587 7.53543e-19)
(15.1436 -0.616293 -2.19028e-19)
(18.3295 -1.12093 0)
(19.9598 -1.42836 2.16775e-19)
(20.5618 -1.52775 -1.63114e-18)
(20.8933 -1.58149 1.30493e-18)
(21.1045 -1.62133 2.80607e-18)
(21.2344 -1.65174 -2.76728e-18)
(21.3071 -1.6748 0)
(21.3395 -1.69203 0)
(21.3443 -1.70461 -1.39453e-19)
(21.3303 -1.71347 -1.13443e-21)
(21.3038 -1.71931 0)
(21.2686 -1.72262 2.44689e-19)
(21.2277 -1.72381 -2.36144e-19)
(21.1827 -1.72316 0)
(21.1351 -1.72089 4.44155e-19)
(21.0857 -1.71719 1.74186e-18)
(21.035 -1.71217 -3.39892e-18)
(20.9837 -1.70598 1.66479e-18)
(20.9318 -1.69871 1.86138e-18)
(20.8798 -1.69046 -1.62316e-18)
(20.8277 -1.68113 -8.10381e-19)
(20.776 -1.67071 2.00062e-18)
(20.7242 -1.66216 -1.57194e-18)
(15.3824 -0.572119 1.91722e-18)
(18.471 -1.0543 6.73435e-19)
(20.0975 -1.36294 -1.6969e-18)
(20.6748 -1.46318 0)
(20.9728 -1.51534 0)
(21.1546 -1.55401 1.40457e-18)
(21.2602 -1.58376 -1.14613e-18)
(21.3139 -1.60664 -1.5644e-19)
(21.3326 -1.62415 2.37615e-18)
(21.328 -1.63742 4.44292e-19)
(21.3081 -1.64731 -2.01051e-18)
(21.2782 -1.65443 0)
(21.2416 -1.65925 -2.24891e-18)
(21.2006 -1.66213 1.91662e-18)
(21.1567 -1.66332 1.87715e-18)
(21.111 -1.66302 -2.0408e-18)
(21.0641 -1.66139 -2.0106e-18)
(21.0165 -1.65855 1.30337e-18)
(20.9686 -1.65463 -2.14816e-19)
(20.9206 -1.64973 -1.27771e-18)
(20.8727 -1.64391 8.38429e-19)
(20.8249 -1.63712 -2.08884e-19)
(20.7776 -1.6294 0)
(20.7302 -1.62289 4.11455e-19)
(15.5938 -0.537124 -4.12612e-19)
(18.5983 -1.0039 2.11356e-19)
(20.2045 -1.31135 0)
(20.7568 -1.41202 -1.99451e-19)
(21.026 -1.46278 0)
(21.1835 -1.50031 0)
(21.2699 -1.52928 1.49445e-18)
(21.3093 -1.5518 -7.78074e-19)
(21.318 -1.56931 3.00074e-19)
(21.307 -1.58289 -2.84411e-19)
(21.2833 -1.59335 0)
(21.2514 -1.60123 0)
(21.2143 -1.60697 0)
(21.1738 -1.61092 -1.32023e-21)
(21.1312 -1.61335 -2.39499e-19)
(21.0874 -1.6144 0)
(21.043 -1.61419 2.27695e-19)
(20.9983 -1.61285 2.23798e-19)
(20.9535 -1.61056 6.65712e-19)
(20.909 -1.60737 5.67219e-21)
(20.8647 -1.60331 -1.95161e-18)
(20.8208 -1.5984 1.07545e-18)
(20.7773 -1.59273 -4.31279e-19)
(20.7338 -1.58815 4.26129e-19)
(15.746 -0.493306 5.94085e-19)
(18.686 -0.94987 4.18654e-19)
(20.2795 -1.26298 -4.14771e-19)
(20.8152 -1.36917 1.3777e-18)
(21.0614 -1.42008 -7.36262e-19)
(21.1999 -1.45691 0)
(21.271 -1.48519 -1.65013e-19)
(21.2994 -1.50715 -1.58172e-18)
(21.3007 -1.52444 9.00357e-19)
(21.2851 -1.53809 0)
(21.2589 -1.5488 2.78037e-19)
(21.2259 -1.55706 1.07228e-18)
(21.1886 -1.56332 -1.02881e-18)
(21.1487 -1.56799 -5.04484e-19)
(21.1073 -1.5713 1.2144e-18)
(21.0654 -1.57331 -2.38445e-19)
(21.0232 -1.574 0)
(20.9809 -1.57366 -1.15073e-18)
(20.9388 -1.57256 9.0247e-19)
(20.8974 -1.57062 2.24214e-19)
(20.8565 -1.56778 2.22949e-19)
(20.816 -1.5642 0)
(20.7759 -1.5601 0)
(20.736 -1.55738 0)
(15.9733 -0.472172 -3.86369e-19)
(18.8007 -0.927078 -8.1534e-19)
(20.351 -1.24356 4.0432e-19)
(20.8604 -1.34346 -7.76739e-19)
(21.0878 -1.38891 3.68427e-19)
(21.2077 -1.42262 -6.98884e-19)
(21.267 -1.44888 6.60013e-19)
(21.287 -1.47013 -1.27067e-18)
(21.2828 -1.48712 1.51101e-18)
(21.2638 -1.50076 0)
(21.2358 -1.51156 -2.79151e-19)
(21.2021 -1.51992 -2.70812e-19)
(21.1647 -1.52639 0)
(21.1252 -1.53149 -2.5365e-19)
(21.0849 -1.53555 -9.94327e-19)
(21.045 -1.53828 9.65345e-19)
(21.005 -1.53942 0)
(20.9645 -1.53969 1.17405e-18)
(20.9248 -1.53962 -6.92311e-19)
(20.8866 -1.53871 0)
(20.8485 -1.53671 0)
(20.8106 -1.534 0)
(20.7729 -1.5311 0)
(20.7357 -1.53079 2.30399e-19)
(15.849 -0.329192 1.08591e-20)
(18.6878 -0.823002 -4.13486e-19)
(20.3537 -1.20791 1.20249e-18)
(20.8917 -1.31667 -3.82514e-19)
(21.0998 -1.36089 2.52745e-21)
(21.2149 -1.39286 -6.94375e-19)
(21.2623 -1.41906 -5.05148e-21)
(21.2742 -1.43926 -4.81142e-21)
(21.2652 -1.45577 9.16717e-19)
(21.2436 -1.46937 -5.85257e-19)
(21.2148 -1.48002 0)
(21.1805 -1.48804 -1.18167e-21)
(21.1431 -1.49436 0)
(21.1042 -1.49982 0)
(21.065 -1.50484 -9.97111e-19)
(21.0276 -1.50851 9.69518e-19)
(20.9889 -1.50941 9.79715e-19)
(20.9493 -1.50985 -9.63636e-19)
(20.9117 -1.51097 0)
(20.8761 -1.51089 0)
(20.8401 -1.50891 0)
(20.8053 -1.5067 4.75764e-19)
(20.7706 -1.5048 -7.14746e-19)
(20.7357 -1.50669 2.376e-19)
(1.09259 2.40827 9.22919e-20)
(3.75947 2.86218 0)
(6.63728 3.97605 0)
(9.3035 5.41736 -2.30763e-18)
(11.6224 6.82008 1.82309e-18)
(13.693 8.12724 0)
(15.5626 9.32793 -2.84484e-20)
(17.2356 10.3861 -2.99202e-20)
(18.7027 11.2682 0)
(19.9555 11.9551 0)
(20.9895 12.4366 -7.18777e-20)
(21.8093 12.7142 0)
(22.4291 12.798 -2.9423e-19)
(22.8729 12.7088 4.58396e-20)
(23.1725 12.475 2.45274e-19)
(23.3632 12.1298 0)
(23.4805 11.7084 0)
(23.5544 11.2428 0)
(23.6067 10.7584 -4.11049e-20)
(23.6503 10.2726 -7.03007e-20)
(23.6901 9.79587 -5.04429e-20)
(23.7269 9.33237 1.13361e-19)
(23.7608 8.88535 -4.47738e-20)
(23.8 8.43473 9.43309e-20)
(-13.1546 1.49919 -1.40484e-17)
(-10.9358 1.57848 2.43564e-19)
(-8.21038 1.81332 0)
(-5.22439 2.28108 0)
(-1.87176 2.94246 0)
(1.65273 3.77685 0)
(5.22738 4.74556 -1.34383e-18)
(8.67438 5.81424 1.31202e-18)
(11.8741 6.93125 -1.01307e-18)
(14.7469 8.03042 9.0627e-19)
(17.2398 9.04378 8.82878e-20)
(19.3226 9.91189 -6.41786e-19)
(20.9865 10.5895 5.37615e-19)
(22.2466 11.0508 1.37471e-19)
(23.1403 11.2909 0)
(23.7236 11.3248 0)
(24.0653 11.1847 0)
(24.2364 10.912 -2.49262e-19)
(24.3011 10.5494 2.39219e-19)
(24.3087 10.1355 -3.49722e-20)
(24.2913 9.69859 0)
(24.2659 9.25621 0)
(24.2405 8.82189 0)
(24.2267 8.36902 -5.59958e-20)
(-7.4277 1.10817 2.78754e-19)
(-7.2743 0.959938 -3.17579e-19)
(-6.29275 0.886001 0)
(-4.97373 0.869507 1.35992e-19)
(-3.4112 0.981522 0)
(-1.59331 1.26409 0)
(0.516932 1.74869 0)
(3.00989 2.44123 -1.92135e-18)
(5.83852 3.32645 1.64482e-18)
(8.87363 4.3609 0)