/*--------------------------------*- C++ -*----------------------------------*\
| =========                 |                                                 |
| \\      /  F ield         | OpenFOAM: The Open Source CFD Toolbox           |
|  \\    /   O peration     | Version:  2.3.0                                 |
|   \\  /    A nd           | Web:      www.OpenFOAM.org                      |
|    \\/     M anipulation  |                                                 |
\*---------------------------------------------------------------------------*/
FoamFile
{
    version     2.0;
    format      ascii;
    class       surfaceScalarField;
    location    "4000";
    object      phi;
}
// * * * * * * * * * * * * * * * * * * * * * * * * * * * * * * * * * * * * * //

dimensions      [0 3 -1 0 0 0 0];

internalField   nonuniform List<scalar> 
72548
(
-0.00133943
-0.00657612
0.00716653
0.000749023
-0.00188873
-0.00635368
0.00690297
-0.00239812
-0.0061401
0.00664949
-0.00286985
-0.00593382
0.00640555
-0.00330451
-0.0057363
0.00617096
-0.00370424
-0.00554551
0.00594524
-0.00406966
-0.00536221
0.00572763
-0.00440297
-0.0051856
0.00551891
-0.00470441
-0.00501596
0.0053174
-0.00497565
-0.00485246
0.0051237
-0.00521793
-0.00469513
0.00493741
-0.00543233
-0.00454374
0.00475814
-0.0056199
-0.00439814
0.00458571
-0.00578151
-0.0042579
0.00441951
-0.00591915
-0.0041228
0.00426044
-0.00603261
-0.00399357
0.00410703
-0.00612375
-0.00386816
0.0039593
-0.00619332
-0.00374818
0.00381775
-0.00624256
-0.0036323
0.00368153
-0.00627229
-0.00352096
0.0035507
-0.00628391
-0.00341397
0.00342559
-0.00627835
-0.00331035
0.00330479
-0.00625668
-0.00321113
0.00318946
-0.00621985
-0.00311559
0.00307876
-0.00616938
-0.00302318
0.00297271
-0.00610676
-0.00293417
0.00287155
-0.00603257
-0.00284846
0.00277427
-0.00594822
-0.00276616
0.00268181
-0.00585573
-0.0026857
0.00259322
-0.00575624
-0.00260858
0.00250909
-0.00565036
-0.00253346
0.00242759
-0.00553973
-0.00246083
0.00235021
-0.00542566
-0.00238896
0.00227489
-0.00530849
-0.00231887
0.00220171
-0.00518922
-0.00224945
0.00213018
-0.00506862
-0.00217861
0.00205802
-0.00494555
-0.00210733
0.00198426
-0.00482139
-0.0020314
0.00190724
-0.00469588
-0.00194988
0.00182439
-0.00457026
-0.00185922
0.00173362
-0.00444773
-0.00175547
0.00163295
-0.00433278
-0.00163265
0.00151772
-0.0014773
-0.00419178
0.0013363
-0.00122817
-0.00604141
0.000693455
-0.00172492
-0.00585693
-0.00218577
-0.00567925
-0.00261134
-0.00550825
-0.00300386
-0.00534378
-0.00336384
-0.00518553
-0.00369267
-0.00503337
-0.00399162
-0.00488665
-0.00426177
-0.0047458
-0.00450394
-0.00461029
-0.0047198
-0.00447928
-0.00490997
-0.00435357
-0.00507549
-0.00423261
-0.00521724
-0.00411615
-0.00533626
-0.00400378
-0.00543387
-0.00389595
-0.00551002
-0.00379201
-0.00556623
-0.00369197
-0.00560297
-0.00359555
-0.0056214
-0.00350254
-0.00562238
-0.00341298
-0.00560569
-0.00332703
-0.00557333
-0.00324349
-0.00552591
-0.00316302
-0.00546363
-0.00308546
-0.00538804
-0.00300976
-0.00529954
-0.00293695
-0.00519978
-0.00286592
-0.00508884
-0.00279664
-0.00496847
-0.00272895
-0.00483929
-0.00266265
-0.00470308
-0.00259704
-0.00455997
-0.00253207
-0.0044117
-0.00246713
-0.00425985
-0.0024013
-0.00410281
-0.00233564
-0.00394331
-0.00226683
-0.00377815
-0.00219656
-0.00360472
-0.00212331
-0.00341792
-0.00204602
-0.00320768
-0.00196571
-0.00295872
-0.00188161
-0.00179417
-0.00264185
-0.00112362
-0.0055576
0.000639808
-0.00157347
-0.00540708
-0.00199011
-0.0052626
-0.00237489
-0.00512347
-0.00272917
-0.0049895
-0.00305383
-0.00486087
-0.00335016
-0.00473704
-0.00361906
-0.00461775
-0.00386152
-0.00450334
-0.0040792
-0.00439261
-0.00427213
-0.00428635
-0.00444154
-0.00418416
-0.00458852
-0.00408563
-0.00471413
-0.00399054
-0.00481858
-0.00389933
-0.00490318
-0.00381135
-0.00496905
-0.00372614
-0.00501639
-0.00364462
-0.00504609
-0.00356586
-0.00505852
-0.00349011
-0.00505516
-0.00341634
-0.00503662
-0.00334557
-0.00500293
-0.00327718
-0.00495501
-0.00321094
-0.00489421
-0.00314626
-0.00481996
-0.00308401
-0.00473351
-0.00302339
-0.00463548
-0.00296395
-0.00452613
-0.00290599
-0.00440655
-0.00284852
-0.00427687
-0.00279233
-0.00413729
-0.00273662
-0.00398867
-0.00268069
-0.00383089
-0.00262491
-0.00366436
-0.00256784
-0.00348974
-0.00251026
-0.00330589
-0.00245067
-0.00311247
-0.00238998
-0.00290891
-0.00232688
-0.00269372
-0.00226121
-0.00246508
-0.00219435
-0.00222092
-0.00212576
-0.00205821
-0.00195688
-0.00102654
-0.005119
0.000587937
-0.00143371
-0.00499991
-0.00181056
-0.00488576
-0.00215847
-0.00477556
-0.00247815
-0.00466983
-0.00277111
-0.00456791
-0.00303826
-0.00446989
-0.00328038
-0.00437563
-0.00349846
-0.00428526
-0.00369335
-0.00419772
-0.00386588
-0.00411382
-0.0040171
-0.00403294
-0.00414808
-0.00395465
-0.00425881
-0.00387981
-0.0043508
-0.00380734
-0.00442493
-0.00373722
-0.00448071
-0.00367036
-0.00452017
-0.00360516
-0.0045435
-0.00354253
-0.00455162
-0.00348199
-0.00454421
-0.00342374
-0.00452292
-0.00336686
-0.00448793
-0.00331216
-0.00443994
-0.00325893
-0.00437918
-0.00320702
-0.00430669
-0.0031565
-0.00422308
-0.003107
-0.00412817
-0.00305886
-0.00402307
-0.00301108
-0.0039078
-0.0029638
-0.00378341
-0.00291672
-0.00364956
-0.00287047
-0.00350697
-0.00282329
-0.00335641
-0.00277547
-0.00319681
-0.00272744
-0.00302893
-0.00267814
-0.00285247
-0.00262713
-0.00266726
-0.0025752
-0.00247295
-0.00252119
-0.0022682
-0.00246595
-0.00205253
-0.00241002
-0.00182497
-0.00235333
-0.00229802
-0.00158516
-0.000936729
-0.0047217
0.000539431
-0.00130527
-0.00463137
-0.00164648
-0.00454454
-0.00196087
-0.00446117
-0.00224996
-0.00438073
-0.00251468
-0.00430319
-0.00275558
-0.00422899
-0.00297356
-0.00415766
-0.00316976
-0.00408905
-0.00334505
-0.00402244
-0.00350001
-0.00395885
-0.00363552
-0.00389743
-0.00375201
-0.00383816
-0.00385075
-0.00378107
-0.00393238
-0.00372571
-0.00399689
-0.00367271
-0.00404583
-0.00362142
-0.0040792
-0.00357179
-0.00409787
-0.00352385
-0.00410249
-0.00347738
-0.00409348
-0.00343276
-0.00407153
-0.00338881
-0.00403704
-0.00334665
-0.00399045
-0.00330553
-0.00393263
-0.00326484
-0.0038634
-0.00322573
-0.00378396
-0.00318644
-0.00369446
-0.00314837
-0.0035951
-0.00311044
-0.00348665
-0.00307224
-0.00336869
-0.00303469
-0.00324262
-0.00299653
-0.00310829
-0.00295762
-0.00296539
-0.00291837
-0.00281501
-0.00287782
-0.00265655
-0.0028366
-0.00249011
-0.00279356
-0.00231625
-0.00274906
-0.00213359
-0.00270385
-0.00194291
-0.00265663
-0.00174386
-0.00260907
-0.0015357
-0.00256148
-0.00251422
-0.0013195
-0.000853743
-0.00436178
0.000493828
-0.00118749
-0.00429762
-0.00149622
-0.00423581
-0.00178093
-0.00417646
-0.00204227
-0.00411939
-0.00228109
-0.00406437
-0.00249881
-0.00401127
-0.00269545
-0.00396101
-0.00287268
-0.00391182
-0.00303017
-0.00386494
-0.00316945
-0.00381958
-0.00329094
-0.00377594
-0.00339548
-0.00373362
-0.00348374
-0.00369281
-0.00355569
-0.00365376
-0.00361261
-0.0036158
-0.00365515
-0.00357888
-0.00368399
-0.00354295
-0.00369916
-0.00350868
-0.0037013
-0.00347524
-0.00369153
-0.00344252
-0.00366933
-0.00341102
-0.00363628
-0.00337971
-0.0035919
-0.00334991
-0.00353703
-0.0033197
-0.00347247
-0.00329029
-0.00339763
-0.00326128
-0.00331368
-0.00323232
-0.00322148
-0.00320265
-0.00311989
-0.00317383
-0.00301035
-0.00314423
-0.00289328
-0.0031136
-0.00276809
-0.00308281
-0.00263548
-0.00305098
-0.00249571
-0.00301759
-0.00234873
-0.00298359
-0.00219493
-0.00294736
-0.00203328
-0.00291071
-0.00186518
-0.00287195
-0.00168974
-0.00283207
-0.00150732
-0.00279149
-0.00131831
-0.00275049
-0.00271068
-0.00112184
-0.000777867
-0.00403545
0.000451536
-0.00108034
-0.00399515
-0.00135985
-0.0039563
-0.0016174
-0.00391891
-0.00185382
-0.00388297
-0.00206985
-0.00384834
-0.00226603
-0.00381509
-0.00244404
-0.003783
-0.00260373
-0.00375214
-0.00274604
-0.00372263
-0.00287136
-0.00369425
-0.00298035
-0.00366696
-0.00307387
-0.0036401
-0.00315258
-0.0036141
-0.00321711
-0.00358923
-0.00326808
-0.00356482
-0.00330548
-0.00354148
-0.00332973
-0.0035187
-0.00334223
-0.00349619
-0.00334294
-0.00347453
-0.00333257
-0.00345289
-0.00331128
-0.00343231
-0.00327953
-0.00341145
-0.00323817
-0.00339127
-0.00318685
-0.00337102
-0.00312631
-0.00335082
-0.00305701
-0.00333058
-0.00297981
-0.00330952
-0.00289368
-0.00328877
-0.00279982
-0.00326769
-0.00269887
-0.00324518
-0.00259018
-0.0032223
-0.00247468
-0.00319831
-0.00235273
-0.00317292
-0.00222348
-0.00314684
-0.00208852
-0.00311855
-0.00194643
-0.00308945
-0.00179865
-0.00305849
-0.00164447
-0.00302613
-0.00148422
-0.00299233
-0.00131769
-0.00295801
-0.00114483
-0.00292336
-0.00288825
-0.000967259
-0.000708054
-0.00373946
0.000412058
-0.000981998
-0.00372121
-0.00123538
-0.00370292
-0.00146855
-0.00368574
-0.00168246
-0.00366907
-0.00187799
-0.00365281
-0.00205579
-0.00363729
-0.00221629
-0.00362249
-0.00236044
-0.00360799
-0.00248852
-0.00359455
-0.00260167
-0.0035811
-0.00270038
-0.00356825
-0.00278465
-0.00355583
-0.00285519
-0.00354356
-0.00291286
-0.00353157
-0.00295782
-0.00351986
-0.00299089
-0.00350841
-0.00301246
-0.00349713
-0.00302244
-0.00348621
-0.00302233
-0.00347464
-0.00301171
-0.00346351
-0.00299152
-0.00345251
-0.00296164
-0.00344133
-0.0029229
-0.00343001
-0.00287521
-0.00341871
-0.0028193
-0.00340674
-0.00275548
-0.0033944
-0.00268338
-0.00338161
-0.00260445
-0.00336771
-0.00251842
-0.00335371
-0.00242506
-0.00333854
-0.0023254
-0.00332196
-0.00221979
-0.00330391
-0.00210693
-0.00328578
-0.00198872
-0.00326505
-0.00186452
-0.00324276
-0.00173461
-0.00321935
-0.00159912
-0.00319398
-0.00145838
-0.00316688
-0.00131187
-0.00313884
-0.00116016
-0.00310973
-0.00100359
-0.00307993
-0.00305034
-0.0008415
-0.000644027
-0.00347084
0.000375413
-0.000892769
-0.00347247
-0.00112225
-0.00347344
-0.00133372
-0.00347427
-0.00152706
-0.00347573
-0.00170402
-0.00347585
-0.00186473
-0.00347657
-0.0020099
-0.00347732
-0.00214027
-0.00347763
-0.0022566
-0.00347822
-0.00235852
-0.00347918
-0.00244701
-0.00347976
-0.0025229
-0.00347993
-0.00258653
-0.00347993
-0.00263837
-0.00347972
-0.00267861
-0.00347962
-0.00270808
-0.00347894
-0.0027264
-0.00347881
-0.00273555
-0.00347705
-0.00273452
-0.00347567
-0.00272389
-0.00347414
-0.00270481
-0.00347159
-0.00267675
-0.00346939
-0.00264119
-0.00346557
-0.00259733
-0.00346256
-0.00254577
-0.0034583
-0.00248648
-0.0034537
-0.00242062
-0.00344747
-0.00234788
-0.00344045
-0.00226907
-0.00343252
-0.00218371
-0.0034239
-0.00209186
-0.00341381
-0.00199437
-0.00340141
-0.00189217
-0.00338798
-0.00178381
-0.00337341
-0.00167027
-0.0033563
-0.00155109
-0.00333853
-0.00142766
-0.00331741
-0.00129893
-0.00329561
-0.00116566
-0.00327212
-0.00102735
-0.00324804
-0.000885103
-0.00322217
-0.000738082
-0.00319736
-0.0034422
-0.00137117
0.000621604
-0.00284346
-0.00134701
0.000748262
-0.00231158
-0.00135338
0.000821503
-0.00182571
-0.00137611
0.000890238
-0.00137756
-0.00140859
0.000960444
-0.000962117
-0.00144803
0.00103258
-0.000575736
-0.00149277
0.00110639
-0.000215015
-0.00154233
0.00118161
0.00012156
-0.00159454
0.00125796
0.000435885
-0.00165085
0.00133652
0.000729245
-0.00170931
0.00141595
0.00100292
-0.00177104
0.00149737
0.0012581
-0.00183551
0.00158033
0.00149515
-0.00190264
0.00166559
0.00171451
-0.00197246
0.00175309
0.00191646
-0.00204468
0.00184273
0.00210148
-0.00212002
0.001935
0.0022693
-0.00219818
0.00203036
0.00241994
-0.00227915
0.00212851
0.00255324
-0.00236319
0.00222989
0.00266898
-0.00245071
0.00233497
0.00276629
-0.0025411
0.00244378
0.00284587
-0.00263561
0.00255604
0.00290636
-0.00273331
0.00267282
0.00294734
-0.00283497
0.00279398
0.00296819
-0.00294079
0.00291994
0.00296825
-0.00305045
0.00305039
0.00294699
-0.00316468
0.00318594
0.00290352
-0.00328351
0.00332698
0.0028369
-0.00340713
0.00347375
0.002746
-0.00353524
0.00362614
0.00263023
-0.00366892
0.0037847
0.00248857
-0.00380801
0.00394966
0.00231972
-0.00395238
0.00412124
0.00212248
-0.00410259
0.00429983
0.00189616
-0.00425921
0.00448552
0.00163908
-0.00442188
0.00467896
0.00134996
-0.00459098
0.0048801
0.00102764
-0.00476726
0.00508958
0.000670964
-0.00495055
0.00530723
0.000278133
-0.00514112
0.00553395
-0.000152088
-0.00533942
0.00576964
-0.00554577
0.00601496
-0.000621276
-0.00226952
-0.00174351
-0.00188558
-0.00173094
-0.00151129
-0.00172767
-0.00115383
-0.00173357
-0.000814403
-0.00174801
-0.00049361
-0.00176883
-0.000190755
-0.00179562
9.49962e-05
-0.00182808
0.000364662
-0.0018642
0.000618999
-0.00190519
0.00085898
-0.00194929
0.0010846
-0.00199666
0.00129613
-0.00204704
0.00149378
-0.0021003
0.00167762
-0.0021563
0.00184792
-0.00221498
0.00200422
-0.00227632
0.00214605
-0.00234001
0.00227399
-0.00240709
0.00238711
-0.00247631
0.00248513
-0.00254873
0.0025675
-0.00262347
0.00263399
-0.00270211
0.00268365
-0.00278296
0.00271621
-0.00286753
0.00273078
-0.00295535
0.00272692
-0.0030466
0.00270373
-0.00314149
0.00266028
-0.00324006
0.00259599
-0.00334284
0.00251006
-0.00344931
0.00240171
-0.00356056
0.00226945
-0.00367575
0.00211297
-0.0037959
0.00193113
-0.00392076
0.0017224
-0.00405048
0.0014863
-0.00418577
0.00122144
-0.00432612
0.000926486
-0.00447231
0.000600245
-0.00462431
0.00024177
-0.00478264
-0.000150902
-0.00494675
-0.00511795
-0.000578719
-0.00168091
-0.00201948
-0.00140088
-0.00201098
-0.00112065
-0.0020079
-0.000843905
-0.00201032
-0.000574688
-0.00201723
-0.000313088
-0.00203043
-6.02686e-05
-0.00204844
0.000182086
-0.00207044
0.000414342
-0.00209646
0.00063531
-0.00212616
0.000845553
-0.00215953
0.00104451
-0.00219563
0.00123231
-0.00223483
0.0014081
-0.00227609
0.00157234
-0.00232054
0.00172415
-0.00236679
0.00186397
-0.00241613
0.00199131
-0.00246735
0.00210535
-0.00252113
0.00220612
-0.00257707
0.00229305
-0.00263566
0.00236603
-0.00269645
0.00242403
-0.00276011
0.00246712
-0.00282605
0.00249441
-0.00289482
0.00250528
-0.00296622
0.00249931
-0.00304062
0.00247571
-0.0031179
0.00243412
-0.00319846
0.00237323
-0.00328195
0.00229283
-0.00336892
0.00219181
-0.00345954
0.00206954
-0.00355349
0.00192528
-0.00365164
0.0017575
-0.00375297
0.00156607
-0.00385905
0.00134934
-0.00396905
0.00110674
-0.00408352
0.000836964
-0.00420253
0.000538904
-0.00432625
0.000211016
-0.00445475
-0.000147022
-0.00458871
-0.00472783
-0.000537145
-0.0013391
-0.00226553
-0.00109386
-0.00225622
-0.0008512
-0.00225055
-0.000612824
-0.0022487
-0.000379538
-0.00225052
-0.000153464
-0.0022565
6.5083e-05
-0.00226699
0.000275901
-0.00228126
0.000478102
-0.00229866
0.000671632
-0.00231969
0.000855117
-0.00234302
0.00102968
-0.00237019
0.00119407
-0.00239923
0.00134866
-0.00243068
0.00149258
-0.00246445
0.00162635
-0.00250057
0.00174899
-0.00253878
0.00186047
-0.00257883
0.0019604
-0.00262105
0.00204829
-0.00266497
0.00212399
-0.00271136
0.00218715
-0.0027596
0.00223677
-0.00280973
0.00227281
-0.00286209
0.00229502
-0.00291703
0.00230219
-0.00297339
0.00229409
-0.00303252
0.00227019
-0.003094
0.00222956
-0.00315783
0.00217216
-0.00322456
0.0020967
-0.00329345
0.0020026
-0.00336543
0.00188942
-0.00344031
0.0017559
-0.00351811
0.00160172
-0.00359879
0.00142578
-0.00368311
0.00122679
-0.00377006
0.00100454
-0.00386127
0.000757507
-0.0039555
0.000485074
-0.00405382
0.000185836
-0.00415552
-0.000140976
-0.0042619
-0.00437202
-0.000496783
-0.00110021
-0.00248482
-0.000882976
-0.00247346
-0.000669527
-0.002464
-0.000460269
-0.00245796
-0.00025553
-0.00245525
-5.64807e-05
-0.00245555
0.000136198
-0.00245967
0.000321984
-0.00246704
0.000500474
-0.00247715
0.000671265
-0.00249048
0.000834378
-0.00250613
0.000988813
-0.00252462
0.00113498
-0.0025454
0.00127228
-0.00256797
0.0014004
-0.00259257
0.0015192
-0.00261937
0.00162823
-0.00264781
0.00172715
-0.00267774
0.00181579
-0.00270969
0.00189375
-0.00274293
0.00196049
-0.00277811
0.00201573
-0.00281484
0.00205902
-0.00285302
0.0020899
-0.00289297
0.0021076
-0.00293473
0.00211256
-0.00297835
0.00210325
-0.00302321
0.00207969
-0.00307044
0.00204129
-0.00311943
0.00198713
-0.00317039
0.00191699
-0.00322332
0.00182995
-0.0032784
0.00172525
-0.00333561
0.0016021
-0.00339497
0.00146028
-0.00345696
0.00129848
-0.00352131
0.00111645
-0.00358803
0.000912707
-0.00365754
0.00068696
-0.00372975
0.000437756
-0.00380462
0.000164719
-0.00388248
-0.000133772
-0.00396341
-0.00404765
-0.000458148
-0.00092413
-0.00268254
-0.000729177
-0.00266841
-0.000537853
-0.00265533
-0.000350638
-0.00264517
-0.000168138
-0.00263775
9.16472e-06
-0.00263286
0.000180801
-0.0026313
0.000346336
-0.00263258
0.000505739
-0.00263655
0.000657973
-0.00264271
0.000803436
-0.00265159
0.000941508
-0.00266269
0.00107163
-0.00267552
0.00119412
-0.00269046
0.00130881
-0.00270726
0.00141464
-0.0027252
0.00151184
-0.00274501
0.00160004
-0.00276595
0.00167878
-0.00278843
0.00174776
-0.00281191
0.00180674
-0.00283708
0.00185535
-0.00286345
0.00189309
-0.00289076
0.00191975
-0.00291963
0.00193444
-0.00294942
0.00193714
-0.00298106
0.00192751
-0.00301357
0.00190457
-0.0030475
0.00186798
-0.00308284
0.00181733
-0.00311975
0.00175208
-0.00315806
0.0016713
-0.00319761
0.0015749
-0.00323921
0.00146178
-0.00328184
0.00133139
-0.00332657
0.00118312
-0.00337305
0.0010164
-0.0034213
0.000830135
-0.00347127
0.000623637
-0.00352325
0.000396115
-0.00357709
0.000146657
-0.00363302
-0.000125519
-0.00369123
-0.00375156
-0.000421608
-0.000787713
-0.00286208
-0.000612317
-0.00284381
-0.000440143
-0.0028275
-0.000271944
-0.00281337
-0.000108202
-0.0028015
5.12053e-05
-0.00279226
0.000205411
-0.00278551
0.000353752
-0.00278092
0.000496583
-0.00277938
0.000633326
-0.00277945
0.000763713
-0.00278198
0.000887189
-0.00278617
0.00100445
-0.00279277
0.0011142
-0.00280022
0.00121676
-0.00280983
0.00131179
-0.00282023
0.00139856
-0.00283178
0.00147763
-0.00284501
0.00154785
-0.00285866
0.00160943
-0.00287349
0.00166203
-0.00288968
0.00170482
-0.00290625
0.00173809
-0.00292403
0.00176087
-0.00294241
0.0017734
-0.00296195
0.00177474
-0.00298239
0.00176469
-0.00300352
0.00174284
-0.00302566
0.00170846
-0.00304846
0.00166137
-0.00307265
0.00160084
-0.00309754
0.00152647
-0.00312324
0.00143748
-0.00315022
0.00133362
-0.00317799
0.0012142
-0.00320714
0.00107848
-0.00323733
0.000925699
-0.00326852
0.000755282
-0.00330086
0.000566531
-0.0033345
0.000358743
-0.00336931
0.000131177
-0.00340545
-0.000117147
-0.00344291
-0.00348195
-0.000386756
-0.000679687
-0.0030239
-0.000520235
-0.00300326
-0.000364423
-0.00298331
-0.000212733
-0.00296506
-6.4792e-05
-0.00294944
7.83701e-05
-0.00293543
0.000216782
-0.00292392
0.000350551
-0.00291469
0.000479044
-0.00290788
0.000602014
-0.00290242
0.000719295
-0.00289926
0.000830661
-0.00289753
0.000935887
-0.002898
0.00103489
-0.00289922
0.00112685
-0.00290178
0.00121241
-0.00290578
0.00129055
-0.00290992
0.00136093
-0.00291539
0.00142411
-0.00292184
0.00147947
-0.00292885
0.00152617
-0.00293637
0.00156448
-0.00294456
0.0015936
-0.00295315
0.00161386
-0.00296267
0.00162438
-0.00297247
0.00162465
-0.00298266
0.00161462
-0.0029935
0.00159376
-0.00300479
0.00156189
-0.00301659
0.00151808
-0.00302884
0.0014622
-0.00304166
0.00139376
-0.00305481
0.00131213
-0.00306859
0.00121682
-0.00308267
0.00110716
-0.00309749
0.000982572
-0.00311275
0.000842964
-0.00312891
0.000687458
-0.00314535
0.000515137
-0.00316218
0.000325499
-0.00317967
0.000117763
-0.00319772
-0.000108706
-0.00321644
-0.00323624
-0.000354412
-0.000590737
-0.00317124
-0.00044682
-0.00314718
-0.000306365
-0.00312377
-0.000169052
-0.00310238
-3.55682e-05
-0.00308292
9.39868e-05
-0.00306498
0.000219085
-0.00304902
0.000339722
-0.00303532
0.000455235
-0.00302339
0.000566397
-0.00301359
0.000672268
-0.00300513
0.000772968
-0.00299823
0.000867739
-0.00299277
0.000956893
-0.00298838
0.00104044
-0.00298533
0.00111729
-0.00298263
0.00118761
-0.00298025
0.00125122
-0.002979
0.00130787
-0.00297849
0.00135723
-0.0029782
0.00139954
-0.00297868
0.00143362
-0.00297864
0.00145971
-0.00297925
0.00147725
-0.00298021
0.00148599
-0.00298122
0.00148571
-0.00298238
0.00147608
-0.00298387
0.00145661
-0.00298531
0.00142677
-0.00298676
0.00138627
-0.00298834
0.00133489
-0.00299029
0.00127202
-0.00299194
0.00119682
-0.00299339
0.00110953
-0.00299538
0.00100929
-0.00299724
0.000895681
-0.00299914
0.000768092
-0.00300132
0.000625916
-0.00300318
0.000468371
-0.00300464
0.00029515
-0.00300645
0.000105832
-0.0030084
-0.000100542
-0.00301006
-0.000324599
-0.00301219
0.000474968
0.00598279
-0.00650464
4.68806e-05
0.000954775
0.0057575
-0.00623731
0.00139386
0.00554059
-0.00597967
0.00179364
0.00533131
-0.00573109
0.00215601
0.00512963
-0.005492
0.00248199
0.00493531
-0.0052613
0.00277314
0.00474795
-0.0050391
0.00303086
0.00456734
-0.00482506
0.00325668
0.00439352
-0.00461934
0.00345165
0.00422582
-0.00442078
0.00361734
0.00406428
-0.00422998
0.00375459
0.00390901
-0.00404626
0.00386516
0.00375897
-0.00386955
0.00395023
0.00361467
-0.00369974
0.00401077
0.00347571
-0.00353625
0.00404808
0.00334186
-0.00337917
0.00406336
0.00321293
-0.00322822
0.00405769
0.00308871
-0.00308304
0.00403213
0.00296914
-0.00294358
0.0039878
0.00285391
-0.00280959
0.0039256
0.00274295
-0.00268075
0.0038468
0.00263588
-0.00255708
0.00375219
0.00253277
-0.00243816
0.00364266
0.00243337
-0.00232384
0.00351938
0.00233731
-0.00221403
0.00338315
0.00224475
-0.00210852
0.00323464
0.00215524
-0.00200673
0.00307515
0.00206851
-0.00190902
0.00290518
0.00198494
-0.00181497
0.0027257
0.00190359
-0.00172411
0.00253756
0.00182466
-0.00163653
0.00234161
0.00174793
-0.00155199
0.00213887
0.00167268
-0.00146994
0.00193007
0.00159915
-0.00139035
0.0017162
0.00152661
-0.00131273
0.00149804
0.00145487
-0.00123671
0.00127718
0.00138267
-0.0011618
0.00105473
0.00130957
-0.00108713
0.000832359
0.00123385
-0.00101147
0.000612391
0.00115293
-0.000932966
0.000398107
0.00106188
-0.000847592
0.000192163
0.000951692
-0.000745748
0.000828751
-2.64329e-05
-0.000610155
0.000431238
0.00550841
4.31348e-05
0.000867308
0.00532143
0.00126693
0.00514097
0.00163112
0.00496712
0.00196137
0.00479938
0.00225896
0.00463773
0.00252523
0.00448167
0.00276128
0.00433129
0.00296849
0.00418632
0.00314779
0.00404651
0.00330064
0.00391143
0.0034284
0.00378125
0.00353145
0.00365593
0.00361138
0.00353474
0.00366933
0.00341776
0.00370602
0.00330516
0.00372262
0.00319634
0.00371999
0.00309133
0.00369925
0.00298989
0.00366127
0.00289189
0.00360695
0.00279727
0.00353707
0.00270576
0.00345264
0.0026172
0.00335455
0.00253145
0.00324335
0.00244851
0.00312013
0.00236796
0.00298551
0.00228986
0.00284014
0.00221388
0.00268529
0.0021398
0.00252131
0.00206757
0.00234903
0.00199694
0.00216939
0.00192757
0.00198278
0.00185929
0.0017904
0.00179153
0.00159292
0.00172409
0.00139151
0.00165628
0.00118683
0.00158735
0.00098042
0.00151598
0.0007737
0.00144057
0.000568842
0.00135779
0.000368449
0.00126227
0.000174256
0.00114589
0.00103195
-2.89396e-05
0.000391653
0.00507731
3.94538e-05
0.000788319
0.00492477
0.00115168
0.0047776
0.00148326
0.00463555
0.00178412
0.00449851
0.00205563
0.00436622
0.0022986
0.0042387
0.00251435
0.00411553
0.00270399
0.00399668
0.00286873
0.00388177
0.0030093
0.00377086
0.00312674
0.00366381
0.00322242
0.00356024
0.00329697
0.00346019
0.0033512
0.00336353
0.00338629
0.00327007
0.00340307
0.00317956
0.00340247
0.00309194
0.00338519
0.00300716
0.0033521
0.00292498
0.00330409
0.00284528
0.00324187
0.00276797
0.00316618
0.0026929
0.00307769
0.00261994
0.00297735
0.00254885
0.00286572
0.00247959
0.00274363
0.00241196
0.00261168
0.00234583
0.00247041
0.00228107
0.00232082
0.00221716
0.00216334
0.00215441
0.00199868
0.00209223
0.00182787
0.0020301
0.00165117
0.00196823
0.00146972
0.00190554
0.00128418
0.00184182
0.00109561
0.00177593
0.000905057
0.00170653
0.000713881
0.00163174
0.000524232
0.00154744
0.000338575
0.00144793
0.000157935
0.00132652
0.00121917
-2.92897e-05
0.00035553
0.00468578
3.59976e-05
0.000716265
0.00456403
0.00104685
0.00444702
0.00134868
0.00433372
0.00162268
0.00422451
0.00186986
0.00411904
0.00209143
0.00401712
0.00228849
0.00391848
0.00246182
0.00382336
0.00261249
0.00373109
0.0027414
0.00364195
0.00284957
0.00355565
0.0029375
0.00347231
0.00300641
0.00339128
0.00305728
0.00331267
0.0030904
0.00323695
0.00310703
0.00316292
0.00310764
0.00309133
0.0030931
0.0030217
0.00306412
0.00295397
0.0030214
0.002888
0.00296566
0.00282371
0.00289759
0.00276097
0.0028179
0.00269964
0.00272707
0.00263967
0.00262589
0.00258078
0.002515
0.00252284
0.00239488
0.00246595
0.00226643
0.00240952
0.00212991
0.00235368
0.00198623
0.0022981
0.00183593
0.00224253
0.00167941
0.00218662
0.00151771
0.00212993
0.00135138
0.00207188
0.00118119
0.00201201
0.00100788
0.00194924
0.000832704
0.0018817
0.000657002
0.00180745
0.000482099
0.00172234
0.000310575
0.00161945
0.000143237
0.00149386
0.00139116
-2.87558e-05
0.000323077
0.00432935
3.33487e-05
0.000650713
0.0042364
0.000951455
0.00414628
0.00122606
0.00405911
0.00147542
0.00397516
0.00170066
0.0038938
0.00190277
0.00381502
0.0020825
0.00373874
0.00224099
0.00366487
0.00237876
0.00359332
0.00249682
0.00352389
0.00259591
0.00345656
0.00267727
0.00339095
0.00274095
0.0033276
0.00278789
0.00326573
0.00281928
0.00320556
0.00283514
0.00314707
0.00283668
0.00308979
0.00282436
0.00303402
0.00279888
0.00297945
0.00276086
0.00292602
0.00271084
0.00287373
0.00264951
0.0028223
0.00257747
0.00277168
0.0024953
0.00272184
0.00240355
0.00267253
0.00230268
0.00262371
0.00219352
0.00257511
0.00207642
0.00252663
0.00195198
0.00247812
0.00182074
0.00242933
0.00168353
0.00237974
0.00154061
0.00232954
0.00139259
0.00227794
0.00124026
0.00222421
0.00108429
0.00216798
0.000925554
0.00210797
0.000764739
0.00204252
0.000603246
0.00196894
0.000442557
0.00188303
0.000284734
0.00177727
0.000130239
0.00164836
0.001549
-2.75954e-05
0.00029323
0.00400594
3.01823e-05
0.000591589
0.00393804
0.000864889
0.00387298
0.0011145
0.0038095
0.00134172
0.00374794
0.0015468
0.00368872
0.00173109
0.00363073
0.00189507
0.00357476
0.00203958
0.00352036
0.00216541
0.00346749
0.00227347
0.00341583
0.00236443
0.0033656
0.0024387
0.00331668
0.00249755
0.00326875
0.00254108
0.0032222
0.0025702
0.00317644
0.00258578
0.00313148
0.00258778
0.0030878
0.00257727
0.00304453
0.00255475
0.00300197
0.00252069
0.00296008
0.00247579
0.00291862
0.00242047
0.00287762
0.00235531
0.00283684
0.00228085
0.0027963
0.00219755
0.00275583
0.00210601
0.00271525
0.00200667
0.00267445
0.00189999
0.00263331
0.00178659
0.00259152
0.00166708
0.00254885
0.00154151
0.00250531
0.00141101
0.00246004
0.00127612
0.00241284
0.0011368
0.00236353
0.000994178
0.0023106
0.000848762
0.00225339
0.000701408
0.00218987
0.000553347
0.002117
0.000405835
0.00203055
0.000260395
0.00192271
0.000118119
0.00179063
0.001694
-2.68842e-05
0.000266502
0.00371157
2.78701e-05
0.000537234
0.00366731
0.000786196
0.00362401
0.00101338
0.00358232
0.0012199
0.00354142
0.00140676
0.00350186
0.00157448
0.003463
0.00172388
0.00342536
0.00185587
0.00338836
0.00197097
0.00335239
0.00206964
0.00331717
0.00215293
0.00328231
0.00222123
0.00324838
0.00227512
0.00321486
0.0023155
0.00318182
0.00234254
0.0031494
0.00235677
0.00311725
0.00235951
0.00308506
0.0023505
0.00305354
0.00233044
0.00302203
0.00229996
0.00299056
0.00225956
0.00295902
0.00220961
0.00292757
0.00215063
0.00289583
0.00208314
0.00286379
0.00200761
0.00283136
0.00192445
0.0027984
0.001834
0.00276491
0.00173692
0.00273039
0.00163361
0.00269483
0.00152442
0.00265804
0.00141028
0.00261945
0.00129116
0.00257916
0.00116759
0.00253641
0.00104051
0.00249062
0.000910206
0.0024409
0.000777266
0.00238633
0.000642661
0.00232447
0.000507172
0.00225249
0.000372214
0.0021655
0.000239504
0.00205542
0.00010927
0.00192087
0.00182809
-2.48199e-05
0.00024199
0.0034442
2.53764e-05
0.00048857
0.00342073
0.000714445
0.00339814
0.000921085
0.00337568
0.00110909
0.00335341
0.00127927
0.00333169
0.00143205
0.00331022
0.00156837
0.00328904
0.00168854
0.00326819
0.00179353
0.0032474
0.0018837
0.003227
0.00195954
0.00320648
0.00202208
0.00318583
0.00207173
0.00316521
0.00210858
0.00314497
0.00213381
0.00312417
0.00214755
0.00310352
0.00214999
0.00308261
0.00214231
0.00306122
0.00212446
0.00303988
0.0020972
0.00301782
0.0020607
0.00299551
0.00201558
0.0029727
0.00196217
0.00294923
0.00190095
0.00292501
0.00183236
0.00289995
0.0017568
0.00287397
0.00167465
0.00284706
0.00158643
0.00281861
0.00149225
0.002789
0.00139288
0.00275742
0.0012885
0.00272382
0.00117986
0.00268781
0.00106723
0.00264903
0.000951338
0.00260651
0.000832106
0.00256013
0.000710957
0.00250748
0.000587903
0.00244753
0.000463733
0.00237666
0.000340271
0.00228896
0.000218587
0.00217711
9.83479e-05
0.00204111
0.00195205
-2.5615e-05
0.000219649
2.34209e-05
0.00320113
0.0004437
0.00319668
0.000649496
0.00319234
0.000837438
0.00318773
0.00100833
0.00318252
0.00116318
0.00317685
0.00130234
0.00317106
0.00142651
0.00316487
0.00153613
0.00315857
0.00163185
0.00315168
0.00171407
0.00314478
0.0017837
0.00313685
0.00184088
0.00312865
0.00188623
0.00311986
0.00192068
0.00311052
0.00194392
0.00310093
0.00195636
0.00309107
0.00195924
0.00307974
0.00195256
0.00306789
0.00193659
0.00305585
0.00191211
0.0030423
0.00187946
0.00302817
0.00183865
0.00301351
0.0017901
0.00299778
0.00173444
0.00298067
0.00167255
0.00296183
0.00160388
0.00294263
0.00152876
0.00292218
0.00144811
0.00289926
0.00136228
0.00287482
0.00127171
0.00284798
0.0011767
0.00281884
0.00107764
0.00278686
0.000975229
0.00275145
0.000869581
0.00271215
0.000761368
0.00266835
0.000650937
0.00261791
0.000539277
0.00255919
0.00042604
0.0024899
0.000313734
0.00240127
0.000205247
0.0022856
0.000101239
0.00214511
-2.08115e-05
0.0020741
-0.000248676
0.00095998
-0.000737736
-0.000492572
0.00114366
-0.000899759
-0.000749865
0.00127528
-0.00101799
-0.00101361
0.00138053
-0.00111678
-0.00127923
0.00147337
-0.00120775
-0.00154388
0.00156009
-0.00129544
-0.00180588
0.00164383
-0.00138183
-0.00206344
0.001726
-0.00146843
-0.0023146
0.00180716
-0.00155599
-0.00255838
0.00188858
-0.00164481
-0.00279351
0.00197065
-0.00173553
-0.00301856
0.00205327
-0.00182822
-0.00323249
0.00213721
-0.00192327
-0.00343418
0.00222245
-0.00202076
-0.00362249
0.00230927
-0.00212097
-0.00379643
0.0023976
-0.00222366
-0.00395513
0.00248813
-0.00232943
-0.00409737
0.00258018
-0.00243794
-0.00422272
0.0026748
-0.00254945