/*--------------------------------*- C++ -*----------------------------------*\
| =========                 |                                                 |
| \\      /  F ield         | OpenFOAM: The Open Source CFD Toolbox           |
|  \\    /   O peration     | Version:  2.3.0                                 |
|   \\  /    A nd           | Web:      www.OpenFOAM.org                      |
|    \\/     M anipulation  |                                                 |
\*---------------------------------------------------------------------------*/
FoamFile
{
    version     2.0;
    format      ascii;
    class       volScalarField;
    location    "10000";
    object      nuTilda;
}
// * * * * * * * * * * * * * * * * * * * * * * * * * * * * * * * * * * * * * //

dimensions      [0 2 -1 0 0 0 0];

internalField   nonuniform List<scalar> 
6669
(
0.0516549
0.0467423
0.0428918
0.0394998
0.036176
0.0330719
0.0301948
0.0275335
0.0250736
0.0228026
0.020754
0.0192983
0.0595597
0.0555438
0.052085
0.0491828
0.046831
0.045004
0.0436685
0.0427775
0.0422797
0.0421224
0.0422536
0.0426221
0.0665707
0.0637268
0.0613152
0.0593311
0.057758
0.0565686
0.05573
0.0552038
0.0549511
0.0549321
0.0551094
0.055447
0.0724316
0.0703896
0.0686647
0.067256
0.0661458
0.065311
0.0647268
0.0643674
0.0642076
0.0642238
0.0643932
0.0646947
0.0773254
0.0758155
0.0745394
0.0734944
0.0726676
0.0720433
0.0716057
0.0713388
0.0712281
0.0712593
0.0714188
0.0716935
0.0814038
0.0802562
0.0792817
0.0784761
0.0778316
0.0773397
0.0769921
0.0767807
0.0766973
0.076734
0.0768829
0.0771359
0.084807
0.0839149
0.08315
0.0825087
0.0819873
0.0815834
0.0812943
0.081118
0.081051
0.0810897
0.0812297
0.0814655
0.0876657
0.0869539
0.0863397
0.0858165
0.0853824
0.085039
0.0847894
0.0846357
0.0845785
0.084617
0.0847498
0.0849724
0.0900728
0.0894959
0.0889951
0.0885621
0.0881935
0.087894
0.0876703
0.0875309
0.0874786
0.0875143
0.0876418
0.0878552
0.0921173
0.0916383
0.0912226
0.0908637
0.0905465
0.0902824
0.0900732
0.0899422
0.0898945
0.0899204
0.0900441
0.0902513
0.0209798
0.0246741
0.0271819
0.029822
0.0329587
0.036708
0.0410674
0.0459894
0.05141
0.057254
0.0634368
0.0699093
0.0431535
0.0438996
0.0449826
0.0464563
0.0483675
0.0507524
0.0536296
0.0569964
0.0608302
0.0650898
0.0697229
0.0747105
0.0559095
0.056531
0.057379
0.058484
0.0598763
0.061584
0.0636306
0.0660319
0.0687938
0.0719109
0.0753677
0.0791739
0.0651091
0.0656565
0.0663742
0.0672797
0.0683909
0.0697251
0.0712986
0.0731254
0.0752159
0.0775759
0.0802074
0.0831342
0.0720719
0.0725659
0.0731968
0.0739743
0.0749078
0.0760064
0.0772792
0.0787354
0.0803834
0.0822305
0.0842845
0.0865715
0.0774853
0.0779382
0.0785065
0.0791946
0.0800062
0.0809449
0.0820147
0.0832196
0.0845643
0.086054
0.0876963
0.0895238
0.081792
0.0822127
0.0827339
0.0833562
0.0840794
0.0849033
0.085828
0.086854
0.0879825
0.0892153
0.090556
0.0920254
0.0852808
0.0856756
0.08616
0.0867327
0.0873898
0.0881275
0.0889446
0.089838
0.0908073
0.0918507
0.0929705
0.0941797
0.0881495
0.0885236
0.0889779
0.0895125
0.0901215
0.0907893
0.0915268
0.0923153
0.0931668
0.094064
0.0950186
0.0960348
0.0905377
0.0908972
0.0913248
0.0918281
0.0924098
0.0930094
0.0936971
0.0943891
0.0951625
0.0959345
0.0967673
0.0976273
0.0804225
0.0691633
0.058873
0.0495183
0.04114
0.0338037
0.0275765
0.0226875
0.0191619
0.0158948
0.0125317
0.00882024
0.0898979
0.0810279
0.0728779
0.0654475
0.0587042
0.052473
0.0465758
0.0409011
0.03538
0.0298713
0.024216
0.018255
0.100766
0.0936983
0.0867853
0.0800507
0.0734919
0.067065
0.0606895
0.0542698
0.04771
0.0409248
0.0338299
0.0263517
0.10997
0.103683
0.0973176
0.0908925
0.0844121
0.0778442
0.0711327
0.0642058
0.0569837
0.0493864
0.0413407
0.0327799
0.117206
0.111392
0.105378
0.0991711
0.092764
0.086122
0.0791939
0.0719157
0.0642137
0.0560107
0.0472307
0.0378033
0.122891
0.117436
0.111701
0.105682
0.0993569
0.0926853
0.0856132
0.0780765
0.0700006
0.0613066
0.0519156
0.0417499
0.1274
0.122254
0.116765
0.11092
0.104684
0.0980088
0.0908368
0.0830983
0.0747166
0.0656098
0.0556925
0.0448839
0.131026
0.126155
0.120892
0.11521
0.109065
0.102403
0.0951564
0.0872533
0.0786134
0.0691492
0.0587723
0.0473976
0.133963
0.129354
0.124301
0.118772
0.11272
0.10608
0.0987774
0.0907347
0.0818668
0.072086
0.061304
0.0494357
0.136401
0.132015
0.127148
0.121761
0.115807
0.109198
0.101855
0.0936896
0.0846075
0.0745277
0.0633839
0.0511152
0.00460986
0.00172756
0.00187482
0.00252813
0.00342041
0.0047498
0.00653931
0.00879676
0.0115976
0.0150206
0.0191504
0.0240818
0.0116575
0.0050565
0.00260424
0.003308
0.00445567
0.00595147
0.0078481
0.0101437
0.0128992
0.0161789
0.020058
0.0246236
0.0181977
0.00938881
0.00397744
0.00421893
0.0055847
0.00723636
0.00922616
0.0115487
0.0142502
0.0173845
0.0210186
0.0252353
0.0234492
0.0132904
0.00577147
0.00520191
0.00672293
0.00852204
0.0105894
0.0129289
0.0155754
0.0185736
0.021976
0.0258288
0.0275141
0.0163858
0.00759032
0.00623001
0.00785002
0.00976964
0.0119008
0.0142494
0.0168419
0.0197127
0.0229021
0.0264646
0.0306426
0.0187496
0.00920421
0.00726699
0.00894238
0.0109597
0.0131423
0.0154944
0.0180352
0.0207896
0.0237896
0.0270798
0.0330637
0.0205451
0.0105575
0.00827574
0.00998416
0.0120808
0.0143051
0.0166571
0.0191489
0.0217978
0.024626
0.0276629
0.0349511
0.0219128
0.0116719
0.00922921
0.0109654
0.0131279
0.0153868
0.0177361
0.0201823
0.0227353
0.0254099
0.028229
0.036446
0.0229669
0.0125901
0.0101262
0.0118912
0.0141017
0.0163876
0.0187343
0.0211388
0.0236027
0.0261316
0.0287262
0.0377575
0.0240166
0.0134697
0.0108929
0.012656
0.0149639
0.0173138
0.019652
0.0219687
0.0243352
0.0267213
0.0292007
0.000826533
0.00281362
0.00621607
0.0101043
0.0141716
0.0184165
0.0228098
0.0273044
0.031838
0.0363084
0.0408429
0.0458989
0.000629119
0.00166305
0.00418127
0.00757118
0.0110957
0.0147855
0.0187094
0.0229177
0.0273735
0.0319917
0.0367282
0.0417605
0.000359148
0.00101834
0.00260178
0.0050958
0.00874847
0.0131872
0.0174914
0.0217022
0.0259022
0.0301517
0.0345121
0.0391356
0.000377289
0.000803908
0.00205203
0.00402828
0.00698367
0.0112459
0.016054
0.0208562
0.0255091
0.0299008
0.034033
0.0380831
0.000339154
0.000706548
0.00177563
0.00346944
0.00598173
0.00959097
0.0145497
0.0197756
0.0249658
0.0299233
0.0343986
0.0382774
0.000331219
0.000636911
0.0015896
0.00310383
0.00535182
0.00858664
0.0131474
0.0186134
0.0242058
0.0297065
0.0348015
0.0390776
0.000320759
0.000592214
0.001467
0.00284975
0.00490417
0.00785222
0.0120025
0.0175053
0.0233844
0.0293
0.0349751
0.0399369
0.000315965
0.000560116
0.00137918
0.00266963
0.00458859
0.0073366
0.0111996
0.0165114
0.0225801
0.0288221
0.0349712
0.0406167
0.000312648
0.00053715
0.00131439
0.00253687
0.00435658
0.00695808
0.0106104
0.0156672
0.0218469
0.0283564
0.0348952
0.0411129
0.000311465
0.000521374
0.00126427
0.00243421
0.00417731
0.00666547
0.0101531
0.0149831
0.0211948
0.0279281
0.0347981
0.0414828
0.000311728
0.000512207
0.00122439
0.00235243
0.00403482
0.0064332
0.00979069
0.0144362
0.0206059
0.0275246
0.034694
0.0418172
0.000313041
0.000507953
0.0011915
0.00228463
0.00391653
0.00624036
0.00948997
0.0139824
0.0200493
0.0271037
0.0345207
0.0419707
0.000314944
0.000506503
0.0011644
0.00222798
0.00381691
0.00607681
0.00923345
0.0135933
0.019525
0.0266684
0.0343021
0.0420662
0.000317159
0.00050647
0.00114217
0.00218084
0.0037333
0.00593827
0.00901405
0.0132574
0.0190462
0.0262342
0.0340539
0.0420907
0.000319537
0.00050728
0.00112405
0.00214186
0.00366358
0.00582172
0.0088277
0.0129689
0.0186206
0.0258107
0.033784
0.0420598
0.000322037
0.000508651
0.00110951
0.00211008
0.00360587
0.00572462
0.00867129
0.0127246
0.0182531
0.0254109
0.0335042
0.041985
0.000324631
0.000510342
0.00109805
0.00208491
0.00355867
0.00564478
0.00854204
0.0125217
0.0179446
0.025052
0.0332407
0.0419022
0.000327291
0.000512112
0.00108894
0.00206483
0.00352033
0.00557973
0.00843636
0.012355
0.0176895
0.0247415
0.0330145
0.0418522
0.000329985
0.000513841
0.00108161
0.00204857
0.00348913
0.00552667
0.00834989
0.0122182
0.0174791
0.0244764
0.0328293
0.041857
0.000332682
0.000515462
0.00107561
0.00203517
0.00346338
0.00548287
0.00827829
0.0121041
0.0173013
0.0242403
0.0326546
0.0418341
0.000335354
0.000516923
0.0010706
0.00202394
0.00344179
0.00544633
0.00821886
0.0120096
0.017154
0.0240387
0.0325077
0.0418482
0.000337975
0.000518204
0.0010663
0.0020142
0.00342301
0.0054146
0.00816758
0.0119289
0.0170294
0.0238665
0.0323854
0.0418838
0.000340526
0.000519329
0.00106257
0.0020056
0.00340629
0.00538626
0.00812174
0.0118571
0.0169193
0.023713
0.0322758
0.041926
0.000342997
0.000520341
0.00105931
0.00199793
0.00339115
0.00536032
0.00807947
0.0117904
0.0168171
0.0235685
0.0321658
0.0419612
0.000345381
0.000521264
0.0010565
0.00199109
0.00337744
0.00533653
0.00804029
0.011728
0.0167196
0.0234258
0.0320421
0.0419695
0.000347682
0.000522159
0.00105418
0.00198517
0.00336519
0.00531488
0.00800436
0.0116705
0.0166297
0.0232908
0.0319102
0.0419582
0.000349926
0.000523088
0.00105247
0.00198029
0.00335444
0.00529519
0.00797096
0.0116167
0.016546
0.0231661
0.0317795
0.041917
0.000352096
0.000524134
0.00105153
0.00197682
0.00334587
0.00527829
0.0079408
0.0115666
0.0164673
0.0230504
0.0316623
0.0418987
0.000354202
0.000525258
0.00105134
0.00197489
0.00333998
0.00526527
0.00791543
0.0115214
0.016392
0.0229346
0.0315383
0.0419071
0.000356325
0.000526491
0.00105209
0.00197476
0.00333705
0.00525683
0.00789661
0.0114843
0.0163246
0.0228195
0.0313817
0.0418139
0.000358448
0.00052789
0.00105373
0.00197644
0.00333726
0.00525335
0.00788558
0.011459
0.0162739
0.022726
0.0312397
0.0416869
0.000360538
0.000529453
0.00105631
0.00198
0.00334079
0.00525514
0.0078826
0.0114463
0.0162431
0.0226648
0.0311474
0.0416363
0.000362637
0.000531135
0.00105995
0.00198564
0.00334781
0.00526217
0.00788722
0.0114446
0.0162287
0.0226283
0.0310912
0.0416288
0.0003648
0.000532882
0.00106491
0.00199373
0.00335868
0.00527496
0.00790001
0.0114539
0.0162292
0.0226124
0.0310616
0.0416528
0.000367025
0.000534704
0.0010712
0.0020044
0.00337384
0.00529406
0.00792173
0.0114754
0.0162454
0.022616
0.0310543
0.0416998
0.000369286
0.000536598
0.0010788
0.00201768
0.0033935
0.00532007
0.00795332
0.0115103
0.0162791
0.022641
0.0310691
0.0417619
0.000371506
0.00053852
0.00108765
0.00203357
0.00341769
0.00535314
0.00799529
0.0115598
0.0163324
0.022691
0.031112
0.0418461
0.000373742
0.000540401
0.00109793
0.00205219
0.00344642
0.0053934
0.00804802
0.0116246
0.016407
0.0227698
0.0311912
0.0419723
0.000376027
0.000542079
0.00110955
0.00207343
0.00347966
0.00544063
0.00811132
0.011705
0.0165034
0.0228783
0.0313092
0.0421476
0.000378271
0.000543596
0.0011224
0.00209713
0.00351715
0.00549467
0.00818487
0.0118003
0.0166211
0.0230161
0.0314648
0.0423654
0.000380392
0.000544895
0.00113644
0.00212314
0.00355856
0.00555488
0.00826783
0.0119097
0.0167589
0.0231816
0.0316561
0.0426274
0.000382414
0.000545938
0.00115186
0.00215155
0.00360366
0.00562078
0.0083594
0.0120319
0.0169162
0.0233754
0.031884
0.0429254
0.000384363
0.000546591
0.00116867
0.0021824
0.00365253
0.00569192
0.00845833
0.0121647
0.0170891
0.0235937
0.0321499
0.0432655
0.00038616
0.000546984
0.00118702
0.00221594
0.00370554
0.00576887
0.00856479
0.0123071
0.0172746
0.0238309
0.0324499
0.0436792
0.000387729
0.000547197
0.00120686
0.00225222
0.0037629
0.00585195
0.00867917
0.0124588
0.0174703
0.0240784
0.0327602
0.0440994
0.000389126
0.000547224
0.00122826
0.00229143
0.00382489
0.00594189
0.00880272
0.0126215
0.017677
0.0243334
0.0330691
0.044491
0.000390504
0.00054767
0.00125161
0.0023339
0.00389199
0.00603959
0.00893737
0.0127989
0.0179013
0.0246051
0.0333847
0.0448595
0.000391967
0.000549605
0.00127659
0.00237927
0.00396403
0.00614518
0.00908403
0.0129936
0.0181491
0.0249067
0.0337296
0.0452179
0.000393637
0.000554495
0.00130308
0.00242762
0.00404107
0.00625831
0.00924192
0.0132051
0.0184217
0.0252452
0.0341319
0.0456698
0.00039556
0.000562734
0.00133093
0.00247856
0.00412247
0.00637843
0.00941028
0.0134317
0.018716
0.0256148
0.0345827
0.0462185
0.000397509
0.000573333
0.00136006
0.00253212
0.00420801
0.00650486
0.00958788
0.0136717
0.0190295
0.0260089
0.0350562
0.0467466
0.000399161
0.00058537
0.001391
0.00258856
0.00429768
0.00663739
0.00977473
0.0139251
0.0193623
0.0264334
0.0355795
0.0473646
0.000400338
0.000598259
0.00142339
0.00264759
0.00439161
0.00677589
0.00996928
0.0141888
0.0197091
0.0268783
0.0361368
0.0480453
0.000401144
0.00061188
0.00145741
0.00270959
0.00448996
0.00692053
0.0101716
0.0144615
0.0200663
0.0273349
0.0367105
0.0487649
0.000401509
0.000626219
0.00149305
0.00277455
0.00459271
0.00707136
0.0103819
0.0147437
0.0204328
0.0277961
0.0372752
0.0494396
0.000401326
0.00064153
0.00153087
0.00284291
0.00470026
0.00722907
0.010602
0.015038
0.0208128
0.0282709
0.0378462
0.050091
0.000400457
0.000657621
0.00157064
0.00291461
0.00481319
0.00739435
0.0108316
0.015345
0.0212091
0.0287663
0.0384434
0.0507769
0.000398965
0.000674829
0.00161275
0.0029903
0.00493177
0.00756707
0.0110709
0.015664
0.0216201
0.0292797
0.0390676
0.0515205
0.00039678
0.000693044
0.00165702
0.0030698
0.00505607
0.00774801
0.0113205
0.0159946
0.0220434
0.0298035
0.0396938
0.0522407
0.000393745
0.000712632
0.00170406
0.00315385
0.00518713
0.00793826
0.0115827
0.0163406
0.0224828
0.0303428
0.0403316
0.0529645
0.00038972
0.000733516
0.00175412
0.00324288
0.00532548
0.00813885
0.0118584
0.0167031
0.0229415
0.0309014
0.0409843
0.0536891
0.000384636
0.000755956
0.00180742
0.00333756
0.00547244
0.00835111
0.0121491
0.0170845
0.0234222
0.0314838
0.0416598
0.0544314
0.000378481
0.000780115
0.00186409
0.00343811
0.00562824
0.00857617
0.0124567
0.0174864
0.0239273
0.0320935
0.042364
0.0552036
0.000371289
0.00080639
0.00192484
0.00354565
0.00579432
0.00881527
0.0127829
0.017912
0.0244599
0.0327332
0.0430979
0.0559988
0.000363323
0.000835547
0.00199114
0.00366184
0.00597269
0.00907077
0.0131305
0.018364
0.0250236
0.033407
0.0438649
0.0568194
0.000355653
0.000868295
0.00206385
0.00378887
0.00616765
0.00934615
0.0135024
0.0188456
0.0256218
0.0341188
0.0446721
0.0576772
0.000350471
0.00090604
0.00214443
0.00392934
0.00638279
0.00964891
0.0139061
0.0193629
0.0262599
0.0348736
0.0455253
0.0585967
0.000350481
0.000950291
0.00223553
0.00408782
0.00662551
0.00999041
0.0143564
0.0199305
0.0269495
0.0356785
0.0464201
0.0595287
0.000351206
0.00100153
0.00234023
0.00426974
0.00690433
0.0103839
0.0148767
0.0205789
0.0277189
0.0365571
0.0473789
0.0605157
0.000314242
0.00105497
0.00246124
0.00448297
0.00723279
0.0108484
0.0154919
0.0213485
0.0286253
0.0375591
0.048437
0.0615884
0.000232104
0.001114
0.00260692
0.0047425
0.00763292
0.0114147
0.0162437
0.0222912
0.029741
0.0387904
0.0496642
0.0626656
0.00023949
0.00119941
0.00279834
0.0050761
0.00814397
0.0121354
0.0171986
0.0234899
0.0311675
0.0403894
0.0513222
0.0641886
0.000257164
0.00131222
0.00305647
0.0055281
0.00883556
0.0131065
0.0184782
0.0250881
0.033066
0.0425274
0.0535841
0.0663956
0.000282718
0.00144753
0.00340531
0.00617482
0.00985009
0.0145397
0.0203543
0.0273954
0.0357607
0.0455136
0.0567025
0.0694168
0.000341125
0.00205367
0.00461424
0.00799842
0.0122532
0.0175077
0.0238696
0.0314104
0.0401586
0.0501279
0.0613076
0.0737387
0.000863417
0.00386542
0.00778055
0.0124254
0.0177012
0.0235006
0.0297577
0.0364081
0.0433899
0.0506293
0.0580621
0.0656455
0.000354274
0.0021177
0.00492263
0.00860116
0.0131169
0.0184251
0.0244616
0.0311437
0.0383716
0.0460313
0.0540097
0.0621785
0.000453037
0.00179012
0.00412672
0.00721689
0.0111154
0.0158461
0.0214073
0.0277629
0.0348378
0.0425202
0.050664
0.0590624
0.000547945
0.00154092
0.00355881
0.00626541
0.00974186
0.0140431
0.0192048
0.025229
0.0320736
0.0396451
0.0477938
0.0562953
0.000589261
0.0013404
0.00312692
0.00555817
0.00872189
0.0126883
0.0175149
0.0232315
0.0298261
0.0372324
0.0453229
0.0539091
0.000610516
0.00120146
0.00281662
0.00503929
0.00795699
0.0116488
0.0161865
0.0216208
0.0279649
0.0351793
0.0431595
0.0517185
0.000619774
0.00109934
0.002581
0.0046389
0.00735691
0.0108193
0.0151081
0.0202888
0.0263949
0.0334122
0.0412639
0.049805
0.000625062
0.00101887
0.00239136
0.00431475
0.00686682
0.0101353
0.0142085
0.0191627
0.0250479
0.0318703
0.0395743
0.0480196
0.000629009
0.000953703
0.00223571
0.00404573
0.00645743
0.00955956
0.0134445
0.0181967
0.0238787
0.0305146
0.0380726
0.0464535
0.000632171
0.000900234
0.00210655
0.00381821
0.00610952
0.00906735
0.0127866
0.0173578
0.0228536
0.0293122
0.0367198
0.0449853
0.000634884
0.00085567
0.00199683
0.00362266
0.00580926
0.00864035
0.0122126
0.0166207
0.0219446
0.0282342
0.0354874
0.0436208
0.000637406
0.000817821
0.00190185
0.00345213
0.00554648
0.00826532
0.0117061
0.0159662
0.0211319
0.0272626
0.0343718
0.0424061
0.000639735
0.000785199
0.00181857
0.00330171
0.00531423
0.00793277
0.0112551
0.0153809
0.0204015
0.0263855
0.0333624
0.0413057
0.000641908
0.000756811
0.00174481
0.00316775
0.00510712
0.00763549
0.0108506
0.0148542
0.0197415
0.0255894
0.0324396
0.0402793
0.000643956
0.000732298
0.00167921
0.0030485
0.00492107
0.00736784
0.0104857
0.0143776
0.0191432
0.0248678
0.0316125
0.0394197
0.000646572
0.000716634
0.00162064
0.00294184
0.00475283
0.00712529
0.0101543
0.0139439
0.018597
0.0242043
0.0308285
0.0384581
0.000650692
0.000714717
0.00156807
0.00284554
0.00459983
0.00690432
0.00985178
0.0135468
0.018094
0.0235865
0.0300858
0.0375875
0.000655916
0.000720502
0.00152068
0.00275801
0.00446006
0.00670211
0.00957443
0.0131818
0.0176307
0.0230193
0.0294286
0.0369415
0.000661353
0.000728011
0.0014778
0.00267801
0.0043318
0.00651634
0.00931925
0.0128455
0.0172035
0.0224965
0.0288119
0.0361888
0.000666492
0.000734825
0.00143885
0.00260457
0.00421358
0.00634494
0.00908355
0.0125343
0.0168072
0.0220075
0.0282189
0.0354573
0.000671188
0.000740483
0.00140327
0.00253683
0.00410416
0.00618614
0.00886487
0.012245
0.0164369
0.0215457
0.0276514
0.0347704
0.000675458
0.000745058
0.00137066
0.0024741
0.00400245
0.00603846
0.00866117
0.0119747
0.0160891
0.021109
0.0271153
0.0341417
0.000679341
0.00074872
0.00134069
0.00241608
0.0039086
0.00590072
0.00847074
0.0117211
0.0157615
0.0206967
0.0266117
0.0335551
0.000682916
0.000751758
0.00131342
0.00236237
0.00382155
0.00577183
0.00829203
0.0114825
0.0154524
0.0203076
0.0261373
0.0329975
0.00068629
0.000754524
0.00129077
0.00231255
0.00374031
0.00565082
0.00812384
0.0112575
0.0151607
0.0199402
0.0256889
0.0324677
0.0006896
0.000758212
0.00127831
0.00226643
0.0036642
0.00553692
0.00796523
0.011045
0.0148847
0.0195921
0.0252619
0.031955
0.00069303
0.000763701
0.00127727
0.00222378
0.00359264
0.00542945
0.00781534
0.0108439
0.0146234
0.0192628
0.0248611
0.031501
0.00069668
0.000770976
0.00128308
0.00218446
0.00352532
0.00532786
0.00767358
0.0106537
0.0143763
0.0189518
0.0244836
0.0310581
0.000700521
0.000779091
0.00129126
0.00214815
0.00346182
0.00523171
0.00753931
0.0104736
0.0141424
0.0186573
0.0241236
0.0306218
0.000704261
0.000787065
0.00129912
0.00211432
0.00340182
0.00514055
0.00741201
0.0103027
0.0139203
0.0183769
0.0237769
0.0301949
0.000707858
0.000794547
0.00130577
0.00208264
0.00334507
0.00505411
0.00729119
0.0101405
0.0137093
0.0181101
0.02345
0.0298258
0.000711411
0.000801419
0.00131104
0.00205292
0.00329141
0.0049722
0.00717634
0.00998627
0.0135086
0.0178562
0.0231384
0.0294457
0.000714863
0.000807564
0.00131505
0.00202501
0.00324064
0.00489486
0.00706714
0.00983946
0.0133173
0.017614
0.0228387
0.0290757
0.0007181
0.000812989
0.00131785
0.00199869
0.00319266
0.00482169
0.00696321
0.00969956
0.0131347
0.0173813
0.0225449
0.0286949
0.000721158
0.000817807
0.0013196
0.0019738
0.0031473
0.00475237
0.00686425
0.00956613
0.0129605
0.0171597
0.0222752
0.0284272
0.00072411
0.000822175
0.00132053
0.00195038
0.00310437
0.00468641
0.00676984
0.00943879
0.0127937
0.0169474
0.0220107
0.028067
0.000727067
0.000826264
0.00132087
0.00192843
0.00306362
0.00462363
0.00667974
0.009317
0.0126347
0.0167461
0.0217693
0.0278453
0.00073
0.000829984
0.00132074
0.00190821
0.00302495
0.00456382
0.00659379
0.00920102
0.0124833
0.0165549
0.0215351
0.0275266
0.000732788
0.000833384
0.0013205
0.0018909
0.00298829
0.00450697
0.00651178
0.00909019
0.0123389
0.0163722
0.0213092
0.0272614
0.000735509
0.000836749
0.00132087
0.00187875
0.00295381
0.00445276
0.00643343
0.00898448
0.0122009
0.0161973
0.0210913
0.0269857
0.000738356
0.000840364
0.00132275
0.00187327
0.00292141
0.00440104
0.00635862
0.00888351
0.0120693
0.0160292
0.0208782
0.0267098
0.000741329
0.000844389
0.00132665
0.00187385
0.0028912
0.00435179
0.00628743
0.00878752
0.0119437
0.0158695
0.020687
0.0265496
0.00074428
0.000848682
0.00133242
0.00187845
0.00286317
0.00430518
0.00621952
0.00869566
0.0118239
0.0157189
0.0205083
0.0263326
0.000747256
0.000853533
0.00133962
0.00188525
0.00283718
0.00426058
0.00615462
0.0086079
0.0117097
0.0155756
0.0203332
0.0260967
0.000750612
0.000858793
0.00134773
0.00189279
0.00281305
0.00421833
0.00609296
0.00852404
0.0116007
0.0154383
0.0201608
0.0258681
0.000754028
0.000864337
0.00135648
0.00190038
0.0027904
0.00417824
0.00603462
0.00844424
0.0114967
0.0153056
0.0199889
0.0256292
0.000757353
0.00086969
0.00136511
0.00190751
0.00276919
0.00414026
0.00597907
0.00836824
0.0113973
0.0151774
0.0198237
0.0254342
0.0007607
0.000874908
0.00137336
0.00191409
0.0027494
0.00410442
0.00592651
0.00829562
0.0113017
0.0150538
0.0196652
0.0252339
0.000764224
0.000880098
0.00138123
0.00191997
0.00273094
0.00407054
0.00587639
0.00822613
0.01121
0.0149347
0.0195121
0.0250371
0.00076782
0.000885138
0.00138883
0.00192534
0.00271353
0.00403845
0.00582893
0.00815994
0.0111222
0.01482
0.0193634
0.0248431
0.000771351
0.000889998
0.00139597
0.00193003
0.00269719
0.00400811
0.00578369
0.00809688
0.0110382
0.0147099
0.0192212
0.0246709
0.000774905
0.000894546
0.00140248
0.00193411
0.00268185
0.00397956
0.00574093
0.00803664
0.0109577
0.0146045
0.0190864
0.0245078
0.000778663
0.00089906
0.00140859
0.00193781
0.00266757
0.00395249
0.00570024
0.00797916
0.0108808
0.014504
0.018959
0.0243544
0.000782525
0.000903458
0.00141442
0.00194114
0.00265445
0.00392716
0.00566169
0.00792451
0.0108078
0.0144088
0.0188383
0.0242038
0.000786375
0.00090774
0.00142003
0.00194417
0.00264225
0.00390336
0.00562546
0.00787313
0.0107388
0.0143186
0.0187238
0.0240602
0.000790271
0.000911888
0.0014253
0.00194698
0.00263126
0.00388103
0.00559132
0.0078245
0.0106735
0.0142335
0.0186146
0.0239178
0.000794425
0.000915981
0.00143025
0.00194973
0.00262177
0.00386034
0.00555939
0.00777867
0.0106121
0.0141534
0.0185127
0.0238019
0.0007988
0.000920096
0.00143515
0.00195261
0.00261428
0.00384128
0.00552954
0.00773581
0.0105546
0.0140786
0.0184191
0.0236911
0.000803219
0.000924227
0.00144018
0.00195588
0.002609
0.00382387
0.00550213
0.00769628
0.0105016
0.0140096
0.018332
0.0235787
0.000807758
0.00092838
0.00144523
0.00195972
0.00260639
0.00380818
0.00547691
0.00766002
0.0104527
0.013946
0.0182503
0.0234746
0.000812605
0.000932559
0.00145039
0.0019644
0.00260666
0.00379462
0.00545444
0.00762735
0.0104086
0.0138889
0.0181817
0.0234227
0.000817816
0.00093703
0.00145594
0.00197001
0.00260955
0.00378309
0.00543453
0.00759841
0.0103692
0.0138378
0.0181168
0.0233118
0.000823345
0.000941645
0.00146201
0.00197666
0.00261447
0.00377367
0.00541748
0.00757345
0.0103352
0.0137945
0.0180685
0.0233133
0.000829106
0.000946494
0.00146856
0.00198414
0.00262114
0.0037666
0.00540381
0.00755323
0.0103073
0.0137592
0.0180252
0.0232088
0.000835294
0.000951508
0.00147537
0.00199234
0.00262911
0.00376203
0.00539355
0.00753755
0.0102855
0.0137315
0.0179899
0.0231819
0.000842104
0.000956882
0.00148272
0.00200131
0.00263813
0.00375999
0.005387
0.00752696
0.0102704
0.013712
0.0179638
0.0231344
0.000849334
0.000962389
0.00149043
0.0020108
0.00264811
0.00376102
0.00538472
0.00752224
0.0102629
0.0137016
0.0179479
0.0231091
0.000857196
0.000968364
0.0014987
0.00202079
0.00265876
0.00376547
0.00538767
0.00752447
0.0102644
0.0137017
0.0179434
0.0230926
0.000865993
0.000974669
0.00150726
0.00203118
0.00267022
0.00377375
0.00539636
0.00753476
0.0102758
0.0137138
0.0179542
0.0231118
0.000875913
0.00098132
0.0015162
0.00204206
0.00268267
0.00378699
0.00541238
0.00755439
0.0102991
0.0137404
0.0179846
0.023153
0.000887092
0.000988164
0.00152536
0.00205324
0.00269633
0.003806
0.00543698
0.00758563
0.0103371
0.013785
0.0180349
0.0231937
0.000900083
0.000996705
0.00153638
0.00206613
0.0027127
0.0038349
0.00547525
0.00763371
0.0103952
0.0138527
0.0181129
0.0233009
0.000914382
0.00100043
0.00154339
0.00207585
0.00272773
0.0038677
0.00552242
0.0076963
0.010473
0.0139454
0.0182162
0.0233673
0.000957273
0.00103994
0.00157599
0.0021105
0.00277718
0.00395674
0.00563223
0.00782301
0.010613
0.0140937
0.0183695
0.023567
0.000627577
0.000893547
0.00151478
0.00204319
0.00270172
0.00389681
0.00558878
0.00780324
0.0106255
0.0141498
0.0184752
0.0236624
0.1284
0.138253
0.103318
0.137885
0.0782985
0.165243
0.0925965
0.139398
0.129871
0.0913283
0.107376
0.0867112
0.0481448
0.137473
0.136016
0.107236
0.121663
0.0549622
0.137134
0.145589
0.0612758
0.137035
0.0970232
0.0850237
0.135433
0.0385741
0.0783994
0.167202
0.0844489
0.154524
0.129955
0.0909123
0.121227
0.164009
0.137845
0.0611707
0.0660959
0.0883981
0.0732708
0.152147
0.0846038
0.138115
0.139439
0.137881
0.0575032
0.136886
0.12274
0.097843
0.138523
0.0800272
0.058722
0.13978
0.114107
0.350348
0.115775
0.0953669
0.139713
0.129184
0.189855
0.0907023
0.134187
0.137439
0.0537958
0.100576
0.127445
0.130248
0.116061
0.0993912
0.144051
0.0731819
0.132596
0.139547
0.135187
0.138299
0.0790208
0.140662
0.197817
0.0653637
0.192606
0.0462968
0.0975286
0.113216
0.137252
0.0855363
0.0998948
0.134235
0.0673324
0.374619
0.234935
0.138876
0.133885
0.0778198
0.0762244
0.167632
0.142524
0.248409
0.0973245
0.119572
0.138075
0.111477
0.101448
0.13771
0.137384
0.0632651
0.0989575
0.0688637
0.129287
0.0883468
0.139088
0.0388668
0.0916697
0.139517
0.132754
0.101732
0.137852
0.108011
0.110217
0.13031
0.135701
0.133957
0.109723
0.103267
0.0634435
0.137973
0.106471
0.127469
0.166516
0.114731
0.115718
0.136698
0.0754557
0.116028
0.139305
0.106063
0.0471804
0.0699818
0.133611
0.125025
0.144178
0.130505
0.131701
0.0481584
0.0767864
0.134398
0.133162
0.0600229
0.153948
0.0999659
0.125631
0.123402
0.135161
0.126486
0.129238
0.117184
0.139951
0.135823
0.14642
0.120854
0.118624
0.112331
0.0955017
0.136051
0.114493
0.278808
0.13201
0.03535
0.140666
0.171356
0.101763
0.140063
0.120221
0.09385
0.0386802
0.0729183
0.137762
0.0690479
0.110232
0.0996099
0.139988
0.160313
0.138653
0.135734
0.139378
0.0549336
0.0947171
0.136809
0.0686527
0.18721
0.121339
0.0683281
0.136739
0.0532418
0.0993198
0.135213
0.139696
0.147978
0.1396
0.0553415
0.1362
0.123896
0.162165
0.0544186
0.138847
0.137235
0.0944945
0.134923
0.137654
0.138726
0.0288844
0.136935
0.198303
0.0767845
0.116886
0.0953781
0.0969455
0.0642406
0.103519
0.0939939
0.0632255
0.11373
0.0840181
0.131276
0.086542
0.191038
0.140019
0.136039
0.2245
0.140928
0.0569308
0.0502818
0.0771491
0.13386
0.103911
0.112303
0.140044
0.117578
0.117814
0.0977754
0.139097
0.0865358
0.0794644
0.22635
0.138058
0.087477
0.124439
0.0530961
0.138576
0.0549387
0.143181
0.055507
0.0989111
0.143623
0.130031
0.133778
0.139376
0.130901
0.146691
0.0852585
0.219268
0.052156
0.085609
0.110273
0.111086
0.0718882
0.133795
0.137467
0.0931939
0.144058
0.0449684
0.088578
0.0885412
0.135995
0.0828897
0.149278
0.379591
0.140007
0.137909
0.0849989
0.146545
0.0635454
0.13986
0.130863
0.187617
0.050762
0.119905
0.0448253
0.0889075
0.132141
0.135639
0.0377485
0.139568
0.137233
0.123666
0.0999593
0.139241
0.0300495
0.0805076
0.132541
0.225592
0.0885867
0.116676
0.129
0.0696641
0.0927826
0.138896
0.413515
0.0527435
0.132477
0.101509
0.105574
0.121373
0.0922194
0.0688634
0.286801
0.222356
0.0971163
0.132763
0.138154
0.137766
0.137359
0.0583989
0.133708
0.138112
0.140045
0.106184
0.140067
0.0917991
0.176831
0.107398
0.0840325
0.139897
0.153112
0.219341
0.0424089
0.123297
0.0991239
0.18253
0.134615
0.138576
0.120696
0.136163
0.095393
0.129466
0.13271
0.12082
0.119328
0.114428
0.185894
0.138115
0.116674
0.138421
0.139886
0.134575
0.124695
0.139118
0.138188
0.137489
0.10497
0.139954
0.131213
0.129904
0.138216
0.135019
0.0940153
0.185244
0.140023
0.125747
0.0752773
0.0984956
0.0957711
0.131171
0.121022
0.127923
0.121579
0.0875198
0.138513
0.138279
0.0345771
0.138246
0.104625
0.109127
0.148083
0.0752551
0.133978
0.13508
0.132023
0.138243
0.232808
0.137531
0.0648011
0.121771
0.0966748
0.1152
0.138876
0.17153
0.129208
0.130754
0.136809
0.138618
0.111373
0.147982
0.184583
0.0579364
0.0732862
0.299857
0.117188
0.0909074
0.112823
0.100717
0.140074
0.116037
0.061123
0.131283
0.132792
0.0683467
0.140089
0.13076
0.0602664
0.125188
0.104214
0.0843356
0.127508
0.127266
0.106726
0.0797427
0.0750258
0.228767
0.138304
0.136935
0.0267943
0.0666025
0.0929298
0.106769
0.138699
0.135533
0.139975
0.119035
0.135432
0.142219
0.132289
0.0382658
0.100878
0.0362802
0.212979
0.115895
0.137873
0.0636438
0.139215
0.123779
0.198478
0.10791
0.137217
0.0500512
0.128816
0.0417586
0.132694
0.103136
0.125505
0.110621
0.102297
0.0953422
0.13883
0.184695
0.136558
0.138681
0.217268
0.0579109
0.129223
0.138718
0.0440962
0.137767
0.139474
0.0435905
0.0909276
0.128745
0.100908
0.140044
0.134921
0.254852
0.140043
0.0858398
0.131929
0.102336
0.131249
0.139478
0.198997
0.138912
0.13068
0.131172
0.0963451
0.127615
0.140126
0.13992
0.128469
0.118267
0.140033
0.237302
0.104369
0.136019
0.117967
0.127597
0.0330466
0.0606086
0.129216
0.113732
0.106396
0.071571
0.120123
0.117043
0.129077
0.0634868
0.0882709
0.104949
0.138533
0.145758
0.112829
0.0571691
0.135676
0.111172
0.10507
0.360525
0.1233
0.11915
0.175713
0.120488
0.0476314
0.138134
0.0959132
0.160624
0.146764
0.0289215
0.147392
0.10611
0.13997
0.0338172
0.217888
0.0916253
0.138489
0.0303477
0.072521
0.120296
0.0539135
0.0934822
0.0664082
0.105794
0.068382
0.0323288
0.0846571
0.135633
0.139931
0.138919
0.157379
0.0429804
0.10739
0.137886
0.136473
0.138302
0.128932
0.037858
0.0871716
0.136101
0.0287983
0.123638
0.126436
0.140044
0.138923
0.0450904
0.137282
0.137042
0.119991
0.134607
0.10761
0.102702
0.140091
0.123427
0.126605
0.0919597