/*--------------------------------*- C++ -*----------------------------------*\
| =========                 |                                                 |
| \\      /  F ield         | OpenFOAM: The Open Source CFD Toolbox           |
|  \\    /   O peration     | Version:  2.3.0                                 |
|   \\  /    A nd           | Web:      www.OpenFOAM.org                      |
|    \\/     M anipulation  |                                                 |
\*---------------------------------------------------------------------------*/
FoamFile
{
    version     2.0;
    format      ascii;
    class       volVectorField;
    location    "8000";
    object      U;
}
// * * * * * * * * * * * * * * * * * * * * * * * * * * * * * * * * * * * * * //

dimensions      [0 1 -1 0 0 0 0];

internalField   nonuniform List<vector> 
6617
(
(21.0996 11.3882 -2.61103e-19)
(20.6028 12.2439 -3.53001e-19)
(19.9697 13.002 7.02694e-20)
(19.1152 13.6517 9.32402e-20)
(18.0304 14.2021 -1.72043e-19)
(16.7364 14.678 1.33252e-19)
(15.2729 15.1025 -5.46249e-19)
(13.6768 15.4716 0)
(11.9895 15.7678 6.12375e-20)
(10.2992 16.0471 -1.23825e-19)
(8.71282 16.4045 1.07178e-19)
(7.19783 16.5852 2.06008e-18)
(20.2535 10.8542 0)
(19.6866 11.4697 3.41308e-19)
(19.0974 12.0672 -1.43452e-18)
(18.4526 12.5932 3.2909e-18)
(17.7573 13.0266 -2.15056e-18)
(17.016 13.3431 5.44027e-19)
(16.2379 13.5287 -3.22936e-18)
(15.436 13.5749 3.17446e-18)
(14.6319 13.4779 4.69486e-18)
(13.853 13.2441 -4.49255e-18)
(13.1102 12.8903 2.78766e-18)
(12.3933 12.4351 -2.84437e-18)
(19.7647 10.3025 -8.44595e-19)
(19.2051 10.6862 -3.47785e-19)
(18.6248 11.0413 0)
(18.0031 11.3296 0)
(17.3533 11.554 2.98822e-19)
(16.6885 11.7085 -7.74712e-19)
(16.0228 11.7899 1.62607e-18)
(15.3709 11.797 -1.58004e-18)
(14.748 11.7314 -2.18911e-18)
(14.1682 11.5979 4.80064e-18)
(13.6427 11.4025 -2.30605e-18)
(13.1802 11.1516 1.64608e-19)
(19.4284 9.8361 1.3908e-18)
(18.9441 10.0914 -1.82928e-18)
(18.4572 10.3277 5.37085e-19)
(17.9593 10.5058 -3.87448e-19)
(17.4557 10.6287 0)
(16.9516 10.6939 -1.50291e-18)
(16.4533 10.7017 1.92006e-18)
(15.9677 10.6537 0)
(15.5019 10.5529 -2.94267e-19)
(15.0626 10.404 1.10888e-20)
(14.656 10.2128 0)
(14.2867 9.9863 -1.71748e-19)
(19.1873 9.36474 -5.51002e-19)
(18.7578 9.55399 -7.79485e-20)
(18.3283 9.71317 -7.20635e-20)
(17.8957 9.82669 -3.21417e-20)
(17.4637 9.89801 0)
(17.0359 9.92667 2.0157e-18)
(16.6162 9.91313 -2.01835e-18)
(16.2091 9.85856 0)
(15.8191 9.76489 2.78812e-18)
(15.4506 9.63495 -1.73289e-19)
(15.1074 9.47261 -2.30057e-18)
(14.7928 9.28247 1.82315e-18)
(19.0275 8.97927 6.46441e-19)
(18.6539 9.11009 1.48004e-18)
(18.2849 9.21803 7.80967e-19)
(17.9162 9.2908 4.26144e-19)
(17.5494 9.33061 -1.96946e-18)
(17.1865 9.33718 4.61028e-18)
(16.8298 9.31067 -4.393e-18)
(16.4819 9.25164 2.27992e-18)
(16.1459 9.16121 -1.28834e-18)
(15.8247 9.04105 1.29715e-18)
(15.5214 8.89374 1.0897e-18)
(15.2388 8.72254 -1.82582e-18)
(18.9088 8.6337 4.07185e-20)
(18.5861 8.73647 -7.79246e-19)
(18.2639 8.81096 -4.39221e-19)
(17.9413 8.85877 1.4239e-18)
(17.6193 8.88063 -1.45934e-18)
(17.2997 8.87607 -1.61307e-18)
(16.9845 8.84477 1.09813e-18)
(16.6758 8.78655 1.23705e-18)
(16.376 8.70153 -1.24947e-18)
(16.087 8.5905 0)
(15.8112 8.4551 7.16798e-19)
(15.5511 8.2979 0)
(18.8332 8.35992 -1.49543e-18)
(18.5535 8.4258 -8.7482e-19)
(18.2685 8.47434 1.32052e-18)
(17.9813 8.50469 5.13714e-19)
(17.6934 8.51471 -4.87342e-19)
(17.4062 8.50302 5.45003e-19)
(17.1209 8.46922 1.18392e-18)
(16.8401 8.41279 6.04883e-20)
(16.5664 8.33269 -1.27226e-18)
(16.3011 8.22892 2.09952e-18)
(16.0457 8.10238 -2.15894e-18)
(15.8022 7.95494 0)
(18.7824 8.11057 4.07964e-19)
(18.5368 8.15573 0)
(18.2812 8.19003 0)
(18.022 8.2103 -4.98281e-19)
(17.7605 8.21363 -5.24824e-19)
(17.4974 8.19734 -5.49322e-19)
(17.234 8.16136 -1.19697e-18)
(16.9734 8.10686 3.09618e-18)
(16.7194 8.03069 -1.28206e-18)
(16.4728 7.93237 -2.10863e-18)
(16.2348 7.81332 1.44942e-18)
(16.0052 7.67356 -7.5298e-19)
(18.7342 7.9082 4.52984e-19)
(18.5204 7.92943 -4.57839e-19)
(18.2896 7.9531 0)
(18.0558 7.96598 1.03466e-18)
(17.8174 7.96526 5.36364e-19)
(17.5741 7.94704 5.58606e-19)
(17.3299 7.90719 0)
(17.0857 7.85423 -1.21156e-21)
(16.8497 7.77981 0)
(16.6206 7.68138 0)
(16.3982 7.56663 7.28487e-19)
(16.1811 7.42868 -7.68352e-19)
(5.65387 15.8064 -5.0787e-18)
(5.55568 14.3158 7.24582e-18)
(5.74246 12.8668 -4.3354e-18)
(6.06186 11.5202 0)
(6.47357 10.2486 -2.07747e-19)
(6.97576 9.04858 -6.40046e-18)
(7.56254 7.9335 6.54893e-18)
(8.20639 6.91457 -4.98835e-18)
(8.877 6.00395 1.36644e-17)
(9.54859 5.20444 -4.43456e-20)
(10.2098 4.5228 -1.23215e-17)
(10.8684 3.96527 5.34675e-18)
(11.6989 11.897 0)
(11.1304 11.2592 -2.14237e-19)
(10.704 10.5632 2.50624e-19)
(10.4087 9.83875 -5.34412e-19)
(10.2313 9.10409 -6.28971e-19)
(10.1613 8.37322 -2.71894e-18)
(10.1915 7.6575 -3.47276e-20)
(10.3154 6.96449 1.51914e-18)
(10.5239 6.29656 2.8124e-18)
(10.8053 5.65311 0)
(11.1497 5.04992 5.6366e-18)
(11.5443 4.51393 0)
(12.7764 10.845 -1.7663e-19)
(12.4223 10.4693 0)
(12.1194 10.0235 0)
(11.875 9.52122 9.72299e-19)
(11.6936 8.97448 0)
(11.5779 8.39468 -1.07896e-18)
(11.5286 7.79327 0)
(11.5442 7.18169 -1.18901e-18)
(11.6212 6.57005 -1.36623e-18)
(11.7555 5.96704 0)
(11.9451 5.39038 -2.42814e-18)
(12.1783 4.86106 0)
(13.9511 9.7274 3.26158e-18)
(13.641 9.42999 -4.80113e-18)
(13.3584 9.09136 1.69866e-18)
(13.1098 8.71647 -2.81082e-18)
(12.9001 8.3104 3.94763e-18)
(12.7336 7.87846 -3.10934e-18)
(12.6131 7.42605 3.22921e-18)
(12.5409 6.95832 -3.40236e-18)
(12.518 6.4796 4.64255e-18)
(12.5449 5.99427 0)
(12.6231 5.51306 2.36933e-18)
(12.7475 5.04951 2.19805e-18)
(14.5043 9.06612 -1.48113e-18)
(14.2366 8.81943 -2.04208e-18)
(13.9909 8.54042 1.25163e-18)
(13.7714 8.23208 4.62434e-19)
(13.5815 7.89781 0)
(13.4237 7.54127 0)
(13.3001 7.16624 -1.05997e-18)
(13.2117 6.77638 1.06631e-18)
(13.1593 6.37484 1.04087e-18)
(13.143 5.96505 0)
(13.1628 5.55523 2.15742e-18)
(13.213 5.14866 -4.30206e-18)
(14.9763 8.52908 0)
(14.7311 8.31131 8.2299e-19)
(14.5046 8.06857 4.36428e-19)
(14.2997 7.80319 -9.18146e-19)
(14.1189 7.51777 1.8569e-18)
(13.9638 7.21525 0)
(13.8359 6.89851 0)
(13.7363 6.57005 -2.08659e-18)
(13.6653 6.23179 -3.76032e-21)
(13.6233 5.88525 1.07842e-18)
(13.6099 5.5359 -6.31315e-18)
(13.6216 5.18803 -4.63927e-20)
(15.3073 8.12076 0)
(15.0795 7.92297 -4.20275e-19)
(14.8693 7.7046 8.83133e-19)
(14.6788 7.46765 -8.88417e-19)
(14.5093 7.21448 -9.42995e-19)
(14.3618 6.94799 -9.49602e-19)
(14.2373 6.67102 -9.92391e-19)
(14.1367 6.38552 1.98283e-18)
(14.0597 6.09295 2.03483e-18)
(14.0066 5.79378 1.01164e-18)
(13.9769 5.49246 2.06976e-18)
(13.9698 5.19524 -3.9488e-18)
(15.5716 7.78939 0)
(15.3559 7.6061 0)
(15.1574 7.40553 0)
(14.9782 7.18937 0)
(14.8181 6.95957 1.82818e-20)
(14.6768 6.71914 2.03012e-20)
(14.5555 6.4722 9.74196e-19)
(14.456 6.2193 -2.93356e-18)
(14.3771 5.96242 -1.00275e-18)
(14.3197 5.70038 9.82033e-19)
(14.2798 5.43739 -1.9766e-18)
(14.252 5.17733 2.00206e-18)
(15.7833 7.51819 -7.98559e-19)
(15.576 7.3456 -8.47948e-19)
(15.3861 7.15821 8.50998e-19)
(15.2163 6.95792 1.78598e-18)
(15.0644 6.74655 1.83726e-20)
(14.9281 6.52445 0)
(14.8094 6.30149 0)
(14.7124 6.07277 5.00682e-19)
(14.6332 5.84612 -1.44394e-18)
(14.5775 5.6133 -9.72141e-19)
(14.5363 5.38377 9.82256e-19)
(14.5034 5.15477 0)
(15.9615 7.28843 2.42617e-18)
(15.7607 7.1249 -1.65e-18)
(15.5751 6.94684 -8.75579e-19)
(15.4115 6.75694 -1.36183e-18)
(15.2681 6.56446 -9.02398e-19)
(15.1351 6.35575 9.16623e-19)
(15.0175 6.15506 4.79971e-19)
(14.9235 5.93752 1.96571e-18)
(14.8454 5.74015 1.93708e-20)
(14.7926 5.52698 9.70342e-19)
(14.7541 5.329 -1.86721e-20)
(14.7223 5.11818 0)
(-3.53709 -2.60917 -3.78324e-18)
(-2.71929 -2.68245 2.33635e-18)
(-1.89069 -2.74412 -5.30184e-18)
(-1.07565 -2.7842 5.83178e-18)
(-0.283817 -2.79484 -3.96301e-18)
(0.490927 -2.77012 4.18162e-18)
(1.27635 -2.70574 -3.55816e-18)
(2.1384 -2.60039 0)
(3.19943 -2.46515 -4.06813e-18)
(4.68997 -2.33518 8.25112e-18)
(7.06798 -2.29785 -4.77508e-18)
(11.2524 -2.7748 1.48788e-19)
(-3.29754 -2.47911 0)
(-2.47239 -2.50146 -2.14791e-18)
(-1.61825 -2.51279 3.51066e-18)
(-0.734015 -2.49904 2.46521e-18)
(0.192751 -2.45552 -6.39774e-19)
(1.18964 -2.37922 -6.21506e-19)
(2.30802 -2.27248 0)
(3.63163 -2.14857 0)
(5.2881 -2.04252 0)
(7.46086 -2.03045 0)
(10.384 -2.25003 0)
(14.2235 -2.90705 1.35569e-19)
(-2.94044 -2.24602 -1.70316e-18)
(-2.07611 -2.21547 0)
(-1.15903 -2.17558 -9.17527e-21)
(-0.179281 -2.11308 -1.32836e-20)
(0.883517 -2.02832 -2.1056e-18)
(2.06471 -1.9261 1.55646e-18)
(3.41671 -1.8181 -2.0711e-18)
(5.01119 -1.728 2.05597e-18)
(6.93903 -1.69914 -8.90643e-20)
(9.30213 -1.80286 -1.03386e-18)
(12.1784 -2.1434 0)
(15.5231 -2.83177 -1.68555e-18)
(-2.51522 -1.97765 1.58583e-18)
(-1.6141 -1.90881 0)
(-0.644589 -1.83683 0)
(0.408421 -1.75132 0)
(1.56767 -1.65643 4.72136e-19)
(2.86703 -1.56102 0)
(4.35151 -1.48088 0)
(6.07709 -1.44253 0)
(8.10713 -1.48728 0)
(10.5001 -1.67453 -2.10155e-19)
(13.2801 -2.07771 0)
(16.3831 -2.76192 1.43345e-18)
(-2.05493 -1.71227 -7.44179e-19)
(-1.12747 -1.62626 8.16116e-19)
(-0.12385 -1.54043 0)
(0.973854 -1.44913 4.15452e-19)
(2.18879 -1.3592 0)
(3.55226 -1.28137 -4.14258e-19)
(5.10308 -1.23236 1.25578e-18)
(6.88644 -1.23794 -8.66436e-19)
(8.95052 -1.3352 0)
(11.3342 -1.57356 -3.50085e-19)
(14.0436 -2.00913 1.51509e-18)
(17.0137 -2.6857 -7.82834e-19)
(-1.58398 -1.46739 0)
(-0.647621 -1.38104 0)
(0.371708 -1.29122 -3.8497e-19)
(1.49095 -1.20273 -3.90083e-19)
(2.73285 -1.12327 3.99332e-19)
(4.12762 -1.06397 -7.75501e-19)
(5.70982 -1.04083 1.17982e-18)
(7.51831 -1.07841 -4.05135e-19)
(9.59211 -1.21051 0)
(11.9609 -1.48002 -8.94924e-19)
(14.6223 -1.93332 7.62547e-19)
(17.5054 -2.60334 -6.39115e-19)
(-1.11925 -1.24996 -7.08223e-21)
(-0.18987 -1.17225 -1.41667e-18)
(0.829952 -1.08409 -3.57048e-19)
(1.95406 -1.00192 -3.62159e-19)
(3.204 -0.933814 7.39286e-19)
(4.61098 -0.891075 -3.64999e-19)
(6.20597 -0.887698 2.32667e-21)
(8.0239 -0.947317 -3.64138e-19)
(10.0975 -1.10209 0)
(12.4516 -1.39143 0)
(15.0769 -1.85478 -3.35404e-19)
(17.8965 -2.51845 2.87299e-19)
(-0.675883 -1.06468 0)
(0.23868 -0.994588 6.82247e-19)
(1.24835 -0.911013 3.47244e-19)
(2.36668 -0.83657 -3.41524e-19)
(3.61175 -0.779187 -3.32993e-19)
(5.02234 -0.751525 3.59321e-19)
(6.62349 -0.76361 3.4806e-19)
(8.4463 -0.838251 7.03168e-19)
(10.5162 -1.00747 3.40354e-19)
(12.859 -1.31041 0)
(15.4596 -1.78024 3.29355e-19)
(18.2332 -2.43965 4.86674e-20)
(-0.260984 -0.895398 -5.92487e-19)
(0.629494 -0.837357 3.17398e-19)
(1.62285 -0.761486 0)
(2.72728 -0.696163 0)
(3.95312 -0.650369 -1.47314e-19)
(5.35742 -0.636906 -1.51757e-19)
(6.9565 -0.660586 -1.76805e-19)
(8.77863 -0.743193 -8.32526e-19)
(10.8366 -0.917938 9.79919e-21)
(13.1658 -1.23157 3.0667e-19)
(15.7377 -1.70277 0)
(18.4639 -2.35073 -5.77379e-19)
(0.173094 -0.782656 5.63738e-19)
(1.02065 -0.718202 1.51819e-19)
(1.97275 -0.632592 -1.5589e-19)
(3.07468 -0.580279 -3.11945e-19)
(4.2761 -0.553333 3.20436e-19)
(5.72202 -0.562782 -3.92563e-21)
(7.33656 -0.604168 -3.27722e-19)
(9.18133 -0.705215 1.44005e-19)
(11.2161 -0.879394 -4.70949e-19)
(13.532 -1.20227 -3.04103e-19)
(16.1168 -1.6864 0)
(18.8381 -2.34806 2.20048e-19)
(18.4593 -4.89924 0)
(22.0841 -6.46699 -5.73992e-20)
(23.1472 -6.90836 -4.40484e-18)
(23.5284 -7.00822 3.67302e-18)
(23.6522 -6.99007 1.87e-18)
(23.6195 -6.90029 -1.53663e-18)
(23.5047 -6.76373 3.00171e-19)
(23.3466 -6.59692 -4.38297e-19)
(23.1632 -6.40937 2.31931e-19)
(22.9633 -6.2058 1.28381e-19)
(22.7526 -5.9873 -1.05498e-18)
(22.5316 -5.75413 9.37752e-19)
(18.5764 -4.22331 0)
(22.3622 -5.78919 0)
(23.7241 -6.3826 3.59863e-18)
(23.9711 -6.44778 -5.87245e-18)
(23.9953 -6.43204 4.20465e-18)
(23.9075 -6.37042 -1.56726e-18)
(23.7619 -6.27771 9.0289e-20)
(23.5848 -6.16191 -4.25101e-20)
(23.3888 -6.02716 0)
(23.1802 -5.87652 -8.11385e-19)
(22.9665 -5.70627 9.72803e-19)
(22.7533 -5.50421 -3.9266e-19)
(19.1104 -3.92708 1.83562e-18)
(22.4563 -5.2644 0)
(23.9745 -5.95298 -1.18167e-18)
(24.1473 -6.01839 1.27135e-18)
(24.1105 -5.99769 0)
(24.0024 -5.94777 -5.80747e-19)
(23.8564 -5.87819 2.68736e-19)
(23.6883 -5.79247 2.98577e-19)
(23.5055 -5.69222 0)
(23.3111 -5.57948 9.51295e-20)
(23.109 -5.44968 1.41566e-19)
(22.9051 -5.28861 8.89941e-19)
(19.6481 -3.7463 -3.02566e-18)
(22.6231 -4.90053 1.42109e-18)
(24.1363 -5.59865 -3.36026e-19)
(24.2765 -5.67894 0)
(24.1955 -5.65428 7.27672e-19)
(24.0705 -5.61182 -1.74264e-19)
(23.9216 -5.55588 -1.64636e-19)
(23.7586 -5.48838 -1.59071e-19)
(23.5861 -5.40982 -4.13592e-20)
(23.4054 -5.32079 -2.57917e-19)
(23.2124 -5.22143 4.55751e-20)
(23.0065 -5.10852 -4.0577e-19)
(20.0806 -3.60497 0)
(22.7973 -4.63791 1.69617e-19)
(24.2291 -5.30084 -8.58366e-19)
(24.3567 -5.39331 1.15266e-18)
(24.2497 -5.36651 0)
(24.1153 -5.32961 0)
(23.9657 -5.28304 -9.22788e-20)
(23.8072 -5.22829 0)
(23.6425 -5.16536 0)
(23.4718 -5.09375 1.73652e-19)
(23.2897 -5.01485 -1.64535e-19)
(23.0913 -4.93201 0)
(20.4313 -3.48005 1.08228e-19)
(22.9545 -4.42908 1.43698e-18)
(24.2793 -5.04556 -5.05658e-19)
(24.3945 -5.1449 0)
(24.2722 -5.11895 0)
(24.1335 -5.08704 -1.32059e-19)
(23.9857 -5.04786 -2.8381e-19)
(23.8327 -5.00273 3.1354e-19)
(23.6756 -4.95151 -1.00909e-20)
(23.5137 -4.89327 -7.92644e-20)
(23.3433 -4.82927 2.2041e-19)
(23.1608 -4.76606 2.29554e-19)
(20.715 -3.36332 -6.80434e-19)
(23.0855 -4.24986 1.40458e-19)
(24.3065 -4.82298 -2.81704e-19)
(24.4086 -4.92682 1.95146e-19)
(24.2776 -4.90486 -3.98465e-19)
(24.1368 -4.8778 1.31667e-19)
(23.9913 -4.84474 -5.13089e-20)
(23.8434 -4.80704 9.16963e-20)
(23.6929 -4.76463 -5.6137e-20)
(23.5392 -4.71652 1.26794e-20)
(23.3804 -4.66396 0)
(23.2152 -4.61409 -1.74554e-19)
(20.9669 -3.26281 6.38373e-19)
(23.2077 -4.10521 -2.85401e-19)
(24.3271 -4.64084 0)
(24.4101 -4.7418 6.18604e-19)
(24.2747 -4.72129 -5.06946e-19)
(24.1337 -4.69721 2.78171e-19)
(23.9904 -4.66892 -1.27606e-19)
(23.8465 -4.63709 1.59092e-19)
(23.7018 -4.60128 0)
(23.5558 -4.56071 -1.01218e-19)
(23.4074 -4.51682 -6.21996e-20)
(23.2567 -4.47742 2.15467e-19)
(21.1171 -3.14359 0)
(23.2516 -3.94356 2.44577e-19)
(24.3116 -4.46033 4.48683e-19)
(24.4027 -4.57488 -6.55023e-19)
(24.2684 -4.56097 -5.92591e-19)
(24.1259 -4.53967 2.62675e-19)
(23.9828 -4.51505 -2.55293e-19)
(23.8428 -4.48806 1.06799e-19)
(23.7034 -4.45739 2.76098e-21)
(23.5652 -4.42219 -1.13258e-21)
(23.4262 -4.38411 0)
(23.2878 -4.35231 -9.54071e-20)
(21.4432 -3.14862 -2.61648e-19)
(23.4507 -3.93527 -4.91762e-19)
(24.3623 -4.40213 0)
(24.3974 -4.46518 1.38793e-21)
(24.258 -4.42551 1.53223e-19)
(24.1162 -4.39966 0)
(23.9758 -4.37943 -2.99204e-20)
(23.8409 -4.35866 6.49199e-20)
(23.705 -4.33135 -1.59894e-20)
(23.5758 -4.30019 -2.31438e-21)
(23.4471 -4.26762 1.66918e-19)
(23.3189 -4.2485 -1.5502e-19)
(0.461663 1.77428 4.84343e-17)
(1.52383 1.83414 -2.0971e-17)
(3.24029 2.50415 1.25076e-17)
(5.2789 3.55385 -8.72029e-18)
(7.54681 4.73784 0)
(9.92682 6.07425 0)
(12.3972 7.47788 -4.23503e-19)
(14.8643 8.82265 2.08947e-18)
(17.1666 9.96395 -3.17108e-19)
(19.1269 10.763 -2.31723e-18)
(20.605 11.1278 -4.29492e-19)
(21.5911 10.9495 -3.0055e-19)
(-8.93755 2.82322 -4.4724e-17)
(-8.29697 2.7185 2.64387e-17)
(-7.1759 2.56893 -3.74945e-17)
(-5.70908 2.61401 2.54978e-17)
(-3.73074 2.83122 -1.07287e-17)
(-0.914437 3.18893 -9.25128e-19)
(2.58682 3.83179 1.38694e-18)
(6.5951 4.81792 -2.87541e-18)
(10.773 6.11347 4.50496e-18)
(14.7406 7.53863 1.10285e-18)
(18.112 8.8442 2.78069e-18)
(20.5764 9.58287 8.12322e-19)
(-3.94144 1.47214 -7.38951e-17)
(-4.63964 1.528 4.04163e-17)
(-4.78882 1.52753 1.37291e-20)
(-4.57033 1.44685 0)
(-4.00265 1.38186 -2.84606e-20)
(-3.00892 1.41843 -9.62918e-18)
(-1.42302 1.65102 1.79504e-17)
(0.984439 2.18266 -1.86759e-18)
(4.46464 3.11187 -7.26166e-18)
(8.82649 4.45198 -1.52342e-18)
(13.5014 6.11189 -1.99674e-18)
(17.6493 7.52342 -1.59541e-18)
(-5.0911 1.82383 0)
(-5.56444 1.99229 -4.66633e-17)
(-5.61454 2.00284 5.99116e-17)
(-5.41461 1.94646 -2.10974e-17)
(-4.9922 1.84926 -1.1609e-17)
(-4.30554 1.73739 1.34068e-17)
(-3.28166 1.66179 0)
(-1.7658 1.69882 2.03685e-18)
(0.51663 1.95974 0)
(3.91301 2.62172 0)
(8.46794 3.88554 0)
(13.446 5.33283 -1.81062e-19)
(-4.44931 1.61609 -8.30115e-17)
(-5.06885 1.81124 5.01024e-17)
(-5.25818 1.87045 -2.02655e-18)
(-5.20024 1.85063 0)
(-4.95896 1.78819 -9.57483e-21)
(-4.52552 1.70161 -6.41438e-21)
(-3.85403 1.61077 0)
(-2.85382 1.54927 -4.31863e-18)
(-1.34217 1.57932 3.75648e-18)
(0.968567 1.81379 3.10498e-18)
(4.50087 2.5183 8.31895e-18)
(9.15695 3.55016 -1.18106e-19)
(-4.50836 1.63453 0)
(-5.14937 1.86078 0)
(-5.36976 1.94193 -2.1486e-18)
(-5.34741 1.94504 2.445e-17)
(-5.15875 1.90316 -2.05342e-17)
(-4.81165 1.83023 -3.51798e-18)
(-4.28114 1.73822 0)
(-3.51603 1.64511 2.25416e-18)
(-2.40305 1.58392 -7.59463e-18)
(-0.724468 1.61835 3.44466e-18)
(1.87226 1.92094 9.37777e-20)
(5.65864 2.47666 3.4238e-18)
(-4.41633 1.60599 8.71682e-17)
(-5.09581 1.84999 0)
(-5.35817 1.95024 -3.55999e-17)
(-5.37776 1.96991 1.17523e-20)
(-5.23924 1.94444 1.89432e-17)
(-4.96038 1.8876 1.83144e-18)
(-4.52847 1.80853 0)
(-3.91022 1.71741 9.31835e-18)
(-3.03509 1.63315 -7.79446e-18)
(-1.75295 1.58724 -6.73562e-18)
(0.20981 1.67722 7.6516e-20)
(3.14285 1.87696 -4.1069e-18)
(-4.4241 1.60948 0)
(-5.12762 1.8677 0)
(-5.41576 1.98063 3.62349e-17)
(-5.46104 2.01219 -2.58921e-17)
(-5.35226 1.99805 -1.94091e-17)
(-5.11359 1.95192 3.01106e-17)
(-4.74038 1.88153 -2.38707e-17)
(-4.20946 1.79431 9.61994e-18)
(-3.47466 1.70181 -1.1855e-17)
(-2.43225 1.62117 3.79726e-20)
(-0.87393 1.60427 5.20039e-21)
(1.46996 1.63835 0)
(-4.42742 1.61213 -8.77322e-17)
(-5.15424 1.88062 5.49061e-17)
(-5.46407 2.0024 4.12332e-17)
(-5.53191 2.04229 -6.41365e-21)
(-5.44789 2.03581 -2.22777e-17)
(-5.24079 1.99709 1.34583e-17)
(-4.91159 1.93339 -1.22277e-17)
(-4.44377 1.85069 0)
(-3.80448 1.75654 -8.03647e-18)
(-2.92008 1.66158 1.02e-17)
(-1.63328 1.5924 5.93492e-18)
(0.291261 1.54457 5.17471e-18)
(-4.44937 1.62049 1.74873e-16)
(-5.19074 1.89517 -5.49823e-17)
(-5.51959 2.02395 3.46784e-17)
(-5.60574 2.07007 -4.95148e-21)
(-5.5406 2.06883 2.50968e-18)
(-5.35669 2.03478 1.95113e-18)
(-5.05928 1.97497 -1.24619e-17)
(-4.63705 1.89433 0)
(-4.06501 1.79806 0)
(-3.28875 1.69279 -3.41074e-18)
(-2.18687 1.59083 0)
(-0.55849 1.47656 5.16976e-18)
(-4.47216 1.6289 2.72173e-18)
(-5.22583 1.90834 5.33403e-17)
(-5.57179 2.04323 -3.96026e-17)
(-5.67363 2.09439 -2.70072e-17)
(-5.62385 2.09714 5.11993e-21)
(-5.45802 2.06652 1.59191e-17)
(-5.18467 2.0096 3.16892e-18)
(-4.79648 1.93062 -2.5547e-18)
(-4.27356 1.83346 0)
(-3.57408 1.72259 0)
(-2.60164 1.6045 0)
(-1.18251 1.46713 0)
(-4.49699 1.638 -8.94085e-17)
(-5.26259 1.92214 0)
(-5.62345 2.06255 2.34207e-18)
(-5.73857 2.11821 2.72639e-17)
(-5.70119 2.12445 -2.06568e-17)
(-5.54943 2.09685 0)
(-5.29439 2.0426 -3.21533e-18)
(-4.93179 1.96556 1.29704e-17)
(-4.44549 1.86885 -1.11278e-20)
(-3.80236 1.75539 3.45498e-18)
(-2.92494 1.62645 -5.88112e-18)
(-1.66738 1.46031 -4.96675e-18)
(-4.52348 1.64783 0)
(-5.3013 1.93692 0)
(-5.67514 2.08242 -2.35094e-18)
(-5.80168 2.14231 0)
(-5.77463 2.15194 -2.60597e-18)
(-5.63423 2.12743 1.63011e-17)
(-5.3937 2.07628 3.24841e-18)
(-5.05129 2.00241 -1.31513e-17)
(-4.59411 1.90895 0)
(-3.99554 1.79937 -3.49647e-18)
(-3.19105 1.679 -5.08304e-21)
(-2.04389 1.54038 6.20848e-21)
(-4.5532 1.65893 8.5801e-17)
(-5.34306 1.95297 -5.13862e-17)
(-5.72829 2.10306 2.35327e-18)
(-5.86469 2.16676 -2.93063e-17)
(-5.84636 2.17941 2.62247e-17)
(-5.71536 2.15763 0)
(-5.48666 2.10916 -3.28353e-18)
(-5.16059 2.03793 2.6561e-18)
(-4.72727 1.94681 4.32219e-18)
(-4.16618 1.83841 -3.53019e-18)
(-3.42964 1.71546 -7.20041e-21)
(-2.42307 1.56868 5.23319e-21)
(-4.58652 1.67141 1.70583e-16)
(-5.38815 1.97036 -1.65265e-18)
(-5.78333 2.12462 -3.7671e-17)
(-5.92828 2.19181 1.72802e-18)
(-5.91735 2.20727 2.62636e-21)
(-5.79422 2.18814 1.65253e-17)
(-5.57526 2.14246 -9.92188e-18)
(-5.26239 2.07432 2.67937e-18)
(-4.8479 1.98661 -5.00615e-21)
(-4.31491 1.88197 -3.56093e-18)
(-3.62409 1.76372 5.86471e-18)
(-2.69002 1.62676 -4.87368e-18)
(-4.62378 1.68528 8.47494e-17)
(-5.43649 1.98877 -5.26044e-17)
(-5.8405 2.14668 0)
(-5.99285 2.21687 2.76956e-17)
(-5.98829 2.23469 -2.64458e-18)
(-5.87191 2.21772 -1.65959e-17)
(-5.66132 2.17422 1.32935e-17)
(-5.35977 2.10836 -3.86153e-21)
(-4.96144 2.02284 4.37511e-18)
(-4.45262 1.91997 -1.07353e-17)
(-3.80206 1.80245 0)
(-2.94132 1.6652 0)
(-4.66463 1.7005 -2.6314e-18)
(-5.48757 2.00821 5.23457e-17)
(-5.89936 2.16932 -2.34958e-18)
(-6.05812 2.24211 -1.73276e-18)
(-6.05901 2.26197 0)
(-5.94838 2.24689 0)
(-5.74484 2.20536 -6.66898e-18)
(-5.45268 2.14165 -1.35191e-17)
(-5.06742 2.05839 8.81991e-18)
(-4.57738 1.95775 3.5905e-18)
(-3.95678 1.84202 5.89629e-18)
(-3.14787 1.70723 4.84608e-18)
(-4.7088 1.71683 8.61813e-17)
(-5.5408 2.0282 -5.20759e-17)
(-5.95966 2.19215 2.34062e-18)
(-6.12401 2.26714 5.7102e-17)
(-6.12962 2.28866 -6.35178e-17)
(-6.02402 2.27512 4.75525e-21)
(-5.82671 2.2352 1.67082e-17)
(-5.54285 2.17328 0)
(-5.16907 2.09196 -4.42789e-18)
(-4.69531 1.99335 -7.2082e-18)
(-4.09991 1.87956 1.17937e-17)
(-3.3334 1.7464 -4.8364e-18)
(-4.75537 1.73398 -1.65923e-16)
(-5.59561 2.04861 5.34197e-17)
(-6.02076 2.215 3.73735e-17)
(-6.18996 2.29178 -2.76547e-17)
(-6.19965 2.31462 3.93145e-21)
(-6.09844 2.30227 -2.08108e-18)
(-5.9066 2.26359 1.00378e-17)
(-5.63004 2.20304 2.1739e-17)
(-5.26629 2.12321 -1.33161e-17)
(-4.80671 2.0262 3.6093e-18)
(-4.23308 1.9145 -5.89631e-18)
(-3.50387 1.78534 9.53366e-18)
(-4.80371 1.75172 1.62114e-16)
(-5.65134 2.06921 -1.0625e-16)
(-6.08215 2.23771 -2.33033e-18)
(-6.25555 2.31595 5.52217e-17)
(-6.26875 2.33979 -4.23176e-17)
(-6.17137 2.32834 2.08226e-18)
(-5.98435 2.29057 3.34567e-18)
(-5.71417 2.23097 2.7238e-18)
(-5.35906 2.15202 0)
(-4.91144 2.05544 3.62037e-18)
(-4.35614 1.94218 -1.18023e-17)
(-3.66045 1.80528 2.65432e-20)
(-4.85327 1.76984 1.68558e-16)
(-5.70758 2.08988 -4.96295e-17)
(-6.14347 2.26023 3.94451e-17)
(-6.32045 2.33965 -2.58358e-17)
(-6.33668 2.36428 -4.22675e-17)
(-6.24268 2.35353 2.08411e-17)
(-6.05996 2.31655 4.02773e-21)
(-5.79547 2.25789 1.90645e-17)
(-5.44801 2.18005 -1.77926e-17)
(-5.01063 2.08484 7.25882e-18)
(-4.46934 1.97401 0)
(-3.79166 1.84497 -4.77821e-18)
(-4.90356 1.78818 7.8577e-17)
(-5.76394 2.11048 -1.59313e-18)
(-6.20441 2.28243 2.31377e-18)
(-6.38444 2.36275 -2.921e-17)
(-6.40324 2.38792 3.19162e-21)
(-6.31223 2.37764 2.70648e-17)
(-6.13341 2.34116 -1.6747e-17)
(-5.87415 2.28302 1.08935e-17)
(-5.53372 2.20564 -8.90454e-18)
(-5.10595 2.11056 0)
(-4.57857 1.9992 0)
(-3.92491 1.86754 0)
(-4.95414 1.80659 2.51745e-18)
(-5.82025 2.131 5.22283e-17)
(-6.26478 2.30435 -7.59876e-17)
(-6.44729 2.38537 2.57071e-17)
(-6.46824 2.41093 -4.21362e-17)
(-6.37984 2.40101 2.08006e-17)
(-6.20453 2.36497 1.33835e-17)
(-5.94995 2.3074 -1.0893e-17)
(-5.61574 2.23068 1.78099e-17)
(-5.19617 2.13638 -4.79545e-21)
(-4.67978 2.02605 -5.9073e-18)
(-4.04196 1.89569 0)
(-5.00472 1.82499 7.73962e-17)
(-5.8763 2.15139 -5.03499e-17)
(-6.32441 2.32595 -3.89796e-17)
(-6.50891 2.40743 3.07554e-17)
(-6.53161 2.4332 1.83924e-17)
(-6.44551 2.42347 1.45325e-17)
(-6.27339 2.38769 -2.34122e-17)
(-6.02314 2.33042 -1.0889e-17)
(-5.69477 2.25399 1.33637e-17)
(-5.28313 2.15989 3.63691e-18)
(-4.778 2.0499 5.90212e-18)
(-4.15773 1.92131 -9.31267e-18)
(-5.05507 1.84328 -5.22881e-22)
(-5.93218 2.17173 -5.00473e-17)
(-6.38333 2.34733 -3.6522e-17)
(-6.56926 2.42912 2.55412e-17)
(-6.5933 2.45499 -3.83499e-21)
(-6.50914 2.44539 2.07385e-18)
(-6.33983 2.40981 -3.34148e-18)
(-6.0934 2.35279 -2.72232e-18)
(-5.76999 2.27648 8.90707e-18)
(-5.36491 2.18205 -3.6291e-18)
(-4.8692 2.07014 0)
(-4.26605 1.93518 5.626e-21)
(-5.10532 1.86155 2.46102e-18)
(-5.9881 2.19212 0)
(-6.4417 2.36861 -3.23558e-21)
(-6.62854 2.45056 0)
(-6.65353 2.47646 2.61075e-18)
(-6.57103 2.46699 -2.06557e-18)
(-6.40426 2.43171 3.32986e-18)
(-6.16129 2.37511 1.35771e-17)
(-5.84234 2.29935 -1.33396e-17)
(-5.44286 2.20555 -1.45319e-17)
(-4.95427 2.09479 0)
(-4.35939 1.96488 9.34992e-18)
(-5.15572 1.87993 -8.05364e-17)
(-6.04431 2.21274 4.94189e-17)
(-6.4997 2.3899 -3.16334e-17)
(-6.68687 2.47184 -2.53251e-17)
(-6.71245 2.49767 2.92546e-21)
(-6.63135 2.48829 3.20462e-21)
(-6.46689 2.45324 2.99121e-17)
(-6.22713 2.39697 -1.89694e-17)
(-5.91224 2.32147 4.43853e-18)
(-5.51784 2.22756 -9.30133e-21)
(-5.03627 2.11561 0)
(-4.45399 1.98249 4.31622e-21)
(-5.20674 1.89853 1.55003e-16)
(-6.10113 2.23364 -1.41209e-21)
(-6.55769 2.41134 -2.2476e-18)
(-6.74464 2.49317 -2.85675e-17)
(-6.77044 2.51892 0)
(-6.69049 2.5097 1.8476e-17)
(-6.52813 2.47507 -1.65624e-17)
(-6.2913 2.41945 8.10664e-18)
(-5.97995 2.34476 -4.43325e-18)
(-5.58942 2.2517 7.23813e-18)
(-5.11197 2.14015 0)
(-4.5349 2.00714 -4.68635e-18)
(-5.25889 1.91754 7.44932e-17)
(-6.15923 2.25499 -4.87631e-17)
(-6.61611 2.43296 0)
(-6.80223 2.51452 0)
(-6.8279 2.54013 -2.58181e-18)
(-6.74894 2.53107 -2.04301e-18)
(-6.58867 2.49693 1.31985e-17)
(-6.35485 2.4421 -8.07839e-18)
(-6.04728 2.36851 -4.4169e-18)
(-5.66098 2.2769 1.44355e-17)
(-5.18785 2.16733 -1.7617e-17)
(-4.61463 2.03755 4.68046e-18)
(-5.31253 1.93728 -7.3904e-17)
(-6.21829 2.27698 0)
(-6.67479 2.45492 -3.55071e-17)
(-6.85954 2.53594 1.66566e-18)
(-6.8848 2.56126 2.30992e-17)
(-6.8067 2.55227 0)
(-6.64849 2.51855 0)
(-6.41778 2.46445 -2.68042e-18)
(-6.11423 2.39186 -6.63846e-21)
(-5.73271 2.30155 1.07927e-17)
(-5.26476 2.19412 -1.16963e-17)
(-4.6969 2.06897 9.31146e-21)
(-5.36731 1.95729 1.51335e-16)
(-6.27826 2.29913 -4.95576e-17)
(-6.73374 2.47684 0)
(-6.91653 2.55712 2.47717e-17)
(-6.94107 2.58202 -2.78646e-21)
(-6.8637 2.57304 -1.82215e-17)
(-6.70748 2.53969 1.30802e-17)
(-6.47989 2.48626 -8.01231e-18)
(-6.18042 2.41452 -6.55803e-21)
(-5.80386 2.32512 -3.58173e-18)
(-5.34183 2.21818 0)
(-4.7823 2.09052 -9.19149e-18)
(-5.4232 1.97768 -1.50091e-16)
(-6.33929 2.32159 -8.06417e-22)
(-6.79288 2.49875 -2.18818e-18)
(-6.97314 2.57806 2.62441e-17)
(-6.99664 2.60241 0)
(-6.9198 2.59334 1.81098e-17)
(-6.76544 2.56029 -1.30146e-17)
(-6.54081 2.50745 -5.31559e-18)
(-6.24524 2.43649 8.72084e-18)
(-5.87347 2.34804 0)
(-5.41702 2.24296 1.16069e-17)
(-4.86297 2.12132 4.55415e-18)
(-5.4803 1.99856 7.44239e-17)
(-6.40167 2.34456 1.47575e-18)
(-6.85235 2.5208 -3.25814e-17)
(-7.02945 2.59896 0)
(-7.05159 2.62268 -2.01426e-17)
(-6.97506 2.6135 3.25114e-21)
(-6.82238 2.58072 3.70606e-21)
(-6.60046 2.52838 1.32134e-17)
(-6.30827 2.45791 6.345e-21)
(-5.94032 2.36941 0)
(-5.48865 2.26186 -1.09203e-21)
(-4.94477 2.13073 -4.58798e-18)
(-5.53952 2.02043 0)
(-6.46533 2.36836 0)
(-6.91209 2.54324 2.15551e-18)
(-7.08554 2.62004 0)
(-7.1061 2.64309 0)
(-7.02986 2.63387 1.58804e-17)
(-6.87892 2.60162 -3.4622e-21)
(-6.65978 2.55032 -4.023e-21)
(-6.37101 2.48147 -1.29312e-17)
(-6.00642 2.39535 0)
(-5.55666 2.2914 0)
(-5.00919 2.16631 4.60228e-18)
(-5.60077 2.04287 -7.31232e-17)
(-6.5295 2.39205 -4.65232e-17)
(-6.97196 2.56541 3.20406e-17)
(-7.14132 2.64059 2.56208e-17)
(-7.16018 2.66278 -1.98307e-17)
(-7.08429 2.65338 0)
(-6.93534 2.62151 -3.1902e-18)
(-6.71952 2.57104 -1.30362e-17)
(-6.43516 2.50349 4.28061e-18)
(-6.07602 2.41935 3.5123e-18)
(-5.63268 2.31941 0)
(-5.0922 2.20407 9.69136e-21)
(-5.66313 2.06565 -2.26645e-18)
(-6.5943 2.41576 0)
(-7.0315 2.58716 0)
(-7.19631 2.66044 0)
(-7.21329 2.68157 0)
(-7.13773 2.67182 0)
(-6.9908 2.64008 3.1602e-18)
(-6.77831 2.59009 1.03447e-17)
(-6.49835 2.52318 -4.25623e-18)
(-6.14456 2.43954 -3.48316e-18)
(-5.70825 2.33917 0)
(-5.18127 2.22001 -4.51088e-18)
(-5.72632 2.08878 2.2435e-18)
(-6.65912 2.43943 4.43124e-17)
(-7.0902 2.60841 -1.71464e-21)
(-7.25005 2.67953 -2.67363e-17)
(-7.26504 2.69946 -1.94812e-17)
(-7.18982 2.68923 2.06745e-21)
(-7.04496 2.65755 1.25444e-17)
(-6.83585 2.60801 5.132e-18)
(-6.56015 2.54179 4.21272e-18)
(-6.21104 2.4589 -6.92109e-18)
(-5.77922 2.35883 0)
(-5.25527 2.23894 0)
(-5.79029 2.11225 0)
(-6.72331 2.46291 1.41626e-18)
(-7.14736 2.62896 0)
(-7.30194 2.69762 2.64792e-17)
(-7.31493 2.71616 -1.93015e-17)
(-7.24018 2.7053 0)
(-7.09759 2.67354 -1.24297e-17)
(-6.89212 2.62432 5.32886e-21)
(-6.62107 2.55871 8.3578e-18)
(-6.2772 2.47662 3.43305e-18)
(-5.85049 2.37762 5.5942e-18)
(-5.33021 2.25943 0)
(-5.85441 2.13563 7.05556e-17)
(-6.78565 2.4854 0)
(-7.20235 2.64833 -3.29591e-17)
(-7.35141 2.71432 2.46835e-17)
(-7.36242 2.7313 -1.6724e-17)
(-7.28826 2.71968 1.52051e-17)
(-7.14815 2.68769 0)
(-6.94659 2.6386 -1.25972e-17)
(-6.68054 2.57337 2.07116e-17)
(-6.34243 2.49182 -1.01989e-17)
(-5.92166 2.39359 2.89912e-21)
(-5.40669 2.27623 -4.40286e-18)
(-5.9176 2.15863 6.99302e-17)
(-6.84611 2.50703 -8.92056e-17)
(-7.2545 2.66634 6.53034e-17)
(-7.39782 2.72938 -2.44388e-17)
(-7.40692 2.74464 1.41934e-17)
(-7.33352 2.7321 -6.19472e-22)
(-7.19609 2.69969 -2.43876e-17)
(-6.99867 2.65051 2.24618e-17)
(-6.7379 2.58536 -1.05709e-21)
(-6.40587 2.50398 3.36764e-18)
(-5.99154 2.40606 5.49116e-18)
(-5.4832 2.28926 -4.33098e-18)
(-5.9794 2.18109 -2.1662e-18)
(-6.90382 2.52741 8.84871e-17)
(-7.30318 2.68267 -3.23461e-17)
(-7.4406 2.74259 -2.26796e-17)
(-7.44785 2.756 2.10742e-17)
(-7.37539 2.7424 -1.86305e-18)
(-7.24084 2.70944 -3.01831e-18)
(-7.04779 2.65999 7.41292e-18)
(-6.79252 2.59472 -1.62488e-17)
(-6.46678 2.51317 6.67098e-18)
(-6.05921 2.41425 -5.43348e-18)
(-5.55863 2.29328 8.63147e-18)
(-6.03969 2.20311 2.14732e-18)
(-6.95804 2.5466 0)
(-7.34745 2.69725 3.20352e-17)
(-7.47889 2.75379 -2.39382e-17)
(-7.48449 2.7652 1.85369e-17)
(-7.4132 2.75039 -2.94968e-17)
(-7.28184 2.71671 2.38953e-17)
(-7.09349 2.66684 7.33832e-22)
(-6.84419 2.60137 -1.20602e-17)
(-6.52536 2.51987 1.24653e-21)
(-6.12502 2.42181 5.38014e-18)
(-5.62867 2.30651 -8.56405e-18)
(-6.09733 2.22417 6.81379e-17)
(-7.0067 2.56375 -4.35381e-17)
(-7.38614 2.70959 -1.98171e-18)
(-7.51175 2.76255 -1.01772e-21)
(-7.51597 2.77176 -1.60475e-17)
(-7.44619 2.75556 -1.00096e-22)
(-7.31832 2.72091 2.65948e-17)
(-7.13505 2.67027 -9.6767e-18)
(-6.89213 2.60403 -3.97866e-18)
(-6.58092 2.52146 1.95912e-17)
(-6.18952 2.42132 -5.32305e-18)
(-5.70362 2.30321 -4.24954e-18)
(-6.15105 2.24329 6.75725e-17)
(-7.05069 2.57831 0)
(-7.41909 2.71891 3.33936e-17)
(-7.53882 2.76826 -7.00838e-22)
(-7.54185 2.77528 -2.26683e-18)
(-7.47379 2.75764 -1.08214e-17)