/*--------------------------------*- C++ -*----------------------------------*\
| =========                 |                                                 |
| \\      /  F ield         | OpenFOAM: The Open Source CFD Toolbox           |
|  \\    /   O peration     | Version:  2.3.0                                 |
|   \\  /    A nd           | Web:      www.OpenFOAM.org                      |
|    \\/     M anipulation  |                                                 |
\*---------------------------------------------------------------------------*/
FoamFile
{
    version     2.0;
    format      ascii;
    class       volScalarField;
    location    "1000";
    object      nuTilda;
}
// * * * * * * * * * * * * * * * * * * * * * * * * * * * * * * * * * * * * * //

dimensions      [0 2 -1 0 0 0 0];

internalField   nonuniform List<scalar> 
38227
(
0.0731927
0.071591
0.0699856
0.068375
0.0667593
0.065139
0.0635149
0.061888
0.0602585
0.0586273
0.0569952
0.0553628
0.053731
0.0521002
0.0504709
0.0488438
0.0472194
0.0455982
0.0439808
0.0423676
0.0407588
0.0391548
0.037556
0.0359624
0.0343749
0.0327942
0.03122
0.0296534
0.028095
0.0265455
0.0250067
0.0234798
0.0219669
0.0204712
0.0189975
0.0175519
0.0161441
0.0147862
0.013494
0.012282
0.0111403
0.00993795
0.00791455
0.0741777
0.0727495
0.0713227
0.069892
0.0684568
0.067017
0.0655734
0.0641264
0.0626761
0.0612229
0.0597672
0.0583095
0.0568501
0.0553892
0.053927
0.0524639
0.0510006
0.0495371
0.0480741
0.0466118
0.0451502
0.0436906
0.0422331
0.0407779
0.0393264
0.0378795
0.0364377
0.0350031
0.0335773
0.0321626
0.0307624
0.0293804
0.0280221
0.0266935
0.0254031
0.0241623
0.0229848
0.021886
0.0208856
0.0200057
0.019269
0.0186939
0.0182917
0.0750871
0.073815
0.0725445
0.0712692
0.0699889
0.0687036
0.0674138
0.0661199
0.0648218
0.0635194
0.0622132
0.0609034
0.0595901
0.0582732
0.0569528
0.0556295
0.0543034
0.0529745
0.0516437
0.0503111
0.048977
0.0476424
0.0463081
0.0449744
0.0436431
0.0423151
0.0409913
0.0396747
0.0383673
0.037072
0.0357931
0.0345353
0.0333045
0.0321071
0.0309524
0.029851
0.0288149
0.0278575
0.0269925
0.0262359
0.0256013
0.0250987
0.0247367
0.0759197
0.0747941
0.0736604
0.0725197
0.0713725
0.0702196
0.0690611
0.0678972
0.066728
0.0655534
0.0643735
0.0631883
0.0619979
0.0608022
0.0596009
0.0583948
0.0571837
0.0559677
0.0547474
0.0535233
0.0522954
0.0510648
0.0498326
0.0485996
0.0473676
0.0461375
0.0449108
0.04369
0.0424779
0.0412778
0.040094
0.038931
0.0377949
0.0366926
0.0356326
0.0346242
0.0336785
0.0328069
0.0320202
0.0313309
0.0307497
0.030284
0.0299403
0.0767122
0.0756986
0.0746796
0.0736538
0.0726212
0.0715815
0.070535
0.0694817
0.0684219
0.0673556
0.0662824
0.0652023
0.0641154
0.0630214
0.0619203
0.0608124
0.0596974
0.0585755
0.0574473
0.0563133
0.0551733
0.0540287
0.0528808
0.0517306
0.0505797
0.0494296
0.0482822
0.0471391
0.0460033
0.0448788
0.0437693
0.0426795
0.0416156
0.0405836
0.0395923
0.0386494
0.037765
0.0369498
0.0362131
0.0355661
0.035017
0.0345735
0.0342402
0.0774403
0.0765266
0.0756072
0.074681
0.0737468
0.072804
0.0718529
0.0708942
0.0699278
0.0689532
0.0679703
0.066979
0.0659793
0.0649709
0.0639541
0.0629285
0.0618939
0.0608507
0.0597997
0.0587408
0.0576739
0.0566002
0.0555215
0.0544392
0.0533545
0.0522697
0.0511869
0.0501076
0.049034
0.0479698
0.0469188
0.0458869
0.0448791
0.0439012
0.0429615
0.0420669
0.0412272
0.040452
0.0397502
0.039132
0.0386046
0.0381757
0.0378493
0.0781076
0.0772812
0.0764491
0.0756095
0.074761
0.0739015
0.0730321
0.0721539
0.071267
0.0703709
0.0694644
0.068548
0.0676221
0.0666859
0.0657399
0.0647842
0.0638178
0.0628402
0.0618536
0.0608582
0.0598529
0.0588381
0.0578162
0.0567895
0.0557594
0.0547281
0.0536981
0.0526717
0.0516501
0.0506349
0.0496309
0.0486455
0.0476828
0.0467478
0.0458481
0.0449909
0.0441857
0.0434399
0.0427642
0.0421662
0.0416543
0.0412355
0.0409148
0.0787137
0.0779673
0.0772115
0.0764473
0.0756749
0.0748877
0.0740875
0.0732772
0.0724584
0.0716296
0.0707886
0.0699355
0.0690725
0.0681978
0.0673108
0.066414
0.0655079
0.0645843
0.0636511
0.0627096
0.0617581
0.0607936
0.0598178
0.0588364
0.057851
0.056863
0.0558761
0.0548936
0.0539176
0.0529445
0.0519769
0.051028
0.0501042
0.0492043
0.0483361
0.047509
0.0467315
0.0460083
0.0453526
0.0447692
0.044268
0.0438578
0.0435429
0.0792781
0.0785977
0.077904
0.0772
0.0764976
0.0757748
0.0750333
0.074278
0.0735149
0.0727436
0.0719607
0.0711589
0.0703483
0.0695271
0.068691
0.0678363
0.06699
0.0661128
0.0652232
0.0643247
0.0634207
0.0625037
0.0615642
0.0606187
0.0596699
0.0587152
0.0577599
0.056808
0.055871
0.0549425
0.0540034
0.0530786
0.0521876
0.0513221
0.0504797
0.0496781
0.048926
0.0482194
0.0475835
0.0470126
0.0465212
0.046117
0.0458101
0.00718939
0.00837831
0.00937173
0.0101521
0.0109276
0.0117598
0.0126533
0.0136006
0.0145944
0.0156264
0.0166933
0.0177929
0.0189232
0.0200802
0.0212615
0.022465
0.0236889
0.0249322
0.0261948
0.0274739
0.0287707
0.030084
0.0314131
0.0327578
0.034117
0.0354909
0.0368781
0.0382789
0.0396925
0.0411183
0.0425556
0.0440041
0.0454631
0.046932
0.0484102
0.0498972
0.0513923
0.0528946
0.0544038
0.0559195
0.0574416
0.0589704
0.0605059
0.0180681
0.0180133
0.0181209
0.0183793
0.0187751
0.0192935
0.019918
0.0206312
0.0214192
0.0222705
0.0231746
0.024124
0.0251114
0.0261311
0.0271794
0.028252
0.0293472
0.0304617
0.0315932
0.0327419
0.0339055
0.0350831
0.0362739
0.0374766
0.0386912
0.0399168
0.0411525
0.0423986
0.0436539
0.0449182
0.0461913
0.0474725
0.0487614
0.0500579
0.0513611
0.0526711
0.0539875
0.0553095
0.0566372
0.0579704
0.0593095
0.060656
0.0620163
0.024512
0.024419
0.024461
0.0246326
0.0249266
0.0253327
0.0258381
0.0264313
0.0271002
0.0278345
0.028625
0.0294631
0.0303411
0.0312546
0.0321967
0.0331648
0.0341547
0.035164
0.0361902
0.0372315
0.0382862
0.039353
0.0404303
0.0415173
0.0426138
0.0437183
0.0448307
0.0459502
0.047076
0.0482085
0.0493466
0.0504903
0.0516393
0.0527933
0.0539522
0.0551155
0.0562831
0.0574548
0.0586304
0.0598099
0.0609935
0.0621811
0.0633733
0.0297157
0.0296089
0.0296211
0.0297493
0.0299873
0.030328
0.0307611
0.0312772
0.0318667
0.0325201
0.0332284
0.0339845
0.034781
0.0356117
0.0364717
0.0373569
0.0382637
0.0391883
0.0401287
0.0410833
0.0420493
0.0430254
0.0440103
0.0450031
0.0460023
0.0470077
0.0480182
0.0490331
0.0500526
0.0510756
0.0521021
0.0531318
0.0541645
0.0552001
0.0562383
0.0572787
0.0583215
0.0593664
0.0604134
0.0614625
0.0625136
0.0635662
0.0646178
0.0340164
0.0339015
0.0338961
0.0339973
0.0342004
0.0344988
0.0348843
0.0353488
0.0358832
0.0364788
0.0371286
0.0378241
0.0385587
0.0393268
0.0401232
0.0409435
0.0417834
0.042641
0.0435132
0.0443975
0.0452918
0.0461943
0.0471038
0.048019
0.0489387
0.0498621
0.0507887
0.0517177
0.0526485
0.0535809
0.0545148
0.0554497
0.0563856
0.0573219
0.0582589
0.0591962
0.0601335
0.061071
0.0620089
0.0629471
0.0638859
0.064825
0.0657644
0.037627
0.0375071
0.0374901
0.0375732
0.0377519
0.0380207
0.0383727
0.0387997
0.0392941
0.0398485
0.0404542
0.041104
0.0417915
0.0425103
0.0432562
0.0440242
0.0448117
0.0456152
0.046432
0.0472595
0.0480953
0.0489376
0.0497848
0.0506362
0.0514905
0.0523465
0.0532033
0.0540607
0.054918
0.0557753
0.0566318
0.0574877
0.0583423
0.0591956
0.0600474
0.0608975
0.0617457
0.0625917
0.0634365
0.0642805
0.0651234
0.0659648
0.0668058
0.0406938
0.0405708
0.0405458
0.0406153
0.0407761
0.0410231
0.0413492
0.0417486
0.0422136
0.0427366
0.0433091
0.0439236
0.0445729
0.0452523
0.045957
0.0466829
0.0474281
0.0481883
0.0489604
0.0497413
0.0505285
0.0513204
0.0521168
0.0529161
0.0537158
0.0545146
0.0553135
0.0561114
0.0569077
0.0577017
0.0584938
0.0592834
0.0600695
0.0608527
0.0616325
0.0624089
0.0631807
0.0639485
0.0647142
0.0654781
0.0662389
0.0669951
0.0677476
0.0433241
0.0431989
0.0431683
0.0432255
0.0433724
0.0436013
0.0439076
0.0442862
0.0447297
0.0452293
0.0457766
0.0463606
0.0469786
0.0476256
0.0482961
0.0489874
0.0497
0.0504254
0.0511604
0.0519013
0.0526467
0.053397
0.0541526
0.0549087
0.0556612
0.0564115
0.0571629
0.0579113
0.0586555
0.0593964
0.0601353
0.0608686
0.0615961
0.062321
0.063039
0.0637534
0.0644584
0.0651586
0.0658581
0.0665545
0.0672453
0.0679268
0.0686015
0.0455974
0.0454693
0.0454383
0.0454784
0.0456178
0.0458288
0.0461197
0.0464845
0.0469135
0.047395
0.0479227
0.0484733
0.0490668
0.0496843
0.0503248
0.0509884
0.0516836
0.0523735
0.0530777
0.0537808
0.0544903
0.0552064
0.0559301
0.0566452
0.0573553
0.0580664
0.0587842
0.0594869
0.0601883
0.0608855
0.0615819
0.0622636
0.0629421
0.0636235
0.0642835
0.0649492
0.0655902
0.0662361
0.0668844
0.0675251
0.0681577
0.0687725
0.0693761
0.016796
0.0158308
0.014905
0.0140186
0.0131709
0.0123611
0.0115884
0.0108525
0.0101528
0.00948867
0.00885989
0.00826633
0.00770862
0.00718838
0.00670869
0.00627508
0.00589606
0.00556644
0.00527402
0.00500969
0.00476755
0.00454349
0.00433436
0.00413749
0.00395045
0.00377098
0.00359691
0.00342625
0.00325707
0.00308756
0.002916
0.0027408
0.00256044
0.00237351
0.00217869
0.00197476
0.00176067
0.00153561
0.00129909
0.00105146
0.000795388
0.000539801
0.000282224
0.0167171
0.0158215
0.0149621
0.0141366
0.0133438
0.0125832
0.0118543
0.0111565
0.0104893
0.00985244
0.0092455
0.00866842
0.00812142
0.00760548
0.00712246
0.00667605
0.0062724
0.00591628
0.00560074
0.00531694
0.0050583
0.00482006
0.00459859
0.00439089
0.00419451
0.00400713
0.00382662
0.0036509
0.00347796
0.00330581
0.00313251
0.00295622
0.00277505
0.00258725
0.00239111
0.00218503
0.00196763
0.00173774
0.00149473
0.00123887
0.00097205
0.000696516
0.000403794
0.0166428
0.015819
0.0150237
0.0142565
0.0135164
0.012803
0.0121159
0.0114546
0.0108189
0.0102084
0.00962285
0.00906219
0.00852647
0.00801634
0.00753296
0.00707865
0.00665755
0.006276
0.00593624
0.00563078
0.00535283
0.00509749
0.00486091
0.00463992
0.00443184
0.00423425
0.00404496
0.00386187
0.0036829
0.00350596
0.00332895
0.00314976
0.00296628
0.00277639
0.00257795
0.00236896
0.00214753
0.0019121
0.00166166
0.00139624
0.0011165
0.000819474
0.000510318
0.0165803
0.0158186
0.0150816
0.0143678
0.0136761
0.0130061
0.0123575
0.0117301
0.0111236
0.0105377
0.00997241
0.0094276
0.00890336
0.00840013
0.0079187
0.00746066
0.00702882
0.00662814
0.00626504
0.00593778
0.0056397
0.00536589
0.00511256
0.00487658
0.00465513
0.00444572
0.00424609
0.00405404
0.00386741
0.0036841
0.00350189
0.00331846
0.0031315
0.00293854
0.00273711
0.00252477
0.00229919
0.00205833
0.00180082
0.00152617
0.00123359
0.000916236
0.000607468
0.0165223
0.0158189
0.0151349
0.0144695
0.0138217
0.0131912
0.0125779
0.0119814
0.0114016
0.0108386
0.0102923
0.00976256
0.00924962
0.00875377
0.00827573
0.00781655
0.00737836
0.00696473
0.00658167
0.00623372
0.00591598
0.00562349
0.00535273
0.00510073
0.0048648
0.00464248
0.00443138
0.00422926
0.00403391
0.00384314
0.00365466
0.00346603
0.00327472
0.00307803
0.00287319
0.00265732
0.00242768
0.00218179
0.00191786
0.00163485
0.00133043
0.000995456
0.00070045
0.0164686
0.015819
0.0151835
0.0145619
0.0139542
0.0133596
0.0127783
0.0122101
0.011655
0.011113
0.0105841
0.0100686
0.00956643
0.00907811
0.00860414
0.00814547
0.0077036
0.0072813
0.00688328
0.00651636
0.00618007
0.00586957
0.00558147
0.00531313
0.00506215
0.00482619
0.00460289
0.00438996
0.00418517
0.00398624
0.00379077
0.00359626
0.00340003
0.00319919
0.00299064
0.00277118
0.00253765
0.00228718
0.00201755
0.0017271
0.00141206
0.00106296
0.000791453
0.0164206
0.0158191
0.0152275
0.014646
0.0140744
0.0135127
0.0129606
0.0124181
0.0118855
0.0113628
0.0108503
0.0103479
0.00985604
0.00937489
0.00890531
0.00844796
0.00800421
0.00757604
0.00716721
0.00678392
0.0064306
0.00610327
0.00579852
0.0055141
0.00524801
0.00499814
0.00476226
0.00453812
0.00432345
0.00411589
0.00391301
0.00371222
0.00351071
0.0033054
0.00309298
0.00286991
0.00263268
0.00237809
0.00210357
0.00180655
0.00148187
0.00112151
0.000881664
0.0163758
0.015819
0.0152672
0.0147219
0.0141832
0.0136514
0.0131264
0.012608
0.012096
0.0115912
0.011094
0.0106046
0.0101226
0.00964782
0.00918192
0.0087262
0.00828153
0.00784938
0.00743258
0.0070361
0.00666685
0.00632406
0.00600386
0.00570384
0.0054226
0.00515879
0.00491021
0.00467451
0.00444958
0.00423329
0.00402297
0.00381577
0.00360873
0.00339888
0.0031826
0.00295612
0.00271558
0.00245714
0.00217769
0.00187554
0.00154447
0.0011771
0.00096824
0.0163427
0.0158209
0.0153015
0.0147894
0.01428
0.0137756
0.0132772
0.012783
0.0122907
0.011802
0.0113204
0.0108476
0.0103806
0.00991212
0.00944606
0.00898975
0.00854533
0.00811117
0.00768977
0.00728482
0.0068992
0.00654097
0.00620891
0.00589682
0.00559931
0.00532008
0.00505913
0.00481244
0.00457471
0.00434581
0.0041263
0.00391272
0.00370001
0.00348399
0.00326286
0.00303182
0.00278715
0.00252773
0.00224767
0.00193405
0.00158379
0.00120796
0.00106305
0.000223088
0.000384648
0.000586296
0.000823696
0.00109667
0.00140444
0.00174795
0.00213293
0.00255768
0.00301615
0.00350682
0.00402954
0.00458492
0.00517324
0.00579501
0.00645084
0.00714149
0.00786747
0.00862979
0.00942913
0.0102662
0.0111421
0.0120575
0.0130134
0.0140106
0.01505
0.0161323
0.0172582
0.0184286
0.0196438
0.0209043
0.0222102
0.0235613
0.0249573
0.0263971
0.0278791
0.0294004
0.0309577
0.0325456
0.0341572
0.0357841
0.0374182
0.0390544
0.000360702
0.00057497
0.000843156
0.00115285
0.00149889
0.00187857
0.00229144
0.0027376
0.00321605
0.00372767
0.00427487
0.00485673
0.00547096
0.0061162
0.00679214
0.00749892
0.00823674
0.00900584
0.00980651
0.0106393
0.0115047
0.0124032
0.0133351
0.0143012
0.0153019
0.0163378
0.0174093
0.0185168
0.0196608
0.0208415
0.0220592
0.0233136
0.0246046
0.0259315
0.0272933
0.0286885
0.0301145
0.0315681
0.0330447
0.0345386
0.0360435
0.0375525
0.0390579
0.000513064
0.000788806
0.00112645
0.00150846
0.00192718
0.00237861
0.00286048
0.00337128
0.00391058
0.00447919
0.00507837
0.00570866
0.00637025
0.00706292
0.00778548
0.00853666
0.00931591
0.0101229
0.0109573
0.0118192
0.0127088
0.0136261
0.0145714
0.0155448
0.0165466
0.0175771
0.0186365
0.0197249
0.0208424
0.0219892
0.0231652
0.02437
0.0256035
0.0268645
0.0281522
0.0294648
0.0307999
0.0321546
0.0335248
0.0349062
0.036294
0.0376831
0.0390683
0.000673474
0.00101351
0.00141841
0.00186856
0.00235503
0.00287282
0.00341887
0.00399151
0.00459009
0.00521478
0.00586584
0.00654372
0.00724889
0.00798157
0.00874144
0.00952802
0.0103403
0.0111775
0.012039
0.0129241
0.0138327
0.0147644
0.015719
0.0166966
0.0176972
0.0187207
0.019767
0.0208361
0.0219279
0.0230422
0.0241788
0.0253373
0.0265171
0.0277171
0.0289362
0.0301725
0.0314239
0.0326878
0.0339608
0.0352397
0.0365207
0.0378004
0.0390743
0.000837281
0.00124038
0.0017084
0.00222142
0.00276986
0.00334823
0.00395311
0.00458284
0.00523643
0.00591341
0.00661361
0.00733713
0.00808411
0.00885467
0.00964859
0.0104657
0.0113054
0.012167
0.0130497
0.0139528
0.0148756
0.0158177
0.0167784
0.0177576
0.0187548
0.0197698
0.0208022
0.0218521
0.0229187
0.0240021
0.0251015
0.0262165
0.0273462
0.0284896
0.0296453
0.0308115
0.0319863
0.0331675
0.0343526
0.0355389
0.036724
0.0379053
0.0390808
0.00100043
0.00146337
0.00198985
0.00256041
0.00316534
0.0037988
0.00445738
0.00513914
0.00584287
0.00656769
0.00731322
0.0080791
0.0088652
0.00967138
0.0104974
0.0113429
0.0122074
0.0130903
0.0139909
0.0149086
0.0158424
0.0167918
0.0177559
0.0187343
0.0197263
0.0207316
0.0217496
0.02278
0.023822
0.0248754
0.0259393
0.0270132
0.0280961
0.029187
0.0302843
0.0313865
0.0324916
0.0335981
0.0347039
0.0358073
0.0369065
0.0380003
0.0390874
0.00116137
0.0016793
0.00225886
0.00288178
0.00353799
0.00422168
0.00492918
0.00565832
0.00640772
0.00717627
0.00796321
0.00876797
0.00959014
0.0104294
0.0112851
0.0121569
0.0130443
0.0139467
0.0148633
0.0157936
0.0167363
0.0176909
0.0186564
0.0196322
0.0206177
0.0216123
0.0226153
0.0236259
0.0246437
0.0256679
0.0266975
0.0277323
0.0287719
0.0298148
0.0308592
0.0319033
0.0329458
0.0339851
0.0350202
0.0360498
0.0370729
0.038089
0.0390981
0.00131085
0.00188081
0.00251143
0.00318396
0.00388843
0.00461867
0.00537085
0.00614336
0.00693505
0.00774449
0.00856939
0.00940908
0.0102649
0.0111347
0.0120175
0.0129127
0.0138204
0.0147403
0.0156712
0.0166124
0.0175615
0.018519
0.0194841
0.0204559
0.0214338
0.0224171
0.0234046
0.0243959
0.0253907
0.0263856
0.0273801
0.0283784
0.0293793
0.0303798
0.0313771
0.0323695
0.033356
0.0343358
0.035308
0.036272
0.0372277
0.0381754
0.0391156
0.00149612
0.0021238
0.00279831
0.00350887
0.00425644
0.00501866
0.00580451
0.00661387
0.0074467
0.00829761
0.00915215
0.0100182
0.0109104
0.0118055
0.0127099
0.0136223
0.0145467
0.0154825
0.016424
0.017373
0.0183211
0.01928
0.0202438
0.0212093
0.0221794
0.0231519
0.024124
0.0250994
0.0260749
0.0270334
0.0279862
0.028955
0.0299247
0.0308899
0.0318471
0.0327941
0.0337317
0.0346587
0.0355747
0.0364799
0.0373751
0.0382612
0.0391397
0.000606543
0.00221558
0.00388527
0.00556948
0.00725854
0.00894923
0.0106374
0.012322
0.0140023
0.0156798
0.0173556
0.0190299
0.0207037
0.0223789
0.0240563
0.0257365
0.0274201
0.0291081
0.0308003
0.0324972
0.0341994
0.0359068
0.0376191
0.0393361
0.0410582
0.0427848
0.0445154
0.0462498
0.0479874
0.0497274
0.0514694
0.0532129
0.0549568
0.0567005
0.0584431
0.0601837
0.0619214
0.0636553
0.0653849
0.0671087
0.0688264
0.0705374
0.0722453
0.00024518
0.00102393
0.002243
0.00362505
0.00510682
0.00665231
0.0082417
0.00986282
0.0115069
0.0131691
0.0148459
0.0165342
0.0182327
0.0199406
0.0216564
0.0233802
0.0251113
0.02685
0.0285953
0.0303469
0.0321054
0.0338701
0.03564
0.0374154
0.039196
0.040981
0.0427698
0.0445624
0.0463577
0.0481551
0.049954
0.0517535
0.0535527
0.0553512
0.0571477
0.0589415
0.0607313
0.0625167
0.0642964
0.0660695
0.0678353
0.0695924
0.0713416
0.000250929
0.000870963
0.00185692
0.00300299
0.00426527
0.00561616
0.00703836
0.00851815
0.0100457
0.0116139
0.0132169
0.014849
0.0165067
0.0181867
0.0198866
0.021604
0.0233373
0.0250847
0.0268445
0.0286161
0.0303986
0.0321905
0.0339911
0.0357994
0.0376146
0.0394361
0.0412631
0.0430945
0.0449295
0.0467675
0.0486072
0.0504477
0.0522884
0.054128
0.0559659
0.0578006
0.0596314
0.0614571
0.0632767
0.0650893
0.0668937
0.068689
0.0704767
0.000294223
0.000787081
0.00164231
0.0026428
0.00375776
0.00496715
0.00625707
0.00761618
0.00903568
0.0105086
0.0120289
0.0135908
0.0151895
0.0168216
0.0184835
0.0201722
0.0218844
0.0236181
0.0253714
0.0271424
0.0289289
0.0307298
0.0325434
0.0343684
0.0362036
0.0380476
0.0398994
0.0417576
0.0436211
0.0454888
0.0473597
0.0492326
0.0511063
0.0529798
0.0548518
0.0567212
0.0585866
0.0604472
0.0623017
0.064149
0.0659881
0.067818
0.0696419
0.000293837
0.000698129
0.00146213
0.00236364
0.00337679
0.00448452
0.00567527
0.00693976
0.00827001
0.00966022
0.0111045
0.0125979
0.014136
0.0157148
0.017331
0.0189809
0.0206616
0.0223706
0.0241051
0.0258627
0.0276414
0.0294394
0.0312542
0.0330847
0.0349289
0.036785
0.038652
0.0405278
0.0424114
0.0443011
0.0461957
0.0480938
0.0499942
0.0518954
0.053796
0.0556946
0.0575902
0.0594813
0.0613665
0.0632448
0.0651146
0.0669748
0.0688273
0.000293211
0.000628418
0.00132396
0.00215119
0.00308619
0.00411426
0.00522534
0.00641137
0.00766601
0.00898372
0.0103595
0.0117893
0.0132688
0.0147943
0.0163627
0.0179702
0.0196146
0.0212925
0.0230014
0.0247383
0.0265018
0.0282885
0.0300965
0.0319243
0.0337696
0.0356305
0.037505
0.0393914
0.0412882
0.0431937
0.0451059
0.0470235
0.0489451
0.0508688
0.052793
0.0547167
0.0566382
0.0585556
0.0604679
0.0623735
0.0642706
0.0661579
0.0680364
0.000291523
0.00057631
0.00121808
0.00198606
0.00285799
0.0038208
0.0048654
0.005985
0.00717435
0.00842849
0.00974296
0.0111144
0.0125388
0.0140134
0.0155347
0.0170997
0.0187056
0.0203497
0.0220291
0.0237415
0.0254842
0.0272546
0.0290504
0.0308698
0.0327105
0.0345701
0.0364465
0.0383377
0.0402424
0.0421579
0.0440828
0.0460151
0.0479531
0.0498948
0.0518387
0.0537835
0.0557268
0.0576673
0.0596033
0.0615329
0.0634545
0.0653662
0.067268
0.000289619
0.000535385
0.00113315
0.0018518
0.00267132
0.00357952
0.00456799
0.00563091
0.00676369
0.0079617
0.00922155
0.0105402
0.0119141
0.0133406
0.0148169
0.0163401
0.0179077
0.0195168
0.0211653
0.0228503
0.0245693
0.0263201
0.0281
0.0299069
0.0317382
0.0335922
0.035466
0.0373579
0.0392656
0.0411869
0.0431198
0.0450626
0.0470131
0.0489693
0.0509294
0.0528914
0.0548535
0.0568139
0.0587704
0.0607214
0.0626648
0.0645985
0.0665222
0.000287888
0.000502031
0.00106275
0.00173965
0.00251496
0.00337646
0.0043168
0.00533057
0.00641354
0.00756196
0.0087731
0.0100437
0.0113713
0.0127531
0.0141868
0.0156701
0.0172002
0.0187747
0.0203915
0.0220479
0.0237418
0.0254707
0.0272321
0.0290232
0.0308424
0.0326873
0.034555
0.0364437
0.0383509
0.0402743
0.0422119
0.0441615
0.0461212
0.0480885
0.0500613
0.0520376
0.0540155
0.0559928
0.0579675
0.0599374
0.0619005
0.0638543
0.0657984
0.000286289
0.000474248
0.00100335
0.00164455
0.00238183
0.00320295
0.00410121
0.00507173
0.00611061
0.00721506
0.00838207
0.00960928
0.0108943
0.0122347
0.0136285
0.0150737
0.0165676
0.0181083
0.0196936
0.0213214
0.0229893
0.024695
0.0264358
0.0282097
0.0300142
0.0318472
0.0337062
0.035589
0.0374928
0.0394153
0.0413545
0.0433081
0.0452737
0.047249
0.0492317
0.0512196
0.0532106
0.0552025
0.0571931
0.0591796
0.0611604
0.0631328
0.0650964
0.000284829
0.000450898
0.000952592
0.00156273
0.0022667
0.00305233
0.00391362
0.00484589
0.00584571
0.00691051
0.0080377
0.0092253
0.0104711
0.011773
0.0131294
0.0145385
0.0159979
0.0175061
0.0190605
0.0206599
0.0223014
0.0239829
0.0257024
0.0274574
0.0292459
0.0310654
0.0329135
0.0347878
0.0366857
0.0386051
0.0405433
0.0424983
0.0444673
0.0464482
0.0484382
0.0504354
0.0524372
0.0544413
0.0564452
0.0584468
0.0604437
0.0624338
0.0644177
0.000283522
0.000430734
0.00090839
0.00149112
0.00216581
0.00292018
0.00374852
0.00464651
0.00561121
0.00664008
0.00773116
0.00888239
0.010092
0.0113585
0.01268
0.0140549
0.0154818
0.0169583
0.0184831
0.0200542
0.0216695
0.0233269
0.0250244
0.0267599
0.0285312
0.0303356
0.0321711
0.0340352
0.0359256
0.0378395
0.0397749
0.0417288
0.0436992
0.0456832
0.0476786
0.0496827
0.0516931
0.0537075
0.0557231
0.0577376
0.0597488
0.0617543
0.0637548
0.00028229
0.000413322
0.000869624
0.00142796
0.00207649
0.00280296
0.00360169
0.00446879
0.00540171
0.00639806
0.00745593
0.00857375
0.00975019
0.0109836
0.0122724
0.0136154
0.015011
0.0164577
0.0179537
0.0194973
0.0210867
0.0227202
0.0243956
0.026111
0.027864
0.0296527
0.0314744
0.033327
0.035208
0.037115
0.0390454
0.0409967
0.0429663
0.0449518
0.0469505
0.0489597
0.0509769
0.0529996
0.0550251
0.0570508
0.0590743
0.0610931
0.0631055
0.000281248
0.000398107
0.000835437
0.0013721
0.00199669
0.00269801
0.00347003
0.00430914
0.00521301
0.00617952
0.0072071
0.00829431
0.00943981
0.0106424
0.0119008
0.0132135
0.0145796
0.0159976
0.0174658
0.018983
0.0205474
0.0221571
0.0238105
0.0255055
0.02724
0.0290119
0.0308191
0.032659
0.0345296
0.0364281
0.0383523
0.0402992
0.0422666
0.0442518
0.0462521
0.0482647
0.050287
0.0523165
0.0543501
0.0563854
0.0584198
0.0604504
0.0624757
0.000280217
0.000384566
0.000804895
0.00132207
0.00192492
0.00260333
0.00335106
0.00416472
0.00504209
0.0059813
0.00698089
0.00803967
0.00915652
0.0103303
0.01156
0.0128443
0.0141825
0.0155731
0.0170148
0.0185063
0.0200461
0.0216328
0.0232642
0.0249387
0.0266545
0.0284094
0.0302013
0.032028
0.033887
0.0357761
0.0376927
0.039634
0.0415979
0.0435812
0.0455815
0.047596
0.0496219
0.0516565
0.053697
0.0557405
0.0577843
0.0598254
0.0618622
0.00027921
0.000372582
0.000777427
0.00127687
0.00185987
0.00251731
0.00324274
0.00403306
0.00488604
0.00580013
0.00677383
0.0078062
0.00889634
0.0100433
0.011246
0.0125035
0.0138152
0.0151798
0.0165961
0.0180628
0.0195789
0.0211428
0.0227527
0.0244071
0.026104
0.0278416
0.029618
0.0314306
0.0332775
0.0351562
0.0370642
0.038999
0.0409579
0.0429381
0.0449371
0.0469522
0.0489804
0.0510189
0.0530649
0.0551155
0.057168
0.0592198
0.0612706
0.000278413
0.000362711
0.000752589
0.00123571
0.00180051
0.00243875
0.00314375
0.00391245
0.00474294
0.00563372
0.0065835
0.0075913
0.00865645
0.00977815
0.0109555
0.0121879
0.0134743
0.0148141
0.0162059
0.0176491
0.0191421
0.0206838
0.0222727
0.0239071
0.0255852
0.0273056
0.0290659
0.0308644
0.0326985
0.0345661
0.0364647
0.0383919
0.0403448
0.0423211
0.0443177
0.0463322
0.0483615
0.0504027
0.0524531
0.0545098
0.0565701
0.0586319
0.060695
0.000278156
0.000357051
0.000730087
0.00119817
0.00174609
0.00236662
0.00305278
0.00380156
0.0046111
0.00548022
0.00640759
0.00739244
0.00843422
0.0095321
0.0106857
0.0118941
0.0131568
0.0144729
0.0158415
0.0172617
0.0187326
0.0202528
0.021821
0.0234357
0.0250954
0.0267983
0.0285427
0.0303265
0.0321474
0.0340035
0.0358921
0.0378109
0.0397572
0.0417284
0.0437219
0.0457347
0.0477638
0.0498069
0.0518605
0.053922
0.0559888
0.0580584
0.0601289
0.000278647
0.000355913
0.000709657
0.00116369
0.00169601
0.00230004
0.0029688
0.0036991
0.00448924
0.00533801
0.0062444
0.00720783
0.00822765
0.00930328
0.0104342
0.01162
0.0128601
0.0141536
0.0154999
0.0168982
0.0183475
0.0198469
0.0213951
0.0229904
0.0246319
0.0263176
0.0280459
0.0298148
0.0316226
0.0334665
0.0353446
0.0372543
0.0391932
0.0411587
0.043148
0.0451581
0.0471865
0.0492301
0.0512859
0.0533511
0.0554232
0.0574992
0.0595779
0.000279651
0.000357138
0.000691101
0.00113205
0.00165005
0.00223849
0.00289091
0.00360405
0.00437604
0.00520581
0.00609265
0.00703586
0.0080351
0.00908963
0.0101991
0.0113634
0.0125819
0.0138539
0.0151788
0.0165561
0.0179848
0.019464
0.0209925
0.0225691
0.0241925
0.0258612
0.0275735
0.0293277
0.0311216
0.0329533
0.0348204
0.0367206
0.0386516
0.0406107
0.0425949
0.0446016
0.0466281
0.0486714
0.0507283
0.0527961
0.0548714
0.0569514
0.0590319
0.000280828
0.000358917
0.000674173
0.00110299
0.00160761
0.00218133
0.00281846
0.00351545
0.00427051
0.00508255
0.00595092
0.00687516
0.0078548
0.00888954
0.00997891
0.0111227
0.0123206
0.0135721
0.0148766
0.0162335
0.0176422
0.0191018
0.0206112
0.0221693
0.0237751
0.025427
0.0271236
0.0288627
0.030643
0.0324621
0.034318
0.0362085
0.038131
0.0400829
0.0420615
0.0440642
0.046088
0.0481299
0.0501869
0.0522557
0.0543332
0.0564151
0.0584973
0.000281973
0.000360552
0.000658608
0.00107591
0.00156799
0.00212798
0.0027508
0.00343265
0.00417171
0.004967
0.00581807
0.00672438
0.00768572
0.00870151
0.00977174
0.0108961
0.0120744
0.0133062
0.0145911
0.0159285
0.017318
0.0187586
0.0202495
0.0217898
0.0233782
0.0250136
0.0266943
0.0284187
0.0301852
0.0319917
0.0338362
0.0357164
0.03763
0.0395743
0.0415468
0.0435446
0.045565
0.0476049
0.0496611
0.0517305
0.0538091
0.0558923
0.0579738
0.000282936
0.000361713
0.000644283
0.00105073
0.00153105
0.00207807
0.00268742
0.00335503
0.00407906
0.00485876
0.00569333
0.00658269
0.00752651
0.00852442
0.00957645
0.0106824
0.0118419
0.0130549
0.0143209
0.0156396
0.0170104
0.0184328
0.0199058
0.0214286
0.0230001
0.0246191
0.0262843
0.0279941
0.0297468
0.0315406
0.0333733
0.0352431
0.0371474
0.0390839
0.0410495
0.043042
0.0450585
0.0470959
0.049151
0.0512207
0.0533019
0.0553921
0.0574939
0.000283763
0.000362657
0.00063102
0.0010273
0.00149645
0.00203125
0.00262793
0.00328205
0.00399197
0.00475681
0.00557595
0.00644923
0.00737645
0.0083573
0.00939188
0.0104801
0.0116218
0.0128168
0.0140647
0.0153653
0.0167183
0.018123
0.0195785
0.0210843
0.0226392
0.0242423
0.0258921
0.0275873
0.0293263
0.0311073
0.0329284
0.0347875
0.0366824
0.0386104
0.0405691
0.042556
0.0445679
0.0466023
0.0486559
0.0507259
0.0528094
0.0549043
0.0570114
0.00028456
0.000363237
0.000618665
0.00100534
0.00146407
0.00198736
0.00257198
0.00321338
0.00390984
0.00466064
0.00546506
0.00632306
0.00723456
0.00819921
0.00921727
0.0102886
0.0114131
0.0125909
0.0138214
0.0151047
0.0164404
0.0178278
0.0192664
0.0207556
0.0222944
0.0238817
0.0255165
0.0271974
0.0289228
0.0306911
0.0325005
0.0343487
0.0362337
0.0381532
0.0401047
0.0420853
0.0440925
0.0461235
0.0481752
0.0502449
0.0523298
0.0544275
0.056538
0.000285194
0.000363522
0.000607191
0.000984713
0.00143353
0.00194606
0.0025191
0.00314844
0.00383231
0.00456968
0.0053601
0.00620368
0.00710008
0.00804933
0.00905166
0.0101068
0.0112149
0.0123761
0.01359
0.0148565
0.0161754
0.0175461
0.0189684
0.0204414
0.0219644
0.0235365
0.0251565
0.0268231
0.0285351
0.0302908
0.0320882
0.0339256
0.0358007
0.0377115
0.0396552
0.0416294
0.0436315
0.0456586
0.047708
0.0497767
0.0518617
0.0539606
0.0560719
0.000285718
0.000363605
0.000596816
0.000965418
0.00140485
0.00190725
0.00246924
0.00308717
0.0037589
0.00448348
0.00526071
0.00609045
0.0069724
0.00790704
0.00889421
0.00993386
0.0110264
0.0121715
0.0133693
0.0146197
0.0159223
0.017277
0.0186833
0.0201408
0.0216483
0.0232053
0.0248109
0.0264636
0.0281623
0.0299052
0.0316909
0.0335173
0.0353825
0.0372843
0.0392201
0.0411876
0.0431842
0.0452071
0.0472534
0.0493202
0.0514043
0.0535028
0.0556126
0.000286193
0.000363761
0.000588503
0.000947335
0.00137792
0.00187059
0.00242196
0.00302892
0.00368918
0.00440172
0.00516627
0.00598273
0.00685116
0.00777172
0.00874428
0.00976921
0.0108464
0.0119763
0.0131587
0.0143934
0.0156804
0.0170196
0.0184105
0.0198525
0.0213451
0.0228875
0.0244787
0.0261177
0.0278031
0.0295337
0.0313075
0.0331231
0.0349782
0.0368709
0.0387986
0.0407592
0.0427499
0.0447681
0.0468109
0.048875
0.0509576
0.0530548
0.0551636
0.000286687
0.000364404
0.000583605
0.000930591
0.00135244
0.00183575
0.00237704
0.00297359
0.00362288
0.00432396
0.00507643
0.00588031
0.00673572
0.00764261
0.0086014
0.00961203
0.0106748
0.0117899
0.0129573
0.014177
0.015449
0.016773
0.0181489
0.0195761
0.0210541
0.022582
0.0241592
0.0257847
0.0274571
0.0291752
0.0309374
0.032742
0.034587
0.0364704
0.0383901
0.0403435
0.042328
0.0443411
0.0463797
0.048441
0.0505216
0.0526179
0.0547263
0.000287278
0.000365763
0.000582041
0.000915214
0.00132834
0.00180269
0.0023343
0.00292094
0.00355978
0.00424984
0.00499079
0.0057826
0.0066254
0.00751941
0.00846486
0.00946184
0.0105107
0.0116115
0.0127645
0.0139697
0.0152271
0.0165366
0.0178978
0.0193105
0.0207742
0.022288
0.0238517
0.0254638
0.0271235
0.0288294
0.0305799
0.0323734
0.0342083
0.0360825
0.0379938
0.0399398
0.0419179
0.0439256
0.0459599
0.048018
0.0500965
0.0521924
0.0543038
0.000287978
0.000367725
0.00058239
0.000900928
0.00130547
0.00177122
0.00229361
0.00287076
0.00349958
0.00417916
0.00490904
0.00568931
0.00652017