/*--------------------------------*- C++ -*----------------------------------*\
| =========                 |                                                 |
| \\      /  F ield         | OpenFOAM: The Open Source CFD Toolbox           |
|  \\    /   O peration     | Version:  2.3.0                                 |
|   \\  /    A nd           | Web:      www.OpenFOAM.org                      |
|    \\/     M anipulation  |                                                 |
\*---------------------------------------------------------------------------*/
FoamFile
{
    version     2.0;
    format      ascii;
    class       volScalarField;
    location    "1000";
    object      p;
}
// * * * * * * * * * * * * * * * * * * * * * * * * * * * * * * * * * * * * * //

dimensions      [0 2 -2 0 0 0 0];

internalField   nonuniform List<scalar> 
38227
(
0.00272548
1.40797
3.12624
4.89194
6.66643
8.45624
10.2635
12.0871
13.9287
15.7894
17.6688
19.5682
21.4874
23.4267
25.3863
27.3642
29.3596
31.3727
33.3968
35.4303
37.4649
39.4967
41.5162
43.5134
45.4772
47.3851
49.2263
50.9664
52.5795
54.0352
55.2885
56.2748
56.9338
57.1705
56.8576
55.8154
53.8593
50.6903
45.9436
39.1852
29.9969
16.3678
-8.60214
-0.673169
0.302344
1.83112
3.44001
5.06565
6.71054
8.37973
10.0706
11.7824
13.5163
15.2711
17.0472
18.8451
20.665
22.5082
24.3752
26.2665
28.1825
30.1251
32.0938
34.0905
36.1125
38.1584
40.2254
42.3061
44.3899
46.4665
48.5206
50.5253
52.4423
54.2214
55.8002
57.0963
58.0078
58.4035
58.1163
56.941
54.6293
50.8705
45.2895
37.4173
26.4935
11.2519
-2.15478
-1.13101
0.226544
1.62758
3.01769
4.40506
5.79562
7.19074
8.58828
9.98885
11.3914
12.7935
14.1944
15.5925
16.9853
18.3706
19.7449
21.1051
22.4457
23.7623
25.0492
26.2972
27.4981
28.6415
29.7121
30.6945
31.5695
32.3053
32.8755
33.2419
33.3584
33.1704
32.6087
31.5945
30.0287
27.8002
24.7798
20.8373
15.8307
9.61916
2.09771
-6.77307
-16.8516
-3.0326
-2.31902
-1.14855
0.0622512
1.26659
2.47095
3.67775
4.88936
6.10421
7.32082
8.53896
9.757
10.9731
12.1869
13.3961
14.5983
15.7909
16.9712
18.134
19.2755
20.3895
21.4675
22.5018
23.4805
24.3887
25.2109
25.9283
26.5151
26.9444
27.1786
27.1777
26.8904
26.2603
25.2192
23.6924
21.5972
18.8385
15.3358
11.0035
5.77291
-0.380026
-7.43099
-15.2666
-4.34193
-3.50118
-2.4557
-1.39805
-0.350193
0.694493
1.73639
2.78145
3.82558
4.86829
5.90714
6.9413
7.96834
8.98606
9.9923
10.984
11.9583
12.9118
13.8381
14.7332
15.5902
16.4001
17.1557
17.8454
18.4559
18.9692
19.3698
19.631
19.729
19.6288
19.3017
18.6988
17.7786
16.4808
14.7508
12.5337
9.75302
6.36509
2.32513
-2.39687
-7.7798
-13.7805
-20.2667
-5.0846
-4.50452
-3.60905
-2.69832
-1.79206
-0.8809
0.0249791
0.938811
1.85062
2.76129
3.6675
4.5686
5.46295
6.34754
7.21692
8.07078
8.9061
9.72134
10.5096
11.2686
11.9838
12.6486
13.2583
13.8021
14.2693
14.6393
14.8969
15.0159
14.9734
14.7394
14.2924
13.5923
12.6022
11.2566
9.52936
7.37609
4.72782
1.56233
-2.14678
-6.40724
-11.2107
-16.498
-22.1743
-6.18678
-5.5268
-4.71343
-3.89666
-3.09193
-2.2887
-1.50411
-0.694519
0.115705
0.92336
1.72241
2.51305
3.2988
4.07966
4.83834
5.58182
6.30293
6.9904
7.65106
8.30701
8.9105
9.44966
9.93234
10.3533
10.7038
10.9677
11.1248
11.1473
11.0055
10.6669
10.1097
9.32404
8.29627
6.91041
5.18847
3.09082
0.544408
-2.47678
-5.93972
-9.85766
-14.2465
-19.0429
-24.1966
-6.59963
-6.31695
-5.66858
-4.96892
-4.24892
-3.52304
-2.87442
-2.16986
-1.45151
-0.71521
0.0142066
0.71294
1.40377
2.11344
2.79082
3.45006
4.1254
4.72527
5.24088
5.82218
6.37359
6.83102
7.20565
7.51466
7.76137
7.93743
8.03057
8.00462
7.84652
7.49682
6.89219
6.0347
5.06117
3.68408
2.01337
0.00447229
-2.39305
-5.3315
-8.55918
-12.2512
-16.329
-20.7108
-25.48
-7.1568
-6.88506
-6.42178
-5.9458
-5.48215
-4.58679
-4.09619
-3.56604
-3.04252
-2.44641
-1.7979
-1.17408
-0.610822
0.00147356
0.621196
1.13748
1.58282
2.44763
2.80289
3.26108
3.79922
4.27981
4.62586
4.82643
4.9424
4.98856
4.97537
4.83559
4.60959
4.1936
3.66377
2.90941
2.28889
0.826346
-0.850728
-2.56701
-4.71323
-7.49492
-10.5029
-13.8831
-17.8847
-21.9024
-25.8142
-70.2646
-90.5827
-98.2535
-107.047
-114.887
-120.236
-123.85
-126.505
-128.464
-129.916
-130.937
-131.625
-132.051
-132.281
-132.332
-132.232
-132.001
-131.647
-131.186
-130.647
-130.017
-129.318
-128.558
-127.748
-126.9
-126.012
-125.102
-124.174
-123.227
-122.272
-121.31
-120.343
-119.374
-118.405
-117.435
-116.465
-115.496
-114.527
-113.559
-112.592
-111.624
-110.657
-109.779
-10.0046
-32.689
-51.1945
-65.8945
-77.8241
-87.4139
-95.0263
-101.038
-105.724
-109.345
-112.099
-114.158
-115.664
-116.751
-117.492
-117.984
-118.271
-118.408
-118.422
-118.349
-118.202
-118.004
-117.758
-117.476
-117.166
-116.819
-116.449
-116.053
-115.628
-115.177
-114.701
-114.199
-113.672
-113.12
-112.545
-111.948
-111.329
-110.689
-110.032
-109.356
-108.66
-107.933
-107.21
-27.6485
-38.3895
-48.3098
-57.2064
-65.1363
-72.1187
-78.1708
-83.3921
-87.8672
-91.6905
-94.9499
-97.7304
-100.091
-102.103
-103.808
-105.256
-106.47
-107.484
-108.325
-109.018
-109.562
-109.992
-110.309
-110.529
-110.661
-110.713
-110.694
-110.613
-110.478
-110.29
-110.058
-109.787
-109.48
-109.14
-108.771
-108.375
-107.956
-107.512
-107.048
-106.564
-106.061
-105.534
-104.957
-23.669
-32.3016
-40.7917
-48.8525
-56.3255
-63.1163
-69.1978
-74.5855
-79.3105
-83.4314
-87.0077
-90.0884
-92.7441
-95.0231
-96.9726
-98.6368
-100.052
-101.258
-102.272
-103.127
-103.839
-104.43
-104.911
-105.298
-105.6
-105.832
-105.995
-106.096
-106.146
-106.144
-106.097
-106.01
-105.882
-105.718
-105.523
-105.296
-105.041
-104.759
-104.451
-104.12
-103.77
-103.408
-102.991
-27.0894
-34.0515
-40.9672
-47.6296
-53.9265
-59.756
-65.0802
-69.8934
-74.2058
-78.0421
-81.4421
-84.4441
-87.0846
-89.401
-91.435
-93.212
-94.7658
-96.1201
-97.3016
-98.3242
-99.2078
-99.9675
-100.615
-101.166
-101.624
-102.006
-102.311
-102.553
-102.735
-102.866
-102.94
-102.974
-102.963
-102.916
-102.834
-102.721
-102.582
-102.412
-102.214
-101.989
-101.743
-101.484
-101.137
-28.1244
-34.2066
-40.2958
-46.2233
-51.8933
-57.2158
-62.1416
-66.6513
-70.7425
-74.4331
-77.7401
-80.6964
-83.322
-85.6504
-87.7128
-89.5266
-91.1382
-92.5539
-93.8032
-94.8929
-95.8446
-96.6721
-97.3902
-98.0133
-98.5458
-99.0019
-99.3897
-99.7073
-99.9712
-100.181
-100.335
-100.451
-100.518
-100.555
-100.555
-100.53
-100.479
-100.391
-100.276
-100.132
-99.9685
-99.7903
-99.519
-29.5698
-35.0417
-40.5309
-45.8921
-51.0431
-55.906
-60.4478
-64.6538
-68.5099
-72.0038
-75.1752
-78.0093
-80.5487
-82.8207
-84.858
-86.6705
-88.3036
-89.7415
-91.0169
-92.1372
-93.1212
-93.981
-94.7387
-95.4084
-96.0055
-96.5205
-96.97
-97.3454
-97.6777
-97.9439
-98.1568
-98.3308
-98.4543
-98.5571
-98.6171
-98.6624
-98.68
-98.6509
-98.5975
-98.5141
-98.4206
-98.3057
-98.133
-30.4956
-35.5433
-40.6047
-45.5796
-50.3837
-54.9636
-59.2415
-63.2191
-66.883
-70.1669
-73.2252
-75.9487
-78.4181
-80.6691
-82.718
-84.4977
-86.1241
-87.5575
-88.8435
-89.9699
-90.9549
-91.8173
-92.6121
-93.3418
-94.0006
-94.5332
-95.0207
-95.4397
-95.8318
-96.1102
-96.3595
-96.583
-96.7312
-96.8906
-97.0035
-97.1101
-97.1744
-97.1683
-97.1478
-97.0926
-97.0454
-96.9676
-96.8825
-30.4413
-35.1688
-39.9333
-44.8132
-49.6146
-54.2762
-58.4317
-62.1788
-65.6477
-68.766
-71.909
-74.7253
-77.3247
-79.679
-81.7095
-83.2909
-84.8635
-86.2915
-87.6091
-88.7413
-89.743
-90.653
-91.5641
-92.402
-93.049
-93.4622
-93.9395
-94.3411
-94.6986
-94.8791
-95.1268
-95.356
-95.4162
-95.5893
-95.658
-95.9639
-96.0475
-95.9474
-95.8979
-95.8248
-95.791
-95.6832
-95.6125
-72.2077
-71.8663
-71.5554
-71.2283
-70.8921
-70.546
-70.1892
-69.821
-69.4404
-69.0458
-68.6357
-68.2085
-67.7621
-67.2951
-66.8062
-66.2953
-65.7626
-65.2092
-64.6371
-64.0494
-63.4503
-62.8448
-62.2378
-61.6348
-61.0415
-60.4647
-59.9094
-59.38
-58.8812
-58.4166
-57.9892
-57.6004
-57.2504
-56.9385
-56.6636
-56.4224
-56.2101
-56.0208
-55.8469
-55.6833
-55.536
-55.424
-55.1452
-71.594
-71.2595
-70.9634
-70.6568
-70.3449
-70.0278
-69.7058
-69.3791
-69.0484
-68.7142
-68.377
-68.0377
-67.6961
-67.3534
-67.0091
-66.6635
-66.3159
-65.9661
-65.6131
-65.2559
-64.8935
-64.5247
-64.1484
-63.7632
-63.3682
-62.9624
-62.5452
-62.1164
-61.6758
-61.2233
-60.7591
-60.284
-59.7985
-59.3036
-58.8002
-58.2902
-57.7764
-57.2632
-56.7586
-56.2754
-55.8321
-55.4821
-55.2379
-71.0346
-70.7257
-70.4489
-70.1612
-69.8685
-69.5711
-69.2695
-68.9636
-68.6537
-68.3406
-68.0246
-67.7061
-67.3851
-67.0622
-66.7373
-66.4105
-66.0813
-65.7493
-65.4139
-65.0742
-64.7296
-64.3794
-64.0222
-63.657
-63.2827
-62.8984
-62.5035
-62.0968
-61.6778
-61.2468
-60.8039
-60.3491
-59.8833
-59.4075
-58.924
-58.4355
-57.9461
-57.4617
-56.9913
-56.5488
-56.1434
-55.7769
-55.5139
-70.5519
-70.2513
-69.9853
-69.7093
-69.4275
-69.14
-68.8469
-68.5477
-68.2425
-67.9313
-67.614
-67.2904
-66.9606
-66.6242
-66.2815
-65.9321
-65.5768
-65.215
-64.8472
-64.4735
-64.094
-63.7088
-63.3179
-62.9215
-62.5191
-62.1111
-61.6972
-61.2771
-60.8513
-60.4197
-59.9826
-59.5411
-59.0967
-58.6504
-58.2047
-57.7626
-57.3279
-56.9062
-56.5053
-56.1376
-55.8129
-55.5076
-55.3325
-70.1149
-69.8335
-69.582
-69.3197
-69.0515
-68.7771
-68.4971
-68.2111
-67.9189
-67.62
-67.3149
-67.0035
-66.6854
-66.3601
-66.0276
-65.6873
-65.3396
-64.9843
-64.6215
-64.2513
-63.8738
-63.4889
-63.0971
-62.698
-62.2918
-61.8789
-61.4594
-61.0335
-60.6012
-60.1631
-59.7196
-59.2721
-58.8228
-58.3741
-57.9286
-57.4901
-57.0641
-56.6573
-56.2785
-55.939
-55.6496
-55.3671
-55.2294
-69.7367
-69.4695
-69.2341
-68.9867
-68.7336
-68.4739
-68.2086
-67.9375
-67.66
-67.3757
-67.0848
-66.788
-66.4851
-66.1748
-65.8563
-65.5294
-65.1946
-64.8512
-64.499
-64.1384
-63.7692
-63.3917
-63.006
-62.613
-62.212
-61.8028
-61.3866
-60.9649
-60.5367
-60.1003
-59.6566
-59.2084
-58.7587
-58.3098
-57.8646
-57.4281
-57.0067
-56.6101
-56.2516
-55.9406
-55.6854
-55.4166
-55.2875
-69.409
-69.1516
-68.9317
-68.6972
-68.4588
-68.2114
-67.9593
-67.7015
-67.4372
-67.1645
-66.8835
-66.5968
-66.3049
-66.0062
-65.6978
-65.3789
-65.0525
-64.7156
-64.3689
-64.0123
-63.647
-63.272
-62.8873
-62.4954
-62.0953
-61.6853
-61.2677
-60.8471
-60.4245
-59.9965
-59.5586
-59.1114
-58.664
-58.2217
-57.7845
-57.3549
-56.94
-56.5472
-56.2039
-55.9592
-55.8066
-55.5777
-55.4216
-69.11
-68.8678
-68.6674
-68.4427
-68.2211
-67.9833
-67.7432
-67.4983
-67.2475
-66.9871
-66.714
-66.4357
-66.1543
-65.8695
-65.5724
-65.2594
-64.9428
-64.6138
-64.2735
-63.9212
-63.5603
-63.1865
-62.8017
-62.4182
-62.0266
-61.6162
-61.1925
-60.7753
-60.361
-59.9395
-59.5018
-59.0499
-58.5965
-58.1514
-57.7099
-57.2757
-56.8536
-56.4548
-56.0845
-55.823
-55.8312
-55.7315
-55.565
-68.8651
-68.6268
-68.4486
-68.2205
-68.0193
-67.7826
-67.5508
-67.3164
-67.0803
-66.8369
-66.5643
-66.282
-66.001
-65.7376
-65.4662
-65.146
-64.8404
-64.5159
-64.1822
-63.8231
-63.475
-63.1108
-62.6862
-62.2765
-61.9019
-61.5011
-61.029
-60.5697
-60.1805
-59.8201
-59.4158
-58.931
-58.4693
-58.0614
-57.6524
-57.2354
-56.8271
-56.3242
-55.776
-55.648
-56.3315
-56.5041
-55.9365
-54.613
-54.0192
-53.3908
-52.8333
-52.3244
-51.8575
-51.4268
-51.0274
-50.6551
-50.3054
-49.9755
-49.6633
-49.3665
-49.0849
-48.8168
-48.5611
-48.3178
-48.0858
-47.8648
-47.6545
-47.4546
-47.2645
-47.0845
-46.9138
-46.7525
-46.5999
-46.4569
-46.3226
-46.1965
-46.0794
-45.9703
-45.87
-45.7776
-45.6934
-45.6174
-45.5494
-45.4898
-45.4377
-45.3937
-45.3571
-45.3276
-45.3019
-45.2561
-54.9896
-54.6535
-54.2533
-53.8514
-53.4474
-53.0539
-52.6765
-52.317
-51.9764
-51.6546
-51.3499
-51.062
-50.7882
-50.5285
-50.281
-50.0448
-49.8182
-49.6014
-49.3929
-49.1915
-48.9969
-48.8083
-48.6256
-48.4472
-48.2738
-48.1038
-47.9379
-47.776
-47.6167
-47.4611
-47.3081
-47.1591
-47.0117
-46.8687
-46.7292
-46.5937
-46.4627
-46.3357
-46.2143
-46.0988
-45.991
-45.8899
-45.7923
-55.1667
-54.7684
-54.3705
-53.985
-53.6075
-53.2409
-52.8856
-52.5428
-52.2129
-51.8969
-51.5945
-51.3054
-51.0294
-50.7655
-50.5135
-50.2726
-50.0418
-49.8207
-49.6091
-49.4063
-49.2108
-49.0239
-48.8439
-48.6707
-48.5041
-48.3432
-48.1882
-48.0382
-47.8925
-47.7513
-47.6131
-47.4788
-47.3468
-47.2182
-47.0919
-46.9683
-46.8472
-46.7278
-46.6104
-46.4943
-46.3809
-46.2678
-46.1308
-55.0655
-54.7164
-54.3521
-53.9852
-53.6241
-53.271
-52.9272
-52.5939
-52.2723
-51.9626
-51.6651
-51.3797
-51.107
-50.8457
-50.596
-50.3571
-50.129
-49.9105
-49.7015
-49.5017
-49.3098
-49.1259
-48.9497
-48.781
-48.6184
-48.4621
-48.3124
-48.1673
-48.0286
-47.894
-47.7631
-47.6362
-47.5127
-47.3935
-47.2783
-47.1672
-47.0591
-46.9534
-46.8498
-46.7481
-46.6491
-46.5501
-46.4323
-55.0033
-54.6923
-54.3627
-54.0228
-53.6838
-53.3477
-53.0178
-52.6958
-52.3832
-52.0808
-51.7894
-51.5095
-51.241
-50.9836
-50.7378
-50.5024
-50.2778
-50.0624
-49.8569
-49.6596
-49.4709
-49.2887
-49.1164
-48.9503
-48.7915
-48.6396
-48.4944
-48.3539
-48.2202
-48.0885
-47.9602
-47.8352
-47.7148
-47.5996
-47.4891
-47.3835
-47.2812
-47.1807
-47.0822
-46.9865
-46.8942
-46.8025
-46.69
-55.0572
-54.7464
-54.4201
-54.0834
-53.7492
-53.4186
-53.0948
-52.7792
-52.4724
-52.1741
-51.8852
-51.6082
-51.3422
-51.0871
-50.8422
-50.6089
-50.3853
-50.1715
-49.968
-49.7706
-49.5826
-49.4018
-49.2324
-49.0689
-48.914
-48.7659
-48.6234
-48.4882
-48.358
-48.2283
-48.1011
-47.9787
-47.8636
-47.7548
-47.6526
-47.556
-47.4609
-47.3659
-47.2729
-47.1834
-47.098
-47.0141
-46.9093
-55.1261
-54.7771
-54.4362
-54.0943
-53.759
-53.4322
-53.112
-52.7999
-52.496
-52.1955
-51.9044
-51.6292
-51.3619
-51.1072
-50.8624
-50.631
-50.4071
-50.196
-49.9949
-49.7955
-49.607
-49.4285
-49.2655
-49.1054
-48.9546
-48.8129
-48.6757
-48.5561
-48.4359
-48.3105
-48.1841
-48.0668
-47.9606
-47.8613
-47.7696
-47.6839
-47.5969
-47.5062
-47.4184
-47.3366
-47.2611
-47.1906
-47.0887
-55.245
-54.8886
-54.5611
-54.1806
-53.8338
-53.5001
-53.1801
-52.8795
-52.5942
-52.2885
-51.9973
-51.7395
-51.4779
-51.2323
-50.9871
-50.7674
-50.5407
-50.346
-50.1385
-49.9301
-49.7377
-49.5686
-49.416
-49.2486
-49.1006
-48.9695
-48.8296
-48.7306
-48.5897
-48.4218
-48.2624
-48.1379
-48.0321
-47.9356
-47.8542
-47.7828
-47.701
-47.605
-47.5176
-47.4408
-47.3736
-47.3264
-47.2622
-55.102
-54.5239
-54.2448
-53.9011
-53.5678
-53.301
-53.0102
-52.7221
-52.4157
-52.0171
-51.6985
-51.4905
-51.1478
-50.856
-50.5969
-50.3504
-50.1188
-49.8951
-49.6696
-49.4088
-49.2456
-49.0906
-48.9371
-48.7454
-48.6198
-48.4902
-48.3276
-48.2804
-48.0409
-47.881
-47.8777
-47.8725
-47.8747
-47.8648
-47.8593
-47.8428
-47.7721
-47.6584
-47.5859
-47.5465
-47.5302
-47.5503
-47.5763
265.323
250.529
232.779
215.549
199.303
183.932
169.572
156.311
144.187
133.143
123.13
114.067
105.874
98.4504
91.7113
85.5776
79.968
74.8092
70.0486
65.613
61.4622
57.5544
53.8549
50.3336
46.9642
43.7328
40.6154
37.6035
34.6881
31.8586
29.1058
26.428
23.8175
21.2715
18.7867
16.3597
13.9892
11.6703
9.40311
7.18178
4.99131
2.88014
1.14249
141.976
141.713
138.86
134.775
130.188
125.346
120.355
115.306
110.258
105.258
100.346
95.541
90.8538
86.3086
81.9009
77.6422
73.5292
69.5597
65.7391
62.0528
58.4982
55.0723
51.7649
48.5694
45.4752
42.4833
39.5781
36.757
34.0139
31.3437
28.7391
26.199
23.7154
21.289
18.914
16.5875
14.31
12.0771
9.8889
7.74138
5.62405
3.5766
1.90982
114.346
116.079
116.488
116.256
115.386
113.906
111.872
109.362
106.456
103.226
99.744
96.0737
92.2657
88.3762
84.4447
80.5059
76.5914
72.7205
68.917
65.1894
61.5483
58.0026
54.5509
51.2
47.9411
44.7807
41.7087
38.7283
35.8302
33.0132
30.2729
27.6072
25.0084
22.4753
20.0055
17.5942
15.2381
12.9359
10.6849
8.4761
6.30193
4.20544
2.38137
116.353
115.797
114.154
112.331
110.343
108.169
105.804
103.262
100.556
97.7017
94.7199
91.6269
88.4407
85.1801
81.8654
78.5118
75.1371
71.7571
68.3827
65.0296
61.704
58.4186
55.1766
51.989
48.8566
45.7826
42.7696
39.8212
36.9348
34.1121
31.3519
28.6534
26.0169
23.4377
20.9162
18.4525
16.0417
13.6848
11.381
9.12502
6.90922
4.79622
3.17725
102.301
101.697
100.699
99.5718
98.2789
96.8213
95.2068
93.4418
91.5279
89.4718
87.278
84.9566
82.5153
79.966
77.3206
74.5948
71.7966
68.9455
66.0481
63.1245
60.1793
57.2304
54.2824
51.3443
48.4291
45.5371
42.6787
39.8544
37.0726
34.3305
31.6354
28.984
26.3808
23.8269
21.3178
18.8596
16.4472
14.0839
11.7661
9.49351
7.25165
5.08623
3.32777
88.5798
88.3864
88.0903
87.6398
87.0207
86.2359
85.2884
84.1792
82.911
81.4886
79.9161
78.2006
76.3509
74.373
72.2791
70.0779
67.7804
65.3988
62.9441
60.4256
57.8567
55.248
52.6087
49.9488
47.279
44.6033
41.9359
39.2748
36.6333
34.0126
31.4184
28.8534
26.3189
23.8221
21.3595
18.9353
16.5502
14.2058
11.9001
9.63446
7.39666
5.22026
3.38056
79.5739
79.4619
79.2535
78.8989
78.4269
77.8365
77.1243
76.2879
75.3273
74.2417
73.0308
71.6972
70.2433
68.6724
66.9902
65.1998
63.3099
61.3253
59.2565
57.108
54.8915
52.6146
50.2847
47.9118
45.505
43.0703
40.6197
38.1543
35.6858
33.219
30.7578
28.3103
25.8775
23.4672
21.0777
18.7163
16.3828
14.08
11.8098
9.57036
7.3564
5.19597
3.32952
71.8053
71.7164
71.5266
71.2219
70.8323
70.3562
69.7885
69.1271
68.3705
67.5143
66.5567
65.4979
64.3354
63.0703
61.704
60.2377
58.675
57.0187
55.2737
53.4461
51.5394
49.5628
47.5211
45.4212
43.2711
41.078
38.8499
36.5906
34.3109
32.0151
29.7087
27.3997
25.0906
22.7895
20.4961
18.2188
15.9576
13.7175
11.501
9.30651
7.13065
5.00129
3.13621
64.3765
64.3409
64.2217
64.0114
63.7333
63.3827
62.9568
62.4528
61.8681
61.1994
60.4455
59.6031
58.6712
57.6475
56.5327
55.3267
54.0298
52.6436
51.1709
49.6146
47.978
46.2655
44.4822
42.633
40.7227
38.7593
36.7474
34.6936
32.604
30.486
28.3428
26.1835
24.0107
21.8325
19.6511
17.4727
15.3003
13.1386
10.9905
8.85774
6.73452
4.65139
2.81512
57.7026
57.7025
57.6305
57.4865
57.286
57.0255
56.7021
56.3133
55.8558
55.3284
54.7274
54.0505
53.2955
52.4601
51.5434
50.5449
49.4628
48.2978
47.0511
45.7233
44.3178
42.835
41.2795
39.6542
37.9631
36.212
34.4046
32.547
30.6434
28.7002
26.7226
24.7167
22.6868
20.6398
18.5789
16.5103
14.4381
12.3658
10.2991
8.23841
6.1819
4.15852
2.3808
51.672
51.7012
51.6605
51.5601
51.4113
51.2118
50.9609
50.6549
50.2913
49.8685
49.3828
48.8325
48.2143
47.526
46.7659
45.9328
45.0245
44.0409
42.9807
41.8454
40.6348
39.3498
37.9927
36.5654
35.0708
33.5129
31.8936
30.2189
28.4924
26.7187
24.9017
23.0491
21.1625
19.2503
17.3143
15.3612
13.3957
11.4209
9.44378
7.46326
5.47875
3.51992
1.82058
46.1567
46.1964
46.1738
46.1028
45.9911
45.8377
45.6414
45.3986
45.1076
44.7655
44.3703
43.9189
43.4088
42.8379
42.2036
41.504
40.7381
39.9033
38.9989
38.0246
36.9796
35.8639
34.679
33.4253
32.105
30.7199
29.2728
27.7662
26.204
24.5903
22.9278
21.2229
19.4773
17.6983
15.8889
14.0542
12.1989
10.3274
8.44484
6.5535
4.65314
2.77107
1.15366
40.9966
41.0556
41.0542
41.0119
40.9344
40.821
40.6701
40.4793
40.2471
39.9711
39.6485
39.2773
38.8554
38.3802
37.8487
37.2593
36.6102
35.8996
35.1254
34.2867
33.3825
32.4125
31.3765
30.2744
29.108
27.8771
26.5847
25.2314
23.8211
22.3557
20.8389
19.2746
17.6655
16.0164
14.3316
12.615
10.8701
9.10294
7.31688
5.51361
3.69134
1.86412
0.219237
36.2132
36.2787
36.2872
36.2637
36.2108
36.1279
36.0125
35.8629
35.6779
35.4546
35.1912
34.8856
34.5354
34.1382
33.6918
33.1934
32.6417
32.0349
31.3702
30.6467
29.863
29.0178
28.1111
27.1416
26.11
25.0166
23.8626
22.6483
21.3765
20.0487
18.6671
17.2354
15.7556
14.2319
12.6677
11.0668
9.43273
7.76995
6.0822
4.37109
2.6344
0.882978
-0.727154
31.7169
31.7893
31.8093
31.8028
31.771
31.7133
31.6273
31.5115
31.3649
31.1853
30.9707
30.719
30.4282
30.096
29.7202
29.2981
28.8282
28.3087
27.7369
27.1115
26.4311
25.6941
24.8992
24.0457
23.1334
22.1615
21.1312
20.0424
18.8962
17.6944
16.4383
15.1299
13.7725
12.3678
10.9195
9.43099
7.90533
6.34665
4.75876
3.14408
1.50191
-0.150505
-1.64443
27.4403
27.5266
27.562
27.5745
27.564
27.53
27.4708
27.3858
27.2732
27.1316
26.9587
26.753
26.5127
26.2357
25.9196
25.5622
25.1621
24.7172
24.225
23.6837
23.0923
22.4488
21.7517
20.9996
20.1923
19.3285
18.4089
17.4329
16.4009
15.3137
14.1732
12.9795
11.736
10.4436
9.10569
7.72493
6.30434
4.84707
3.35722
1.83702
0.28512
-1.27799
-2.67621
23.4346
23.5238
23.5639
23.586
23.5894
23.5723
23.5336
23.4721
23.3872
23.2768
23.1388
22.9716
22.7738
22.5435
22.2782
21.9764
21.6357
21.2547
20.8308
20.3627
19.8482
19.2861
18.6744
18.0119
17.2972
16.5296
15.7088
14.834
13.9056
12.923
11.888
10.8009
9.66301
8.47622
7.24239
5.9641
4.64409
3.28515
1.89142
0.466554
-0.988933
-2.45569
-3.75732
19.6027
19.7035
19.7538
19.7883
19.8059
19.8051
19.7849
19.7446
19.6832
19.5998
19.4918
19.3577
19.1965
19.0059
18.7845
18.53
18.241
17.9152
17.5506
17.1458
16.6987
16.2076
15.671
15.0872
14.4546
13.7728
13.0401
12.2567
11.4215
10.5347
9.59593
8.60685
7.56688
6.47844
5.34253
4.16089
2.93593
1.67019
0.36647
-0.972481
-2.34793
-3.75196
-5.06629
15.9539
16.0647
16.1223
16.1666
16.1958
16.2092
16.2057
16.1839
16.1435
16.083
16.0007
15.8957
15.7661
15.6102
15.4264
15.2134
14.9692
14.6917
14.3787
14.0293
13.6412
13.2129
12.7426
12.2282
11.6689
11.0634
10.41
9.70873
8.95805
8.15792
7.30758
6.40828
5.45929
4.46199
3.41765
2.32716
1.19194
0.0150492
-1.20185
-2.45595
-3.74581
-5.06825
-6.34155
12.4791
12.5961
12.658
12.7096
12.7481
12.7731
12.783
12.7771
12.7543
12.7134
12.6536
12.5734
12.4716
12.3459
12.195
12.0179
11.8127
11.5773
11.3099
11.0091
10.673
10.3002
9.88839
9.4361
8.94195
8.40476
7.82282
7.19547
6.52143
5.80007
5.03081
4.21382
3.34912
2.43668
1.4773
0.472272
-0.577706
-1.67083
-2.8057
-3.98052
-5.19253
-6.44448
-7.75526
9.16362
9.28142
9.34498
9.40284
9.44874
9.48233
9.50327
9.51056
9.5028
9.47916
9.43849
9.37988
9.30178
9.20259
9.08066
8.93493
8.76398
8.56575
8.33847
8.08076
7.79083
7.46709
7.1074
6.71043
6.27474
5.79889
5.28145
4.72071
4.11621
3.46659
2.77159
2.03048
1.24326
0.409742
-0.470011
-1.39496
-2.36471
-3.37817
-4.43492
-5.53416
-6.67544
-7.85522
-9.09387
5.95356
6.07576
6.14587
6.21253
6.2676
6.31177
6.34429
6.36459
6.37127
6.36356
6.34089
6.30161
6.24524
6.16968
6.07383
5.95637
5.81581
5.65061
5.4592
5.23958
4.99084
4.71083
4.3978
4.0505
3.66716
3.24659
2.78715
2.28702
1.74589
1.16184
0.534756
-0.136545
-0.852116
-1.61267
-2.41791
-3.26774
-4.16127
-5.09822
-6.07801
-7.10065
-8.16511
-9.26155
-10.3518
2.8842
3.0042
3.07609
3.14756
3.2093
3.26164
3.30367
3.33486
3.35381
3.36048
3.3533
3.33177
3.29443
3.2398
3.16706
3.07477
2.96129
2.82578
2.66599
2.48085
2.2689
2.02838
1.75757
1.4549
1.11885
0.748016
0.341104
-0.103791
-0.587543
-1.11155
-1.6765
-2.28347
-2.93276
-3.62528
-4.36117
-5.14039
-5.96188
-6.82558
-7.72971
-8.67364
-9.65382
-10.6562
-11.5526
-0.104737
0.0226863
0.102116
0.182243
0.252661
0.314261
0.366483
0.408383
0.439851
0.459798
0.467055
0.461315
0.441375
0.405707
0.353576
0.283813
0.195114
0.0860545
-0.0451387
-0.199605
-0.378424
-0.583386
-0.816396
-1.07864
-1.37189
-1.69749
-2.0568
-2.45139
-2.88265
-3.35168
-3.8595
-4.40714
-4.99547
-5.62494
-6.29626
-7.00938
-7.76389
-8.5596
-9.39513
-10.2701
-11.1825
-12.129
-13.0344
-2.9476
-2.82488
-2.74653
-2.66505
-2.59067
-2.52368
-2.46467
-2.41451
-2.37371
-2.34259
-2.32286
-2.31482
-2.31945
-2.33835
-2.37192
-2.4217
-2.48844
-2.57363
-2.67897
-2.80543
-2.95428
-3.12748
-3.32623
-3.55185
-3.80628
-4.09075
-4.40663
-4.75543
-5.13851
-5.55706
-6.01228
-6.50542
-7.0374
-7.60854
-8.21977
-8.87151
-9.56352
-10.2956
-11.0674
-11.8783
-12.729
-13.6171
-14.4394
-5.71416
-5.59045
-5.50887
-5.42253
-5.34343
-5.2704
-5.20445
-5.14655
-5.09652
-5.05578
-5.0251
-5.00441
-4.99533
-4.99878
-5.01542
-5.04698
-5.09397
-5.15757
-5.23947
-5.34075
-5.46274
-5.60696
-5.77455
-5.96697
-6.18609
-6.43297
-6.709
-7.01584
-7.35474
-7.72698
-8.13394
-8.5767
-9.05633
-9.57345
-10.1288
-10.7234
-11.3567
-12.0292
-12.7403
-13.4894
-14.278
-15.1073
-15.8745
-8.38793
-8.26617
-8.18347
-8.09408
-8.01102
-7.93266
-7.8604
-7.79501
-7.73692
-7.68714
-7.6458
-7.61371
-7.59236
-7.58156
-7.58295
-7.59785
-7.62671
-7.67084
-7.73139
-7.80985
-7.9072
-8.02484
-8.16389
-8.32592
-8.51273
-8.72528
-8.96483
-9.23323
-9.53161
-9.86143
-10.2238
-10.6199
-11.0508
-11.5178
-12.0212
-12.5623
-13.1409
-13.7576
-14.4122
-15.1045
-15.8367
-16.6164
-17.3723
-11.0035
-10.8782
-10.7894
-10.6941
-10.6049
-10.5198
-10.4408
-10.368
-10.3017
-10.2428
-10.1914
-10.1488
-10.1154
-10.0917
-10.0793
-10.0786
-10.091
-10.1171
-10.1582
-10.2157
-10.2905
-10.3838
-10.4968
-10.6311
-10.7883
-10.9692
-11.1754
-11.4083
-11.6693
-11.9598
-12.281
-12.6339
-13.0199
-13.4401
-13.8953
-14.3862
-14.9136
-15.4776
-16.079
-16.7176
-17.3949
-18.1204
-18.8461
-13.5303
-13.4043
-13.3132
-13.2141
-13.1207
-13.0311
-12.9464
-12.867
-12.7932
-12.726
-12.6658
-12.6132
-12.5687
-12.5335
-12.5079
-12.4934
-12.4905
-12.4999
-12.5233
-12.5615
-12.6155
-12.6864
-12.7757
-12.8846
-13.0143
-13.1664
-13.3418
-13.5421
-13.7687
-14.0226
-14.3055
-14.6185
-14.9627
-15.3393
-15.7492
-16.1932
-16.6724
-17.1869
-17.7374
-18.324
-18.9473
-19.6162
-20.2979
-15.975
-15.8495
-15.7573
-15.656
-15.5604
-15.4673
-15.3783
-15.2937
-15.2137
-15.1394
-15.0714
-15.0099
-14.9559
-14.9099
-14.8726
-14.8452
-14.8283
-14.8227
-14.8296
-14.85
-14.885
-14.9354
-15.0027
-15.088
-15.1927
-15.318
-15.4648
-15.635
-15.8297
-16.05
-16.2974
-16.5734
-16.8786
-17.2146
-17.582
-17.9821
-18.4159
-18.8837
-19.386
-19.9227
-20.4949
-21.1094
-21.738
-18.3744
-18.2449
-18.1482
-18.0426
-17.9421
-17.8439
-17.7492
-17.6584
-17.5722
-17.4907
-17.4149
-17.3452
-17.2818
-17.2256
-17.1774
-17.1379
-17.1082
-17.0887
-17.0804
-17.0844
-17.1017
-17.1332
-17.1804
-17.2439
-17.3252
-17.4255
-17.5462
-17.6884
-17.8534
-18.0424
-18.257
-18.4983
-18.7671
-19.065
-19.3931
-19.7522
-20.1432
-20.5671
-21.0238
-21.5134
-22.0364
-22.598
-23.1698
-20.6851
-20.5593
-20.4643
-20.3581
-20.2554
-20.1542
-20.0556
-19.9604
-19.8687
-19.7811
-19.6983
-19.6209
-19.5489
-19.4835
-19.4251
-19.3746
-19.333
-19.3004
-19.278
-19.2669
-19.268
-19.2822
-19.3103
-19.3537
-19.4134
-19.4907
-19.5869
-19.7033
-19.8408
-20.0008
-20.1845
-20.3933
-20.6283
-20.8907
-21.1817
-21.5024
-21.8535
-22.2363
-22.651
-23.098
-23.5783
-24.099
-24.6435
-22.9652
-22.8347
-22.7349
-22.624
-22.5167
-22.4107
-22.3073
-22.2068
-22.1093
-22.0154
-21.9259
-21.8409
-21.7613
-21.6871
-21.6193
-21.5585
-21.5056
-21.4609
-21.4255
-21.4002
-21.3861
-21.384
-21.3946
-21.4192
-21.459
-21.515
-21.5884
-21.6804
-21.7923
-21.9253
-22.0803
-22.2587
-22.462
-22.6912
-22.9475
-23.2319
-23.5456
-23.8897
-24.265
-24.6721
-25.1125
-25.5947
-26.1119
-25.1775
-25.0471
-24.9462
-24.833
-24.7224
-24.6122
-24.5045
-24.399
-24.296
-24.1963
-24.1003
-24.0083
-23.9211
-23.8388
-23.7622
-23.6919
-23.6282
-23.5723
-23.5248
-23.4864
-23.4581
-23.4408
-23.4352
-23.4424
-23.4636
-23.4997
-23.5518
-23.6212
-23.7091
-23.8166
-23.9446
-24.0948
-24.2684
-24.4664
-24.69
-24.9403
-25.2186
-25.5261
-25.8635
-26.2319
-26.6332
-27.0765
-27.5726
-27.3225
-27.1936
-27.094
-26.9802
-26.8677
-26.7556
-26.645
-26.5358
-26.4287
-26.3241
-26.2225
-26.1243
-26.0302
-25.9404
-25.8557
-25.7765
-25.7032
-25.6369
-25.578
-25.5275
-25.486
-25.4544
-25.4335
-25.4246
-25.4283
-25.4459
-25.4783
-25.5265
-25.5918
-25.6754
-25.7784
-25.9022
-26.0478
-26.2164
-26.4091
-26.6271
-26.8717
-27.144
-27.4449
-27.7753
-28.1366
-28.5372
-28.9977
-29.4264
-29.2978
-29.1967
-29.0805
-28.9656
-28.8507
-28.7363
-28.6233
-28.5119
-28.4028
-28.2961
-28.1921
-28.0915
-27.995
-27.9027
-27.8149
-27.7328
-27.6567
-27.5873
-27.5253
-27.4713
-27.4265
-27.3917
-27.3676
-27.3549
-27.355
-27.3687
-27.3971
-27.4416
-27.5031
-27.5824
-27.6812
-27.8003
-27.9409
-28.1046
-28.292
-28.5046
-28.7432
-29.0089
-29.3021
-29.623
-29.9796
-30.392
-31.4915
-31.3604
-31.2567
-31.138
-31.0198
-30.9013
-30.7833
-30.6661
-30.5503
-30.4365
-30.3246
-30.2149
-30.1084
-30.0052
-29.9055
-29.81
-29.7192
-29.6339
-29.5547
-29.482
-29.4165
-29.3592
-29.311
-29.2727
-29.2445
-29.2283
-29.2245
-29.2344
-29.2592
-29.2996
-29.3568
-29.432
-29.5261
-29.6407
-29.7767
-29.9352
-30.1174
-30.3244
-30.5572
-30.8165
-31.1011
-31.417
-31.8327
-33.4798
-33.3535
-33.2536
-33.137
-33.0191
-32.8998
-32.7804
-32.6609
-32.5421
-32.4243
-32.308
-32.1936
-32.0814
-31.9721
-31.8657
-31.7628
-31.6643
-31.5703
-31.4817
-31.399
-31.3227
-31.2539
-31.1931
-31.1412
-31.0987
-31.067
-31.047
-31.0394
-31.0454
-31.0659
-31.1022
-31.1551
-31.2259
-31.3159
-31.4259
-31.557
-31.7104
-31.887
-32.0879
-32.3132
-32.5622
-32.8359
-33.1324
-35.4513
-35.3253
-35.2232
-35.1039
-34.9835
-34.8616
-34.7387
-34.6159
-34.4933
-34.3715
-34.2509
-34.1316
-34.014
-33.8985
-33.7857
-33.6762
-33.5699
-33.4677
-33.3702
-33.2781
-33.1915
-33.1116
-33.0391
-32.9746
-32.9187
-32.8724
-32.837
-32.813
-32.8013
-32.8032
-32.8196
-32.8516
-32.9004
-32.9668
-33.0521
-33.1575
-33.2839
-33.4323
-33.6037
-33.7987
-34.0178
-34.2646
-34.5373
-37.3993
-37.2694
-37.1631
-37.0398
-36.9156
-36.7893
-36.6622
-36.5351
-36.408
-36.2814
-36.1558
-36.0314
-35.9083
-35.787
-35.6679
-35.5516
-35.4381
-35.3281
-35.2223
-35.1209
-35.0248
-34.9344
-34.8507
-34.7741
-34.7054
-34.6456
-34.5954
-34.5558
-34.5278
-34.5121
-34.5097
-34.5218
-34.5497
-34.5942
-34.6562
-34.7371
-34.8379
-34.9598
-35.1038
-35.271
-35.4627
-35.6866
-35.9568
-39.2949
-39.1632
-39.0559
-38.9309
-38.8038
-38.6748
-38.5448
-38.4139
-38.2829
-38.1523
-38.0222
-37.893
-37.7649
-37.638
-37.513
-37.3901
-37.2699
-37.1526
-37.0387
-36.9287
-36.8235
-36.7233
-36.629
-36.5411
-36.4603
-36.3876
-36.3234
-36.269
-36.2253
-36.193
-36.173
-36.1663
-36.1742
-36.1977
-36.2377
-36.2954
-36.3718
-36.4683
-36.586
-36.7262
-36.8907
-37.0893
-37.3408
-41.127
-40.9996
-40.8946
-40.7704
-40.6434
-40.5138
-40.3824
-40.2495
-40.1163
-39.9831
-39.8494
-39.7163
-39.5839
-39.4521
-39.3217
-39.1929
-39.0663
-38.9421
-38.8209
-38.7029
-38.5888
-38.4794
-38.375
-38.2765
-38.1842
-38.0992
-38.022
-37.9537
-37.895
-37.8469
-37.8101
-37.7857
-37.7746
-37.7779
-37.7971
-37.8325
-37.8856
-37.9575
-38.0495
-38.1626
-38.298
-38.463
-38.693
-42.9397
-42.8107
-42.7046
-42.5788
-42.45
-42.3186
-42.1852
-42.0502
-41.9145
-41.7782
-41.6412
-41.5043
-41.3677
-41.2313
-41.0958
-40.9617
-40.8288
-40.6982
-40.5698
-40.4443
-40.3222
-40.2038
-40.0899
-39.9812
-39.8781
-39.7816
-39.692
-39.6104
-39.5377
-39.4745
-39.4217
-39.3805
-39.3515
-39.3357
-39.3346
-39.3487
-39.3793
-39.4275
-39.494
-39.5795
-39.6842
-39.8149
-40.0128
-44.7251
-44.5951
-44.4879
-44.3597
-44.2285
-44.0947
-43.9585
-43.8206
-43.6816
-43.5416
-43.4011
-43.2603
-43.1191