/*--------------------------------*- C++ -*----------------------------------*\
| =========                 |                                                 |
| \\      /  F ield         | OpenFOAM: The Open Source CFD Toolbox           |
|  \\    /   O peration     | Version:  2.3.0                                 |
|   \\  /    A nd           | Web:      www.OpenFOAM.org                      |
|    \\/     M anipulation  |                                                 |
\*---------------------------------------------------------------------------*/
FoamFile
{
    version     2.0;
    format      ascii;
    class       surfaceScalarField;
    location    "1000";
    object      phi;
}
// * * * * * * * * * * * * * * * * * * * * * * * * * * * * * * * * * * * * * //

dimensions      [0 3 -1 0 0 0 0];

internalField   nonuniform List<scalar> 
76114
(
0.00144926
-0.00486803
0.00528505
-0.00186639
0.00106995
-0.00466641
0.00504572
0.000727073
-0.00447313
0.004816
0.000419251
-0.00428796
0.00459578
0.000144665
-0.00411008
0.00438466
-9.79687e-05
-0.00393955
0.00418218
-0.000310519
-0.00377554
0.00398809
-0.000493776
-0.00361839
0.00380165
-0.000649592
-0.0034674
0.00362321
-0.000779121
-0.00332238
0.00345191
-0.000883271
-0.00318333
0.00328748
-0.000963632
-0.00304962
0.00312999
-0.00102119
-0.00292116
0.00297871
-0.00105684
-0.00279792
0.00283356
-0.00107192
-0.00267934
0.00269443
-0.00106738
-0.0025653
0.00256076
-0.00104381
-0.00245595
0.00243237
-0.00100245
-0.00235044
0.00230909
-0.000943753
-0.00224923
0.00219053
-0.000868861
-0.0021515
0.00207661
-0.000778109
-0.00205757
0.00196682
-0.000672223
-0.00196705
0.00186117
-0.000551781
-0.00187969
0.00175925
-0.000417299
-0.0017953
0.00166082
-0.000269127
-0.00171412
0.00156595
-0.000107289
-0.00163559
0.00147375
6.74218e-05
-0.00155934
0.00138463
0.000255459
-0.00148607
0.00129804
0.000456259
-0.00141447
0.00121367
0.000670165
-0.00134543
0.00113152
0.000897111
-0.00127831
0.00105137
0.00113808
-0.00121338
0.000972415
0.00139345
-0.00115022
0.000894845
0.00166417
-0.00108925
0.000818535
0.00195121
-0.00103016
0.000743126
0.00225772
-0.000973974
0.000667463
0.00258563
-0.00092017
0.000592259
0.00293864
-0.000869327
0.000516323
0.00332228
-0.000822634
0.000438998
0.00374543
-0.000781645
0.000358501
0.00422308
-0.000749031
0.000271373
0.0047895
-0.000729528
0.000163114
-0.000734676
0.00558088
-5.67077e-05
0.00135478
-0.00448831
-0.0017345
0.0010099
-0.00432153
0.000698301
-0.00416154
0.000417791
-0.00400745
0.000167293
-0.00385958
-5.49109e-05
-0.00371735
-0.000249689
-0.00358076
-0.000418436
-0.00344964
-0.000562363
-0.00332347
-0.000682595
-0.00320215
-0.000780136
-0.00308579
-0.000856194
-0.00297357
-0.000911318
-0.00286603
-0.000947135
-0.0027621
-0.000963979
-0.0026625
-0.000962794
-0.00256648
-0.000944693
-0.00247405
-0.000910215
-0.00238492
-0.000860159
-0.00229929
-0.000795247
-0.00221641
-0.000716115
-0.0021367
-0.000623231
-0.00205994
-0.000517304
-0.00198562
-0.000398648
-0.00191396
-0.000267668
-0.0018451
-0.000125169
-0.00177809
2.91707e-05
-0.00171368
0.000194763
-0.00165167
0.00037172
-0.00159143
0.000560442
-0.00153415
0.000760442
-0.00147831
0.000972674
-0.00142561
0.0011973
-0.00137485
0.00143493
-0.00132688
0.00168699
-0.00128221
0.00195422
-0.00124121
0.00223797
-0.00120392
0.00254028
-0.00117163
0.00286323
-0.00114559
0.00320848
-0.00112689
0.00357598
-0.00111653
0.00396284
-0.00111638
-0.00113105
0.00435921
0.00125946
-0.0041458
-0.00160196
0.00094689
-0.00400896
0.00066337
-0.00387802
0.000408017
-0.0037521
0.000179365
-0.00363093
-2.36006e-05
-0.00351438
-0.000201866
-0.0034025
-0.000357018
-0.00329449
-0.000489554
-0.00319094
-0.000600643
-0.00309106
-0.000691442
-0.00299499
-0.000762359
-0.00290265
-0.0008148
-0.00281359
-0.000849145
-0.00272776
-0.000866539
-0.00264511
-0.000867474
-0.00256555
-0.000852752
-0.00248877
-0.000822943
-0.00241473
-0.00077899
-0.00234324
-0.000721124
-0.00227428
-0.000650114
-0.00220771
-0.000566535
-0.00214352
-0.000470712
-0.00208144
-0.000363083
-0.00202159
-0.000244267
-0.00196392
-0.000114187
-0.00190817
2.63756e-05
-0.00185425
0.000177634
-0.00180292
0.000339129
-0.00175293
0.000510311
-0.00170533
0.000692052
-0.00166006
0.000883292
-0.00161685
0.0010847
-0.00157626
0.0012959
-0.00153808
0.00151736
-0.00150368
0.00174859
-0.00147244
0.00199061
-0.00144594
0.00224231
-0.00142333
0.00250272
-0.001406
0.00277167
-0.00139584
0.00304714
-0.001392
0.00332576
-0.00139501
-0.00140739
0.0036021
0.00116858
-0.00383279
-0.00148159
0.000883729
-0.0037241
0.000625302
-0.00361959
0.000391941
-0.00351874
0.000182982
-0.00342197
-3.04639e-06
-0.00332835
-0.000167021
-0.00323853
-0.000309875
-0.00315164
-0.000432539
-0.00306827
-0.000535798
-0.0029878
-0.000620523
-0.00291026
-0.000687663
-0.00283551
-0.000737799
-0.00276345
-0.000771928
-0.00269363
-0.000790421
-0.00262661
-0.000794162
-0.00256181
-0.000783776
-0.00249916
-0.00075974
-0.00243877
-0.000722615
-0.00238037
-0.000673019
-0.00232388
-0.000611578
-0.00226915
-0.000538636
-0.00221646
-0.000454631
-0.00216545
-0.00035998
-0.00211624
-0.000255096
-0.0020688
-0.000140316
-0.00202295
-1.57055e-05
-0.00197886
0.000117652
-0.00193628
0.000260534
-0.00189581
0.00041255
-0.00185735
0.000572809
-0.00182032
0.000741789
-0.00178583
0.000919007
-0.00175348
0.0011052
-0.00172428
0.00129906
-0.00169754
0.00150084
-0.00167422
0.00171026
-0.00165536
0.00192723
-0.0016403
0.00215139
-0.00163016
0.00238127
-0.00162572
0.00261559
-0.00162632
0.00285434
-0.00163376
-0.00164575
0.00309271
0.00108055
-0.00354852
-0.00136482
0.000821194
-0.00346475
0.000585278
-0.00338367
0.000372184
-0.00330564
0.000180791
-0.00323058
1.02645e-05
-0.00315783
-0.000140452
-0.00308781
-0.000271753
-0.00302033
-0.00038514
-0.00295488
-0.000480986
-0.00289195
-0.000560027
-0.00283122
-0.000623218
-0.00277232
-0.000670946
-0.00271573
-0.000703917
-0.00266065
-0.000722836
-0.0026077
-0.000728483
-0.00255616
-0.000721178
-0.00250646
-0.000701629
-0.00245831
-0.000670184
-0.00241181
-0.000627244
-0.00236682
-0.000573425
-0.00232297
-0.000509154
-0.00228073
-0.000434872
-0.00223973
-0.000350967
-0.00220014
-0.000258029
-0.00216174
-0.000155741
-0.00212524
-4.50942e-05
-0.0020895
7.43756e-05
-0.00205575
0.000201583
-0.00202302
0.00033677
-0.00199253
0.000479443
-0.00196299
0.000630036
-0.00193643
0.000787696
-0.00191114
0.000952051
-0.00188863
0.00112396
-0.00186945
0.00130182
-0.00185207
0.00148612
-0.00183966
0.00167641
-0.00183058
0.00187191
-0.00182566
0.0020723
-0.00182611
0.00227672
-0.00183074
0.00248411
-0.00184115
-0.0018552
0.00269356
0.000997368
-0.00328911
-0.00125678
0.000760511
-0.00322789
0.000545232
-0.00316839
0.000350458
-0.00311087
0.000175085
-0.0030552
1.89278e-05
-0.00300167
-0.000119483
-0.0029494
-0.000240721
-0.0028991
-0.00034514
-0.00285047
-0.000433993
-0.0028031
-0.000507676
-0.00275754
-0.000566727
-0.00271327
-0.000612085
-0.00267037
-0.000644073
-0.00262867
-0.000663327
-0.00258844
-0.000670288
-0.0025492
-0.000665586
-0.00251117
-0.000649492
-0.00247441
-0.000622842
-0.00243846
-0.000585858
-0.0024038
-0.000538887
-0.00236994
-0.00048242
-0.0023372
-0.000416682
-0.00230547
-0.000342283
-0.00227454
-0.000259523
-0.0022445
-0.000168747
-0.00221601
-6.97604e-05
-0.00218849
3.64629e-05
-0.00216197
0.000150396
-0.00213695
0.000270931
-0.00211307
0.00039867
-0.00209073
0.000532804
-0.00207056
0.00067347
-0.0020518
0.000820806
-0.00203597
0.000973251
-0.00202189
0.00113204
-0.00201086
0.00129623
-0.00200385
0.0014647
-0.00199905
0.00163897
-0.00199994
0.00181663
-0.00200377
0.00199894
-0.00201305
0.00218318
-0.0020254
-0.00204304
0.00237103
0.000917923
-0.00305355
-0.00115348
0.000701975
-0.00301194
0.000505438
-0.00297185
0.000327402
-0.00293283
0.000167111
-0.00289491
2.38335e-05
-0.00285839
-0.000103011
-0.00282255
-0.000214444
-0.00278766
-0.000310961
-0.00275395
-0.000392882
-0.00272118
-0.000461486
-0.00268893
-0.000516632
-0.00265812
-0.000559396
-0.0026276
-0.000589919
-0.00259814
-0.000608905
-0.00256946
-0.000616651
-0.00254145
-0.00061391
-0.00251391
-0.000601122
-0.00248719
-0.000578339
-0.00246124
-0.000546279
-0.00243586
-0.000504934
-0.00241129
-0.000454919
-0.00238721
-0.000396693
-0.00236369
-0.0003304
-0.00234084
-0.000256357
-0.00231854
-0.000175311
-0.00229706
-8.70717e-05
-0.00227673
8.11746e-06
-0.00225716
0.000110079
-0.00223891
0.000218245
-0.00222123
0.000332814
-0.0022053
0.000453027
-0.00219077
0.00057919
-0.00217796
0.00071075
-0.00216753
0.0008477
-0.00215884
0.00099021
-0.00215337
0.00113682
-0.00215046
0.0012883
-0.00215053
0.00144357
-0.00215521
0.00160309
-0.00216329
0.00176563
-0.00217559
0.00193199
-0.00219175
-0.00221161
0.00210056
0.000843703
-0.00283813
-0.00105913
0.000646838
-0.00281508
0.000467352
-0.00279237
0.000304351
-0.00276983
0.000157881
-0.00274844
2.66259e-05
-0.00272714
-8.98086e-05
-0.00270612
-0.00019202
-0.00268545
-0.000280827
-0.00266514
-0.000356823
-0.00264518
-0.000419952
-0.0026258
-0.000471519
-0.00260655
-0.000511465
-0.00258766
-0.000540365
-0.00256924
-0.000558899
-0.00255092
-0.000567508
-0.00253284
-0.000566125
-0.00251529
-0.00055535
-0.00249797
-0.000536043
-0.00248055
-0.000508061
-0.00246384
-0.000471747
-0.0024476
-0.00042731
-0.00243165
-0.00037553
-0.00241547
-0.000316446
-0.00239992
-0.000250377
-0.00238461
-0.000177552
-0.00236988
-9.82297e-05
-0.00235605
-1.29551e-05
-0.00234244
7.84612e-05
-0.00233033
0.000176178
-0.00231895
0.000278814
-0.00230793
0.000386778
-0.00229874
0.000500386
-0.00229157
0.000618889
-0.00228603
0.000741942
-0.0022819
0.00086983
-0.00228126
0.00100233
-0.00228296
0.00113816
-0.00228636
0.0012773
-0.00229435
0.00142074
-0.00230674
0.00156819
-0.00232303
0.00171821
-0.00234177
-0.00236426
0.00187085
0.000773937
-0.00264236
-0.000969714
0.000594464
-0.00263561
0.000430702
-0.00262861
0.000282172
-0.0026213
0.000147428
-0.0026137
2.77608e-05
-0.00260747
-7.88806e-05
-0.00259948
-0.000172749
-0.00259158
-0.000254468
-0.00258342
-0.000324429
-0.00257522
-0.000383105
-0.00256713
-0.000430679
-0.00255898
-0.000468194
-0.00255014
-0.000495617
-0.00254182
-0.000513135
-0.0025334
-0.000521698
-0.00252428
-0.000522109
-0.00251488
-0.000512893
-0.00250719
-0.000496004
-0.00249744
-0.000471582
-0.00248826
-0.000439638
-0.00247955
-0.000400399
-0.00247089
-0.000353877
-0.00246199
-0.000300881
-0.00245292
-0.000241496
-0.002444
-0.000175965
-0.00243541
-0.000104655
-0.00242736
-2.76325e-05
-0.00241946
5.43919e-05
-0.00241235
0.00014199
-0.00240655
0.000235086
-0.00240103
0.000332272
-0.00239592
0.000435293
-0.00239459
0.000542012
-0.00239275
0.000652519
-0.0023924
0.000768061
-0.0023968
0.000887806
-0.00240271
0.00101041
-0.00240897
0.00113578
-0.00241971
0.00126496
-0.00243592
0.00139806
-0.00245613
0.00153352
-0.00247723
0.00167132
-0.00250206
0.00588589
-0.000817995
0.000512991
0.00620339
-0.000954019
0.000636512
0.0064855
-0.00107904
0.000796932
0.00673429
-0.00119464
0.000945843
0.00695482
-0.00130275
0.00108222
0.0071516
-0.00140401
0.00120724
0.00732776
-0.0014998
0.00132363
0.00748596
-0.00159101
0.00143281
0.00762712
-0.00167866
0.00153749
0.0077559
-0.00176537
0.0016366
0.00787322
-0.00185062
0.0017333
0.00798049
-0.00193544
0.00182817
0.00807752
-0.00202026
0.00192323
0.00816696
-0.0021063
0.00201686
0.00824779
-0.00219322
0.00211239
0.00831941
-0.00228177
0.00221015
0.00838198
-0.00237279
0.00231022
0.00843505
-0.00246583
0.00241277
0.00847589
-0.00256054
0.00251969
0.00850556
-0.00265925
0.00262959
0.00852187
-0.00276026
0.00274395
0.00852395
-0.00286496
0.00286287
0.00851042
-0.00297244
0.00298597
0.00847967
-0.00308345
0.0031142
0.00843173
-0.00319913
0.00324708
0.00836419
-0.00331754
0.00338508
0.00827666
-0.0034407
0.00352823
0.00816768
-0.00356853
0.00367751
0.00803593
-0.00370036
0.0038321
0.00788046
-0.00383716
0.00399263
0.00770029
-0.00397889
0.00415906
0.00749424
-0.00412575
0.0043318
0.00726064
-0.00427789
0.0045115
0.00699883
-0.00443563
0.00469744
0.00670711
-0.00459922
0.00489093
0.00638465
-0.00476904
0.0050915
0.00603059
-0.00494522
0.00529928
0.00564264
-0.00512725
0.0055152
0.00522048
-0.00531682
0.00573899
0.00476233
-0.00551339
0.00597154
0.00426674
-0.0057172
0.00621279
0.00373279
-0.00592897
0.00646292
-0.0061488
0.00672243
0.00315916
0.00471943
-0.00117821
0.00502078
-0.00125537
0.00528039
-0.00133865
0.00550754
-0.00142179
0.00571146
-0.00150667
0.00589823
-0.00159079
0.00607089
-0.00167245
0.00623363
-0.00175375
0.00638805
-0.00183309
0.00653428
-0.0019116
0.00667315
-0.00198949
0.00680511
-0.0020674
0.00692852
-0.00214367
0.00704404
-0.00222181
0.00714972
-0.00229891
0.00724619
-0.00237825
0.00733126
-0.00245786
0.00740453
-0.0025391
0.00746631
-0.00262231
0.00751444
-0.00270738
0.00754806
-0.00279389
0.00756672
-0.00288362
0.00756932
-0.00297503
0.00755524
-0.00306937
0.00752361
-0.0031675
0.00747344
-0.00326737
0.00740429
-0.00337156
0.00731459
-0.00347884
0.00720393
-0.00358969
0.00707128
-0.00370451
0.00691555
-0.00382316
0.00673593
-0.00394612
0.00653133
-0.00407329
0.00630087
-0.00420517
0.00604336
-0.00434171
0.00575738
-0.00448306
0.00544253
-0.00463037
0.00509725
-0.00478197
0.00472046
-0.00494003
0.00431063
-0.00510356
0.0038669
-0.00527347
0.00338728
-0.00544934
-0.00563276
0.00287124
0.00386788
-0.001444
0.00411986
-0.00150736
0.00435607
-0.00157485
0.00457953
-0.00164525
0.00478903
-0.00171617
0.00498682
-0.00178857
0.00517412
-0.00185975
0.00535081
-0.00193044
0.00551798
-0.00200025
0.00567613
-0.00206975
0.00582461
-0.00213797
0.00596291
-0.00220569
0.0060925
-0.00227327
0.0062114
-0.00234071
0.00632066
-0.00240817
0.00641884
-0.00247642
0.00650638
-0.0025454
0.00658224
-0.00261496
0.0066452
-0.00268527
0.00669612
-0.00275831
0.00673363
-0.00283139
0.0067567
-0.0029067
0.00676551
-0.00298384
0.00675902
-0.00306288
0.00673587
-0.00314434
0.00669711
-0.00322861
0.00663989
-0.00331434
0.00656415
-0.00340309
0.00646974
-0.00349529
0.00635508
-0.00358985
0.00621914
-0.00368722
0.00606153
-0.0037885
0.00588141
-0.00389318
0.00567761
-0.00400136
0.00544909
-0.00411319
0.00519513
-0.0042291
0.00491401
-0.00434924
0.004606
-0.00447397
0.00426883
-0.00460286
0.00390165
-0.00473638
0.00350358
-0.0048754
0.00307304
-0.0050188
-0.00516807
0.00260835
0.00332736
-0.00167865
0.00355183
-0.00173182
0.00376683
-0.00178985
0.00397064
-0.00184906
0.0041661
-0.00191164
0.00435085
-0.00197332
0.00452622
-0.00203513
0.00469342
-0.00209764
0.00485168
-0.00215852
0.00500061
-0.00221868
0.0051419
-0.00227927
0.00527436
-0.00233814
0.00539788
-0.0023968
0.00551229
-0.00245512
0.00561755
-0.00251343
0.00571299
-0.00257186
0.00579736
-0.00262978
0.00587169
-0.00268928
0.00593522
-0.0027488
0.00598604
-0.00280913
0.00602505
-0.0028704
0.00605126
-0.0029329
0.00606412
-0.0029967
0.00606311
-0.00306188
0.00604686
-0.00312808
0.00601502
-0.00319677
0.00596747
-0.00326679
0.00590337
-0.00333899
0.00582116
-0.00341307
0.00572072
-0.00348941
0.00560165
-0.00356816
0.00546261
-0.00364946
0.00530296
-0.00373354
0.00512144
-0.00381984
0.00491795
-0.0039097
0.00469116
-0.00400231
0.00444029
-0.00409837
0.00416384
-0.00419752
0.00386159
-0.00430061
0.003532
-0.00440679
0.00317398
-0.00451739
0.00278689
-0.00463171
-0.00475063
0.00236945
0.00290121
-0.0018863
0.00310201
-0.00193263
0.00329562
-0.00198346
0.00348197
-0.00203541
0.00365967
-0.00208933
0.00383037
-0.00214402
0.00399411
-0.00219887
0.00414954
-0.00225306
0.00429732
-0.0023063
0.00443838
-0.00235974
0.00457057
-0.00241145
0.00469507
-0.00246265
0.0048115
-0.00251322
0.00491954
-0.00256316
0.00501888
-0.00261277
0.00510854
-0.00266152
0.00518961
-0.00271084
0.00526013
-0.0027598
0.00532058
-0.00280925
0.00537027
-0.00285882
0.00540872
-0.00290884
0.0054354
-0.00295959
0.00544943
-0.00301073
0.00545107
-0.00306352
0.0054392
-0.00311621
0.00541343
-0.00317101
0.00537291
-0.00322628
0.00531717
-0.00328325
0.00524508
-0.00334098
0.00515701
-0.00340134
0.00505142
-0.00346257
0.004928
-0.00352604
0.00478539
-0.00359093
0.00462386
-0.00365831
0.00444189
-0.00372773
0.00423877
-0.00379919
0.00401372
-0.00387332
0.00376577
-0.00394957
0.00349408
-0.00402891
0.00319773
-0.00411045
0.00287581
-0.00419547
0.00252723
-0.00428313
-0.00437387
0.00215047
0.00255718
-0.00207245
0.00273801
-0.00211346
0.00291324
-0.00215869
0.0030822
-0.00220437
0.00324516
-0.00225228
0.00340178
-0.00230064
0.00355125
-0.00234834
0.00369443
-0.00239624
0.00383108
-0.00244295
0.00396089
-0.00248955
0.00408333
-0.00253389
0.0041991
-0.00257842
0.00430683
-0.00262094
0.00440691
-0.00266325
0.00449905
-0.00270491
0.00458297
-0.00274544
0.00465833
-0.00278621
0.00472435
-0.00282581
0.00478116
-0.00286607
0.0048283
-0.00290596
0.00486526
-0.0029458
0.00489137
-0.0029857
0.00490652
-0.00302588
0.00490975
-0.00306675
0.00490113
-0.00310759
0.00487912
-0.00314899
0.00484442
-0.00319158
0.00479534
-0.00323417
0.00473237
-0.00327801
0.00465407
-0.00332304
0.00456018
-0.00336868
0.00444991
-0.00341577
0.00432275
-0.00346377
0.00417807
-0.00351362
0.00401482
-0.00356449
0.00383278
-0.00361715
0.00363032
-0.00367086
0.00340728
-0.00372653
0.00316277
-0.0037844
0.00289609
-0.00384377
0.00260587
-0.00390525
0.00229146
-0.00396871
-0.00403417
0.00195176
0.00226826
-0.00224015
0.00243235
-0.00227756
0.00259073
-0.00231706
0.00274468
-0.00235832
0.00289316
-0.00240077
0.00303564
-0.00244312
0.00317253
-0.00248522
0.00330365
-0.00252737
0.00342889
-0.00256819
0.00354761
-0.00260828
0.00366079
-0.00264708
0.00376679
-0.00268442
0.00386593
-0.00272008
0.00395847
-0.00275579
0.00404312
-0.00278956
0.0041211
-0.00282342
0.00419079
-0.0028559
0.00425246
-0.00288748
0.00430556
-0.00291917
0.00434983
-0.00295023
0.0043846
-0.00298057
0.0044098
-0.00301089
0.00442488
-0.00304096
0.00442896
-0.00307083
0.00442183
-0.00310046
0.00440366
-0.00313082
0.00437282
-0.00316074
0.00432998
-0.00319133
0.00427407
-0.0032221
0.00420434
-0.00325331
0.0041204
-0.00328474
0.00402168
-0.00331705
0.00390778
-0.00334988
0.0037776
-0.00338344
0.00363113
-0.00341802
0.00346676
-0.00345278
0.00328499
-0.00348909
0.00308448
-0.00352602
0.0028643
-0.00356422
0.00262376
-0.00360322
0.00236171
-0.0036432
0.00207797
-0.00368497
-0.00372766
0.00177146
0.00202217
-0.00239147
0.00217021
-0.0024256
0.00231449
-0.00246134
0.00245418
-0.00249801
0.00258877
-0.00253536
0.00271879
-0.00257314
0.00284375
-0.00261018
0.0029634
-0.00264702
0.00307795
-0.00268273
0.00318755
-0.00271788
0.00329015
-0.00274967
0.00338745
-0.00278172
0.00347857
-0.0028112
0.00356311
-0.00284032
0.00364155
-0.002868
0.00371262
-0.0028945
0.00377695
-0.00292023
0.00383412
-0.00294465
0.00388314
-0.00296818
0.00392396
-0.00299105
0.00395675
-0.00301336
0.00398027
-0.00303442
0.00399451
-0.0030552
0.00399907
-0.0030754
0.00399382
-0.0030952
0.00397783
-0.00311483
0.0039513
-0.00313421
0.00391318
-0.00315322
0.0038635
-0.00317242
0.0038009
-0.00319071
0.00372605
-0.00320988
0.00363731
-0.00322831
0.00353512
-0.00324769
0.0034181
-0.00326642
0.00328576
-0.00328568
0.00313826
-0.00330528
0.00297406
-0.00332488
0.0027932
-0.00334516
0.00259445
-0.00336547
0.00237713
-0.00338591
0.00214099
-0.00340706
0.00188434
-0.00342833
-0.00345062
0.00160731
0.00180915
-0.0025293
0.00194333
-0.00255979
0.00207382
-0.00259183
0.0022006
-0.00262479
0.00232365
-0.0026584
0.00244163
-0.00269112
0.00255568
-0.00272423
0.00266514
-0.00275649
0.00276987
-0.00278746
0.00286918
-0.00281719
0.00296353
-0.00284403
0.00305233
-0.00287052
0.00313581
-0.00289468
0.00321304
-0.00291755
0.00328432
-0.00293927
0.00335017
-0.00296035
0.00340923
-0.00297929
0.00346205
-0.00299748
0.00350739
-0.00301351
0.00354517
-0.00302883
0.00357506
-0.00304325
0.00359733
-0.00305669
0.00361096
-0.00306884
0.0036159
-0.00308034
0.00361155
-0.00309085
0.00359786
-0.00310115
0.00357407
-0.00311041
0.00354019
-0.00311934
0.00349496
-0.00312719
0.00343947
-0.00313522
0.00337159
-0.003142
0.00329198
-0.0031487
0.00319945
-0.00315515
0.00309399
-0.00316096
0.00297531
-0.00316701
0.00284214
-0.00317211
0.00269418
-0.00317693
0.0025306
-0.00318158
0.00235088
-0.00318575
0.00215468
-0.0031897
0.00194076
-0.00319314
0.00170934
-0.0031969
0.00145845
-0.00319973
-0.000124701
0.00619851
-0.0067498
0.000675991
0.000384566
0.00597997
-0.00648924
0.000853803
0.00576796
-0.00623719
0.00128501
0.005562
-0.0059932
0.00167836
0.00536633
-0.00575969
0.00203767
0.00517686
-0.00553617
0.00236353
0.00499514
-0.00532099
0.00265337
0.00482035
-0.00511019
0.00291241
0.00465057
-0.00490961
0.00314097
0.00448738
-0.00471594
0.00333951
0.00433011
-0.00452866
0.00350957
0.00417803
-0.00434808
0.00365129
0.00403132
-0.00417304
0.00376593
0.00388898
-0.00400361
0.00385413
0.00375152
-0.00383972
0.00391715
0.00361756
-0.00368057
0.00395496
0.00348809
-0.00352591
0.00396851
0.00336168
-0.00337523
0.00395894
0.00323847
-0.0032289
0.00392688
0.00311821
-0.00308615
0.00387329
0.00300061
-0.00294701
0.00379891
0.00288585
-0.00281147
0.00370484
0.00277326
-0.00267919
0.00359183
0.00266308
-0.00255007
0.00346177
0.00255443
-0.00242436
0.00331544
0.00244819
-0.00230187
0.00315425
0.00234364
-0.00218245
0.0029798
0.00224088
-0.00206643
0.00279331
0.00213968
-0.00195318
0.00259641
0.00204019
-0.00184329
0.00239078
0.00194228
-0.00173665
0.00217794
0.00184545
-0.00163261
0.00195917
0.00175034
-0.00153158
0.00173712
0.00165553
-0.00143348
0.0015128
0.00156193
-0.00133761
0.00128827
0.00146871
-0.00124418
0.00106572
0.00137468
-0.00115214
0.000846672
0.00127999
-0.00106094
0.00063449
0.00118224
-0.000970056
0.000431801
0.00107977
-0.000877085
0.000243123
0.000966768
-0.000778088
7.32746e-05
0.000834012
-0.000664165
0.000677788
-0.000104168
-0.000500344
-0.000119249
0.00569972
0.000618042
0.00034155
0.00551917
0.000768697
0.00534081
0.00115814
0.00517256
0.00151394
0.00501053
0.00183811
0.00485269
0.00213243
0.00470081
0.00239589
0.00455689
0.00263086
0.0044156
0.00283787
0.00428037
0.00301786
0.00415012
0.00317219
0.0040237
0.00330135
0.00390216
0.00340603
0.00378429
0.00348752
0.00367004
0.00354582
0.00355926
0.00358227
0.00345164
0.00359713
0.00334682
0.00359131
0.00324429
0.00356541
0.00314411
0.00351955
0.00304646
0.00345548
0.00294992
0.00337355
0.0028552
0.00327434
0.00276229
0.003159
0.00266976
0.00302869
0.0025785
0.00288402
0.00248831
0.00272657
0.00239833
0.00255746
0.00230879
0.00237768
0.00221997
0.00218897
0.00213099
0.00199272
0.00204171
0.00179065
0.00195241
0.00158371
0.00186247
0.00137401
0.00177163
0.00116373
0.00167899
0.000954125
0.00158429
0.000747916
0.0014862
0.000547429
0.00138273
0.000356817
0.00127038
0.000180341
0.00114324
2.12823e-05
0.00099307
0.000840635
-0.000141564
-0.000114534
0.00524893
0.000565324
0.000304603
0.00510004
0.000688384
0.00495703
0.00104251
0.00481843
0.00136534
0.0046877
0.00166074
0.00455729
0.00192484
0.00443671
0.00216551
0.00431621
0.00237747
0.00420364
0.00256495
0.0040929
0.00272851
0.00398655
0.00286826
0.00388396
0.00298559
0.00378482
0.00308121
0.00368867
0.00315543
0.00359582
0.00320934
0.00350535
0.00324365
0.00341733
0.00325844
0.00333204
0.0032546
0.00324812
0.00323267
0.00316604
0.00319345
0.00308568
0.00313714
0.00300622
0.00306452
0.00292782
0.00297685
0.00284996
0.00287417
0.00277245
0.00275704
0.00269562
0.00262743
0.00261792
0.00248533
0.00254043
0.00233172
0.00246239
0.0021685
0.00238319
0.00199628
0.00230321
0.001816
0.00222198
0.00162991
0.0021385
0.00143892
0.00205347
0.00124482
0.00196574
0.00104906
0.00187475
0.000854165
0.00177918
0.000661763
0.0016786
0.00047498
0.00156951
0.000297221
0.00144814
0.000132969
0.0013075
-1.58751e-05
0.00114191
0.000996162
-0.000171401
-0.000107726
0.00483947
0.000517187
0.000270665
0.00472164
0.000619471
0.00460822
0.000941134
0.00449677
0.00123343
0.0043954
0.0014986
0.00429212
0.00174048
0.00419484
0.00195702
0.00409966
0.00214985
0.00401081
0.00231976
0.003923
0.00246791
0.0038384
0.00259468
0.00375718
0.00270103
0.00367847
0.0027875
0.00360221
0.00285546
0.00352786
0.0029046
0.00345621
0.00293587
0.00338606
0.00295017
0.00331773
0.00294742
0.00325088
0.00292833
0.00318514
0.0028941
0.00311991
0.00284423
0.00305609
0.00278024
0.00299181
0.00270185
0.00292835
0.00260966
0.00286465
0.00250541
0.00279987
0.00238853
0.0027348
0.00226037
0.00266859
0.00212157
0.00260119
0.00197325
0.00253151
0.00181662
0.00245984
0.00165252
0.00238608
0.00148195
0.00230907
0.00130654
0.00222888
0.00112808
0.00214419
0.000947788
0.00205503
0.000767504
0.00195947
0.000589827
0.00185628
0.000416903
0.00174243
0.000252362
0.00161268
0.000100785
0.00145907
-3.75051e-05
0.0012802
0.0011401
-0.000181441
-0.000102979
0.00446853
0.000473923
0.000242745
0.00437592
0.00055917
0.0042918
0.000848535
0.0042074
0.0011147
0.00412923
0.00135605
0.00405077
0.00157421
0.00397668
0.00176957
0.0039043
0.00194435
0.00383604
0.00209913
0.00376821
0.00223311
0.00370443
0.00234827
0.00364202
0.00244498
0.00358176
0.00252382
0.00352337
0.0025851
0.00346657
0.00263024
0.00341107
0.00265891
0.00335739
0.00267227
0.00330437
0.00267046
0.00325269
0.00265444
0.00320116
0.00262387
0.00315048
0.00257998
0.00309998
0.0025225
0.00304929
0.00245246
0.00299838
0.00237032
0.00294679
0.00227618
0.00289401
0.00217099
0.00283999
0.00205517
0.00278441
0.00193011
0.00272625
0.00179581
0.00266581
0.00165316
0.00260249
0.00150344
0.00253579
0.00134787
0.00246465
0.00118772
0.00238903
0.00102386
0.00230806
0.000858189
0.0022207
0.000692368
0.00212529
0.000528445
0.0020202
0.000369314
0.00190156
0.000218207
0.00176379
7.83925e-05
0.00159889
-4.89402e-05
0.00140754
0.00127312
-0.000181967
-9.50137e-05
0.0041298
0.000433736
0.000216331
0.00406458
0.000502897
0.00400523
0.000766536
0.00394376
0.00100908
0.00388669
0.00122667
0.00383318
0.0014256
0.00377775
0.00160343
0.00372648
0.00176258
0.00367689
0.00190082
0.00362997
0.0020224
0.00358285
0.00212667
0.00353775
0.00221443
0.003494
0.00228582
0.00345197
0.00234206
0.00341034
0.00238266
0.00337047
0.00240944
0.00333062
0.00242167
0.00329214
0.00242073
0.00325363
0.00240634
0.00321556
0.00237927
0.00317754
0.00234007
0.00313919
0.00228866
0.00310069
0.00222589
0.00306116
0.00215212
0.00302056
0.00206761
0.00297852
0.00197292
0.00293468
0.00186897
0.00288836
0.00175538
0.00283984
0.00163347
0.00278773
0.001504
0.00273196
0.00136827
0.00267153
0.00122618
0.00260673
0.00107953
0.00253568
0.000929729
0.00245785
0.000777808
0.00237263
0.000625586
0.00227751
0.000475359
0.00217043
0.000329357
0.00204756
0.000190614
0.00190253
6.23862e-05
0.00172712
-5.4931e-05
0.00152485
0.00139575
-0.000177556
-8.88603e-05
0.00382524
0.000393419
0.000192808
0.00378291
0.000453798
0.00374424
0.000693569
0.00370399
0.000911051
0.00366921
0.00111137
0.00363286
0.00128883
0.00360029
0.0014497
0.00356561
0.00159397
0.00353262
0.00172163
0.0035023
0.00183191
0.00347258
0.0019268
0.00344286
0.00200626
0.00341454
0.00207147
0.00338676
0.00212219
0.00335962
0.00215964
0.00333302
0.00218353
0.00330673
0.00219527
0.00328039
0.00219458
0.00325432
0.00218183
0.00322831
0.00215774
0.00320163
0.00212247
0.00317446
0.00207661
0.00314655
0.0020203
0.00311747
0.00195391
0.00308694
0.00187791
0.00305452
0.00179256
0.00302004
0.00169821
0.0029827
0.00159592
0.00294213
0.00148558
0.00289807
0.00136811
0.00284943
0.00124418
0.00279546
0.00111493
0.00273599
0.000981452
0.00266916
0.000844308
0.002595
0.000705561
0.00251137
0.00056628
0.00241679
0.000429074
0.00230763
0.000295711
0.00218093
0.000168951
0.00202929
5.04527e-05
0.00184561
-5.88125e-05
0.00163412
0.00150951
-0.000172577
-8.26192e-05
0.00354624
0.000361627
0.00017382
0.00352647
0.000411041
0.00350702
0.000625883
0.00348915
0.000823749
0.00347134
0.0010051
0.00345151
0.00116992
0.00343547
0.00131599
0.00341954
0.00144509
0.00340352
0.00156024
0.00338714
0.00166029
0.00337254
0.00174623
0.00335691
0.00181847
0.00334231
0.00187751
0.00332772
0.00192373
0.0033134
0.00195777
0.00329898
0.00197997
0.00328452
0.00199049
0.00326988
0.0019899
0.00325491
0.00197899
0.00323922
0.00195727
0.00322335
0.00192546
0.00320626
0.00188424
0.00318778
0.00183369
0.00316802
0.00177376
0.00314688
0.00170506
0.00312322
0.00162794
0.00309715
0.00154286
0.00306779
0.00145031
0.00303469
0.00135036
0.00299802
0.00124372
0.00295606
0.0011313
0.00290788
0.00101398
0.00285331
0.000891916
0.00279122
0.000766894
0.00272002
0.000640157
0.00263811
0.000512875
0.00254407
0.000386783
0.00243372
0.000265413
0.0023023
0.000151585
0.00214312
4.36982e-05
0.0019535
-5.85343e-05
0.00173635
0.00161454
-0.000163564
-7.8641e-05
0.00329409
0.000330782
0.000154317
0.00329351
0.000368672
0.00329266
0.000566285
0.00329154
0.000747288
0.00329034
0.000909603
0.00328919
0.00105726
0.00328781
0.00119064
0.00328616
0.00130933
0.00328483
0.00141325
0.00328323
0.00150511
0.00328068
0.00158294
0.00327908
0.0016488
0.00327645
0.00170238
0.00327414
0.00174427
0.0032715
0.00177536
0.0032679
0.0017954
0.00326448
0.00180529
0.00325998
0.0018051
0.0032551
0.00179493
0.00324939
0.00177586
0.00324243
0.00174731
0.00323481
0.00171002
0.00322507
0.00166445
0.00321359
0.00161043
0.0032009
0.00154831
0.00318534
0.00147885
0.00316661
0.00140233
0.00314431
0.00131862
0.00311839
0.00122801
0.00308863
0.00113098
0.0030531
0.00102871
0.00301015
0.000921765
0.00296025
0.000811022
0.00290196
0.000696819
0.00283422
0.00058047
0.00275446
0.000463911
0.00266063
0.000348883
0.00254875
0.000240255
0.00241093
0.000139833
0.00224354
3.68916e-05
0.00205644
-6.58158e-05
0.00183906
-0.000163965
0.00171269
-0.000287297
0.000709994
-0.000526866
-0.000470899
0.000827346
-0.000643742
-0.000658131
0.000901063
-0.000713832
-0.000845313
0.00095817
-0.000770987
-0.00103077
0.00100852
-0.000823061
-0.00121392
0.00105638
-0.000873228
-0.00139343
0.0011029
-0.00092339
-0.00156914
0.0011497
-0.000973987
-0.00174077
0.0011971
-0.00102548
-0.00190738
0.0012453
-0.00107869
-0.00206915
0.0012952
-0.00113343
-0.00222506
0.00134662
-0.0011907
-0.00237492
0.00139981
-0.00124996
-0.00251833
0.00145493
-0.00131152
-0.00265476
0.00151225
-0.00137582
-0.00278353
0.00157183
-0.00144305
-0.0029048
0.00163415
-0.00151288
-0.00301705
0.00169861
-0.00158635
-0.00312055
0.00176622
-0.00166272
-0.00321434
0.00183652
-0.00174273
-0.00329781
0.00190997
-0.0018265