/*--------------------------------*- C++ -*----------------------------------*\
| =========                 |                                                 |
| \\      /  F ield         | OpenFOAM: The Open Source CFD Toolbox           |
|  \\    /   O peration     | Version:  2.3.0                                 |
|   \\  /    A nd           | Web:      www.OpenFOAM.org                      |
|    \\/     M anipulation  |                                                 |
\*---------------------------------------------------------------------------*/
FoamFile
{
    version     2.0;
    format      ascii;
    class       volScalarField;
    location    "3000";
    object      nuTilda;
}
// * * * * * * * * * * * * * * * * * * * * * * * * * * * * * * * * * * * * * //

dimensions      [0 2 -1 0 0 0 0];

internalField   nonuniform List<scalar> 
38325
(
0.0726198
0.0710007
0.0693678
0.0677286
0.0660843
0.0644359
0.0627841
0.06113
0.0594745
0.0578184
0.0561626
0.0545075
0.052854
0.0512028
0.0495543
0.0479093
0.0462683
0.0446317
0.0429997
0.0413728
0.0397517
0.0381367
0.036528
0.0349264
0.0333319
0.0317449
0.0301662
0.0285965
0.0270362
0.0254862
0.0239479
0.0224229
0.020913
0.0194217
0.0179528
0.0165125
0.0151101
0.0137568
0.0124673
0.0112565
0.0101201
0.00894584
0.00704485
0.0735956
0.0721458
0.0706928
0.069234
0.0677699
0.0663017
0.06483
0.063355
0.0618774
0.0603976
0.0589162
0.0574334
0.0559495
0.0544647
0.0529798
0.051495
0.0500102
0.0485261
0.0470431
0.0455608
0.0440802
0.0426017
0.0411255
0.0396529
0.0381842
0.0367196
0.0352614
0.0338106
0.0323684
0.0309377
0.0295216
0.0281237
0.0267488
0.0254028
0.0240935
0.0228322
0.0216304
0.020503
0.0194688
0.0185474
0.0177589
0.0171222
0.0166501
0.0744999
0.0732055
0.0719078
0.070604
0.069295
0.0679815
0.0666635
0.0653416
0.0640159
0.0626865
0.0613539
0.0600179
0.0586786
0.0573364
0.0559917
0.0546442
0.0532941
0.051942
0.0505881
0.0492323
0.0478753
0.0465177
0.0451598
0.0438028
0.0424474
0.0410949
0.0397476
0.0384063
0.0370738
0.0357533
0.0344485
0.0331641
0.0319056
0.0306792
0.0294934
0.0283585
0.0272855
0.0262875
0.0253781
0.0245706
0.0238785
0.0233146
0.022885
0.0753425
0.0741831
0.0730195
0.07185
0.0706745
0.0694935
0.0683073
0.0671161
0.0659197
0.0647184
0.0635119
0.0623001
0.0610835
0.0598619
0.0586353
0.0574038
0.0561675
0.0549267
0.0536817
0.0524324
0.0511796
0.0499239
0.0486658
0.047406
0.0461459
0.0448871
0.0436316
0.042381
0.0411384
0.0399072
0.038691
0.037495
0.0363242
0.0351859
0.0340873
0.0330382
0.0320493
0.0311312
0.0302943
0.0295502
0.0289096
0.0283817
0.0279702
0.0761224
0.0750811
0.0740346
0.0729811
0.0719205
0.0708535
0.0697801
0.0687005
0.0676143
0.0665219
0.0654226
0.0643163
0.063203
0.0620829
0.0609557
0.0598219
0.0586812
0.0575338
0.0563802
0.0552202
0.0540544
0.0528838
0.0517089
0.0505303
0.0493496
0.0481681
0.0469879
0.0458115
0.0446419
0.043482
0.0423361
0.0412088
0.0401059
0.0390335
0.0379989
0.0370114
0.0360805
0.0352153
0.0344262
0.0337227
0.0331138
0.0326072
0.0322067
0.0768424
0.0759044
0.0749594
0.0740064
0.0730451
0.0720759
0.0710992
0.0701148
0.0691227
0.068123
0.0671149
0.0660979
0.0650719
0.0640373
0.062994
0.0619423
0.060882
0.0598133
0.0587363
0.0576512
0.0565583
0.0554587
0.0543528
0.0532415
0.0521265
0.0510093
0.0498913
0.0487755
0.0476646
0.0465619
0.0454722
0.0444002
0.0433508
0.0423295
0.0413433
0.0404012
0.0395124
0.0386857
0.0379307
0.0372559
0.0366692
0.0361772
0.0357842
0.0775015
0.0766561
0.0758002
0.0749348
0.0740595
0.0731745
0.0722801
0.071377
0.0704655
0.069545
0.0686148
0.067674
0.0667223
0.0657599
0.0647875
0.0638051
0.0628124
0.0618097
0.0607976
0.0597754
0.0587438
0.0577036
0.0566554
0.0556003
0.0545403
0.0534765
0.0524105
0.0513444
0.0502812
0.0492256
0.0481816
0.0471544
0.0461484
0.0451687
0.0442203
0.0433119
0.0424548
0.0416578
0.0409286
0.040276
0.0397057
0.0392245
0.038837
0.0781074
0.0773427
0.0765641
0.0757748
0.0749737
0.0741619
0.0733376
0.0725039
0.0716609
0.0708084
0.0699452
0.0690706
0.0681825
0.06728
0.0663681
0.0654446
0.0645089
0.0635619
0.0626046
0.0616363
0.0606563
0.0596664
0.0586666
0.0576591
0.0566444
0.055626
0.0546047
0.0535803
0.0525556
0.0515388
0.050532
0.0495402
0.0485717
0.0476277
0.0467107
0.0458268
0.0449929
0.04422
0.0435099
0.0428799
0.0423209
0.041848
0.0414645
0.0786689
0.0779725
0.0772593
0.0765366
0.0757973
0.0750507
0.0742846
0.0735085
0.0727227
0.0719271
0.071121
0.0703037
0.0694758
0.0686197
0.0677586
0.0668854
0.0659985
0.0650977
0.064185
0.0632648
0.0623285
0.0613838
0.0604224
0.0594566
0.0584781
0.0574969
0.0565141
0.0555304
0.0545334
0.0535486
0.0525747
0.0516105
0.0506755
0.049761
0.0488742
0.0480115
0.0471938
0.0464453
0.0457407
0.0451485
0.0445918
0.0441281
0.0437445
0.00627289
0.00723793
0.00823361
0.00909376
0.00987323
0.0106214
0.0113589
0.0120958
0.0128393
0.0136066
0.0144197
0.0152899
0.0162134
0.0171816
0.0181891
0.0192288
0.0202985
0.0213975
0.0225263
0.0236828
0.0248655
0.026071
0.0272996
0.028549
0.0298192
0.0311097
0.0324198
0.0337489
0.0350962
0.0364619
0.0378449
0.0392452
0.0406616
0.0420935
0.0435406
0.045002
0.0464769
0.0479651
0.0494659
0.0509789
0.0525038
0.0540402
0.0555867
0.0163479
0.0162097
0.0162294
0.0163924
0.0166863
0.0170939
0.0176007
0.0181925
0.0188568
0.0195838
0.0203644
0.0211935
0.0220628
0.0229685
0.0239051
0.0248698
0.0258597
0.0268736
0.0279092
0.0289648
0.0300401
0.0311336
0.0322436
0.0333709
0.0345138
0.0356721
0.0368454
0.0380331
0.039235
0.0404504
0.0416795
0.0429209
0.0441746
0.0454401
0.0467171
0.0480051
0.0493035
0.0506126
0.0519321
0.053262
0.0546023
0.0559533
0.057317
0.0225861
0.0224139
0.0223699
0.0224506
0.0226492
0.0229556
0.0233594
0.0238496
0.0244143
0.0250444
0.0257313
0.0264672
0.0272463
0.0280609
0.0289092
0.0297848
0.0306862
0.0316098
0.0325537
0.0335164
0.0344955
0.0354902
0.0364997
0.0375225
0.0385585
0.0396066
0.0406658
0.0417366
0.0428178
0.0439093
0.0450102
0.0461207
0.0472398
0.0483673
0.0495031
0.0506469
0.0517986
0.0529583
0.0541263
0.0553027
0.0564873
0.0576799
0.0588803
0.0276739
0.0274909
0.0274227
0.0274658
0.0276166
0.027867
0.0282094
0.028633
0.02913
0.0296912
0.0303079
0.0309735
0.0316809
0.0324258
0.0332019
0.0340064
0.0348345
0.0356842
0.0365526
0.0374376
0.0383375
0.0392511
0.040177
0.0411139
0.0420612
0.0430176
0.0439829
0.0449567
0.0459378
0.0469262
0.047921
0.0489218
0.0499286
0.0509406
0.0519581
0.0529808
0.0540091
0.0550432
0.0560835
0.0571301
0.0581827
0.0592409
0.0603049
0.0319122
0.0317237
0.0316414
0.0316628
0.0317844
0.032
0.0323015
0.0326815
0.0331313
0.0336425
0.0342079
0.0348211
0.0354755
0.0361653
0.0368861
0.0376331
0.0384032
0.0391929
0.0399999
0.0408222
0.0416576
0.042505
0.0433621
0.0442286
0.0451026
0.0459836
0.0468712
0.0477642
0.0486626
0.049565
0.0504709
0.0513801
0.0522923
0.0532074
0.0541252
0.0550459
0.0559703
0.0568987
0.0578312
0.0587676
0.0597075
0.0606506
0.0615968
0.0354915
0.0352993
0.0352082
0.0352159
0.0353187
0.0355107
0.0357847
0.0361333
0.0365479
0.0370222
0.0375493
0.0381224
0.0387355
0.0393828
0.0400591
0.0407602
0.0414829
0.0422242
0.0429817
0.0437529
0.0445358
0.0453286
0.0461294
0.0469371
0.0477506
0.0485693
0.0493921
0.0502189
0.0510476
0.0518779
0.0527092
0.0535413
0.0543741
0.0552073
0.0560409
0.0568756
0.0577125
0.0585516
0.0593928
0.0602356
0.0610791
0.0619233
0.0627687
0.0385456
0.038351
0.038254
0.0382522
0.0383423
0.0385184
0.0387724
0.0390962
0.039484
0.0399299
0.0404274
0.0409702
0.0415512
0.0421636
0.042803
0.0434666
0.044151
0.0448535
0.0455706
0.0462999
0.0470394
0.0477871
0.0485411
0.0492999
0.0500627
0.0508297
0.0515997
0.0523706
0.0531408
0.0539098
0.0546777
0.0554449
0.0562104
0.0569739
0.0577363
0.0584984
0.0592615
0.0600255
0.0607896
0.0615524
0.0623129
0.0630715
0.0638303
0.0411738
0.0409773
0.040876
0.0408675
0.0409491
0.0411148
0.0413524
0.0416553
0.0420204
0.0424445
0.0429203
0.0434405
0.043994
0.0445755
0.0451843
0.0458176
0.0464719
0.0471425
0.0478259
0.0485202
0.0492242
0.0499343
0.0506486
0.0513657
0.0520868
0.0528117
0.0535378
0.0542613
0.0549805
0.0556969
0.0564117
0.0571243
0.0578323
0.0585362
0.0592379
0.0599393
0.060641
0.0613421
0.0620409
0.0627345
0.0634224
0.0641066
0.0647896
0.0434525
0.0432539
0.0431481
0.0431326
0.0432085
0.0433679
0.0435893
0.0438688
0.044213
0.0446238
0.0450838
0.0455859
0.0461079
0.0466615
0.0472458
0.0478552
0.0484853
0.0491287
0.0497815
0.0504476
0.0511221
0.0517985
0.0524778
0.0531599
0.053848
0.0545407
0.0552298
0.0559109
0.0565846
0.0572582
0.0579301
0.0585969
0.0592548
0.0599085
0.0605623
0.0612169
0.0618706
0.0625201
0.0631637
0.063795
0.0644203
0.0650425
0.0656624
0.017381
0.0163865
0.0154366
0.0145278
0.0136584
0.0128274
0.0120338
0.0112767
0.0105555
0.00986959
0.00921846
0.00860133
0.00801811
0.00746908
0.00695527
0.00647899
0.00604414
0.00565816
0.00532453
0.00503176
0.0047693
0.00452988
0.00430872
0.00410238
0.00390797
0.00372303
0.00354527
0.00337255
0.0032028
0.00303412
0.00286463
0.00269258
0.00251627
0.00233414
0.00214466
0.00194644
0.00173818
0.00151881
0.00128751
0.00104409
0.000791053
0.000543615
0.000340719
0.017307
0.0163869
0.0155047
0.0146578
0.0138447
0.0130643
0.0123157
0.011598
0.0109108
0.0102538
0.00962613
0.00902739
0.00845744
0.0079163
0.00740449
0.00692328
0.00647514
0.00606488
0.00569885
0.00537699
0.00509015
0.0048306
0.00459263
0.00437201
0.00416533
0.00396994
0.00378337
0.0036034
0.00342789
0.00325477
0.00308203
0.00290762
0.00272957
0.00254596
0.00235487
0.0021545
0.00194319
0.00171949
0.00148242
0.00123226
0.000973882
0.000729531
0.000586164
0.0172455
0.0163948
0.0155772
0.0147896
0.0140304
0.0132983
0.0125927
0.0119129
0.0112584
0.0106291
0.0100242
0.00944355
0.00888699
0.00835443
0.00784609
0.00736278
0.00690606
0.00647894
0.00608644
0.00573472
0.00542111
0.00513797
0.00487947
0.00464103
0.00441903
0.00421038
0.00401242
0.00382273
0.00363907
0.00345926
0.00328111
0.00310243
0.00292097
0.00273448
0.00254067
0.00233728
0.00212218
0.00189348
0.00165003
0.00139304
0.00113212
0.000910386
0.000887344
0.0171888
0.0164038
0.0156456
0.0149122
0.0142022
0.0135146
0.0128487
0.012204
0.0115798
0.0109762
0.0103928
0.00982946
0.00928595
0.00876219
0.00825858
0.00777545
0.00731389
0.00687591
0.00646493
0.00608704
0.00574707
0.00543974
0.0051592
0.00490094
0.00466146
0.00443748
0.0042262
0.004025
0.0038315
0.00364334
0.00345822
0.0032738
0.00308762
0.00289716
0.00269979
0.00249281
0.00227367
0.00204004
0.00179076
0.00152859
0.00127121
0.0010969
0.00122729
0.0171353
0.0164118
0.0157083
0.0150243
0.0143592
0.0137122
0.0130824
0.0124695
0.0118732
0.0112934
0.01073
0.0101828
0.00965181
0.00913704
0.00863872
0.00815715
0.00769329
0.00724831
0.00682477
0.00642735
0.00606288
0.00573216
0.00542952
0.00515077
0.00489258
0.0046519
0.00442586
0.0042118
0.00400716
0.00380946
0.00361628
0.00342509
0.00323326
0.00303806
0.00283656
0.00262571
0.00240249
0.00216429
0.00191009
0.0016449
0.0013984
0.00129481
0.00158468
0.0170861
0.0164188
0.0157654
0.0151266
0.0145023
0.0138919
0.0132949
0.0127112
0.0121404
0.0115825
0.0110374
0.0105053
0.00998622
0.00948011
0.00898728
0.00850813
0.00804328
0.00759383
0.00716159
0.00675002
0.006365
0.00601246
0.00568889
0.00539003
0.00511284
0.00485472
0.00461304
0.00438522
0.00416856
0.00396051
0.00375846
0.00355979
0.0033617
0.00316123
0.00295522
0.0027403
0.00251314
0.00227079
0.00201253
0.00174656
0.00151838
0.00150286
0.00194252
0.0170444
0.0164255
0.0158173
0.0152197
0.0146324
0.0140554
0.0134884
0.0129312
0.0123837
0.0118458
0.0113177
0.0107997
0.0102917
0.00979381
0.0093065
0.00883003
0.00836513
0.00791257
0.00747415
0.00705215
0.00665129
0.00627891
0.00593589
0.00561781
0.00532213
0.00504663
0.00478906
0.00454695
0.00431773
0.00409875
0.00388732
0.0036807
0.00347599
0.00326997
0.0030593
0.00284021
0.00260909
0.00236287
0.00210134
0.00183674
0.00163389
0.00171674
0.00229106
0.017005
0.0164314
0.0158643
0.0153041
0.0147511
0.014205
0.0136657
0.0131329
0.0126062
0.0120859
0.0115732
0.0110685
0.0105714
0.0100818
0.00959998
0.00912631
0.0086615
0.00820664
0.0077632
0.00733325
0.00692005
0.0065302
0.00616915
0.00583341
0.00552019
0.0052276
0.00495396
0.00469726
0.00445528
0.00422536
0.0040044
0.00378934
0.00357724
0.00336533
0.00315
0.00292758
0.00269339
0.00244407
0.00218005
0.00191832
0.00174564
0.00193074
0.00262656
0.0169673
0.016436
0.0159062
0.0153805
0.0148597
0.014343
0.0138304
0.0133226
0.012815
0.012308
0.011807
0.0113152
0.0108313
0.0103532
0.00987967
0.00941102
0.00894769
0.0084895
0.00804053
0.00760524
0.00718461
0.00677974
0.00640095
0.00604909
0.00571992
0.00541118
0.00512142
0.0048487
0.0045897
0.00434682
0.00411876
0.00389899
0.00368211
0.00346111
0.00323637
0.00300129
0.00276152
0.00250743
0.00224253
0.00198837
0.00185699
0.00215713
0.00296007
0.000335245
0.000531507
0.000825737
0.00116919
0.00156263
0.00200668
0.0025007
0.00304395
0.00363571
0.00427571
0.00496417
0.00570117
0.00648747
0.00732404
0.00821163
0.00915186
0.0101457
0.0111947
0.0123008
0.0134656
0.0146909
0.0159787
0.0173311
0.01875
0.0202378
0.0217968
0.023429
0.0251371
0.0269234
0.0287901
0.0307396
0.0327742
0.0348957
0.0371055
0.0394041
0.0417904
0.0442602
0.0468049
0.0494085
0.0520479
0.0546954
0.0573235
0.0599098
0.000748687
0.00104888
0.00140433
0.00183463
0.00231351
0.002841
0.00341803
0.00404468
0.00472076
0.00544576
0.00621933
0.00704131
0.00791161
0.00883035
0.009798
0.010815
0.0118821
0.0130001
0.0141697
0.0153924
0.0166693
0.0180014
0.0193902
0.0208374
0.0223444
0.0239128
0.0255439
0.0272397
0.0290019
0.0308318
0.0327311
0.0347014
0.0367435
0.0388582
0.041045
0.0433016
0.0456225
0.0479978
0.0504119
0.0528452
0.0552758
0.057683
0.0600465
0.00120447
0.00161066
0.00205125
0.00256095
0.00312711
0.00374095
0.00440251
0.0051124
0.00587075
0.00667721
0.00753123
0.00843236
0.00938015
0.0103743
0.0114146
0.012501
0.0136335
0.0148124
0.0160383
0.0173113
0.0186322
0.0200017
0.0214207
0.0228899
0.0244102
0.0259826
0.027608
0.0292876
0.0310225
0.0328134
0.0346617
0.0365678
0.0385323
0.0405546
0.0426332
0.0447639
0.04694
0.0491506
0.0513823
0.053619
0.0558451
0.0580459
0.0602082
0.0016799
0.00219032
0.00272404
0.00329648
0.00394295
0.0046397
0.00538263
0.00617206
0.00700831
0.00789104
0.00881972
0.00979376
0.0108123
0.0118746
0.0129801
0.0141283
0.0153188
0.0165514
0.017826
0.0191425
0.0205011
0.0219019
0.0233453
0.0248315
0.0263609
0.027934
0.0295511
0.0312129
0.0329198
0.0346725
0.0364713
0.0383163
0.040207
0.0421417
0.0441173
0.0461281
0.0481665
0.0502227
0.0522854
0.0543428
0.0563836
0.0583972
0.0603743
0.00215295
0.00275596
0.00337097
0.00401256
0.00473684
0.00551352
0.00633483
0.00719913
0.00810787
0.00906138
0.0100591
0.0111001
0.0121833
0.0133077
0.0144723
0.0156763
0.0169187
0.018199
0.0195168
0.0208715
0.0222629
0.0236909
0.0251549
0.0266551
0.0281911
0.0297628
0.0313702
0.0330135
0.0346927
0.0364081
0.0381595
0.039946
0.0417661
0.0436168
0.0454934
0.0473897
0.0492984
0.0512111
0.0531195
0.0550148
0.0568887
0.0587343
0.0605451
0.00261115
0.0032981
0.00398945
0.00470263
0.00550199
0.00635609
0.00725399
0.00818945
0.00916509
0.0101831
0.0112437
0.0123458
0.0134879
0.0146686
0.0158867
0.0171408
0.0184297
0.0197527
0.021109
0.0224978
0.0239185
0.0253703
0.0268527
0.0283647
0.0299054
0.0314739
0.0330701
0.0346939
0.0363453
0.0380238
0.0397286
0.041458
0.0432095
0.0449789
0.0467605
0.048548
0.0503353
0.0521163
0.0538847
0.0556342
0.0573591
0.0590541
0.0607144
0.00305041
0.00381622
0.0045812
0.00536496
0.00623736
0.00716662
0.00813945
0.00914383
0.0101821
0.0112592
0.0123766
0.0135337
0.014729
0.0159605
0.0172262
0.0185246
0.0198546
0.0212154
0.022606
0.0240254
0.0254725
0.0269464
0.0284453
0.0299676
0.0315106
0.0330731
0.0346556
0.0362581
0.0378803
0.0395212
0.0411792
0.042852
0.0445365
0.0462277
0.0479186
0.0496038
0.0512786
0.0529392
0.0545819
0.0562016
0.0577941
0.0593547
0.06088
0.00347112
0.00431223
0.00514825
0.0060006
0.00694332
0.00794443
0.00898891
0.0100605
0.0111598
0.0122931
0.0134624
0.0146692
0.0159128
0.0171892
0.0184965
0.0198323
0.0211976
0.0225917
0.0240126
0.0254596
0.0269314
0.0284264
0.0299413
0.031473
0.0330134
0.0345651
0.0361297
0.0377082
0.0392989
0.0409006
0.0425111
0.0441271
0.0457472
0.0473639
0.0489704
0.0505608
0.0521312
0.053681
0.055212
0.0567177
0.0581942
0.0596355
0.0610403
0.00387979
0.00479002
0.00569376
0.00661306
0.00762223
0.00868872
0.00979625
0.0109364
0.0120968
0.0132887
0.0145019
0.0157552
0.0170463
0.0183614
0.0197039
0.0210658
0.0224623
0.023886
0.0253322
0.0268047
0.0283001
0.0298173
0.0313505
0.0328936
0.0344164
0.0359523
0.037493
0.0390465
0.040601
0.0421633
0.0437248
0.0452831
0.0468415
0.0483888
0.0499236
0.0514289
0.0528954
0.0543389
0.0557757
0.0571852
0.058562
0.0598943
0.061189
0.000490672
0.00190577
0.00345309
0.00504765
0.00666452
0.00829258
0.00992852
0.0115699
0.0132138
0.0148589
0.0165062
0.0181563
0.0198096
0.0214679
0.0231304
0.0247989
0.0264737
0.0281548
0.029843
0.0315386
0.033241
0.0349508
0.0366678
0.0383914
0.0401217
0.0418584
0.0436006
0.0453482
0.0471008
0.0488573
0.0506178
0.0523809
0.0541458
0.0559121
0.0576783
0.0594439
0.0612078
0.0629687
0.0647257
0.0664777
0.0682236
0.0699627
0.0716888
0.000145951
0.00099829
0.00213978
0.00344054
0.00484231
0.00631248
0.00783207
0.00938996
0.0109775
0.0125884
0.0142192
0.0158666
0.0175295
0.019206
0.0208947
0.0225951
0.0243067
0.0260286
0.0277607
0.0295025
0.0312532
0.0330129
0.034781
0.0365567
0.0383396
0.040129
0.0419244
0.0437256
0.0455315
0.0473413
0.0491544
0.0509698
0.0527867
0.0546043
0.0564213
0.0582369
0.0600497
0.061859
0.0636636
0.0654618
0.0672526
0.0690341
0.0707989
0.000235652
0.000866398
0.00180835
0.00289899
0.00410137
0.00539152
0.00675364
0.00817611
0.00964986
0.0111676
0.0127234
0.0143125
0.0159311
0.0175759
0.0192441
0.0209331
0.0226416
0.0243675
0.0261092
0.0278654
0.0296352
0.0314175
0.0332113
0.0350152
0.0368284
0.0386501
0.0404796
0.042316
0.044158
0.0460048
0.0478552
0.0497085
0.0515638
0.0534197
0.0552753
0.0571291
0.0589802
0.0608274
0.0626693
0.0645044
0.0663318
0.0681502
0.0699582
0.000250748
0.000762157
0.00158514
0.00254457
0.00361508
0.00477855
0.0060218
0.00733457
0.00870915
0.0101387
0.011617
0.0131394
0.0147012
0.0162988
0.0179286
0.0195878
0.0212741
0.0229844
0.0247166
0.0264691
0.0282406
0.0300289
0.0318323
0.0336495
0.0354793
0.0373206
0.0391721
0.041032
0.0428995
0.0447734
0.0466525
0.0485355
0.0504211
0.0523082
0.0541954
0.0560814
0.0579651
0.0598448
0.0617191
0.0635868
0.0654461
0.0672955
0.0691329
0.000255225
0.000669379
0.00140672
0.00227461
0.00325148
0.00432171
0.00547407
0.00669939
0.00799143
0.00934342
0.0107505
0.0122082
0.0137118
0.015258
0.0168434
0.0184647
0.0201192
0.0218038
0.0235164
0.0252548
0.0270166
0.0287998
0.0306026
0.0324232
0.03426
0.0361114
0.0379755
0.0398507
0.0417359
0.0436296
0.0455302
0.0474361
0.049346
0.0512586
0.0531723
0.0550858
0.0569973
0.0589055
0.0608086
0.0627051
0.0645934
0.0664719
0.0683418
0.000257411
0.000603064
0.00127617
0.00207428
0.0029779
0.00397344
0.00505074
0.00620282
0.00742325
0.00870672
0.010049
0.0114459
0.0128937
0.0143888
0.0159279
0.0175084
0.019127
0.0207809
0.022468
0.0241855
0.0259308
0.0277021
0.0294971
0.0313138
0.0331504
0.0350044
0.0368743
0.0387586
0.0406553
0.0425626
0.044479
0.0464024
0.0483317
0.050265
0.0522008
0.0541373
0.0560728
0.0580058
0.0599346
0.0618571
0.0637721
0.0656776
0.0675744
0.000257627
0.000554215
0.00117625
0.00191864
0.00276289
0.00369669
0.00471141
0.00580081
0.00695912
0.0081823
0.00946632
0.0108078
0.0122031
0.013649
0.015143
0.0166821
0.0182634
0.0198842
0.0215423
0.023235
0.0249599
0.0267142
0.0284964
0.0303041
0.0321348
0.0339863
0.0358572
0.0377451
0.0396479
0.0415641
0.0434915
0.0454281
0.0473722
0.0493222
0.0512761
0.0532322
0.0551884
0.0571432
0.0590947
0.0610412
0.0629809
0.0649123
0.0668372
0.00025709
0.000515366
0.00109541
0.00179205
0.00258691
0.00346889
0.00443048
0.00546591
0.00657055
0.00774066
0.0089727
0.0102635
0.0116103
0.0130104
0.014461
0.0159596
0.0175036
0.0190905
0.020718
0.0223839
0.0240854
0.0258201
0.0275858
0.0293806
0.0312017
0.0330469
0.0349142
0.0368015
0.0387064
0.0406273
0.0425617
0.0445076
0.0464632
0.0484263
0.0503949
0.0523673
0.0543413
0.0563151
0.058287
0.0602551
0.0622177
0.0641728
0.066121
0.000256443
0.000483598
0.00102815
0.00168643
0.0024395
0.00327736
0.00419309
0.00518162
0.00623911
0.00736203
0.00854738
0.00979226
0.0110946
0.0124518
0.0138613
0.0153213
0.016829
0.0183822
0.0199789
0.0216167
0.0232934
0.0250062
0.0267532
0.0285323
0.0303408
0.0321765
0.0340373
0.0359206
0.0378245
0.0397464
0.0416846
0.0436366
0.0456002
0.0475732
0.0495539
0.0515399
0.053529
0.0555194
0.0575094
0.0594972
0.061481
0.0634599
0.0654361
0.00025592
0.00045749
0.00097216
0.00159681
0.00231397
0.00311358
0.00398929
0.00493684
0.00595234
0.00703312
0.00817627
0.00937955
0.0106409
0.0119581
0.0133294
0.0147523
0.0162248
0.0177453
0.0193115
0.0209211
0.0225719
0.0242619
0.0259888
0.0277502
0.029544
0.0313679
0.0332194
0.0350964
0.0369961
0.0389167
0.0408557
0.0428108
0.0447797
0.0467603
0.0487501
0.050747
0.0527489
0.0547537
0.0567596
0.0587647
0.0607677
0.0627683
0.0647629
0.000255312
0.000435303
0.00092428
0.00151954
0.00220523
0.00297128
0.0038118
0.0047228
0.005701
0.00674383
0.00784873
0.00901394
0.0102377
0.011518
0.012853
0.014241
0.0156803
0.0171691
0.0187053
0.0202869
0.0219118
0.0235782
0.0252841
0.0270267
0.0288043
0.0306145
0.032455
0.0343231
0.0362169
0.0381335
0.0400709
0.0420269
0.0439987
0.0459843
0.0479809
0.0499867
0.0519991
0.054016
0.0560352
0.0580549
0.0600732
0.0620881
0.0640922
0.000254715
0.000416399
0.000882765
0.00145192
0.00210986
0.00284627
0.00365545
0.00453375
0.00547824
0.00648667
0.00755691
0.00868738
0.00987645
0.0111223
0.0124236
0.0137787
0.0151863
0.0166445
0.0181516
0.0197056
0.021305
0.022948
0.024632
0.0263553
0.0281155
0.0299107
0.0317385
0.0335965
0.035482
0.037393
0.0393273
0.0412819
0.0432546
0.0452429
0.0472444
0.0492568
0.0512775
0.0533042
0.0553346
0.0573664
0.0593971
0.0614233
0.0634381
0.000254204
0.000399817
0.000846068
0.00139212
0.00202545
0.00273523
0.00351627
0.00436502
0.00527905
0.00625629
0.00729475
0.00839318
0.00955017
0.0107641
0.0120339
0.0133582
0.0147355
0.0161646
0.0176435
0.0191708
0.0207452
0.0223644
0.0240268
0.0257301
0.0274724
0.0292516
0.0310657
0.032912
0.0347881
0.0366922
0.0386212
0.0405727
0.0425445
0.0445338
0.0465384
0.0485553
0.0505824
0.052617
0.0546567
0.0566987
0.0587403
0.0607791
0.0628121
0.000253735
0.000385371
0.000813565
0.00133878
0.00194984
0.0026356
0.00339107
0.00421316
0.00509951
0.00604815
0.00705754
0.00812653
0.00925369
0.0104378
0.0116782
0.0129732
0.0143221
0.0157232
0.0171751
0.0186767
0.0202262
0.0218223
0.0234628
0.0251462
0.0268702
0.0286332
0.0304325
0.0322661
0.034132
0.0360273
0.0379496
0.0398969
0.0418661
0.0438549
0.0458606
0.0478806
0.0499122
0.0519531
0.0540003
0.0560511
0.0581024
0.0601508
0.0621916
0.000253311
0.000372396
0.000784355
0.00129086
0.00188164
0.00254566
0.003278
0.00407575
0.00493662
0.00585906
0.00684163
0.00788333
0.00898279
0.0101393
0.0113517
0.0126194
0.013941
0.0153153
0.0167416
0.0182182
0.0197439
0.021317
0.0229362
0.0245995
0.0263052
0.0280513
0.0298354
0.0316558
0.03351
0.0353956
0.0373105
0.0392519
0.0412175
0.0432041
0.0452097
0.0472312
0.0492662
0.0513118
0.0533652
0.0554235
0.0574838
0.059543
0.0615998
0.000252842
0.000360877
0.000758195
0.00124779
0.0018197
0.00246387
0.00317501
0.00395029
0.00478781
0.00568599
0.00664376
0.00766005
0.00873389
0.00986431
0.0110508
0.0122925
0.0135882
0.0149375
0.0163389
0.0177915
0.019294
0.020845
0.022443
0.0240864
0.0257736
0.0275026
0.0292712
0.0310778
0.0329199
0.0347951
0.0367012
0.038636
0.0405964
0.0425799
0.0445839
0.0466058
0.0486428
0.050692
0.0527505
0.0548156
0.0568847
0.0589555
0.0610297
0.000252475
0.000350598
0.000734527
0.00120865
0.00176324
0.00238901
0.00308062
0.0038354
0.00465124
0.00552704
0.00646166
0.00745437
0.00850405
0.00961011
0.0107722
0.0119893
0.0132607
0.0145859
0.0159637
0.0173931
0.0188732
0.0204026
0.0219798
0.0236036
0.0252724
0.0269842
0.0287371
0.0305297
0.032359
0.0342232
0.03612
0.0380471
0.0400014
0.0419807
0.0439822
0.0460032
0.048041
0.0500925
0.0521551
0.0542261
0.0563025
0.0583826
0.0604671
0.00025222
0.000341668
0.00071301
0.00117297
0.00171143
0.00232025
0.00299386
0.00372949
0.00452539
0.00538041
0.00629348
0.00726393
0.00829114
0.00937435
0.0105133
0.0117071
0.0129555
0.0142578
0.015613
0.0170202
0.0184785
0.0199867
0.0215438
0.0231484
0.0247989
0.0264935
0.0282309
0.0300087
0.0318251
0.0336778
0.0355646
0.0374831
0.0394308
0.0414049
0.0434029
0.0454221
0.0474596
0.0495125
0.051578
0.0536534
0.0557356
0.0578222
0.0599115
0.000252221
0.000335191
0.000693337
0.00114002
0.00166361
0.00225685
0.00291376
0.00363171
0.00440901
0.00524453
0.00613732
0.00708706
0.0080931
0.00915478
0.0102718
0.0114437
0.0126702
0.0139505
0.015284
0.0166698
0.018107
0.019595
0.0211325
0.0227181
0.0243506
0.0260284
0.0277498
0.029513
0.0313162
0.0331569
0.0350333
0.0369429
0.038883
0.0408512
0.0428449
0.0448614
0.0468978
0.048951
0.0510184
0.0530968
0.0551834
0.0572746
0.0593683
0.000252714
0.000332805
0.000675336
0.00110965
0.00161934
0.00219798
0.00283932
0.00354071
0.00430058
0.00511781
0.00599185
0.00692216
0.00790811
0.00894944
0.0100459
0.0111971
0.0124025
0.013662
0.0149746
0.0163398
0.017757
0.0192253
0.0207436
0.0223107
0.0239255
0.0255866
0.0272923
0.0290409
0.0308304
0.0326589
0.0345245
0.0364245
0.0383567
0.0403185
0.0423072
0.0443201
0.0463542
0.0484069
0.0504751
0.0525557
0.0546455
0.0567409
0.0588387
0.000253859
0.000333511
0.000658872
0.00108153
0.00157826
0.00214321
0.00277001
0.00345594
0.00419942
0.00499966
0.00585604
0.00676793
0.00773499
0.0087571
0.009834
0.0109654
0.0121508
0.0133903
0.014683
0.0160286
0.0174264
0.0188754
0.0203751
0.0219242
0.0235217
0.0251664
0.0268564
0.0285904
0.0303663
0.0321825
0.0340369
0.0359269
0.0378506
0.0398053
0.0417883
0.0437969
0.0458283
0.0478795
0.0499478
0.0520298
0.0541224
0.0562227
0.0583292
0.000255336
0.000335402
0.000643751
0.00105546
0.00154033
0.00209222
0.0027053
0.00337673
0.00410487
0.004889
0.00572862
0.00662319
0.00757248
0.00857645
0.0096347
0.0107472
0.0119138
0.0131341
0.0144076
0.0157342
0.0171131
0.0185439
0.0200254
0.0215569
0.0231375
0.0247658
0.0264405
0.0281598
0.0299222
0.0317259
0.0335689
0.0354488
0.0373636
0.0393106
0.0412873
0.0432911
0.045319
0.0473683
0.0494359
0.0515186
0.0536136
0.0557179
0.0578312
0.000256853
0.000337406
0.000629885
0.00103133
0.00150498
0.00204448
0.00264475
0.00330242
0.00401606
0.00478507
0.00560895
0.0064871
0.00741955
0.00840609
0.0094467
0.0105413
0.0116898
0.0128917
0.0141469
0.0154553
0.016816
0.0182288
0.0196929
0.0212074
0.0227712
0.0243836
0.0260429
0.0277478
0.0294967
0.0312879
0.0331193
0.034989
0.0368944
0.0388334
0.0408035
0.0428019
0.0448258
0.0468724
0.0489386
0.0510213
0.0531175
0.0552241
0.0573383
0.000258272
0.000339079
0.000617
0.00100879
0.00147183
0.00199967
0.00258774
0.00323251
0.00393259
0.00468726
0.00549603
0.00635874
0.00727509
0.00824523
0.00926906
0.0103466
0.0114775
0.012662
0.0138998
0.0151905
0.0165337
0.0179292
0.0193762
0.020874
0.0224218
0.0240184
0.0256627
0.0273534
0.0290887
0.0308671
0.032687
0.0345461
0.0364419
0.0383728
0.0403358
0.0423284
0.0443477
0.046391
0.0484553
0.0505373
0.0526342
0.0547426
0.0568599
0.000259552
0.000340404
0.000605093
0.000987758
0.00144071
0.00195744
0.00253396
0.00316661
0.00385385
0.00459484
0.00538942
0.00623737
0.00713856
0.008093
0.00910082
0.010162
0.0112763
0.012444
0.0136648
0.0149385
0.0162649
0.0176437
0.0190742
0.0205558
0.0220878
0.023669
0.0252985
0.026975
0.0286969
0.0304627
0.032271
0.0341193
0.0360056
0.0379278
0.0398833
0.0418698
0.0438839
0.0459237
0.0479855
0.0500665
0.0521637
0.0542736
0.0563948
0.000260693
0.000341442
0.000593982
0.000967916
0.00141137
0.00191761
0.00248322
0.00310432
0.00377931
0.00450741
0.00528859
0.0061226
0.00700921
0.00794869
0.00894124
0.00998666
0.011085
0.0122365
0.0134411
0.0146985
0.0160088
0.0173713
0.0187856
0.0202514
0.0217679
0.0233341
0.0249491
0.0266116
0.0283203
0.0300737
0.0318701
0.0337077
0.0355841
0.0374975
0.0394454
0.0414252
0.0434342
0.0454697
0.0475288
0.0496082
0.0517051
0.0538165
0.0559404
0.000261649
0.000342033
0.00058346
0.000949155
0.00138364
0.00188001
0.00243526
0.0030454
0.00370871
0.00442458
0.00519289
0.00601351
0.00688629
0.00781147
0.00878934
0.00981971
0.0109028
0.0120389
0.0132278
0.0144696
0.0157641
0.0171108
0.0185097
0.0199602
0.0214615
0.023013
0.0246137
0.0262625
0.0279581
0.0296989
0.0314837
0.0333103
0.035177
0.0370813
0.0390214
0.0409943
0.0429975
0.0450286
0.0470844
0.0491619
0.0512581
0.05337
0.0554958
0.000262511
0.00034263
0.000573749
0.000931566
0.00135749
0.00184458
0.0023898
0.00298941
0.00364172
0.00434601
0.0051021
0.00590994
0.00676949
0.00768103
0.00864476
0.00966076
0.0107293
0.0118504
0.0130242
0.0142508
0.01553
0.0168616
0.0182455
0.0196809
0.0211675
0.0227046
0.0242913
0.0259266
0.0276091
0.0293377
0.0311108
0.0329265
0.0347832
0.0366786
0.0386104
0.0405762
0.0425735
0.0445998
0.0466518
0.0487267
0.0508215
0.0529333
0.0550588
0.000263336
0.000342922
0.000564823
0.000914998
0.00133281
0.00181101
0.00234661
0.00293621
0.00357797
0.00427118
0.00501557
0.00581124
0.00665812
0.00755651
0.00850676
0.00950906
0.0105635
0.0116702
0.0128296
0.0140414
0.0153058
0.0166227
0.0179919
0.0194128
0.020885
0.022408
0.023981
0.0256029
0.0272727
0.0289891
0.0307505
0.0325556
0.034402
0.0362882
0.0382117
0.0401703
0.0421615
0.0441825
0.0462303
0.0483022
0.0503951
0.0525053
0.0546287
0.000264018
0.000343215
0.000557326
0.000899407
0.00130949
0.0017792
0.00230551
0.00288553
0.00351721
0.0041998
0.00493303
0.00571706
0.00655177
0.00743764
0.00837498
0.009364
0.0104048
0.0114977
0.0126431
0.0138408
0.015091
0.0163936
0.0177484
0.0191551
0.0206134
0.0221227
0.0236823
0.0252911
0.0269483
0.0286524
0.0304024
0.0321965
0.034033
0.0359099
0.0378251
0.0397762
0.0417609
0.0437762
0.0458198
0.0478881
0.0499786
0.0520879
0.0542138
0.000264791
0.000343938
0.00055243
0.000884851
0.00128735
0.00174886
0.00226637
0.00283728
0.00345931
0.00413168
0.00485427
0.0056271
0.00645025
0.00732403
0.00824887
0.00922509
0.0102529