/*--------------------------------*- C++ -*----------------------------------*\
| =========                 |                                                 |
| \\      /  F ield         | OpenFOAM: The Open Source CFD Toolbox           |
|  \\    /   O peration     | Version:  2.3.0                                 |
|   \\  /    A nd           | Web:      www.OpenFOAM.org                      |
|    \\/     M anipulation  |                                                 |
\*---------------------------------------------------------------------------*/
FoamFile
{
    version     2.0;
    format      ascii;
    class       surfaceScalarField;
    location    "3000";
    object      phi;
}
// * * * * * * * * * * * * * * * * * * * * * * * * * * * * * * * * * * * * * //

dimensions      [0 3 -1 0 0 0 0];

internalField   nonuniform List<scalar> 
76310
(
0.00175518
-0.00432307
0.00468976
-0.00212187
0.00142246
-0.00413317
0.00446589
0.00112343
-0.00395215
0.00425118
0.000856421
-0.0037787
0.0040457
0.000620168
-0.0036125
0.00384875
0.000413444
-0.00345328
0.00366001
0.000234432
-0.00330049
0.0034795
8.20742e-05
-0.00315412
0.00330647
-4.51709e-05
-0.00301358
0.00314082
-0.000148289
-0.00287919
0.00298231
-0.000228896
-0.00274974
0.00283035
-0.00028785
-0.00262591
0.00268486
-0.000326336
-0.00250697
0.00254545
-0.000345528
-0.00239284
0.00241203
-0.00034634
-0.00228323
0.00228405
-0.000329913
-0.00217796
0.00216153
-0.000296833
-0.00207697
0.00204389
-0.000248181
-0.00197968
0.00193103
-0.000184556
-0.00188629
0.00182266
-0.000107174
-0.00179613
0.00171874
-1.63013e-05
-0.00170972
0.00161885
8.73595e-05
-0.00162615
0.00152249
0.000202998
-0.00154572
0.00143008
0.000330855
-0.00146831
0.00134046
0.000469597
-0.00139311
0.00125437
0.000618914
-0.00132031
0.00117099
0.000779316
-0.00125058
0.00109018
0.000949837
-0.00118215
0.00101163
0.00113007
-0.00111603
0.000935799
0.00132104
-0.00105196
0.000860992
0.00152252
-0.000989822
0.000788343
0.00173425
-0.000928784
0.000717054
0.00195777
-0.000870092
0.000646566
0.00219255
-0.000812308
0.000577528
0.00244106
-0.000756767
0.00050826
0.002706
-0.000703565
0.000438625
0.0029879
-0.000651475
0.000369577
0.00329161
-0.000602134
0.000298425
0.00362366
-0.000556147
0.000224089
0.00399352
-0.000514993
0.000145137
0.0044159
-0.000479675
5.72932e-05
0.00492817
-0.000455385
-5.68831e-05
-0.000451991
0.00565706
-0.0002769
0.00164346
-0.00398677
-0.00197976
0.00134029
-0.00383
0.00106776
-0.00367961
0.000824425
-0.00353536
0.000608783
-0.00339686
0.000419364
-0.00326386
0.000254952
-0.00313608
0.000114273
-0.00301344
-3.63046e-06
-0.00289567
-0.000100048
-0.00278277
-0.00017567
-0.00267412
-0.000231957
-0.00256962
-0.000269879
-0.00246905
-0.000290134
-0.00237258
-0.000293486
-0.00227988
-0.000280994
-0.00219045
-0.000253705
-0.00210426
-0.000211774
-0.00202161
-0.00015638
-0.00194168
-8.80141e-05
-0.00186449
-7.30849e-06
-0.00179043
8.50968e-05
-0.00171856
0.000188695
-0.00164932
0.000302946
-0.00158256
0.000427413
-0.00151758
0.000562278
-0.00145517
0.000706408
-0.00139471
0.000860403
-0.00133615
0.00102374
-0.00127937
0.00119688
-0.00122509
0.00137926
-0.0011722
0.00157221
-0.00112174
0.00177569
-0.00107356
0.00199031
-0.00102693
0.0022172
-0.000983655
0.00245724
-0.000943603
0.00271192
-0.000906159
0.00298455
-0.000874761
0.00327573
-0.000847326
0.0035875
-0.00082677
0.00392183
-0.000813998
0.00428025
-0.000813806
-0.000825081
0.00465334
0.00153028
-0.00368286
-0.00183418
0.00125523
-0.00355494
0.00100745
-0.00343183
0.000785659
-0.00331357
0.000588517
-0.00319971
0.000415169
-0.00309052
0.000264266
-0.00298517
0.000134912
-0.00288408
2.60039e-05
-0.00278676
-6.33402e-05
-0.00269343
-0.000134345
-0.00260312
-0.00018743
-0.00251653
-0.000223558
-0.00243292
-0.000243664
-0.00235248
-0.000248552
-0.00227499
-0.000238992
-0.00220001
-0.000215273
-0.00212798
-0.000178474
-0.00205841
-0.000129035
-0.00199112
-6.72762e-05
-0.00192625
5.70998e-06
-0.00186341
8.99641e-05
-0.00180281
0.000184653
-0.00174401
0.000289334
-0.00168725
0.000403917
-0.00163216
0.000528025
-0.00157928
0.000661508
-0.0015282
0.000803353
-0.00147799
0.000954542
-0.00143056
0.00111387
-0.00138442
0.00128223
-0.00134056
0.00145916
-0.00129867
0.00164411
-0.00125852
0.00183859
-0.00122141
0.0020413
-0.00118637
0.00225344
-0.00115574
0.00247527
-0.00112799
0.00270577
-0.00110526
0.00294495
-0.00108651
0.0031927
-0.00107452
0.00344837
-0.00106967
0.00370679
-0.00107223
-0.00108155
0.00396326
0.00142029
-0.00340683
-0.00169632
0.0011698
-0.00330445
0.000943781
-0.00320581
0.000741064
-0.00311086
0.000560445
-0.00301909
0.000401221
-0.00293129
0.000262237
-0.00284619
0.0001426
-0.00276445
4.15751e-05
-0.00268574
-4.22808e-05
-0.00260957
-0.000109063
-0.00253634
-0.000159903
-0.00246569
-0.000195333
-0.00239749
-0.000216389
-0.00233142
-0.000223734
-0.00226765
-0.000217403
-0.00220635
-0.000198888
-0.0021465
-0.000168132
-0.00208917
-0.000125932
-0.00203332
-7.2818e-05
-0.00197936
-9.0243e-06
-0.00192721
6.49579e-05
-0.00187679
0.000148439
-0.00182749
0.000241278
-0.00178008
0.000343083
-0.00173396
0.000453219
-0.00168942
0.000571524
-0.0016465
0.00069835
-0.00160482
0.000833014
-0.00156523
0.000975172
-0.00152658
0.00112475
-0.00149014
0.0012817
-0.00145562
0.00144623
-0.00142304
0.00161808
-0.00139326
0.00179726
-0.00136555
0.00198326
-0.00134174
0.00217724
-0.00132197
0.00237693
-0.00130495
0.00258395
-0.00129353
0.00279639
-0.00128696
0.00301329
-0.00128657
0.0032338
-0.00129274
-0.00130322
0.00345547
0.00131416
-0.00315574
-0.00156526
0.00108591
-0.00307619
0.000879385
-0.00299929
0.000693875
-0.00292535
0.000528752
-0.00285397
0.000382151
-0.00278469
0.000254364
-0.0027184
0.000143675
-0.00265376
4.95644e-05
-0.00259163
-2.84682e-05
-0.00253154
-9.12082e-05
-0.0024736
-0.000139621
-0.00241728
-0.000174374
-0.00236274
-0.000195598
-0.0023102
-0.000204263
-0.00225898
-0.000200933
-0.00220968
-0.000186148
-0.00216128
-0.000160259
-0.00211506
-0.000123963
-0.00206962
-7.75227e-05
-0.0020258
-2.16322e-05
-0.0019831
4.35752e-05
-0.001942
0.000117657
-0.00190157
0.000200248
-0.00186267
0.000290998
-0.00182471
0.000389532
-0.00178795
0.000495553
-0.00175252
0.00060911
-0.00171837
0.000729151
-0.00168527
0.000856345
-0.00165378
0.000990163
-0.00162395
0.00113055
-0.00159601
0.00127772
-0.00157021
0.00143076
-0.0015463
0.00159005
-0.00152484
0.00175544
-0.00150712
0.00192539
-0.00149192
0.00210156
-0.00148112
0.00228269
-0.00147466
0.00246843
-0.00147269
0.00265795
-0.00147609
0.00284946
-0.00148425
-0.0014974
0.00304364
0.00121325
-0.0029263
-0.00144268
0.00100471
-0.00286765
0.000816161
-0.00281074
0.000646437
-0.00275562
0.000494565
-0.0027021
0.000360448
-0.00265057
0.000242218
-0.00260017
0.000139951
-0.00255149
5.28907e-05
-0.00250457
-1.98949e-05
-0.00245875
-7.90089e-05
-0.00241448
-0.00012506
-0.00237123
-0.000158157
-0.00232964
-0.000179732
-0.00228862
-0.000189577
-0.00224914
-0.000188545
-0.00221071
-0.000176711
-0.00217312
-0.000155449
-0.00213632
-0.000124109
-0.00210096
-8.40607e-05
-0.00206585
-3.46717e-05
-0.00203249
2.26167e-05
-0.00199929
8.82979e-05
-0.00196725
0.000161386
-0.00193576
0.000242474
-0.0019058
0.000330316
-0.00187579
0.00042523
-0.00184744
0.000526602
-0.00181974
0.00063425
-0.00179291
0.000748141
-0.00176767
0.000868175
-0.00174399
0.000994408
-0.00172225
0.0011255
-0.0017013
0.00126256
-0.00168336
0.00140465
-0.00166694
0.0015518
-0.00165428
0.00170458
-0.0016447
0.0018614
-0.00163794
0.00202268
-0.00163594
0.00218781
-0.00163783
0.00235652
-0.00164481
0.00252783
-0.00165555
-0.0016708
0.00270123
0.00111715
-0.00271797
-0.00132549
0.000927105
-0.0026776
0.000754827
-0.00263847
0.000599388
-0.00260018
0.000460523
-0.00256324
0.00033676
-0.00252681
0.000228259
-0.00249167
0.000133902
-0.00245713
5.29689e-05
-0.00242363
-1.48195e-05
-0.00239097
-7.0052e-05
-0.00235925
-0.00011328
-0.002328
-0.000145265
-0.00229765
-0.000166109
-0.00226778
-0.000176698
-0.00223855
-0.00017741
-0.00220999
-0.000168512
-0.00218201
-0.000150213
-0.00215462
-0.000123626
-0.00212754
-8.82363e-05
-0.00210124
-4.54194e-05
-0.0020753
5.5927e-06
-0.0020503
6.37149e-05
-0.00202538
0.000129453
-0.0020015
0.000201271
-0.00197762
0.000280127
-0.00195465
0.000365135
-0.00193245
0.000455884
-0.00191049
0.000552845
-0.00188987
0.00065524
-0.00187006
0.000763177
-0.00185192
0.000875479
-0.00183455
0.000993902
-0.00181972
0.00111724
-0.0018067
0.00124502
-0.00179473
0.00137708
-0.00178634
0.00151372
-0.00178133
0.00165443
-0.00177865
0.00179839
-0.0017799
0.00194676
-0.0017862
0.00209796
-0.001796
0.00225196
-0.00180956
-0.00182761
0.00240877
0.0010271
-0.00252797
-0.00121709
0.000853565
-0.00250407
0.00069601
-0.00248091
0.000553847
-0.00245802
0.000426413
-0.0024358
0.00031305
-0.00241345
0.000213204
-0.00239183
0.00012618
-0.00237011
5.14529e-05
-0.00234891
-1.13721e-05
-0.00232814
-6.30042e-05
-0.00230762
-0.000103582
-0.00228742
-0.000134125
-0.00226711
-0.000154616
-0.00224729
-0.000165425
-0.00222774
-0.000167243
-0.00220818
-0.000160311
-0.00218895
-0.000145044
-0.00216989
-0.000121786
-0.0021508
-9.10113e-05
-0.00213202
-5.28174e-05
-0.0021135
-8.0401e-06
-0.00209508
4.40676e-05
-0.00207748
0.000102257
-0.00205969
0.000167116
-0.00204248
0.000237834
-0.00202537
0.000313985
-0.0020086
0.000395834
-0.00199234
0.000483
-0.00197704
0.000574899
-0.00196196
0.000671797
-0.00194882
0.000773723
-0.00193647
0.000879485
-0.00192548
0.0009903
-0.00191751
0.00110626
-0.00191069
0.00122535
-0.00190542
0.00134768
-0.00190367
0.00147475
-0.00190572
0.00160505
-0.00191019
0.00173853
-0.00191968
0.00187532
-0.00193279
0.00201439
-0.00194864
-0.00196899
0.00215578
0.0009431
-0.00111629
-0.00235479
0.000784753
-0.00234572
0.000640876
-0.00233703
0.000510668
-0.00232781
0.000393733
-0.00231887
0.000289817
-0.00230953
0.000197938
-0.00229995
0.000117887
-0.00229006
4.90108e-05
-0.00228003
-9.50217e-06
-0.00226963
-5.7343e-05
-0.00225978
-9.569e-05
-0.00224908
-0.000124268
-0.00223853
-0.000143692
-0.00222786
-0.000155163
-0.00221627
-0.000157773
-0.00220557
-0.000152654
-0.00219406
-0.000139681
-0.00218286
-0.000119205
-0.00217128
-9.20715e-05
-0.00215915
-5.82123e-05
-0.00214736
-1.80766e-05
-0.00213521
2.79738e-05
-0.00212353
8.0471e-05
-0.00211219
0.00013815
-0.00210016
0.00020175
-0.00208897
0.000270599
-0.00207745
0.000344009
-0.00206575
0.000422577
-0.00205561
0.000505621
-0.00204501
0.000593284
-0.00203648
0.000684994
-0.00202818
0.000780697
-0.00202118
0.000881291
-0.0020181
0.000984634
-0.00201404
0.0010928
-0.00201358
0.00120421
-0.00201507
0.00131801
-0.00201952
0.00143456
-0.00202674
0.00155574
-0.00204086
0.00167882
-0.00205587
0.00180523
-0.00207505
0.00193276
-0.00209652
0.00587458
-0.000519958
0.000302437
0.00615703
-0.000634058
0.000351608
0.00643227
-0.000744468
0.00046923
0.00668973
-0.000848247
0.000590791
0.00693353
-0.000951754
0.000707951
0.00715961
-0.00104668
0.000820599
0.00737064
-0.00113926
0.00092823
0.00756443
-0.00122776
0.00103397
0.00774248
-0.00131441
0.00113635
0.00790525
-0.00139943
0.00123666
0.00805353
-0.00148189
0.00133361
0.00818916
-0.00156631
0.00143068
0.00831112
-0.00164843
0.00152647
0.00842175
-0.00173212
0.00162149
0.00852109
-0.00181763
0.00171828
0.00861003
-0.00190304
0.0018141
0.00868765
-0.00199049
0.00191287
0.00875441
-0.00208035
0.00201359
0.00881071
-0.00217235
0.00211606
0.00885529
-0.00226671
0.00222212
0.00888701
-0.00236437
0.00233265
0.00890696
-0.0024652
0.00244525
0.00891125
-0.00256805
0.00256376
0.0089017
-0.00267621
0.00268575
0.00887626
-0.00278714
0.00281259
0.0088333
-0.00290212
0.00294509
0.00877114
-0.00302061
0.00308277
0.00868963
-0.00314461
0.00322613
0.00858751
-0.00327265
0.00337476
0.0084635
-0.00340563
0.00352964
0.00831718
-0.00354446
0.00369078
0.00814502
-0.00368689
0.00385905
0.00794772
-0.00383593
0.00403323
0.00772278
-0.00399034
0.00421528
0.00747001
-0.00415158
0.00440434
0.00718725
-0.00431821
0.00460098
0.00687291
-0.00449146
0.0048058
0.00652628
-0.00467239
0.00501902
0.00614539
-0.0048595
0.00524039
0.00572937
-0.00505503
0.00547105
0.00527565
-0.00525743
0.00571115
0.00478322
-0.00546872
0.00596114
-0.00568853
0.00622059
0.00425117
0.0049992
-0.000865827
0.00529744
-0.000932291
0.00555793
-0.00100496
0.00579019
-0.00108051
0.00599646
-0.00115803
0.00618546
-0.00123567
0.00636087
-0.00131467
0.00652578
-0.00139267
0.00668034
-0.00146896
0.00682631
-0.00154541
0.00696594
-0.00162152
0.0070974
-0.00169778
0.00722331
-0.00177433
0.00733974
-0.00184854
0.00744864
-0.00192653
0.00754843
-0.00200283
0.00763944
-0.0020815
0.00772011
-0.00216101
0.00778954
-0.00224178
0.00784795
-0.00232512
0.00789344
-0.00240985
0.00792507
-0.00249683
0.00794398
-0.00258696
0.00794608
-0.00267831
0.00793306
-0.00277413
0.00790361
-0.00287267
0.00785637
-0.00297337
0.00779068
-0.00307893
0.00770506
-0.00318702
0.00759946
-0.00330003
0.00747115
-0.00341615
0.00732151
-0.00353725
0.00714778
-0.0036622
0.00694967
-0.00379222
0.00672528
-0.00392719
0.00647423
-0.00406716
0.00619464
-0.00421187
0.00588492
-0.00436267
0.00554491
-0.00451949
0.00517205
-0.00468217
0.00476575
-0.00485112
0.0043242
-0.00502717
-0.00520996
0.00384563
0.00421237
-0.00111494
0.00444873
-0.00116865
0.00467296
-0.00122919
0.00488558
-0.00129313
0.00508792
-0.00136038
0.00527971
-0.00142746
0.00546216
-0.00149712
0.00563382
-0.00156434
0.00579827
-0.00163341
0.00595426
-0.0017014
0.00610106
-0.00176831
0.00623921
-0.00183593
0.00636721
-0.00190233
0.00648892
-0.00197026
0.00659906
-0.00203668
0.00670128
-0.00210505
0.00679266
-0.00217288
0.00687433
-0.00224268
0.00694578
-0.00231323
0.00700475
-0.00238409
0.00705202
-0.00245712
0.00708721
-0.00253202
0.00710863
-0.00260838
0.0071171
-0.00268678
0.00711042
-0.00276744
0.0070874
-0.00284965
0.00704961
-0.00293558
0.00699466
-0.00302399
0.00692176
-0.00311413
0.00682984
-0.00320811
0.00671905
-0.00330536
0.00658734
-0.00340553
0.00643458
-0.00350945
0.00625859
-0.00361623
0.00605942
-0.00372802
0.00583548
-0.00384322
0.00558585
-0.00396224
0.00530946
-0.00408628
0.00500505
-0.00421508
0.00467113
-0.00434826
0.00430693
-0.00448692
0.00391041
-0.00463065
-0.00478065
0.0034811
0.003673
-0.00133246
0.00388478
-0.00138043
0.00408753
-0.00143194
0.00428133
-0.00148693
0.00446658
-0.00154563
0.00464399
-0.00160486
0.00481227
-0.00166539
0.00497388
-0.00172595
0.00512732
-0.00178685
0.00527258
-0.00184666
0.00541078
-0.00190651
0.00554066
-0.00196581
0.00566368
-0.00202534
0.00577742
-0.002084
0.00588435
-0.00214361
0.00598129
-0.00220199
0.00606992
-0.00226151
0.00614843
-0.00232119
0.00621648
-0.00238128
0.00627506
-0.00244268
0.00632233
-0.00250439
0.00635841
-0.0025681
0.00638122
-0.00263119
0.00639238
-0.00269794
0.0063896
-0.00276466
0.00637316
-0.00283321
0.00634183
-0.00290425
0.00629443
-0.00297658
0.00623198
-0.00305167
0.00615184
-0.00312797
0.00605341
-0.00320693
0.00593644
-0.00328857
0.00580035
-0.00337335
0.00564411
-0.00345999
0.00546595
-0.00354987
0.00526501
-0.00364228
0.00504166
-0.00373888
0.00479349
-0.00383812
0.00452021
-0.00394181
0.00422079
-0.00404883
0.00389352
-0.00415966
0.0035374
-0.00427453
-0.00439351
0.00315025
0.00323626
-0.00152508
0.00342316
-0.00156733
0.00360511
-0.00161388
0.00378087
-0.00166269
0.00395012
-0.00171488
0.00411294
-0.00176769
0.00426869
-0.00182114
0.00441877
-0.00187602
0.0045608
-0.00192888
0.00469653
-0.0019824
0.00482573
-0.00203571
0.00494773
-0.00208781
0.00506204
-0.00213965
0.00516946
-0.00219142
0.00526841
-0.00224257
0.00536035
-0.00229393
0.00544335
-0.00234451
0.00551747
-0.00239531
0.0055828
-0.00244661
0.00563826
-0.00249814
0.00568359
-0.00254972
0.00571824
-0.00260275
0.00574239
-0.00265534
0.00575413
-0.00270968
0.00575385
-0.00276437
0.00574136
-0.00282073
0.0057143
-0.00287719
0.0056741
-0.00293638
0.0056182
-0.00299578
0.00554738
-0.00305715
0.00546048
-0.00312003
0.00535633
-0.00318442
0.00523437
-0.00325139
0.00509417
-0.00331979
0.00493421
-0.00338991
0.00475448
-0.00346256
0.00455387
-0.00353827
0.00433122
-0.00361547
0.00408517
-0.00369576
0.00381516
-0.00377881
0.00352044
-0.00386494
0.00319983
-0.00395392
-0.00404583
0.00285215
0.00287393
-0.00169778
0.00304258
-0.00173598
0.00320661
-0.00177792
0.00336602
-0.0018221
0.00352023
-0.00186909
0.0036689
-0.00191636
0.00381258
-0.00196482
0.0039486
-0.00201205
0.00408012
-0.0020604
0.00420532
-0.0021076
0.00432346
-0.00215385
0.00443577
-0.00220012
0.00454223
-0.00224611
0.00464201
-0.00229119
0.004734
-0.00233456
0.00481879
-0.00237872
0.00489549
-0.00242121
0.00496516
-0.00246498
0.00502558
-0.00250703
0.00507758
-0.00255013
0.00512051
-0.00259265
0.00515318
-0.00263543
0.00517634
-0.00267849
0.00518858
-0.00272193
0.00518964
-0.00276543
0.00517898
-0.00281007
0.00515687
-0.00285508
0.0051208
-0.00290031
0.00507168
-0.00294666
0.00500879
-0.00299425
0.00493046
-0.0030417
0.00483792
-0.00309188
0.00472847
-0.00314193
0.00460211
-0.00319342
0.00445864
-0.00324644
0.00429681
-0.00330073
0.00411589
-0.00335734
0.00391498
-0.00341456
0.0036937
-0.00347448
0.0034509
-0.00353601
0.00318506
-0.00359911
0.00289548
-0.00366433
-0.00373207
0.00258172
0.00256422
-0.00185322
0.00271658
-0.00188834
0.00286543
-0.00192676
0.00301003
-0.00196671
0.00315036
-0.00200942
0.00328614
-0.00205213
0.0034161
-0.00209479
0.00354134
-0.00213729
0.00366128
-0.00218034
0.00377571
-0.00222202
0.00388456
-0.0022627
0.00398868
-0.00230424
0.00408578
-0.00234321
0.00417679
-0.0023822
0.00426214
-0.00241991
0.00433993
-0.00245651
0.00441183
-0.00249311
0.00447523
-0.00252838
0.00453216
-0.00256396
0.0045799
-0.00259787
0.00462008
-0.00263283
0.00465097
-0.00266632
0.00467329
-0.00270081
0.00468458
-0.00273322
0.00468717
-0.00276802
0.00467838
-0.00280129
0.00465824
-0.00283494
0.00462698
-0.00286904
0.00458317
-0.00290285
0.00452641
-0.00293749
0.00445665
-0.00297194
0.0043724
-0.00300763
0.0042738
-0.00304333
0.00416066
-0.00308028
0.00403127
-0.00311704
0.00388544
-0.0031549
0.00372199
-0.00319389
0.0035418
-0.00323436
0.00334174
-0.00327443
0.00312202
-0.00331629
0.00288245
-0.00335953
0.00262134
-0.00340322
-0.00344871
0.00233798
0.00229673
-0.00199418
0.00243487
-0.00202648
0.00256991
-0.00206181
0.00270196
-0.00209876
0.00282825
-0.0021357
0.00295223
-0.00217612
0.00307069
-0.00221324
0.00318469
-0.00225129
0.00329395
-0.0022896
0.00339847
-0.00232655
0.00349849
-0.00236272
0.00359324
-0.00239898
0.00368314
-0.00243311
0.00376629
-0.00246535
0.00384432
-0.00249794
0.00391621
-0.0025284
0.00398147
-0.00255837
0.00404028
-0.00258719
0.00409173
-0.00261541
0.00413682
-0.00264296
0.00417381
-0.00266982
0.00420257
-0.00269508
0.00422264
-0.00272088
0.00423486
-0.00274544
0.00423709
-0.00277024
0.00422927
-0.00279347
0.00421208
-0.00281775
0.00418382
-0.00284078
0.00414481
-0.00286385
0.00409359
-0.00288627
0.00403104
-0.00290939
0.00395555
-0.00293215
0.00386699
-0.00295477
0.00376403
-0.00297732
0.00364731
-0.00300032
0.0035158
-0.00302339
0.00336893
-0.00304703
0.00320489
-0.00307032
0.00302469
-0.00309422
0.00282653
-0.00311813
0.00260978
-0.00314278
0.002374
-0.00316744
-0.00319293
0.00211822
0.00206182
-0.00212324
0.00218819
-0.00215285
0.00231048
-0.0021841
0.00243084
-0.00221912
0.00254603
-0.00225089
0.00265872
-0.00228882
0.00276671
-0.00232123
0.00287059
-0.00235517
0.00297036
-0.00238937
0.00306566
-0.00242185
0.00315886
-0.00245592
0.00324548
-0.00248559
0.00332632
-0.00251395
0.00340346
-0.0025425
0.00347417
-0.00256865
0.00354046
-0.00259468
0.00360049
-0.00261841
0.00365351
-0.00264021
0.00370159
-0.00266348
0.00374322
-0.0026846
0.00377673
-0.00270333
0.00380317
-0.00272152
0.00382141
-0.00273912
0.00383271
-0.00275674
0.00383531
-0.00277284
0.00382937
-0.00278753
0.00381383
-0.00280222
0.00378792
-0.00281487
0.00375194
-0.00282786
0.00370632
-0.00284065
0.00364929
-0.00285236
0.00358121
-0.00286407
0.00350028
-0.00287384
0.00340763
-0.00288467
0.00330222
-0.00289491
0.00318294
-0.00290411
0.00304975
-0.00291384
0.00290222
-0.00292279
0.00273837
-0.00293038
0.00255935
-0.00293911
0.0023632
-0.00294664
0.00215057
-0.00295481
0.00191906
-0.00296142
-5.03703e-05
0.00617337
-0.00672328
0.000600279
0.000455835
0.00595648
-0.00646268
0.000922816
0.00574552
-0.0062125
0.00135213
0.00554307
-0.00597239
0.00174641
0.00534834
-0.00574262
0.00210528
0.0051599
-0.00551877
0.00242886
0.00498144
-0.00530502
0.00271877
0.00480903
-0.00509894
0.00297948
0.00464045
-0.00490116
0.00321055
0.00447785
-0.00470892
0.00340781
0.00432521
-0.00452248
0.00357958
0.00417404
-0.00434581
0.00372552
0.00402864
-0.00417458
0.00384144
0.00389077
-0.00400668
0.00393319
0.00375263
-0.00384438
0.00399856
0.00362362
-0.00368899
0.00404156
0.00349574
-0.00353874
0.00405765
0.00337326
-0.00338935
0.0040511
0.00325349
-0.00324694
0.00402384
0.00313473
-0.00310747
0.00397413
0.00302068
-0.00297096
0.00390343
0.00290927
-0.00283857
0.00381411
0.00279907
-0.00270976
0.0037047
0.0026924
-0.00258299
0.00357797
0.00258706
-0.00246033
0.00343463
0.00248343
-0.00234009
0.00327532
0.00238192
-0.0022226
0.00310212
0.00228193
-0.00210872
0.00291608
0.00218349
-0.00199745
0.0027187
0.0020862
-0.00188883
0.0025114
0.00199044
-0.00178313
0.00229583
0.00189565
-0.00168009
0.00207358
0.00180246
-0.00158021
0.00184643
0.00170928
-0.00148213
0.00161612
0.00161705
-0.00138674
0.00138433
0.00152502
-0.00129323
0.00115339
0.00143217
-0.00120123
0.000925307
0.00133808
-0.00110999
0.000702829
0.00124117
-0.00101869
0.000488836
0.00113916
-0.000925167
0.000289421
0.0010252
-0.000825788
0.000118119
0.000881947
-0.000710646
0.000654078
-7.59377e-06
-0.000528365
-5.20683e-05
0.00567572
0.000549726
0.0004084
0.00549601
0.000833484
0.00532044
0.00122161
0.00515494
0.00157855
0.00499141
0.00190036
0.00483808
0.00219482
0.00468698
0.0024583
0.00454555
0.00269466
0.0044041
0.00290163
0.00427087
0.00308355
0.0041433
0.00323813
0.00401945
0.00336933
0.00389745
0.00347684
0.00378325
0.00355908
0.00367039
0.00361957
0.00356312
0.00365797
0.00345733
0.0036767
0.00335453
0.00367525
0.00325494
0.00365172
0.00315825
0.00360986
0.00306254
0.00354986
0.00296928
0.00347216
0.00287677
0.00337615
0.00278842
0.00326418
0.00269902
0.00313639
0.00261122
0.00299438
0.00252393
0.00283905
0.00243726
0.00267124
0.0023513
0.00249206
0.00226538
0.00230311
0.00217939
0.00210538
0.00209338
0.00190122
0.00200662
0.00169121
0.00191929
0.00147728
0.00183099
0.0012617
0.0017406
0.00104575
0.00164812
0.000831939
0.00155189
0.000623125
0.00144998
0.000423075
0.00133921
0.000238779
0.0012095
8.6111e-05
0.00103462
0.000766042
-2.58531e-05
-5.05585e-05
0.00522535
0.000500922
0.000364732
0.00508072
0.000749062
0.00493611
0.00110229
0.00480171
0.00142442
0.00466929
0.00171745
0.00454505
0.00198386
0.00442056
0.00222317
0.00430624
0.00243534
0.00419194
0.00262284
0.00408337
0.00278734
0.0039788
0.0029286
0.00387819
0.0030469
0.00377914
0.00314402
0.00368613
0.00322005
0.00359437
0.0032767
0.00350647
0.00331407
0.00341997
0.00333183
0.00333677
0.00333006
0.00325671
0.00331264
0.00317567
0.00327554
0.00309964
0.00322247
0.00302234
0.00315167
0.00294757
0.00306828
0.00287181
0.00296889
0.00279841
0.00285507
0.00272504
0.00272806
0.00265094
0.00258804
0.00257728
0.00243662
0.00250271
0.00227441
0.0024276
0.00210244
0.00235135
0.00192229
0.00227353
0.00173468
0.00219422
0.00154164
0.00211234
0.00134449
0.00202814
0.00114446
0.00194063
0.000944198
0.00184838
0.000745239
0.00175085
0.000550627
0.00164459
0.000364508
0.00152533
0.00019491
0.0013791
5.81119e-05
0.00117141
0.000870166
-4.60113e-05
-4.9973e-05
0.00481788
0.000457441
0.00032851
0.00470224
0.000676105
0.00458851
0.000995001
0.00448282
0.00128692
0.00437737
0.00155418
0.00427779
0.00179444
0.0041803
0.00201189
0.00408879
0.00220464
0.00399918
0.00237454
0.00391347
0.00252358
0.00382976
0.00265171
0.00375006
0.00275705
0.0036738
0.0028456
0.00359759
0.0029151
0.00352487
0.00296567
0.0034559
0.00299923
0.00338641
0.00301551
0.00332049
0.0030146
0.00325762
0.0029984
0.00319187
0.00296683
0.00313121
0.00292163
0.00306754
0.00285918
0.00301002
0.00278384
0.00294714
0.00269527
0.00288698
0.00259376
0.00282655
0.00247948
0.00276521
0.00235387
0.00270289
0.00221708
0.00263951
0.00207049
0.00257418
0.00191488
0.00250697
0.00175106
0.00243735
0.00158005
0.00236523
0.00140333
0.00228906
0.00122237
0.0022091
0.00103881
0.0021242
0.000853985
0.0020332
0.000670464
0.00193437
0.00049089
0.00182417
0.000319476
0.00169674
0.000164967
0.00153361
4.31306e-05
0.00129325
0.000967671
-5.43745e-05
-4.73428e-05
0.00444681
0.000418421
0.000295145
0.00435975
0.000608703
0.00427495
0.000899392
0.00419213
0.00116564
0.00411113
0.00140699
0.00403643
0.00162375
0.00396354
0.0018198
0.00389274
0.0019931
0.00382588
0.00214969
0.00375688
0.00228367
0.00369579
0.0023992
0.00363452
0.00249779
0.00357522
0.0025777
0.00351767
0.0026389
0.00346366
0.0026872
0.0034076
0.00271668
0.00335693
0.00273147
0.0033057
0.00273313
0.00325596
0.0027176
0.0032074
0.00269111
0.00315769
0.00264768
0.00311098
0.00259478
0.00306292
0.00252666
0.00301526
0.00244766
0.00296598
0.00235567
0.00291855
0.00225332
0.00286756
0.00214003
0.00281618
0.00201682
0.00276271
0.00188424
0.00270676
0.00174311
0.0026481
0.00159419
0.00258627
0.00143889
0.00252053
0.00127785
0.00245009
0.00111243
0.00237452
0.000943988
0.00229264
0.000774517
0.00220268
0.000606126
0.00210276
0.000440832
0.00198946
0.000283643
0.00185393
0.000143487
0.00167376
3.43479e-05
0.00140239
0.00105881
-5.67877e-05
-4.67215e-05
0.00411159
0.000381934
0.000263697
0.00404933
0.000551597
0.00398705
0.00081496
0.00392877
0.00105349
0.00387259
0.00127139
0.00381854
0.00146878
0.00376615
0.00164769
0.00371383
0.00180796
0.00366561
0.0019457
0.00361913
0.00206681
0.00357469
0.00217341
0.00352792
0.00226148
0.00348715
0.00233284
0.00344632
0.00239162
0.00340488
0.00243194
0.00336728
0.00246145
0.00332742
0.00247408
0.00329307
0.00247628
0.00325376
0.00246348
0.0032202
0.00243777
0.0031834
0.00240108
0.00314767
0.00235353
0.00311047
0.00229274
0.00307604
0.00222105
0.00303768
0.00213845
0.00300115
0.00204676
0.00295925
0.00194491
0.00291802
0.00183373
0.0028739
0.00171368
0.0028268
0.00158592
0.00277587
0.00145106
0.00272112
0.00130985
0.00266175
0.00116284
0.00259711
0.00101199
0.00252536
0.000858263
0.00244637
0.000703134
0.00235781
0.000548565
0.00225733
0.000397299
0.00214073
0.000253673
0.00199756
0.000126945
0.00180049
2.84659e-05
0.00150087
0.00114411
-5.68351e-05
-4.47865e-05
0.00380789
0.000348489
0.000238304
0.00376624
0.000496747
0.00372861
0.000734439
0.00369107
0.000951838
0.00365519
0.00115081
0.00361957
0.00133104
0.00358591
0.00149285
0.00355202
0.00163636
0.00352209
0.00176314
0.00349236
0.00187566
0.00346216
0.00196958
0.003434
0.00204906
0.00340767
0.00211608
0.00337929
0.00216661
0.00335436
0.00220645
0.00332743
0.00222992
0.00330396
0.00224495
0.00327803
0.00224501
0.00325369
0.00223474
0.00323047
0.00221154
0.00320659
0.00217968
0.00317954
0.00213281
0.00315734
0.00207918
0.00312967
0.0020148
0.00310206
0.0019432
0.00307275
0.00185887
0.00304358
0.00176677
0.00301012
0.00166626
0.00297441
0.00155779
0.00293527
0.00144216
0.0028915
0.0013198
0.00284348
0.00119135
0.0027902
0.00105822
0.00273024
0.000920844
0.00266274
0.000780377
0.00258684
0.000638515
0.00249967
0.00049716
0.00239868
0.000358829
0.00227906
0.000228462
0.00212793
0.000114187
0.00191476
2.43532e-05
0.0015907
0.00122474
-5.62783e-05
-4.17428e-05
0.00353161
0.000318029
0.000213919
0.00351058
0.000449145
0.00349338
0.000666101
0.00347412
0.000864253
0.00345704
0.00104415
0.00343967
0.00120767
0.00342239
0.00135267
0.00340703
0.00148314
0.00339162
0.00159751
0.00337799
0.00169721
0.00336246
0.00178471
0.00334651
0.00185766
0.00333472
0.00191639
0.00332057
0.00196453
0.00330622
0.00199838
0.00329357
0.00202379
0.00327856
0.0020345
0.00326732
0.002035
0.0032532
0.00202479
0.00324069
0.0020061
0.00322528
0.00197453
0.00321111
0.00193634
0.00319553
0.00188758
0.00317842
0.00182987
0.00315977
0.00176169
0.00314093
0.00168734
0.00311793
0.00160466
0.0030928
0.0015134
0.00306567
0.00141528
0.00303339
0.00131034
0.00299644
0.00119917
0.00295465
0.00108303
0.00290633
0.000961974
0.00285129
0.000836918
0.0027878
0.000709894
0.00271386
0.000580219
0.00262934
0.000450774
0.00252813
0.000324708
0.00240512
0.000205707
0.00224693
0.000103044
0.00201743
2.19827e-05
0.00167176
0.00130045
-5.37263e-05
-3.80764e-05
0.00327825
0.000291427
0.00019268
0.00327982
0.000407025
0.00327904
0.000602649
0.00327849
0.000782132
0.00327756
0.000945265
0.00327654
0.00109186
0.0032758
0.00122432
0.00327457
0.00134435
0.00327158
0.00144984
0.0032725
0.0015413
0.003271
0.0016181
0.0032697
0.00168473
0.00326809
0.00173921
0.00326609
0.00178116
0.00326426
0.0018147
0.00326004
0.00183407
0.00325918
0.00184497
0.00325642
0.00184514
0.00325303
0.00183726
0.00324857
0.00181874
0.0032438
0.00179171
0.00323813
0.00175604
0.0032312
0.00171361
0.00322086
0.00166077
0.00321261
0.00160144
0.00320026
0.00153332
0.00318604
0.00145762
0.0031685
0.00137538
0.00314791
0.00128566
0.00312312
0.00119029
0.0030918
0.00109035
0.00305459
0.000985228
0.00301146
0.000875467
0.00296105
0.000762024
0.00290124
0.000645158
0.00283073
0.000526301
0.0027482
0.000408024
0.00264641
0.000293497
0.00251965
0.000187358
0.00235307
9.84243e-05
0.00210636
2.26356e-05
0.00174755
-5.4497e-05
0.00137758
-0.000168115
0.000386928
-0.000226406
-0.000261404
0.00034842
-0.000255132
-0.000342623
0.000358988
-0.000277769
-0.000421686
0.000377976
-0.000298912
-0.000500799
0.000398605
-0.000319492
-0.000580247
0.000419724
-0.000340277
-0.000659969
0.00044143
-0.000361707
-0.00073981
0.000463824
-0.000383983
-0.000819513
0.000487012
-0.000407309
-0.000898921
0.000511229
-0.000431821
-0.000977829
0.00053654
-0.000457633
-0.00105611
0.000563098
-0.000484821
-0.00113341
0.00059097
-0.000513664
-0.0012095
0.000620221
-0.000544128
-0.00128431
0.000651094
-0.000576288
-0.00135741
0.00068362
-0.000610522
-0.00142866
0.000717887
-0.000646631
-0.00149762
0.000754045
-0.00068509
-0.00156406
0.000792298
-0.000725851
-0.00162772
0.000832691
-0.000769036
-0.00168798
0.000875332
-0.000815068
-0.00174473
0.000920589
-0.000863845
-0.00179732