/*--------------------------------*- C++ -*----------------------------------*\
| =========                 |                                                 |
| \\      /  F ield         | OpenFOAM: The Open Source CFD Toolbox           |
|  \\    /   O peration     | Version:  2.3.0                                 |
|   \\  /    A nd           | Web:      www.OpenFOAM.org                      |
|    \\/     M anipulation  |                                                 |
\*---------------------------------------------------------------------------*/
FoamFile
{
    version     2.0;
    format      ascii;
    class       volScalarField;
    location    "10000";
    object      nuTilda;
}
// * * * * * * * * * * * * * * * * * * * * * * * * * * * * * * * * * * * * * //

dimensions      [0 2 -1 0 0 0 0];

internalField   nonuniform List<scalar> 
121942
(
0.0395333
0.0383155
0.0371146
0.0359313
0.0347657
0.033618
0.0324884
0.0313768
0.0302829
0.0292065
0.0281479
0.027107
0.0260833
0.025077
0.0240887
0.0231174
0.0221632
0.0212261
0.0203057
0.0194021
0.0185153
0.0176452
0.0167915
0.0159543
0.0151332
0.014329
0.0135417
0.0127707
0.0120165
0.0112801
0.0105621
0.00986372
0.00918597
0.00852913
0.00789614
0.00728825
0.006708
0.00615858
0.00563801
0.00514444
0.0046564
0.00411921
0.00339794
0.0403437
0.0392464
0.0381647
0.0370983
0.0360463
0.0350086
0.0339855
0.0329769
0.0319821
0.0310009
0.0300344
0.0290813
0.0281416
0.0272161
0.0263043
0.0254058
0.0245211
0.0236499
0.0227916
0.0219477
0.0211175
0.0203013
0.0194991
0.0187108
0.0179367
0.0171779
0.0164339
0.0157055
0.0149942
0.0143011
0.013628
0.0129774
0.0123504
0.0117504
0.0111825
0.0106501
0.0101603
0.00971955
0.00933455
0.00901323
0.00876271
0.00858958
0.00849748
0.0411012
0.0401139
0.0391377
0.0381733
0.0372205
0.0362791
0.0353491
0.0344301
0.0335219
0.032624
0.0317371
0.0308604
0.0299938
0.0291383
0.0282932
0.0274581
0.0266335
0.0258195
0.0250159
0.0242235
0.0234421
0.0226718
0.0219138
0.0211678
0.0204338
0.0197138
0.0190077
0.0183162
0.0176413
0.0169846
0.0163479
0.0157337
0.0151447
0.0145847
0.0140579
0.0135682
0.0131217
0.0127236
0.012379
0.012094
0.0118751
0.0117237
0.0116449
0.0418117
0.0409203
0.0400367
0.0391617
0.0382959
0.0374387
0.0365898
0.0357494
0.0349167
0.0340914
0.0332739
0.0324635
0.0316602
0.0308647
0.0300766
0.0292962
0.0285234
0.027759
0.0270028
0.0262544
0.0255143
0.024783
0.0240623
0.0233519
0.0226519
0.021964
0.0212888
0.020627
0.0199812
0.0193526
0.018744
0.0181575
0.0175959
0.0170627
0.0165623
0.0160988
0.0156773
0.0153021
0.0149787
0.0147113
0.0145037
0.0143593
0.0142807
0.0424785
0.0416672
0.0408645
0.0400685
0.0392785
0.038495
0.0377172
0.0369451
0.0361779
0.0354158
0.0346588
0.033906
0.0331575
0.0324135
0.0316745
0.0309405
0.0302121
0.0294897
0.0287731
0.0280621
0.0273573
0.0266593
0.0259693
0.0252882
0.0246159
0.0239542
0.0233036
0.0226663
0.0220431
0.0214358
0.020848
0.0202817
0.0197399
0.0192253
0.0187423
0.0182955
0.0178889
0.0175271
0.0172149
0.0169559
0.016754
0.0166115
0.0165305
0.0430866
0.0423541
0.0416241
0.0408971
0.0401741
0.0394552
0.0387398
0.0380265
0.0373167
0.0366098
0.0359049
0.0352022
0.0345016
0.0338025
0.0331052
0.0324108
0.0317199
0.0310326
0.0303499
0.0296714
0.0289964
0.0283261
0.027662
0.0270043
0.0263543
0.0257139
0.0250846
0.0244667
0.0238615
0.0232706
0.0226981
0.0221463
0.0216177
0.0211168
0.0206466
0.0202106
0.0198138
0.0194606
0.0191543
0.0188998
0.0186999
0.0185575
0.0184731
0.0436541
0.042987
0.0423201
0.0416538
0.0409897
0.0403271
0.0396658
0.0390045
0.038344
0.0376849
0.037026
0.0363668
0.0357074
0.0350475
0.0343866
0.0337255
0.0330657
0.0324084
0.031755
0.031104
0.0304547
0.0298082
0.0291656
0.0285277
0.0278958
0.0272724
0.0266596
0.0260576
0.0254673
0.0248899
0.0243287
0.0237877
0.0232697
0.0227778
0.0223151
0.0218872
0.021498
0.0211507
0.0208488
0.0205957
0.0203955
0.0202514
0.0201642
0.0441788
0.0435692
0.0429577
0.0423437
0.0417314
0.0411157
0.0405042
0.0398884
0.0392698
0.0386522
0.0380347
0.0374128
0.0367882
0.036164
0.0355361
0.0349029
0.0342694
0.0336358
0.0330056
0.0323794
0.0317541
0.0311276
0.0305042
0.0298829
0.0292654
0.0286534
0.028053
0.0274651
0.0268895
0.0263239
0.0257692
0.0252364
0.0247278
0.0242419
0.0237825
0.0233615
0.0229775
0.0226346
0.022337
0.0220833
0.0218821
0.0217363
0.0216457
0.0446623
0.0441028
0.0435415
0.0429694
0.0424073
0.0418257
0.0412604
0.0406862
0.0401026
0.0395197
0.0389386
0.0383512
0.0377535
0.0371582
0.0365646
0.0359567
0.0353496
0.0347312
0.0341148
0.0335079
0.0329087
0.0322973
0.0316948
0.0310871
0.0304855
0.0298768
0.0292822
0.0287025
0.0281407
0.0275922
0.027042
0.0265137
0.0260125
0.0255376
0.0250752
0.0246613
0.02428
0.0239398
0.0236532
0.0233941
0.0231912
0.0230439
0.0229499
0.00356488
0.00439867
0.00488249
0.00533321
0.00581489
0.00633272
0.00688315
0.00745825
0.00805556
0.00866849
0.00929727
0.00993825
0.0105908
0.0112543
0.0119287
0.0126119
0.0133068
0.0140106
0.0147239
0.0154474
0.016181
0.0169248
0.0176785
0.0184429
0.0192181
0.0200038
0.0208008
0.0216086
0.0224283
0.0232592
0.0241021
0.024957
0.0258242
0.0267042
0.0275964
0.0285016
0.0294197
0.0303508
0.0312948
0.0322519
0.0332219
0.0342045
0.0351989
0.00849039
0.00857055
0.00873715
0.00898573
0.00930636
0.0096887
0.010122
0.0105985
0.0111089
0.0116491
0.0122132
0.0127963
0.0133972
0.0140123
0.0146402
0.0152804
0.0159306
0.0165907
0.0172605
0.0179387
0.0186263
0.0193221
0.0200261
0.0207387
0.0214598
0.0221894
0.0229272
0.023674
0.0244297
0.0251943
0.0259681
0.0267516
0.0275446
0.0283472
0.0291599
0.0299827
0.0308157
0.0316591
0.0325132
0.0333777
0.034253
0.0351393
0.0360363
0.0116354
0.0116956
0.0118266
0.0120278
0.0122922
0.0126147
0.0129873
0.0134038
0.0138574
0.0143427
0.0148549
0.0153902
0.0159452
0.0165162
0.0171016
0.0176999
0.0183091
0.0189282
0.019556
0.0201931
0.0208369
0.0214884
0.0221473
0.022813
0.0234852
0.0241642
0.0248496
0.0255421
0.0262409
0.0269473
0.0276604
0.0283804
0.029108
0.0298429
0.0305855
0.0313358
0.0320941
0.0328605
0.0336351
0.0344181
0.0352098
0.0360103
0.0368199
0.0142662
0.0143144
0.0144273
0.0146027
0.0148371
0.0151248
0.0154611
0.0158401
0.0162553
0.0167034
0.0171796
0.0176795
0.018199
0.0187356
0.0192873
0.0198512
0.0204267
0.0210115
0.0216052
0.0222058
0.0228135
0.0234272
0.0240469
0.024672
0.0253022
0.0259374
0.0265777
0.0272229
0.0278733
0.0285285
0.0291886
0.029854
0.0305246
0.0312004
0.0318821
0.0325692
0.0332621
0.0339609
0.0346656
0.0353766
0.0360944
0.0368191
0.0375515
0.0165102
0.0165502
0.0166511
0.0168109
0.0170257
0.0172912
0.0176036
0.0179568
0.0183465
0.0187685
0.0192179
0.0196909
0.020184
0.0206941
0.0212189
0.021756
0.0223041
0.022861
0.0234254
0.0239966
0.0245732
0.0251555
0.0257418
0.0263323
0.0269265
0.0275245
0.0281261
0.0287312
0.0293395
0.0299509
0.0305656
0.0311836
0.031805
0.0324302
0.0330587
0.0336907
0.0343264
0.0349661
0.0356096
0.0362572
0.0369093
0.0375664
0.0382291
0.0184476
0.0184809
0.0185725
0.0187209
0.0189223
0.0191727
0.0194678
0.0198033
0.0201745
0.0205767
0.021006
0.0214591
0.0219317
0.0224212
0.0229247
0.0234405
0.0239661
0.0244997
0.0250404
0.0255871
0.0261386
0.0266935
0.0272518
0.0278127
0.0283765
0.028943
0.029512
0.0300828
0.0306551
0.031229
0.0318044
0.0323817
0.0329609
0.0335418
0.0341243
0.0347084
0.0352942
0.0358822
0.0364721
0.037064
0.0376581
0.0382544
0.0388519
0.0201344
0.0201619
0.0202462
0.0203863
0.0205775
0.0208166
0.0210993
0.0214213
0.0217781
0.0221654
0.0225794
0.0230164
0.0234732
0.0239469
0.024434
0.0249315
0.0254385
0.0259531
0.0264745
0.0270014
0.0275311
0.0280629
0.0285962
0.0291321
0.0296706
0.0302115
0.0307525
0.0312936
0.0318346
0.032376
0.0329179
0.0334605
0.034003
0.0345458
0.0350884
0.0356307
0.036173
0.036716
0.0372589
0.0378018
0.0383452
0.0388893
0.039434
0.0216111
0.0216338
0.0217138
0.0218472
0.0220301
0.0222608
0.0225329
0.0228451
0.0231904
0.023566
0.023967
0.0243922
0.0248365
0.0252989
0.0257701
0.0262534
0.0267451
0.0272431
0.0277494
0.028261
0.0287714
0.0292806
0.0297926
0.0303087
0.0308272
0.0313468
0.0318631
0.0323769
0.0328918
0.0334057
0.0339183
0.034432
0.0349419
0.0354526
0.0359602
0.0364654
0.03697
0.0374743
0.0379756
0.0384751
0.0389742
0.0394725
0.0399686
0.0229108
0.0229294
0.0230078
0.0231346
0.0233113
0.0235361
0.0237958
0.0241017
0.0244354
0.0248023
0.0251934
0.0256113
0.0260427
0.0264993
0.0269497
0.0274246
0.0279018
0.0283873
0.0288835
0.0293813
0.0298683
0.0303578
0.0308541
0.0313578
0.0318589
0.0323618
0.0328506
0.0333416
0.0338378
0.0343264
0.0348141
0.0353081
0.0357844
0.0362724
0.0367465
0.037219
0.0376912
0.0381627
0.038625
0.039087
0.0395491
0.040009
0.0404655
0.00910283
0.00864186
0.00821423
0.00781495
0.00744057
0.00708838
0.00675616
0.00644198
0.00614421
0.00586145
0.00559238
0.00533588
0.00509085
0.00485638
0.00463159
0.00441567
0.00420786
0.0040075
0.00381393
0.00362656
0.00344482
0.00326822
0.00309624
0.0029284
0.0027643
0.0026035
0.00244564
0.00229034
0.00213726
0.00198609
0.00183653
0.0016883
0.00154117
0.001395
0.00124967
0.00110524
0.000961847
0.000819848
0.000679975
0.000543151
0.000410168
0.000278557
0.000149075
0.00908337
0.00865727
0.00825977
0.00788678
0.00753534
0.00720314
0.00688831
0.00658926
0.00630463
0.0060332
0.0057739
0.0055257
0.00528773
0.00505918
0.00483927
0.00462729
0.0044226
0.00422457
0.00403262
0.00384623
0.00366489
0.00348809
0.00331536
0.00314629
0.00298045
0.00281743
0.00265686
0.00249838
0.00234161
0.00218628
0.00203205
0.00187864
0.00172588
0.00157358
0.00142165
0.00127013
0.00111917
0.000969148
0.000820466
0.000673091
0.000524963
0.000372851
0.000238587
0.00906734
0.00867523
0.00830668
0.0079588
0.00762927
0.00731623
0.00701811
0.00673356
0.00646147
0.00620083
0.00595073
0.00571033
0.0054789
0.00525572
0.00504014
0.00483154
0.00462938
0.00443311
0.00424221
0.00405621
0.00387464
0.00369706
0.00352306
0.00335221
0.00318412
0.0030184
0.00285469
0.00269262
0.00253184
0.00237203
0.00221288
0.00205411
0.00189549
0.00173679
0.00157792
0.00141885
0.00125971
0.00110065
0.000941594
0.000781229
0.00061541
0.000450375
0.000305361
0.00905353
0.00869282
0.00835095
0.00802618
0.00771684
0.00742142
0.00713867
0.00686749
0.00660695
0.00635622
0.00611454
0.00588124
0.00565569
0.00543729
0.00522548
0.00501977
0.00481965
0.00462468
0.00443439
0.00424837
0.00406622
0.00388752
0.00371189
0.00353897
0.00336838
0.00319974
0.00303272
0.00286694
0.00270207
0.00253777
0.00237373
0.00220964
0.00204522
0.00188026
0.0017146
0.00154817
0.00138095
0.00121286
0.00104322
0.000869242
0.000685763
0.00051155
0.000356179
0.00904175
0.00870944
0.00839198
0.00808837
0.00779746
0.00751816
0.00724947
0.0069905
0.00674052
0.00649883
0.00626482
0.00603795
0.00581768
0.00560352
0.00539502
0.00519175
0.00499329
0.00479927
0.00460928
0.00442297
0.00423997
0.00405993
0.00388252
0.00370737
0.00353415
0.00336252
0.00319213
0.00302264
0.00285369
0.00268499
0.00251618
0.00234694
0.00217699
0.00200606
0.00183396
0.00166051
0.00148563
0.00130892
0.00112888
0.000941007
0.000737202
0.000558407
0.000395786
0.00903263
0.00872516
0.00842981
0.00814552
0.0078715
0.00760693
0.00735108
0.00710329
0.00686293
0.00662947
0.00640242
0.00618136
0.00596586
0.0057555
0.00554991
0.00534874
0.00515165
0.00495831
0.00476839
0.00458158
0.00439757
0.00421607
0.00403675
0.00385932
0.00368344
0.00350881
0.00333508
0.00316195
0.00298905
0.00281608
0.0026427
0.00246856
0.00229337
0.00211681
0.00193866
0.00175869
0.00157665
0.00139182
0.00120196
0.00100157
0.000785985
0.000596816
0.000427711
0.00902208
0.00873932
0.00846445
0.00819791
0.00793937
0.00768835
0.00744433
0.00720677
0.0069752
0.00674921
0.00652844
0.00631261
0.00610142
0.00589452
0.00569154
0.00549222
0.0052963
0.00510348
0.00491347
0.00472596
0.00454076
0.00435766
0.00417641
0.0039967
0.00381824
0.00364065
0.00346367
0.003287
0.00311029
0.0029332
0.00275545
0.00257672
0.00239665
0.00221484
0.00203104
0.00184502
0.00165639
0.00146407
0.00126515
0.00105351
0.000828804
0.000628926
0.000454099
0.00901721
0.00875302
0.00849624
0.00824584
0.00800147
0.00776307
0.00753007
0.00730217
0.00707875
0.00685957
0.00664429
0.00643286
0.00622563
0.00602201
0.0058216
0.00562407
0.00542933
0.00523713
0.00504713
0.004859
0.0046722
0.00448701
0.00430352
0.00412155
0.00394073
0.00376051
0.00358037
0.00340032
0.00322015
0.00303882
0.00285643
0.00267319
0.00248898
0.00230301
0.00211379
0.00192148
0.00172629
0.00152694
0.0013198
0.00109828
0.000865961
0.000656909
0.000477336
0.00900886
0.00876472
0.00852483
0.00828945
0.00805763
0.00783151
0.00760921
0.00739145
0.00717618
0.00696353
0.0067535
0.00654366
0.00633972
0.00613951
0.00594262
0.00574733
0.00555428
0.00536407
0.00517486
0.00498846
0.00479998
0.00461077
0.00442315
0.00423784
0.00405513
0.00387404
0.00369244
0.00350745
0.00332752
0.00314299
0.00295295
0.00276217
0.00257159
0.00239108
0.00220424
0.00200517
0.0017994
0.0015895
0.00137175
0.00113871
0.000896539
0.000676447
0.000492758
0.000127034
0.000211245
0.000279825
0.00034858
0.000417735
0.00049071
0.000571846
0.000666167
0.000778525
0.000906888
0.0010485
0.00120232
0.00136799
0.00154546
0.00173487
0.00193649
0.0021506
0.00237767
0.00261804
0.0028722
0.00314061
0.0034237
0.00372192
0.00403576
0.00436573
0.00471226
0.00507582
0.00545693
0.00585607
0.00627372
0.00671042
0.00716655
0.00764253
0.00813873
0.00865535
0.00919253
0.00975024
0.0103282
0.010926
0.0115428
0.0121772
0.0128275
0.0134921
0.000197852
0.00026675
0.000339942
0.000417931
0.00050143
0.000594671
0.000701292
0.000823417
0.000962241
0.00111704
0.00128397
0.0014623
0.00165181
0.00185246
0.00206431
0.00228758
0.00252244
0.00276917
0.00302806
0.00329933
0.00358335
0.00388042
0.00419079
0.00451479
0.00485275
0.00520501
0.00557187
0.00595374
0.00635096
0.00676386
0.00719274
0.00763793
0.00809963
0.00857801
0.00907317
0.00958508
0.0101136
0.0106582
0.0112185
0.0117935
0.012382
0.0129821
0.0135912
0.000256296
0.000318317
0.000399643
0.000491534
0.00059456
0.000711923
0.000844902
0.000993143
0.00115671
0.00133594
0.00152662
0.00172814
0.00194026
0.0021629
0.00239604
0.00263976
0.00289416
0.00315933
0.00343541
0.00372254
0.00402086
0.00433058
0.00465181
0.00498468
0.00532945
0.00568633
0.0060555
0.00643718
0.00683158
0.00723892
0.00765934
0.00809298
0.00853989
0.00900011
0.00947357
0.00996013
0.0104595
0.0109712
0.0114946
0.0120289
0.0125728
0.0131253
0.0136859
0.000303812
0.000366106
0.000458888
0.00056796
0.000692782
0.000834373
0.000991775
0.00116357
0.00135038
0.00155196
0.00176454
0.00198744
0.00222044
0.00246333
0.002716
0.0029784
0.00325051
0.00353231
0.00382379
0.004125
0.00443593
0.00475659
0.00508708
0.00542741
0.00577766
0.00613795
0.00650837
0.00688898
0.00727989
0.00768114
0.00809277
0.00851479
0.00894711
0.00938965
0.00984223
0.0103046
0.0107763
0.011257
0.011746
0.0122423
0.012745
0.0132528
0.0137639
0.000343659
0.000411302
0.000518043
0.00064596
0.000792641
0.000956851
0.00113621
0.00132933
0.00153802
0.00176022
0.00199297
0.00223557
0.00248769
0.00274911
0.00301959
0.0032989
0.00358699
0.00388369
0.00418892
0.00450256
0.00482452
0.00515468
0.00549301
0.0058395
0.00619415
0.0065569
0.00692774
0.00730663
0.00769357
0.00808844
0.00849122
0.00890178
0.00932
0.0097456
0.0101784
0.010618
0.0110639
0.0115158
0.0119729
0.0124345
0.0128995
0.013367
0.0138364
0.000378253
0.00045456
0.000576787
0.000723924
0.000891372
0.00107614
0.00127535
0.00148815
0.00171717
0.00195837
0.00220964
0.00247032
0.00273998
0.00301826
0.00330489
0.00359956
0.00390205
0.00421215
0.00452962
0.00485425
0.00518585
0.00552426
0.00586936
0.00622099
0.00657907
0.00694352
0.00731414
0.00769085
0.00807351
0.00846198
0.00885602
0.00925543
0.00966008
0.0100697
0.0104838
0.0109021
0.0113242
0.0117494
0.0121774
0.0126072
0.013038
0.0134686
0.0138971
0.000409781
0.000497261
0.000635426
0.000800708
0.00098705
0.00119045
0.00140793
0.00163912
0.00188649
0.00214513
0.00241344
0.00269069
0.00297641
0.00327011
0.00357144
0.00388004
0.00419556
0.00451771
0.00484612
0.00518049
0.00552057
0.00586617
0.00621712
0.00657317
0.00693405
0.00729951
0.00766942
0.00804364
0.00842194
0.00880393
0.00918927
0.00957782
0.00996961
0.0103642
0.0107609
0.0111593
0.0115592
0.0119602
0.0123615
0.0127626
0.0131625
0.0135606
0.0139558
0.000437176
0.000534464
0.000687932
0.000872246
0.0010779
0.00129897
0.00153243
0.00178049
0.00204481
0.00232007
0.00260438
0.00289693
0.00319732
0.00350531
0.00382035
0.00414178
0.00446909
0.00480199
0.00514018
0.00548316
0.00583067
0.00618282
0.00653917
0.0068991
0.00726209
0.00762772
0.00799635
0.00836808
0.00874201
0.00911731
0.0094933
0.00987097
0.0102511
0.0106321
0.0110123
0.0113917
0.0117712
0.01215
0.0125276
0.0129029
0.0132751
0.0136446
0.0140126
0.000468159
0.000589371
0.000766321
0.000962261
0.00117255
0.00139745
0.00165059
0.00192295
0.00220891
0.00249833
0.0027953
0.00309706
0.00341081
0.00373261
0.00406056
0.00439289
0.00472939
0.0050713
0.00541793
0.00576736
0.00612085
0.00648013
0.00684219
0.0072055
0.00756913
0.0079319
0.00829908
0.00866955
0.00903895
0.00940624
0.00976907
0.0101356
0.0105088
0.0108778
0.0112402
0.0116001
0.0119616
0.0123207
0.012678
0.0130302
0.0133767
0.0137185
0.0140531
0.000255639
0.00088576
0.00154845
0.00221069
0.00286995
0.00352984
0.00419577
0.00487033
0.0055541
0.0062496
0.00695848
0.00768169
0.00842051
0.00917595
0.00994652
0.0107339
0.011538
0.0123588
0.0131968
0.0140513
0.0149226
0.0158113
0.0167171
0.0176406
0.0185822
0.019542
0.0205202
0.0215167
0.0225313
0.0235647
0.0246178
0.02569
0.0267814
0.0278916
0.0290219
0.0301711
0.0313399
0.0325281
0.0337358
0.0349634
0.0362097
0.0374752
0.0387587
0.000145257
0.000721621
0.0011696
0.00165899
0.00217765
0.00271194
0.00325188
0.0037968
0.00436838
0.00500237
0.00568144
0.00639008
0.0071234
0.0078779
0.00865222
0.00944617
0.0102596
0.0110923
0.0119437
0.0128136
0.0137022
0.0146089
0.0155342
0.0164783
0.0174407
0.0184224
0.0194228
0.0204417
0.0214792
0.0225357
0.0236121
0.0247078
0.0258224
0.0269564
0.02811
0.0292831
0.0304757
0.0316872
0.0329186
0.0341694
0.035439
0.0367275
0.0380342
0.000119824
0.000576208
0.00114291
0.00163282
0.00209077
0.00254086
0.00299371
0.00345625
0.0039366
0.00444392
0.0049886
0.00560316
0.00627792
0.00699407
0.00774117
0.00851517
0.00931419
0.0101366
0.0109819
0.0118486
0.0127368
0.0136457
0.0145752
0.0155251
0.0164951
0.0174856
0.0184955
0.0195253
0.0205751
0.0216448
0.0227344
0.0238437
0.0249729
0.0261217
0.0272903
0.0284789
0.0296874
0.030915
0.0321622
0.0334293
0.0347152
0.0360205
0.0373445
0.000101332
0.00049274
0.00101761
0.00156076
0.00205159
0.00250234
0.00293215
0.00335635
0.00378543
0.00422762
0.0046925
0.00519414
0.00575557
0.00639473
0.00708882
0.00782419
0.00859279
0.00939111
0.0102162
0.0110673
0.0119434
0.012843
0.0137661
0.0147115
0.0156795
0.0166694
0.0176808
0.0187141
0.0197685
0.0208437
0.0219398
0.0230569
0.024195
0.0253534
0.0265323
0.0277317
0.0289513
0.0301907
0.0314508
0.0327302
0.0340291
0.0353464
0.036682
8.94417e-05
0.000433046
0.000901583
0.00143586
0.00195779
0.00243824
0.0028833
0.00330612
0.00371892
0.00413219
0.00455593
0.00499956
0.00547757
0.00601331
0.0066305
0.00731106
0.00803804
0.0088028
0.00960027
0.0104284
0.0112844
0.0121676
0.0130769
0.0140111
0.0149706
0.0159538
0.0169606
0.0179907
0.0190437
0.0201196
0.0212175
0.0223376
0.0234796
0.0246435
0.0258286
0.0270347
0.0282621
0.0295105
0.0307797
0.0320691
0.0333778
0.034706
0.0360528
8.15163e-05
0.000392958
0.000818318
0.00131829
0.00183952
0.00233966
0.00280632
0.00324367
0.00366064
0.00406777
0.00447423
0.00488951
0.00532473
0.00579441
0.00632382
0.00693541
0.00761148
0.00833608
0.00910134
0.00990131
0.0107334
0.0115956
0.0124868
0.0134058
0.0143517
0.0153238
0.0163215
0.0173443
0.0183922
0.0194644
0.0205602
0.0216791
0.0228215
0.023987
0.0251748
0.0263849
0.0276173
0.0288711
0.030147
0.0314435
0.0327606
0.0340981
0.0354571
7.54335e-05
0.000362331
0.000754442
0.00122015
0.0017235
0.00222626
0.00270676
0.0031594
0.00358822
0.00400053
0.00440425
0.00480821
0.00522197
0.0056567
0.00612931
0.00666703
0.00728481
0.00796527
0.00869386
0.00946353
0.0102692
0.0111081
0.0119789
0.0128792
0.0138091
0.0147674
0.0157532
0.0167658
0.0178047
0.0188701
0.0199605
0.0210757
0.0222154
0.0233796
0.0245673
0.0257788
0.0270135
0.0282707
0.0295502
0.0308518
0.0321749
0.0335189
0.0348831
7.0443e-05
0.000337478
0.000702457
0.00113872
0.00161873
0.00211281
0.00259741
0.00306062
0.00350085
0.00392193
0.00432991
0.00473202
0.00513657
0.00555329
0.0059944
0.0064794
0.00703676
0.00766924
0.00835967
0.00909718
0.00987507
0.0106898
0.0115382
0.0124191
0.0133315
0.014274
0.0152456
0.0162457
0.0172739
0.0183297
0.0194124
0.0205215
0.0216565
0.0228169
0.0240025
0.0252129
0.0264472
0.0277055
0.0289872
0.0302922
0.0316194
0.0329686
0.0343395
6.6454e-05
0.000317245
0.000659128
0.00106976
0.0015266
0.00200633
0.00248737
0.00295501
0.00340327
0.00383294
0.00424752
0.00465237
0.00505476
0.00546281
0.0058867
0.00634062
0.00684791
0.00743168
0.00808299
0.00878802
0.00953805
0.0103279
0.0111541
0.0120151
0.0129088
0.013834
0.0147902
0.0157765
0.0167923
0.0178373
0.0189104
0.0200115
0.0211399
0.0222951
0.0234766
0.0246835
0.0259162
0.0271737
0.0284558
0.0297623
0.0310922
0.032446
0.0338258
6.3159e-05
0.000300483
0.000622492
0.00101076
0.00144593
0.00190925
0.00238181
0.0028484
0.00330074
0.00373664
0.00415746
0.00456697
0.00497064
0.00537563
0.00579026
0.00622616
0.00670062
0.0072397
0.00785247
0.00852497
0.00924749
0.0100126
0.0108165
0.011657
0.0125317
0.0134398
0.0143798
0.0153516
0.0163545
0.0173875
0.0184498
0.0195417
0.0206619
0.0218101
0.0229858
0.0241884
0.0254176
0.0266728
0.0279539
0.0292599
0.0305902
0.0319458
0.0333261
6.03361e-05
0.00028638
0.000591031
0.000959578
0.00137484
0.00182132
0.00228267
0.00274448
0.00319742
0.00363688
0.00406252
0.00447655
0.00488324
0.00528809
0.00569818
0.0061234
0.00657743
0.00708183
0.00765778
0.00829917
0.0089945
0.00973549
0.0105176
0.0113377
0.012194
0.0130843
0.0140085
0.0149656
0.0159547
0.016975
0.018026
0.0191075
0.0202182
0.0213587
0.0225274
0.0237243
0.0249488
0.0262004
0.0274789
0.0287828
0.0301124
0.0314666
0.0328438
5.79387e-05
0.000274331
0.000563375
0.000914719
0.00131198
0.00174194
0.00219068
0.0026452
0.00309563
0.00353616
0.00396502
0.00438297
0.00479275
0.00519862
0.00560698
0.00602595
0.00646695
0.00694748
0.00749087
0.00810276
0.008772
0.0094899
0.0102508
0.0110516
0.0118897
0.0127632
0.0136714
0.0146133
0.0155881
0.0165954
0.0176345
0.0187049
0.019806
0.0209372
0.0220983
0.0232886
0.0245072
0.0257545
0.0270288
0.0283298
0.0296571
0.0310093
0.0323853
5.59273e-05
0.000264196
0.000539257
0.000875154
0.00125587
0.00167007
0.00210608
0.00255167
0.00299723
0.00343685
0.00386721
0.0042877
0.00469998
0.00510764
0.00551574
0.0059313
0.00636404
0.00682844
0.00734533
0.00792974
0.00857453
0.00927053
0.0100113
0.0107933
0.0116138
0.0124708
0.0133632
0.01429
0.0152508
0.0162449
0.017272
0.0183309
0.0194215
0.0205435
0.0216963
0.0228791
0.0240913
0.0253325
0.0266021
0.0278994
0.0292237
0.0305743
0.0319505
5.42114e-05
0.000255644
0.000518142
0.000840074
0.0012058
0.00160542
0.00202864
0.00246432
0.00290371
0.00334051
0.00377051
0.00419208
0.00460637
0.00501566
0.00542433
0.00583808
0.00626549
0.00671853
0.00721553
0.00777535
0.0083977
0.00907296
0.00979463
0.0105588
0.0113619
0.0122029
0.0130802
0.0139927
0.0149395
0.0159206
0.0169351
0.0179828
0.0190629
0.020175
0.0213187
0.0224933
0.0236982
0.0249331
0.0261973
0.0274901
0.0288107
0.030159
0.0315338
5.27931e-05
0.000248502
0.000499443
0.000808698
0.00116099
0.00154686
0.00195722
0.00238293
0.00281525
0.00324773
0.00367581
0.00409768
0.00451283
0.00492336
0.00533272
0.00574555
0.00616935
0.00661467
0.00709707
0.00763604
0.00823748
0.0088935
0.00959741
0.0103442
0.0111314
0.011957
0.0128195
0.0137177
0.0146511
0.015619
0.0166214
0.0176574
0.0187268
0.0198288
0.0209631
0.0221292
0.0233264
0.0245545
0.0258128
0.0271003
0.0284168
0.029761
0.0311326
5.16128e-05
0.000242411
0.000482915
0.000780712
0.00112041
0.00149355
0.00189197
0.00230752
0.00273207
0.00315921
0.00358433
0.004005
0.0044204
0.00483173
0.00524156
0.00565395
0.00607546
0.00651527
0.00698677
0.00750833
0.00809073
0.00872898
0.00941602
0.0101472
0.0109189
0.0117297
0.012578
0.0134625
0.0143826
0.0153379
0.016328
0.0173526
0.0184113
0.0195032
0.0206278
0.0217852
0.0229745
0.0241956
0.0254472
0.0267289
0.0280404
0.0293806
0.0307479
5.05777e-05
0.000236964
0.000468106
0.000755355
0.0010836
0.00144501
0.00183195
0.0022371
0.00265351
0.00307478
0.00349613
0.00391482
0.00432964
0.00474106
0.00515101
0.00556307
0.00598309
0.00641885
0.00688225
0.00738975
0.00795526
0.00857722
0.0092487
0.00996483
0.0107221
0.0115187
0.0123534
0.0132246
0.0141321
0.0150753
0.0160536
0.0170668
0.0181144
0.0191958
0.0203111
0.0214595
0.0226408
0.0238541
0.0250989
0.0263749
0.0276812
0.0290168
0.030382
4.97636e-05
0.00023232
0.000454712
0.000732393
0.00105014
0.00140051
0.00177649
0.0021719
0.0025801
0.00299499
0.00341181
0.00382768
0.00424117
0.00465192
0.00506165
0.00547359
0.00589239
0.00632498
0.00678199
0.00727829
0.00782913
0.00843598
0.00909314
0.00979529
0.0105391
0.0113224
0.012144
0.0130025
0.0138976
0.0148288
0.0157956
0.0167975
0.0178342
0.0189057
0.0200115
0.0211509
0.0223235
0.0235292
0.024767
0.0260367
0.0273374
0.0286687
0.0300304
4.91161e-05
0.000228206
0.000442808
0.000711624
0.00101954
0.00135966
0.00172557
0.00211152
0.00251134
0.0029195
0.0033314
0.00374395
0.00415521
0.00456476
0.00497403
0.00538549
0.00580318
0.00623333
0.00668534
0.00717291
0.00771085
0.00830413
0.00894778
0.00963703
0.0103678
0.0111386
0.0119476
0.0127943
0.0136774
0.0145969
0.0155524
0.0165435
0.0175698
0.0186313
0.0197274
0.0208578
0.022022
0.0232196
0.0244503
0.0257132
0.0270079
0.0283335
0.0296884
4.87007e-05
0.000224773
0.000432237
0.000692709
0.000991507
0.00132209
0.00167851
0.00205528
0.00244695
0.00284829
0.00325481
0.00366346
0.00407222
0.00448029
0.00488859
0.00529923
0.00571575
0.0061437
0.00659164
0.007072
0.00759917
0.00817999
0.00881139
0.00948818
0.0102072
0.0109661
0.0117635
0.0125983
0.01347
0.0143782
0.0153229
0.0163035
0.0173195
0.0183707
0.0194574
0.0205789
0.0217344
0.0229241
0.0241473
0.0254036
0.0266924
0.0280132
0.0293658
4.85593e-05
0.000222034
0.000422814
0.000675581
0.00096601
0.00128767
0.00163492
0.00200295
0.00238672
0.00278118
0.003182
0.00358645
0.00399227
0.00439836
0.00480524
0.00521482
0.00563019
0.00605621
0.00650078
0.00697509
0.00749281
0.0080626
0.00868264
0.00934805
0.0100558
0.0108035
0.0115896
0.0124132
0.0132741
0.0141717
0.0151056
0.0160758
0.0170817
0.0181233
0.0192007
0.0203129
0.0214601
0.0226419
0.0238579
0.0251074
0.02639
0.027706
0.0290561
4.84772e-05
0.000219395
0.000414392
0.000660111
0.000942712
0.0012559
0.00159462
0.00195423
0.00233031
0.00271791
0.0031132
0.00351318
0.00391555
0.0043192
0.00472434
0.00513258
0.00554666
0.00597103
0.00641267
0.00688194
0.00739147
0.00795123
0.00856072
0.00921556
0.00991286
0.0106499
0.0114253
0.0122383
0.0130887
0.0139757
0.0148995
0.0158595
0.0168556
0.0178878
0.018956
0.0200594
0.0211981
0.0223721
0.0235802
0.0248224
0.0260987
0.0274079
0.0287496
4.84615e-05
0.000217022
0.000406652
0.000645839
0.000921025
0.00122646
0.0015572
0.00190888
0.00227728
0.00265811
0.00304779
0.00344307
0.00384178
0.00424277
0.00464608
0.00505274
0.00546534
0.00588799
0.00632704
0.00679177
0.0072944
0.007845
0.00844476
0.00908989
0.00977701
0.0105039
0.0112693
0.0120725
0.0129127
0.0137898
0.0147036
0.0156538
0.0166405
0.0176634
0.0187223
0.0198168
0.0209474
0.0221131
0.0233133
0.0245484
0.0258173
0.0271189
0.0284512
4.84962e-05
0.000214806
0.000399592
0.000632571
0.000900924
0.001199
0.00152206
0.00186615
0.00222737
0.0026017
0.00298562
0.00337619
0.00377099
0.00416908
0.00457016
0.00497505
0.00538609
0.00580695
0.00624347
0.00670446
0.00720105
0.00774358
0.00833442
0.00897018
0.00964781
0.0103653
0.0111214
0.0119147
0.0127452
0.0136127
0.0145169
0.0154577
0.0164349
0.0174486
0.0184985
0.0195846
0.0207068
0.0218644
0.0230573
0.024285
0.0255465
0.0268409
0.028165
4.86135e-05
0.000212997
0.000393266
0.000620435
0.000882268
0.00117337
0.00148926
0.00182624
0.00218059
0.00254847
0.00292676
0.00331231
0.00370314
0.0040981
0.00449662
0.00489967
0.00530893
0.00572798
0.00616228
0.0066197
0.00711093
0.00764617
0.00822886
0.00885592
0.00952472
0.0102335
0.0109801
0.0117643
0.0125857
0.0134439
0.0143387
0.0152702
0.0162384
0.0172433
0.0182847
0.0193622
0.020476
0.0216257
0.0228111
0.0240315
0.0252866
0.0265757
0.0278996
4.90232e-05
0.000211569
0.000387656
0.000609516
0.000865154
0.00114963
0.0014588
0.00178885
0.00213632
0.00249803
0.00287071
0.00325146
0.00363832
0.00402993
0.00442588
0.00482666
0.00523399
0.00565131
0.0060834
0.00653767
0.00702393
0.00755253
0.00812753
0.00874653
0.00940721
0.0101072
0.0108452
0.0116207
0.0124332
0.0132824
0.0141685
0.0150911
0.0160505
0.0170467
0.0180796
0.0191487
0.0202545
0.0213964
0.0225744
0.0237878
0.0250365
0.0263207
0.0276407
4.99585e-05
0.000210223
0.000382434
0.000599262
0.000849207
0.00112746
0.00143014
0.00175354
0.00209471
0.00245048
0.00281767
0.0031935
0.00357618
0.00396444
0.00435745
0.00475587
0.00516131
0.00557664
0.00600656
0.00645787
0.0069399
0.00746246
0.00803015
0.00864188
0.00929458
0.00998652
0.0107164
0.0114832
0.0122871
0.013128
0.0140055
0.0149193
0.0158702
0.0168582
0.0178825
0.0189436
0.0200413
0.0211757
0.0223463
0.023553
0.0247958
0.0260741
0.0273883
5.13849e-05
0.000209274
0.000377701
0.000589727
0.000834309
0.00110667
0.00140321
0.00172045
0.00205552
0.00240538
0.00276706
0.0031381
0.00351676
0.0039013
0.00429148
0.00468759
0.00509094
0.00550426
0.00593181
0.00638029
0.0068584
0.00737535
0.00793662
0.00854127
0.00918646
0.00987068
0.0105926
0.0113515
0.0121475
0.0129801
0.013849
0.0147547
0.0156972
0.0166767
0.017693
0.0187462
0.0198363
0.0209632
0.0221265
0.0233264
0.0245628
0.0258355
0.0271446
5.27436e-05
0.00020842
0.000373512
0.00058104
0.000820412
0.00108719
0.00137788
0.00168923
0.0020184
0.00236267
0.00271909
0.00308544
0.00345966
0.00384075
0.00422806
0.00462149
0.00502258
0.00543389
0.00585938
0.0063052
0.00677948
0.00729134
0.00784643
0.00844429
0.00908248
0.00975947
0.0104737
0.0112252
0.0120132
0.0128377
0.0136987