/*--------------------------------*- C++ -*----------------------------------*\
| =========                 |                                                 |
| \\      /  F ield         | OpenFOAM: The Open Source CFD Toolbox           |
|  \\    /   O peration     | Version:  2.3.0                                 |
|   \\  /    A nd           | Web:      www.OpenFOAM.org                      |
|    \\/     M anipulation  |                                                 |
\*---------------------------------------------------------------------------*/
FoamFile
{
    version     2.0;
    format      ascii;
    class       volScalarField;
    location    "10000";
    object      p;
}
// * * * * * * * * * * * * * * * * * * * * * * * * * * * * * * * * * * * * * //

dimensions      [0 2 -2 0 0 0 0];

internalField   nonuniform List<scalar> 
121942
(
1.8256e-05
-0.701587
-2.21505
-3.83926
-5.5123
-7.23771
-9.02419
-10.876
-12.8028
-14.8001
-16.8689
-19.0235
-21.2595
-23.5734
-25.9752
-28.4487
-31.0116
-33.6608
-36.3728
-39.1664
-42.02
-44.9228
-47.8913
-50.8971
-53.9399
-57.0102
-60.1123
-63.2341
-66.4054
-69.5991
-72.8417
-76.1312
-79.5345
-82.8893
-86.2929
-89.6221
-92.6896
-95.0942
-95.5807
-93.2624
-90.8782
-89.128
-53.4603
4.49594
3.90063
2.65738
1.35634
0.0366035
-1.31178
-2.69556
-4.11129
-5.57695
-7.07248
-8.61045
-10.1958
-11.8282
-13.498
-15.2289
-17.0134
-18.841
-20.7573
-22.7145
-24.7489
-26.8401
-28.9943
-31.1986
-33.4659
-35.7293
-37.9967
-40.2322
-42.3542
-44.3078
-45.9828
-47.2403
-47.9093
-47.8738
-46.7276
-44.2509
-40.0466
-33.4723
-24.1637
-11.0464
6.37551
29.4508
60.2352
100.977
8.84915
8.25122
7.29672
6.33031
5.37011
4.40833
3.43444
2.46145
1.46277
0.472013
-0.530444
-1.53939
-2.54294
-3.54114
-4.52984
-5.51871
-6.4574
-7.3965
-8.2778
-9.1117
-9.89348
-10.5938
-11.1842
-11.7086
-12.0689
-12.2721
-12.3093
-12.1113
-11.6392
-10.8469
-9.64853
-7.95029
-5.67481
-2.64214
1.26761
6.22924
12.5397
20.2807
29.7729
41.1461
54.6638
70.3708
88.2436
12.0393
11.9011
11.3008
10.6289
9.94335
9.26042
8.56899
7.89314
7.20047
6.52371
5.85547
5.17907
4.53043
3.88037
3.26681
2.64373
2.07454
1.53943
1.0369
0.604376
0.217084
-0.0694252
-0.236541
-0.302762
-0.197536
0.12029
0.636676
1.46179
2.62141
4.19299
6.2566
8.8952
12.2166
16.3388
21.3893
27.4931
34.7804
43.3846
53.3292
64.7192
77.3439
91.1124
105.479
15.7839
15.532
15.0266
14.5073
14.004
13.5264
13.057
12.6126
12.1697
11.742
11.3499
10.9569
10.6057
10.274
9.98776
9.72191
9.51202
9.36746
9.27402
9.2732
9.35139
9.53011
9.86032
10.2959
10.9214
11.7373
12.7864
14.1323
15.7571
17.7956
20.2374
23.203
26.7252
30.9235
35.8521
41.6531
48.3181
56.0124
64.6378
74.2573
84.6776
95.7837
107.252
18.6316
18.662
18.2711
17.9062
17.553
17.2409
16.9299
16.6643
16.4052
16.1467
15.936
15.7521
15.5929
15.473
15.3948
15.3606
15.3447
15.4151
15.5591
15.7827
16.1167
16.5376
17.1079
17.8065
18.6817
19.7791
21.0827
22.708
24.5929
26.8918
29.5657
32.7116
36.3991
40.7063
45.6305
51.2923
57.7457
64.9834
73.0101
81.7564
91.1105
100.895
110.923
21.3116
21.4155
21.1358
20.8996
20.6476
20.4714
20.2738
20.1722
20.0647
19.9393
19.863
19.8355
19.8253
19.8672
19.9659
20.1079
20.2597
20.5034
20.8108
21.2127
21.7516
22.3769
23.0956
24.009
25.0476
26.355
27.8114
29.6243
31.7066
34.1155
36.8589
39.9912
43.6776
47.8856
52.6699
58.0718
64.2399
70.9858
78.4393
86.5203
95.046
103.936
113.004
24.0478
24.0152
23.72
23.5309
23.2812
23.2192
23.0447
23.113
23.1605
23.1506
23.168
23.2759
23.3589
23.4939
23.7208
24.0237
24.3354
24.7139
25.0392
25.5194
26.2149
27.0253
27.869
28.9407
30.0871
31.4564
32.9267
34.791
37.0418
39.7089
42.5672
45.6687
49.2809
53.397
58.0157
63.0798
69.0033
75.4474
82.5606
90.1825
97.9372
106.163
114.56
26.6178
26.5695
26.2421
26.3106
25.7968
25.9235
25.4837
25.6722
25.8886
25.7276
25.6446
25.9213
26.0585
26.1362
26.609
27.2863
27.5679
28.0538
28.1681
28.302
29.103
30.5938
31.3487
32.4556
33.5443
34.8599
35.8237
37.1639
38.9746
42.2662
46.0874
49.0262
52.3784
56.7753
62.3608
65.7035
71.3153
79.1174
86.4341
93.4003
99.7578
107.018
114.741
72.9952
122.396
149.853
169.864
185.582
197.734
206.99
214.118
219.458
223.556
226.565
228.813
230.414
231.5
232.165
232.546
232.623
232.518
232.261
231.859
231.347
230.755
230.108
229.41
228.677
227.925
227.156
226.393
225.622
224.865
224.114
223.376
222.652
221.939
221.244
220.563
219.897
219.246
218.612
217.993
217.385
216.804
216.438
140.517
168.678
188.174
202.505
213.174
221.041
226.679
230.587
233.153
234.702
235.476
235.701
235.514
235.044
234.373
233.559
232.657
231.703
230.738
229.778
228.823
227.903
227.011
226.148
225.321
224.529
223.763
223.033
222.322
221.643
220.978
220.338
219.716
219.11
218.522
217.95
217.395
216.855
216.33
215.821
215.324
214.842
214.453
106.649
124.226
140.06
153.79
165.539
175.402
183.652
190.46
196.064
200.656
204.368
207.383
209.788
211.735
213.29
214.515
215.489
216.235
216.805
217.213
217.501
217.681
217.769
217.775
217.719
217.609
217.451
217.255
217.026
216.773
216.492
216.201
215.889
215.571
215.243
214.909
214.574
214.234
213.895
213.557
213.221
212.88
212.531
119.782
133.321
145.794
156.878
166.615
174.987
182.13
188.114
193.129
197.295
200.701
203.525
205.811
207.682
209.18
210.383
211.335
212.079
212.663
213.099
213.422
213.656
213.81
213.89
213.92
213.907
213.857
213.774
213.664
213.536
213.379
213.22
213.035
212.846
212.646
212.435
212.223
212.002
211.781
211.558
211.333
211.087
210.749
118.718
129.831
140.331
149.978
158.668
166.393
173.162
179.033
184.078
188.41
192.069
195.19
197.804
200.046
201.912
203.506
204.832
205.942
206.883
207.659
208.313
208.839
209.284
209.631
209.908
210.123
210.286
210.404
210.474
210.517
210.518
210.501
210.455
210.389
210.311
210.215
210.112
209.996
209.875
209.749
209.619
209.459
209.13
120.905
130.623
139.884
148.511
156.351
163.451
169.71
175.261
180.072
184.274
187.883
191.004
193.656
195.976
197.934
199.616
201.064
202.288
203.341
204.216
204.995
205.639
206.176
206.628
207.003
207.315
207.581
207.799
207.958
208.089
208.18
208.244
208.279
208.301
208.303
208.29
208.262
208.224
208.181
208.126
208.067
208
207.862
122.009
130.773
139.201
147.076
154.287
160.902
166.737
172.003
176.617
180.721
184.266
187.399
190.061
192.449
194.461
196.227
197.779
199.106
200.248
201.211
202.095
202.855
203.482
204.018
204.482
204.881
205.257
205.555
205.784
205.989
206.136
206.287
206.384
206.49
206.549
206.596
206.624
206.656
206.67
206.658
206.64
206.612
206.613
122.856
130.877
138.706
146.081
152.877
159.106
164.694
169.758
174.26
178.264
181.689
184.786
187.414
189.921
191.928
193.731
195.308
196.652
197.806
198.882
199.879
200.689
201.321
201.9
202.432
202.926
203.378
203.708
203.955
204.231
204.405
204.663
204.789
204.94
205.009
205.111
205.196
205.293
205.333
205.323
205.329
205.304
205.279
122.497
129.915
137.452
144.658
151.085
157.233
162.908
168.969
173.445
177.021
179.971
182.808
185.126
188.285
189.958
192.133
193.75
194.787
195.938
197.363
198.672
199.337
199.792
200.33
200.743
201.428
202.092
202.345
202.57
202.952
203.065
203.323
203.137
203.489
203.645
203.836
203.895
204.042
204.203
204.208
204.244
204.242
204.288
-62.6753
-62.1273
-61.6055
-61.0391
-60.4428
-59.8183
-59.1675
-58.4922
-57.7939
-57.0749
-56.3374
-55.5836
-54.8165
-54.0388
-53.2538
-52.4647
-51.6749
-50.8886
-50.1097
-49.3422
-48.5903
-47.8582
-47.1498
-46.4688
-45.8194
-45.2049
-44.6289
-44.0944
-43.6039
-43.1599
-42.7638
-42.4162
-42.1168
-41.8634
-41.6542
-41.4843
-41.3481
-41.2379
-41.1444
-41.0609
-40.9932
-40.8469
-40.3595
-62.1346
-61.708
-61.2987
-60.8699
-60.4313
-59.9848
-59.5313
-59.0718
-58.6072
-58.1384
-57.6661
-57.1902
-56.7103
-56.2263
-55.7377
-55.2435
-54.7432
-54.2361
-53.7208
-53.1965
-52.6628
-52.1191
-51.5639
-50.9969
-50.4172
-49.8243
-49.2177
-48.5973
-47.9625
-47.3131
-46.649
-45.9696
-45.2752
-44.5661
-43.8431
-43.1086
-42.3657
-41.6223
-40.892
-40.178
-39.4383
-38.5289
-37.9703
-61.6808
-61.3113
-60.9489
-60.5725
-60.1861
-59.7896
-59.3829
-58.9657
-58.538
-58.0999
-57.6517
-57.1933
-56.7251
-56.2464
-55.7571
-55.2572
-54.7464
-54.2245
-53.6917
-53.1481
-52.5935
-52.0277
-51.451
-50.8634
-50.2639
-49.6522
-49.0279
-48.39
-47.738
-47.0716
-46.3903
-45.6941
-44.9836
-44.2588
-43.5209
-42.7729
-42.0204
-41.2727
-40.542
-39.8271
-39.0578
-37.9845
-36.9141
-61.2616
-60.896
-60.5316
-60.1508
-59.7568
-59.3504
-58.9312
-58.4987
-58.0524
-57.5932
-57.1217
-56.6392
-56.1462
-55.6424
-55.1269
-54.5999
-54.062
-53.5132
-52.953
-52.3811
-51.798
-51.2048
-50.6015
-49.9884
-49.3656
-48.7323
-48.088
-47.4326
-46.766
-46.0885
-45.4006
-44.7032
-43.9975
-43.285
-42.5673
-41.8475
-41.1316
-40.4272
-39.7427
-39.0636
-38.3182
-37.3351
-36.2373
-60.9202
-60.5611
-60.2084
-59.8409
-59.4624
-59.0732
-58.674
-58.2637
-57.8391
-57.4015
-56.9509
-56.49
-56.0198
-55.5404
-55.0481
-54.5422
-54.0233
-53.491
-52.9452
-52.384
-51.8064
-51.2131
-50.6068
-49.9897
-49.3606
-48.719
-48.0631
-47.3925
-46.7075
-46.0072
-45.2934
-44.57
-43.8402
-43.1068
-42.3721
-41.6361
-40.9037
-40.1856
-39.4884
-38.7846
-37.9948
-37.0508
-35.9375
-60.6214
-60.2947
-59.9646
-59.6189
-59.2635
-58.8985
-58.5263
-58.1469
-57.7488
-57.3367
-56.9061
-56.4631
-56.0104
-55.5538
-55.0846
-54.5981
-54.0999
-53.5859
-53.0614
-52.5195
-51.9552
-51.3669
-50.7587
-50.14
-49.5111
-48.8716
-48.2196
-47.5495
-46.8653
-46.1649
-45.44
-44.7009
-43.9557
-43.2251
-42.5127
-41.7974
-41.0692
-40.3414
-39.6316
-38.9094
-38.078
-37.163
-36.0143
-60.4291
-60.0845
-59.7699
-59.439
-59.1005
-58.748
-58.3915
-58.039
-57.6577
-57.2661
-56.8451
-56.4123
-55.9647
-55.5305
-55.081
-54.5968
-54.1068
-53.589
-53.0777
-52.5527
-52.0043
-51.4237
-50.8065
-50.189
-49.5606
-48.9269
-48.28
-47.6157
-46.9343
-46.2401
-45.5061
-44.7665
-44.0075
-43.2355
-42.5326
-41.8627
-41.1689
-40.4592
-39.7807
-39.0812
-38.2037
-37.2198
-35.895
-60.1835
-59.8933
-59.5954
-59.2814
-58.9651
-58.6321
-58.2879
-58.0131
-57.6539
-57.3146
-56.9012
-56.4651
-55.9711
-55.5556
-55.208
-54.7433
-54.3248
-53.8043
-53.3152
-52.8498
-52.3444
-51.7895
-51.1006
-50.4377
-49.7931
-49.1685
-48.5761
-47.8915
-47.2286
-46.67
-45.8731
-45.0635
-44.1979
-43.4409
-42.9394
-42.445
-41.7752
-40.9285
-40.1417
-39.47
-38.6365
-37.7337
-36.5601
-60.2765
-59.8797
-59.541
-59.1764
-58.8551
-58.411
-57.9319
-57.6668
-57.3025
-57.0492
-56.6967
-56.4687
-55.7864
-55.1692
-54.8378
-54.2165
-53.8506
-53.2023
-52.6726
-52.1577
-51.8149
-51.6049
-50.9095
-50.2661
-49.4779
-48.7069
-48.1264
-47.6373
-46.3733
-46.1707
-45.679
-45.1805
-44.3149
-42.1238
-41.3571
-41.3391
-41.1966
-40.5659
-40.0564
-39.6699
-38.8756
-37.1747
-34.5327
-36.4208
-31.7852
-27.8523
-24.2819
-21.0743
-18.1772
-15.5507
-13.1566
-10.9579
-8.92359
-7.02438
-5.23924
-3.54943
-1.94227
-0.406414
1.06594
2.48182
3.84658
5.16414
6.43785
7.6691
8.86025
10.0128
11.1264
12.2025
13.2403
14.239
15.199
16.118
16.9965
17.8316
18.6224
19.3669
20.0634
20.7093
21.3027
21.8411
22.3218
22.7421
23.0974
23.3921
23.6412
23.7366
-35.548
-33.1146
-30.6401
-27.8789
-25.1066
-22.3827
-19.7606
-17.2617
-14.8929
-12.6533
-10.5372
-8.53726
-6.64622
-4.85681
-3.16127
-1.55289
-0.0261777
1.42451
2.80331
4.11399
5.36046
6.54514
7.67059
8.73847
9.75147
10.7111
11.6179
12.4736
13.2781
14.0328
14.7375
15.3927
15.9979
16.5529
17.057
17.5089
17.9074
18.2506
18.5369
18.7597
18.91
19.0286
19.176
-34.199
-31.873
-29.5685
-27.1663
-24.8011
-22.4574
-20.1721
-17.9619
-15.8385
-13.8082
-11.8727
-10.0317
-8.28311
-6.62323
-5.04856
-3.55442
-2.13727
-0.792433
0.483153
1.69312
2.84062
3.92866
4.9595
5.93538
6.85825
7.72906
8.54908
9.31983
10.0415
10.7146
11.3394
11.9159
12.4432
12.922
13.3508
13.7284
14.0533
14.3247
14.5417
14.696
14.7758
14.864
15.0951
-33.874
-31.7622
-29.5608
-27.332
-25.1426
-22.9855
-20.8932
-18.8725
-16.9313
-15.0725
-13.2967
-11.6047
-9.99339
-8.46136
-7.00554
-5.62284
-4.31064
-3.06491
-1.88326
-0.763084
0.29853
1.30374
2.25511
3.153
3.99961
4.79652
5.54465
6.24465
6.89781
7.50338
8.06302
8.57556
9.04168
9.46143
9.83275
10.1558
10.4287
10.6512
10.8207
10.9272
10.9542
10.9863
11.1038
-33.8388
-31.9378
-29.9199
-27.88
-25.8413
-23.8235
-21.858
-19.9539
-18.1205
-16.3623
-14.6809
-13.0772
-11.5497
-10.0968
-8.71682
-7.40796
-6.16712
-4.99234
-3.8811
-2.83028
-1.83744
-0.90166
-0.0198848
0.808524
1.58415
2.31003
2.98722
3.61684
4.19954
4.73508
5.22458
5.66857
6.06851
6.4234
6.73172
6.9943
7.21058
7.38189
7.50377
7.57252
7.5807
7.60769
7.77911
-34.0105
-32.1864
-30.2674
-28.3368
-26.4045
-24.4992
-22.6414
-20.8386
-19.1005
-17.4326
-15.8366
-14.3138
-12.8639
-11.4853
-10.178
-8.94119
-7.77167
-6.66716
-5.62555
-4.64315
-3.71757
-2.84902
-2.03559
-1.27582
-0.569696
0.0873561
0.697846
1.26209
1.7787
2.24777
2.67088
3.05282
3.39429
3.69104
3.94177
4.15008
4.31494
4.44333
4.52123
4.55068
4.5259
4.47543
4.44859
-33.9088
-32.2535
-30.4751
-28.6681
-26.857
-25.073
-23.3167
-21.612
-19.9656
-18.3867
-16.8741
-15.4301
-14.055
-12.7471
-11.5098
-10.3425
-9.24214
-8.20441
-7.2282
-6.30975
-5.44635
-4.64284
-3.89372
-3.19672
-2.55791
-1.96394
-1.40931
-0.902935
-0.445221
-0.0337079
0.329434
0.660463
0.952103
1.19754
1.39672
1.56073
1.68009
1.77793
1.81258
1.80175
1.74046
1.63856
1.55135
-34.7492
-33.0981
-31.1983
-29.2006
-27.4039
-25.6644
-23.9756
-22.3513
-20.7642
-19.2631
-17.817
-16.4415
-15.1288
-13.8712
-12.6942
-11.594
-10.5579
-9.57727
-8.6588
-7.79793
-6.98053
-6.23175
-5.53195
-4.88529
-4.32216
-3.7828
-3.26516
-2.80711
-2.40934
-2.06457
-1.78318
-1.47823
-1.21501
-1.03215
-0.891643
-0.768118
-0.697157
-0.601149
-0.621349
-0.657997
-0.739292
-0.798676
-0.761534
-32.4834
-32.2337
-30.7922
-29.042
-27.6875
-26.2452
-24.5823
-23.0663
-21.5322
-20.1563
-18.7683
-17.4484
-16.1909
-14.9668
-13.8768
-12.8515
-11.8652
-10.9255
-10.0686
-9.25412
-8.44849
-7.78743
-7.15918
-6.60694
-6.18306
-5.62441
-5.10318
-4.74175
-4.43887
-4.17006
-3.96692
-3.50233
-3.28653
-3.21907
-3.1721
-3.021
-2.98052
-2.75948
-2.89502
-2.96139
-3.14584
-3.24637
-3.33295
-657.397
-599.274
-532.022
-480.412
-433.435
-387.777
-345.688
-308.046
-274.728
-245.264
-219.474
-196.867
-177.078
-159.761
-144.618
-131.267
-119.51
-109.083
-99.7967
-91.4622
-83.9509
-77.126
-70.9094
-65.1929
-59.9195
-55.0188
-50.4623
-46.1921
-42.1941
-38.4265
-34.8682
-31.5024
-28.3137
-25.2868
-22.4117
-19.6748
-17.0673
-14.5872
-12.2169
-9.95304
-7.78472
-5.715
-4.10416
-388.996
-384.879
-372.886
-358.013
-340.851
-321.965
-302.263
-282.339
-262.569
-243.194
-224.634
-207.039
-190.543
-175.205
-161.067
-148.039
-136.105
-125.164
-115.183
-106.035
-97.6807
-90.0006
-82.9514
-76.4467
-70.4422
-64.8546
-59.6797
-54.8429
-50.3352
-46.1003
-42.1209
-38.3734
-34.8428
-31.5007
-28.3398
-25.342
-22.496
-19.7965
-17.2214
-14.7736
-12.4341
-10.1958
-8.32263
-304.947
-304.744
-302.686
-296.833
-288.752
-279.288
-268.72
-257.255
-245.153
-232.606
-219.875
-207.071
-194.412
-182.049
-170.123
-158.683
-147.826
-137.518
-127.842
-118.712
-110.185
-102.198
-94.7263
-87.7467
-81.224
-75.1179
-69.4111
-64.0551
-59.0412
-54.3267
-49.8954
-45.7162
-41.7826
-38.068
-34.5569
-31.2288
-28.0806
-25.0974
-22.2583
-19.5618
-16.988
-14.5463
-12.611
-254.931
-255.536
-256.097
-255.066
-252.19
-247.791
-242.129
-235.396
-227.777
-219.424
-210.541
-201.248
-191.668
-181.949
-172.22
-162.579
-153.157
-143.974
-135.128
-126.615
-118.478
-110.72
-103.351
-96.3589
-89.7267
-83.4672
-77.5426
-71.9437
-66.6534
-61.6492
-56.9294
-52.4538
-48.2259
-44.2198
-40.4308
-36.8309
-33.4203
-30.1836
-27.1069
-24.1874
-21.4064
-18.7942
-17.0711
-223.989
-224.411
-224.91
-224.66
-223.383
-221.017
-217.672
-213.463
-208.512
-202.892
-196.72
-190.074
-183.041
-175.707
-168.122
-160.409
-152.638
-144.913
-137.26
-129.761
-122.441
-115.321
-108.451
-101.822
-95.4515
-89.353
-83.5076
-77.9261
-72.6086
-67.5339
-62.7083
-58.1065
-53.7289
-49.5606
-45.6022
-41.8279
-38.2421
-34.8202
-31.5612
-28.4514
-25.4744
-22.5968
-20.1875
-199.988
-200.349
-200.789
-200.848
-200.323
-199.115
-197.194
-194.595
-191.354
-187.534
-183.204
-178.408
-173.211
-167.678
-161.829
-155.742
-149.466
-143.076
-136.629
-130.176
-123.774
-117.436
-111.215
-105.124
-99.1845
-93.4204
-87.8435
-82.4476
-77.2464
-72.2424
-67.4412
-62.8335
-58.4186
-54.1848
-50.1485
-46.2734
-42.5789
-39.0402
-35.6581
-32.4229
-29.3229
-26.3324
-23.9034
-181.364
-181.677
-182.097
-182.273
-182.117
-181.518
-180.421
-178.795
-176.658
-174.036
-170.957
-167.456
-163.583
-159.367
-154.84
-150.032
-144.986
-139.741
-134.363
-128.881
-123.361
-117.807
-112.279
-106.793
-101.374
-96.0402
-90.8201
-85.721
-80.7479
-75.9213
-71.2467
-66.7226
-62.3606
-58.1454
-54.097
-50.1907
-46.4513
-42.8501
-39.3996
-36.08
-32.8979
-29.8372
-27.6198
-166.6
-166.881
-167.259
-167.48
-167.473
-167.175
-166.528
-165.49
-164.055
-162.229
-160.022
-157.446
-154.523
-151.283
-147.752
-143.946
-139.881
-135.601
-131.129
-126.509
-121.786
-116.972
-112.12
-107.237
-102.357
-97.5056
-92.6896
-87.9489
-83.2781
-78.6956
-74.2199
-69.8512
-65.6042
-61.4767
-57.4799
-53.6057
-49.8658
-46.2529
-42.7718
-39.4015
-36.1504
-33.0046
-30.6686
-154.651
-154.894
-155.233
-155.46
-155.527
-155.399
-155.025
-154.362
-153.38
-152.076
-150.459
-148.532
-146.304
-143.792
-141.009
-137.971
-134.688
-131.178
-127.465
-123.577
-119.541
-115.395
-111.149
-106.841
-102.482
-98.1066
-93.7216
-89.3501
-85.013
-80.7193
-76.4839
-72.3188
-68.2368
-64.2401
-60.3453
-56.549
-52.8603
-49.2768
-45.8041
-42.4376
-39.1791
-36.0423
-33.7704
-144.838
-145.049
-145.345
-145.566
-145.674
-145.639
-145.425
-144.989
-144.312
-143.383
-142.188
-140.729
-139.008
-137.036
-134.82
-132.368
-129.689
-126.788
-123.69
-120.407
-116.961
-113.387
-109.682
-105.893
-102.019
-98.0906
-94.1205
-90.1267
-86.1229
-82.1354
-78.1631
-74.2276
-70.3435
-66.509
-62.7532
-59.0613
-55.4598
-51.942
-48.5157
-45.1881
-41.9621
-38.8451
-36.5333
-136.686
-136.873
-137.135
-137.34
-137.467
-137.487
-137.371
-137.084
-136.602
-135.912
-135.011
-133.889
-132.54
-130.974
-129.19
-127.195
-124.993
-122.586
-119.99
-117.205
-114.257
-111.165
-107.938
-104.6
-101.163
-97.6481
-94.0613
-90.4281
-86.7543
-83.0673
-79.366
-75.6739
-72.0024
-68.356
-64.755
-61.1989
-57.7055
-54.2698
-50.9119
-47.6254
-44.4143
-41.2645
-38.6469
-129.88
-130.042
-130.271
-130.457
-130.582
-130.629
-130.57
-130.38
-130.04
-129.527
-128.832
-127.952
-126.886
-125.626
-124.173
-122.53
-120.7
-118.681
-116.481
-114.106
-111.569
-108.884
-106.064
-103.118
-100.068
-96.9191
-93.6865
-90.3881
-87.026
-83.6293
-80.1946
-76.7489
-73.2919
-69.8429
-66.4104
-63.0038
-59.6353
-56.3058
-53.0348
-49.8102
-46.6521
-43.5408
-40.8838
-124.154
-124.289
-124.484
-124.653
-124.776
-124.834
-124.81
-124.68
-124.425
-124.032
-123.492
-122.794
-121.93
-120.897
-119.696
-118.326
-116.786
-115.08
-113.205
-111.17
-108.974
-106.635
-104.157
-101.555
-98.8387
-96.0186
-93.1027
-90.1088
-87.0384
-83.9108
-80.7345
-77.5222
-74.2849
-71.0316
-67.7752
-64.527
-61.2929
-58.082
-54.9128
-51.7727
-48.6869
-45.6506
-43.131
-119.26
-119.38
-119.554
-119.703
-119.814
-119.876
-119.875
-119.786
-119.596
-119.293
-118.864
-118.299
-117.593
-116.739
-115.736
-114.583
-113.279
-111.822
-110.209
-108.445
-106.531
-104.482
-102.294
-99.9858
-97.5591
-95.0255
-92.3922
-89.668
-86.8653
-83.9871
-81.0514
-78.0633
-75.0347
-71.9749
-68.8943
-65.8033
-62.717
-59.6308
-56.5685
-53.5269
-50.5193
-47.5554
-45.1488
-115.089
-115.192
-115.342
-115.473
-115.577
-115.644
-115.656
-115.596
-115.45
-115.211
-114.861
-114.394
-113.807
-113.092
-112.246
-111.264
-110.144
-108.883
-107.483
-105.943
-104.265
-102.455
-100.514
-98.4566
-96.2806
-93.9957
-91.6122
-89.1315
-86.566
-83.9203
-81.2034
-78.4256
-75.5949
-72.7228
-69.8153
-66.8818
-63.9358
-60.9792
-58.028
-55.0822
-52.151
-49.2279
-46.7663
-111.539
-111.628
-111.755
-111.871
-111.964
-112.021
-112.031
-111.985
-111.868
-111.668
-111.381
-110.993
-110.495
-109.883
-109.156
-108.307
-107.336
-106.241
-105.018
-103.666
-102.185
-100.578
-98.8472
-97.0003
-95.0418
-92.9746
-90.8083
-88.5436
-86.1907
-83.7531
-81.2403
-78.6562
-76.011
-73.3151
-70.5708
-67.7933
-64.9861
-62.1577
-59.3225
-56.4741
-53.6348
-50.7847
-48.3298
-108.461
-108.54
-108.655
-108.755
-108.836
-108.89
-108.909
-108.878
-108.786
-108.622
-108.374
-108.04
-107.614
-107.087
-106.458
-105.72
-104.868
-103.902
-102.817
-101.615
-100.293
-98.8548
-97.3012
-95.6382
-93.8663
-91.9882
-90.0124
-87.9387
-85.7742
-83.5241
-81.1938
-78.7889
-76.3159
-73.7849
-71.1983
-68.5658
-65.8962
-63.1946
-60.4747
-57.7284
-54.9781
-52.2172
-49.8579
-105.833
-105.898
-105.994
-106.08
-106.151
-106.2
-106.212
-106.18
-106.095
-105.952
-105.743
-105.454
-105.083
-104.623
-104.068
-103.414
-102.661
-101.806
-100.843
-99.7707
-98.5871
-97.2936
-95.8896
-94.3803
-92.768
-91.0535
-89.2441
-87.3393
-85.3432
-83.2611
-81.0961
-78.8551
-76.5417
-74.1605
-71.7234
-69.2301
-66.693
-64.1147
-61.5072
-58.8704
-56.218
-53.5475
-51.3327
-103.6
-103.652
-103.731
-103.801
-103.857
-103.891
-103.897
-103.869
-103.797
-103.67
-103.479
-103.221
-102.893
-102.482
-101.988
-101.408
-100.734
-99.9629
-99.0931
-98.1242
-97.0537
-95.8809
-94.6061
-93.2318
-91.7588
-90.1887
-88.523
-86.7658
-84.9192
-82.9855
-80.9698
-78.8762
-76.7074
-74.4685
-72.1668
-69.8067
-67.3944
-64.9349
-62.4367
-59.9016
-57.3346
-54.7287
-52.5524
-101.621
-101.666
-101.736
-101.796
-101.846
-101.877
-101.884
-101.856
-101.786
-101.67
-101.501
-101.27
-100.97
-100.601
-100.155
-99.6301
-99.0231
-98.3295
-97.5445
-96.6657
-95.6912
-94.6212
-93.4545
-92.1945
-90.8384
-89.3923
-87.8535
-86.2275
-84.5139
-82.714
-80.8318
-78.8711
-76.835
-74.7268
-72.5508
-70.3142
-68.0203
-65.6737
-63.283
-60.8481
-58.3778
-55.8728
-53.8358
-99.938
-99.9742
-100.031
-100.08
-100.119
-100.141
-100.141
-100.112
-100.047
-99.9401
-99.7836
-99.5738
-99.3046
-98.9699
-98.5668
-98.0887
-97.5329
-96.8969
-96.1774
-95.3739
-94.4825
-93.4993
-92.4266
-91.2644
-90.0142
-88.6754
-87.2491
-85.7359
-84.1377
-82.4578
-80.695
-78.8545
-76.9398
-74.9493
-72.8913
-70.77
-68.5864
-66.3492
-64.0629
-61.7314
-59.3675
-56.9688
-55.0215
-98.472
-98.5055
-98.5536
-98.5934
-98.6248
-98.6415
-98.6375
-98.6065
-98.5435
-98.4411
-98.2938
-98.0983
-97.8498
-97.5418
-97.1702
-96.7325
-96.223
-95.6396
-94.9779
-94.2357
-93.4134
-92.506
-91.5161
-90.4382
-89.2767
-88.0314
-86.7037
-85.2925
-83.7983
-82.2248
-80.5702
-78.8375
-77.0316
-75.1492
-73.1997
-71.1837
-69.1023
-66.9656
-64.7762
-62.5354
-60.2513
-57.9041
-55.8079
-97.2335
-97.2597
-97.3001
-97.3329
-97.3564
-97.3651
-97.3541
-97.3195
-97.2568
-97.1595
-97.0224
-96.8393
-96.6056
-96.3173
-95.9698
-95.5618
-95.0898
-94.5484
-93.936
-93.249
-92.4853
-91.6411
-90.7189
-89.7157
-88.6338
-87.4706
-86.2269
-84.9034
-83.5013
-82.0199
-80.4633
-78.8272
-77.1195
-75.3365
-73.4854
-71.5666
-69.5814
-67.539
-65.4388
-63.2823
-61.0771
-58.8125
-56.7813
-96.1637
-96.1865
-96.2199
-96.2447
-96.2607
-96.2653
-96.2528
-96.2164
-96.1517
-96.0551
-95.9215
-95.7466
-95.5264
-95.2573
-94.9353
-94.5542
-94.1118
-93.6069
-93.0342
-92.39
-91.6758
-90.8865
-90.0243
-89.0856
-88.0704
-86.9787
-85.8113
-84.5679
-83.2479
-81.8502
-80.3792
-78.8318
-77.2122
-75.5201
-73.7591
-71.9287
-70.0338
-68.0798
-66.0658
-63.9988
-61.8807
-59.7217
-57.9934
-95.3209
-95.3298
-95.3468
-95.3581
-95.3627
-95.355
-95.3303
-95.2852
-95.2161
-95.118
-94.9874
-94.8201
-94.6099
-94.3533
-94.0466
-93.687
-93.271
-92.7941
-92.2562
-91.6534
-90.9835
-90.242
-89.4299
-88.5469
-87.5907
-86.5621
-85.4619
-84.2855
-83.0374
-81.7154
-80.3213
-78.8541
-77.3141
-75.7034
-74.024
-72.2772
-70.4635
-68.5886
-66.6525
-64.6574
-62.6035
-60.483
-58.7116
-94.525
-94.5367
-94.557
-94.5674
-94.5693
-94.5598
-94.5346
-94.4908
-94.4239
-94.3289
-94.2007
-94.035
-93.8307
-93.5843
-93.2911
-92.9496
-92.5551
-92.1043
-91.5949
-91.0236
-90.3911
-89.6918
-88.9264
-88.0917
-87.1879
-86.2147
-85.1723
-84.058
-82.8748
-81.6191
-80.2928
-78.8961
-77.4294
-75.8921
-74.288
-72.616
-70.8796
-69.0788
-67.2217
-65.3061
-63.3401
-61.3294
-59.7811
-93.8992
-93.9073
-93.9205
-93.9246
-93.9197
-93.9044
-93.875
-93.8253
-93.7522
-93.6532
-93.5263
-93.3685
-93.1731
-92.9373
-92.659
-92.3326
-91.9562
-91.5277
-91.0439
-90.5011
-89.8976
-89.2327
-88.5058
-87.7132
-86.8556
-85.9304
-84.9405
-83.8811
-82.7549
-81.5585
-80.2956
-78.9624
-77.561
-76.0904
-74.5546
-72.9498
-71.2831
-69.5497
-67.7585
-65.9041
-63.9896
-62.002
-60.2868
-93.4535
-93.4477
-93.4463
-93.4372
-93.4211
-93.3941
-93.3529
-93.2952
-93.2187
-93.12
-92.993
-92.8326
-92.6385
-92.4082
-92.1355
-91.8191
-91.4565
-91.0455
-90.584
-90.0676
-89.4944
-88.8606
-88.1658
-87.4104
-86.5934
-85.7111
-84.7665
-83.7546
-82.6783
-81.5353
-80.3276
-79.0523
-77.7097
-76.3013
-74.8264
-73.2851
-71.6801
-70.0117
-68.2834
-66.4945
-64.6499
-62.7531
-61.2431
-93.0098
-93.008
-93.0086
-92.9997
-92.9827
-92.9547
-92.9131
-92.8547
-92.7753
-92.6717
-92.5424
-92.3861
-92.1978
-91.9716
-91.7082
-91.4053
-91.058
-90.6614
-90.2139
-89.7157
-89.1656
-88.5601
-87.8968
-87.1746
-86.3921
-85.5482
-84.6441
-83.6763
-82.6462
-81.5516
-80.3918
-79.1689
-77.8795
-76.5251
-75.1061
-73.6222
-72.0744
-70.4639
-68.7915
-67.0572
-65.2598
-63.3882
-61.7369
-92.693
-92.6854
-92.6804
-92.6648
-92.6409
-92.6074
-92.5619
-92.5002
-92.4195
-92.3168
-92.1893
-92.0329
-91.8454
-91.6263
-91.3707
-91.0736
-90.7351
-90.3539
-89.9267
-89.449
-88.9184
-88.3347
-87.697
-87.0022
-86.2509
-85.4414
-84.5718
-83.6427
-82.6524
-81.6008
-80.4867
-79.3098
-78.0697
-76.7645
-75.397
-73.9654
-72.4706
-70.9129
-69.2923
-67.6102
-65.8634
-64.0456
-62.4177
-92.4775
-92.4646
-92.4526
-92.4317
-92.4036
-92.3642
-92.3109
-92.2422
-92.1564
-92.0512
-91.9224
-91.7675
-91.5835
-91.3662
-91.1143
-90.8252
-90.4964
-90.1246
-89.7083
-89.2459
-88.7351
-88.1725
-87.5572
-86.8891
-86.1663
-85.3856
-84.5482
-83.6533
-82.699
-81.6854
-80.6121
-79.4757
-78.2805
-77.0204
-75.7003
-74.3157
-72.8703
-71.3627
-69.7927
-68.1618
-66.4684
-64.7146
-63.1846
-92.3066
-92.2957
-92.2839
-92.2605
-92.2273
-92.184
-92.1293
-92.0603
-91.9726
-91.8639
-91.7325
-91.5752
-91.3907
-91.1757
-90.9277
-90.6451
-90.3249
-89.9635
-89.56
-89.1107
-88.6141
-88.0695
-87.4754
-86.828
-86.1285
-85.3762
-84.5686
-83.705
-82.7834
-81.8042
-80.7672
-79.6685
-78.5124
-77.294
-76.0163
-74.6752
-73.2755
-71.8135
-70.292
-68.7101
-67.0679
-65.3683
-63.9254
-92.2319
-92.2152
-92.1968
-92.1677
-92.1308
-92.0834
-92.0228
-91.9469
-91.8548
-91.7437
-91.6113
-91.4548
-91.2708
-91.0591
-90.8164
-90.5381
-90.2227
-89.8681
-89.4732
-89.0357
-88.5543
-88.0252
-87.4492
-86.8228
-86.1454
-85.4149
-84.6308
-83.7939
-82.9016
-81.9534
-80.949
-79.8853
-78.7649
-77.5847
-76.3454
-75.0447
-73.6859
-72.2661
-70.7871
-69.2464
-67.6443
-65.9763
-64.5474
-92.2145
-92.1931
-92.1694
-92.1354
-92.0921
-92.0393
-91.9752
-91.8969
-91.8023
-91.6893
-91.555
-91.3972
-91.2146
-91.0028
-90.759
-90.4839
-90.1752
-89.83
-89.4453
-89.0179
-88.5476
-88.0323
-87.4704
-86.8597
-86.2012
-85.4928
-84.7329
-83.9205
-83.0543
-82.1338
-81.1586
-80.1272
-79.0386
-77.8932
-76.6876
-75.4251
-74.1038
-72.7222
-71.2835
-69.7842
-68.2271
-66.6076
-65.2293
-92.2357
-92.2178
-92.1944
-92.1583
-92.1135
-92.0573
-91.9885
-91.9069
-91.8086
-91.6913
-91.5543
-91.3954
-91.2113
-90.9999
-90.7609
-90.4905
-90.185
-89.8439
-89.4651
-89.0465
-88.5861
-88.0825
-87.5356
-86.9424
-86.3019
-85.612
-84.8722
-84.082
-83.2392
-82.3437
-81.3944
-80.3915
-79.3317
-78.2173
-77.0443
-75.8155
-74.528
-73.182
-71.7802
-70.3169
-68.796
-67.2098
-65.8317
-92.3257
-92.3007
-92.2719
-92.2323
-92.1835
-92.1248
-92.0533
-91.9674
-91.8665
-91.7484
-91.6102
-91.4498
-91.2657
-91.0561
-90.8172
-90.5474
-90.245
-89.9082
-89.5353
-89.125
-88.676
-88.1836
-87.6471
-87.0665
-86.4395
-85.7656
-85.0437
-84.2731
-83.4517
-82.5798
-81.6551
-80.6781
-79.6449
-78.5579
-77.4152
-76.2161
-74.9606
-73.6473
-72.2786
-70.851
-69.3665
-67.8196
-66.4538
-92.4866
-92.4572
-92.4218
-92.374
-92.317
-92.2504
-92.1733
-92.0831
-91.9766
-91.8526
-91.71
-91.5466
-91.3604
-91.149
-90.9107
-90.6439
-90.3466
-90.0161
-89.6499
-89.2455
-88.8011
-88.318
-87.7931
-87.2247
-86.6122
-85.9544
-85.2492
-84.4965
-83.6939
-82.8424
-81.9387
-80.9846
-79.9765
-78.915
-77.7995
-76.6278
-75.4014
-74.1174
-72.7778
-71.3809
-69.9243
-68.4049
-67.0391
-92.6184
-92.5944
-92.5643
-92.5212
-92.4673
-92.4021
-92.3233
-92.2305
-92.1238
-92.0012
-91.8599
-91.6967
-91.5102
-91.2992
-91.0615
-90.7948
-90.497
-90.1675
-89.804
-89.4053
-88.9694
-88.495
-87.9796
-87.4226
-86.821
-86.1761
-85.4855
-84.7486
-83.9631
-83.13
-82.2459
-81.3121
-80.3263
-79.2878
-78.1963
-77.0506
-75.8502
-74.5937
-73.2813
-71.9125
-70.4842
-68.9962
-67.6665
-92.8581
-92.8288
-92.7893
-92.7376
-92.6768
-92.6053
-92.5227
-92.4272
-92.3155
-92.186
-92.0383
-91.8717
-91.6847
-91.4733
-91.2358
-90.9716
-90.6778
-90.3523
-89.9936
-89.6005
-89.171
-88.7024
-88.1948
-87.6475
-87.0583
-86.4256
-85.7471
-85.0242
-84.2552
-83.4387
-82.5734
-81.6589
-80.693
-79.677
-78.607
-77.4844
-76.3081
-75.0761
-73.7899
-72.4451
-71.0421
-69.577
-68.275
-93.1247
-93.089
-93.0451
-92.9898
-92.9238
-92.8474
-92.7597
-92.6593
-92.5453
-92.4148
-92.2667
-92.0985
-91.9081
-91.6948
-91.4576
-91.1931
-90.8996
-90.5767
-90.2217
-89.8321
-89.4068
-88.9459
-88.4461
-87.906
-87.3247
-86.703
-86.0377
-85.3281
-84.5729
-83.7706
-82.9214
-82.0239
-81.0763
-80.0802
-79.0302
-77.9294
-76.7747
-75.5668
-74.3046
-72.9842
-71.608
-70.1713
-68.9355
-93.4031
-93.365
-93.3202
-93.2627
-93.1959
-93.1179
-93.027
-92.9224
-92.8042
-92.671
-92.5198
-92.3494
-92.1587
-91.9448
-91.7067
-91.4427
-91.1511
-90.8292
-90.4759
-90.0907
-89.6711
-89.2148
-88.7214
-88.1899
-87.6186
-87.0063
-86.3507
-85.652
-84.9106
-84.1231
-83.2888
-82.4074
-81.4764
-80.4971
-79.4659
-78.3857
-77.2508
-76.0649
-74.8249
-73.5287
-72.179
-70.7695
-69.5907
-93.6893
-93.6555
-93.6122
-93.5547
-93.485
-93.4043
-93.3121
-93.2079
-93.0886
-92.9528
-92.8012
-92.6302
-92.4382
-92.2248
-91.9869
-91.7231
-91.4321
-91.1123
-90.7625
-90.3795
-89.9631
-89.5123
-89.0255
-88.5008
-87.9372
-87.3333
-86.6879
-86.0008
-85.2693
-84.4932
-83.6723
-82.8051
-81.8908
-80.9274
-79.9144
-78.852
-77.7359
-76.5691
-75.3491
-74.0731
-72.7415
-71.3424
-70.1243
-94.0155
-93.9787
-93.9327
-93.8725
-93.8029
-93.7222
-93.63
-93.5244
-93.4036
-93.2665