/*--------------------------------*- C++ -*----------------------------------*\
| =========                 |                                                 |
| \\      /  F ield         | OpenFOAM: The Open Source CFD Toolbox           |
|  \\    /   O peration     | Version:  2.3.0                                 |
|   \\  /    A nd           | Web:      www.OpenFOAM.org                      |
|    \\/     M anipulation  |                                                 |
\*---------------------------------------------------------------------------*/
FoamFile
{
    version     2.0;
    format      ascii;
    class       surfaceScalarField;
    location    "10000";
    object      phi;
}
// * * * * * * * * * * * * * * * * * * * * * * * * * * * * * * * * * * * * * //

dimensions      [0 3 -1 0 0 0 0];

internalField   nonuniform List<scalar> 
242944
(
-0.000409854
-0.00253107
0.00276964
0.00017129
-0.000632332
-0.00244536
0.00266784
-0.000840532
-0.00236129
0.00256949
-0.00103485
-0.00228192
0.00247623
-0.0012128
-0.00220655
0.0023845
-0.00137789
-0.00213203
0.00229713
-0.00153032
-0.00206102
0.00221345
-0.00167051
-0.00199203
0.00213222
-0.00179866
-0.00192783
0.00205598
-0.00191388
-0.00186415
0.00197937
-0.00202054
-0.00180222
0.00190887
-0.00211534
-0.00174447
0.00183928
-0.0021994
-0.00168874
0.00177279
-0.00227496
-0.00163296
0.00170853
-0.00233907
-0.00158169
0.00164581
-0.00239665
-0.00153035
0.00158793
-0.00244538
-0.00148152
0.00153025
-0.00248553
-0.00143569
0.00147584
-0.00251823
-0.00138994
0.00142263
-0.00254493
-0.00134631
0.00137301
-0.00256381
-0.00130419
0.00132308
-0.00257859
-0.00126291
0.00127769
-0.002587
-0.00122401
0.00123243
-0.00259028
-0.00118652
0.0011898
-0.00258943
-0.00114956
0.00114871
-0.00258479
-0.00111341
0.00110877
-0.00257518
-0.00107961
0.00107
-0.0025645
-0.00104647
0.00103579
-0.00254969
-0.00101382
0.000999002
-0.00253478
-0.000981517
0.00096661
-0.00251832
-0.000949379
0.000932922
-0.00250253
-0.000917165
0.000901372
-0.00248175
-0.000888531
0.00086775
-0.00246385
-0.000855435
0.000837535
-0.00244468
-0.000823219
0.000804055
-0.00242393
-0.00079149
0.000770733
-0.00240308
-0.000753215
0.000732369
-0.00237712
-0.000718107
0.000692149
-0.0023518
-0.000671974
0.000646657
-0.00231923
-0.000626649
0.000594076
-0.00228147
-0.000569818
0.000532059
-0.00223211
-0.000508704
0.000459343
-0.000431261
-0.00217219
0.000371339
-0.000377223
-0.00231584
0.000161984
-0.000577317
-0.00224526
-0.000762742
-0.00217586
-0.000936126
-0.00210854
-0.00109718
-0.00204549
-0.00124443
-0.00198478
-0.00137995
-0.0019255
-0.00150371
-0.00186828
-0.00161656
-0.00181497
-0.00171977
-0.00176094
-0.00181116
-0.00171083
-0.00189356
-0.00166208
-0.00196763
-0.00161467
-0.00203181
-0.00156878
-0.00208836
-0.00152514
-0.00213449
-0.00148422
-0.00217439
-0.00144162
-0.00220575
-0.00140433
-0.00223061
-0.00136508
-0.00224883
-0.00132809
-0.00226089
-0.00129213
-0.00226534
-0.00125847
-0.00226551
-0.00122384
-0.00225902
-0.00119301
-0.00224907
-0.00115951
-0.00223267
-0.0011298
-0.00221189
-0.00110039
-0.00218875
-0.00106961
-0.00216198
-0.00104059
-0.00213195
-0.00101154
-0.00209902
-0.00098231
-0.00206349
-0.000952697
-0.00202776
-0.000924266
-0.00198997
-0.000893217
-0.00195029
-0.000862903
-0.00191053
-0.00083125
-0.00186775
-0.000795995
-0.0018232
-0.000762658
-0.00176992
-0.000725256
-0.00170893
-0.000687639
-0.00163468
-0.000644068
-0.00153876
-0.000604624
-0.000558944
-0.00141107
-0.000345413
-0.00212213
0.000151703
-0.000526157
-0.00206452
-0.000692833
-0.00200919
-0.000846508
-0.00195486
-0.000989141
-0.00190286
-0.00112206
-0.00185186
-0.00124237
-0.00180519
-0.00135338
-0.00175727
-0.00145385
-0.0017145
-0.00154438
-0.00167041
-0.00162646
-0.00162874
-0.00169859
-0.00158994
-0.00176292
-0.00155034
-0.00181835
-0.00151336
-0.00186622
-0.00147727
-0.00190702
-0.00144342
-0.00193955
-0.00140909
-0.0019671
-0.00137678
-0.00198664
-0.00134553
-0.00200004
-0.0013147
-0.00200627
-0.0012859
-0.00200809
-0.00125665
-0.00200446
-0.00122747
-0.0019957
-0.00120177
-0.00198025
-0.00117496
-0.00196311
-0.00114695
-0.00194138
-0.00112212
-0.00191358
-0.0010974
-0.00188315
-0.00107103
-0.00184859
-0.0010461
-0.00181003
-0.00102087
-0.00176754
-0.000995189
-0.00172296
-0.000968838
-0.00167449
-0.000941693
-0.00162388
-0.000913509
-0.00156925
-0.00088588
-0.00151009
-0.000855157
-0.001448
-0.000824745
-0.00138043
-0.000792826
-0.00131028
-0.000757787
-0.00122912
-0.000725236
-0.00114501
-0.000688733
-0.000654639
-0.00104931
-0.000315233
-0.00194961
0.00014272
-0.000476801
-0.00190295
-0.000627047
-0.00185894
-0.000766892
-0.00181502
-0.000895018
-0.00177473
-0.00101214
-0.00173474
-0.00112056
-0.00169677
-0.00121881
-0.00165902
-0.00130858
-0.00162473
-0.00138881
-0.00159019
-0.00146116
-0.00155639
-0.0015248
-0.00152631
-0.00158076
-0.00149438
-0.00162838
-0.00146573
-0.00167032
-0.00143534
-0.00170437
-0.00140937
-0.00173186
-0.0013816
-0.00175443
-0.00135421
-0.00176997
-0.00132999
-0.00177946
-0.00130521
-0.00178334
-0.00128202
-0.00178224
-0.00125775
-0.00177553
-0.00123417
-0.00176541
-0.00121189
-0.00175057
-0.0011898
-0.0017295
-0.00116802
-0.00170394
-0.00114767
-0.00167713
-0.00112421
-0.00164458
-0.00110358
-0.00160957
-0.00108111
-0.00157225
-0.00105818
-0.00153114
-0.0010363
-0.00148623
-0.00101375
-0.00143753
-0.000990389
-0.00138493
-0.000966108
-0.00133175
-0.000939062
-0.00127267
-0.000914237
-0.00121254
-0.000884878
-0.00114762
-0.000857744
-0.00107741
-0.000828003
-0.00100331
-0.000799336
-0.00092314
-0.000768899
-0.000739108
-0.00083867
-0.000286915
-0.00179364
0.000130939
-0.000432738
-0.00175713
-0.000567972
-0.00172371
-0.000691421
-0.00169157
-0.000807087
-0.00165907
-0.000912813
-0.00162901
-0.00101024
-0.00159935
-0.00109689
-0.00157236
-0.00117733
-0.00154429
-0.00124886
-0.00151866
-0.00131293
-0.00149232
-0.00136998
-0.00146926
-0.0014189
-0.00144545
-0.0014625
-0.00142213
-0.00149707
-0.00140077
-0.0015281
-0.00137834
-0.00155186
-0.00135784
-0.00156851
-0.00133756
-0.00158063
-0.00131788
-0.00158767
-0.00129817
-0.00159088
-0.00127882
-0.00158724
-0.00126139
-0.00158078
-0.00124063
-0.0015677
-0.00122498
-0.00155158
-0.00120592
-0.00153106
-0.00118854
-0.00150922
-0.00116952
-0.00148172
-0.00115171
-0.00145019
-0.00113511
-0.00141623
-0.00111507
-0.00137686
-0.00109756
-0.00133688
-0.00107628
-0.00129322
-0.00105741
-0.0012475
-0.0010361
-0.00119814
-0.00101547
-0.00114497
-0.000992231
-0.00108963
-0.00096958
-0.00103029
-0.000944218
-0.000968515
-0.000919519
-0.000904095
-0.000892423
-0.000837033
-0.000866398
-0.000765576
-0.000840356
-0.000814782
-0.000689903
-0.000261303
-0.00165169
0.000119356
-0.00039159
-0.00162684
-0.000513081
-0.00160221
-0.000626001
-0.00157865
-0.000729409
-0.00155566
-0.000824918
-0.0015335
-0.000910131
-0.00151413
-0.000989278
-0.00149321
-0.00106096
-0.00147261
-0.00112461
-0.00145501
-0.00118018
-0.00143675
-0.00123185
-0.00141759
-0.00127606
-0.00140124
-0.00131257
-0.00138562
-0.00134457
-0.00136877
-0.00137057
-0.00135233
-0.0013899
-0.00133851
-0.001405
-0.00132246
-0.00141635
-0.00130653
-0.00142129
-0.00129323
-0.00142135
-0.00127875
-0.00141836
-0.00126438
-0.00140891
-0.00125007
-0.00139827
-0.00123562
-0.00138182
-0.00122237
-0.0013639
-0.00120645
-0.00133915
-0.00119428
-0.00131333
-0.00117752
-0.00128368
-0.00116476
-0.00125025
-0.00114851
-0.00121624
-0.00113157
-0.00117557
-0.00111694
-0.00113448
-0.0010985
-0.00109144
-0.00107915
-0.001045
-0.00106191
-0.000995116
-0.00104212
-0.000944847
-0.00101985
-0.0008894
-0.000999666
-0.000833484
-0.000975435
-0.000772381
-0.000953525
-0.000710782
-0.000927997
-0.000645652
-0.000905486
-0.000881809
-0.000578625
-0.000237318
-0.00152471
0.000110342
-0.00035591
-0.00150825
-0.000464973
-0.00149315
-0.000566074
-0.00147755
-0.000659486
-0.00146225
-0.000743458
-0.00144953
-0.000822386
-0.00143521
-0.000892268
-0.00142333
-0.000955489
-0.00140939
-0.00101335
-0.00139714
-0.00106508
-0.00138503
-0.00110832
-0.00137434
-0.0011466
-0.00136296
-0.0011808
-0.00135143
-0.00120814
-0.00134143
-0.0012303
-0.00133017
-0.00124951
-0.0013193
-0.00126266
-0.00130931
-0.00126955
-0.00129964
-0.0012731
-0.00128968
-0.00127334
-0.00127851
-0.00126934
-0.00126838
-0.00126113
-0.00125828
-0.00125007
-0.00124669
-0.00123479
-0.00123765
-0.00121586
-0.00122538
-0.00119447
-0.00121567
-0.00116786
-0.00120414
-0.00114199
-0.00119063
-0.0011111
-0.00117939
-0.00107672
-0.00116595
-0.00104201
-0.00115166
-0.00100395
-0.00113655
-0.000961088
-0.00112201
-0.000918048
-0.00110495
-0.000873403
-0.00108676
-0.00082546
-0.00106779
-0.000775795
-0.00104933
-0.000722868
-0.00102836
-0.000668235
-0.00100816
-0.000610536
-0.000985696
-0.000552798
-0.000963224
-0.000942538
-0.000492069
-0.000215688
-0.00140933
0.000100303
-0.000322476
-0.00140146
-0.000421523
-0.0013941
-0.000512025
-0.00138704
-0.000594296
-0.00137997
-0.00067204
-0.00137179
-0.000741077
-0.00136617
-0.000806116
-0.00135829
-0.000862276
-0.00135323
-0.00091409
-0.00134533
-0.000958796
-0.00134032
-0.000999211
-0.00133393
-0.00103426
-0.00132791
-0.00106373
-0.00132196
-0.00108828
-0.00131687
-0.0011079
-0.00131056
-0.00112279
-0.00130441
-0.00113397
-0.00129813
-0.001141
-0.00129261
-0.00114467
-0.00128601
-0.00114413
-0.00127905
-0.00113954
-0.00127298
-0.00113096
-0.00126685
-0.00111856
-0.00125909
-0.00110528
-0.00125092
-0.00108675
-0.00124392
-0.00106744
-0.00123497
-0.00104467
-0.00122691
-0.00101844
-0.00121686
-0.000990275
-0.00120755
-0.000958835
-0.00119739
-0.000925731
-0.00118476
-0.000889476
-0.00117281
-0.000851563
-0.00115993
-0.000811997
-0.00114451
-0.000769665
-0.0011291
-0.000725823
-0.00111163
-0.000680395
-0.00109476
-0.000631928
-0.00107683
-0.000581975
-0.00105811
-0.000530908
-0.00103676
-0.000477158
-0.00101697
-0.000997558
-0.000422139
-0.000194986
9.1548e-05
-0.00130589
-0.000291842
-0.00130461
-0.000380682
-0.00130526
-0.000462604
-0.00130512
-0.000539194
-0.00130338
-0.000607091
-0.00130389
-0.000670297
-0.00130296
-0.000727655
-0.00130094
-0.000779102
-0.00130179
-0.000823736
-0.00130069
-0.000864587
-0.00129947
-0.000901435
-0.00129708
-0.000932152
-0.00129719
-0.000957818
-0.00129629
-0.000981234
-0.00129346
-0.000998659
-0.00129313
-0.00101197
-0.0012911
-0.00102076
-0.00128935
-0.0010277
-0.00128566
-0.00102935
-0.00128436
-0.0010272
-0.00128121
-0.00102347
-0.00127671
-0.00101613
-0.00127419
-0.00100544
-0.00126978
-0.00099124
-0.00126512
-0.000976132
-0.00125903
-0.000956365
-0.00125474
-0.000934655
-0.00124862
-0.000911089
-0.00124043
-0.000884202
-0.00123444
-0.000855527
-0.00122607
-0.000824131
-0.00121616
-0.000792763
-0.00120418
-0.000758415
-0.00119427
-0.000720421
-0.00118251
-0.000683492
-0.00116602
-0.000642372
-0.00115275
-0.00059928
-0.00113785
-0.00055655
-0.00111956
-0.000511038
-0.00110362
-0.000463407
-0.00108439
-0.000414783
-0.0010656
-0.000366341
-0.001046
-0.00181054
-0.000379095
1.74445e-05
-0.00155045
-0.000359886
9.97974e-05
-0.00132875
-0.000357768
0.000136068
-0.00113552
-0.000358989
0.000165755
-0.000961253
-0.000367308
0.000193044
-0.000803617
-0.000376831
0.000219196
-0.000658588
-0.000389691
0.000244663
-0.000526477
-0.000402738
0.000270628
-0.000402379
-0.000419432
0.000295334
-0.000288588
-0.000434608
0.000320818
-0.000182063
-0.000451797
0.000345271
-8.28784e-05
-0.000470773
0.000371589
9.27241e-06
-0.000489212
0.000397061
9.49475e-05
-0.000509284
0.000423609
0.000175358
-0.000529863
0.000449452
0.000247904
-0.00054997
0.000477424
0.00031665
-0.00057265
0.000503904
0.000379857
-0.000595849
0.000532642
0.000436642
-0.000618636
0.000561852
0.000488031
-0.000642983
0.000591593
0.000534049
-0.000667974
0.000621957
0.000574693
-0.000693621
0.000652977
0.000609076
-0.00072089
0.000686507
0.000638038
-0.000748883
0.000719921
0.000661472
-0.000777644
0.000754211
0.000678431
-0.00080722
0.000790261
0.000690538
-0.000839405
0.000827297
0.000695063
-0.000870717
0.000866192
0.000694435
-0.000904724
0.000905352
0.000685934
-0.000938829
0.00094733
0.000671102
-0.000975689
0.000990521
0.000648884
-0.00101275
0.00103497
0.000618288
-0.00105097
0.00108156
0.000581502
-0.00109198
0.00112876
0.000535938
-0.00113426
0.00117983
0.000482133
-0.00117705
0.00123085
0.000419752
-0.00122267
0.00128505
0.000348623
-0.00126977
0.0013409
0.000267699
-0.00131826
0.00139918
0.000177359
-0.00136993
0.00146027
7.67941e-05
-0.00142171
0.00152228
-3.39054e-05
-0.00147729
0.00158799
-0.00153385
0.00165559
-0.000155648
-0.00125929
-0.000530875
-0.00110468
-0.000514504
-0.000957709
-0.000504736
-0.000818766
-0.000497932
-0.000689557
-0.000496517
-0.000568158
-0.00049823
-0.000455319
-0.000502531
-0.000349082
-0.000508976
-0.000251287
-0.000517227
-0.000158916
-0.00052698
-7.15492e-05
-0.000539163
8.89911e-06
-0.000551222
8.50389e-05
-0.000565351
0.000156014
-0.00058026
0.000222047
-0.000595896
0.000284267
-0.00061219
0.000340761
-0.000629144
0.000392617
-0.000647704
0.000440848
-0.000666867
0.000483483
-0.000685618
0.000522444
-0.000706935
0.000556698
-0.000727875
0.000585284
-0.000749476
0.000609032
-0.000772631
0.000627865
-0.000796477
0.000641635
-0.00082099
0.000649368
-0.000847137
0.00065179
-0.000873139
0.000648749
-0.000901683
0.000639238
-0.000929318
0.00062308
-0.000959532
0.000600983
-0.00099065
0.000572691
-0.00102267
0.000536472
-0.00105576
0.000492777
-0.00109057
0.000443118
-0.00112739
0.000384809
-0.00116436
0.000317736
-0.0012027
0.000243072
-0.00124359
0.000159117
-0.00128597
6.69909e-05
-0.00132959
-3.57238e-05
-0.00137458
-0.00142258
-0.000146994
-0.000949263
-0.000630925
-0.000844236
-0.000619531
-0.000741498
-0.000607474
-0.000638108
-0.000601321
-0.000539716
-0.000594909
-0.000444054
-0.000593891
-0.000352863
-0.000593722
-0.000264988
-0.000596851
-0.000180574
-0.000601641
-0.000100876
-0.000606677
-2.57926e-05
-0.000614247
4.47563e-05
-0.00062177
0.000111981
-0.000632576
0.000174799
-0.000643078
0.00023328
-0.000654377
0.000288522
-0.000667432
0.000339457
-0.00068008
0.000386141
-0.000694387
0.000427533
-0.000708259
0.000466634
-0.000724719
0.000500418
-0.000740719
0.000529815
-0.000757272
0.000554758
-0.000774418
0.000575203
-0.000793076
0.000591017
-0.000812292
0.000602123
-0.000832095
0.00060753
-0.000852544
0.000608889
-0.000874499
0.000603464
-0.000896258
0.000593712
-0.000919566
0.000578671
-0.00094449
0.000556355
-0.000968334
0.000529171
-0.00099549
0.00049544
-0.00102203
0.000454714
-0.00104984
0.000407006
-0.00107968
0.000352181
-0.00110953
0.000291302
-0.00114182
0.000222234
-0.00117452
0.000144337
-0.00120807
5.90323e-05
-0.00124428
-3.47453e-05
-0.0012808
-0.00131944
-0.000137882
-0.000751402
-0.000718193
-0.000664845
-0.000706088
-0.000578194
-0.000694125
-0.000493856
-0.000685659
-0.000409512
-0.000679253
-0.000328534
-0.00067487
-0.000251139
-0.000671117
-0.000176197
-0.000671794
-0.000105095
-0.000672743
-3.78349e-05
-0.000673937
2.67649e-05
-0.000678846
8.86543e-05
-0.00068366
0.000146663
-0.000690584
0.000200836
-0.000697252
0.000252269
-0.000705809
0.000298804
-0.000713968
0.000342599
-0.000723875
0.000382537
-0.000734325
0.000419639
-0.000745362
0.000451836
-0.000756915
0.000481059
-0.000769943
0.00050629
-0.000782503
0.000527443
-0.000795571
0.000544451
-0.000810084
0.00055724
-0.000825081
0.00056572
-0.000840575
0.000569771
-0.000856596
0.000568417
-0.000873144
0.000563312
-0.000891153
0.000552538
-0.000908791
0.000536867
-0.000928819
0.000516207
-0.000947675
0.00048964
-0.000968923
0.000457358
-0.000989747
0.000419051
-0.00101154
0.000374901
-0.00103553
0.000324076
-0.00105871
0.000266329
-0.00108407
0.000202184
-0.00111038
0.000131618
-0.00113751
5.20221e-05
-0.00116468
-3.4528e-05
-0.00119425
-0.00122472
-0.000129255
-0.000612941
-0.000795154
-0.000537533
-0.000781496
-0.000462496
-0.000769162
-0.00038969
-0.000758465
-0.000318072
-0.00075087
-0.000249273
-0.00074367
-0.000180875
-0.000739514
-0.000116969
-0.000735699
-5.50576e-05
-0.000734654
4.74345e-06
-0.000733738
6.11642e-05
-0.000735267
0.000114188
-0.000736684
0.000164944
-0.000741341
0.000212293
-0.0007446
0.000257266
-0.000750783
0.00029879
-0.000755492
0.000336833
-0.000761917
0.000372399
-0.000769891
0.000404392
-0.000777355
0.000433777
-0.0007863
0.000457576
-0.000793742
0.000479621
-0.000804548
0.000497893
-0.000813844
0.000512323
-0.000824514
0.000522822
-0.00083558
0.000529342
-0.000847095
0.000531769
-0.000859023
0.000530004
-0.000871378
0.000524004
-0.000885154
0.000513578
-0.000898365
0.000497771
-0.000913012
0.000478179
-0.000928083
0.000451993
-0.000942736
0.000421893
-0.000959648
0.000386633
-0.000976275
0.00034526
-0.000994158
0.000298325
-0.00101177
0.000245287
-0.00103103
0.000185491
-0.00105058
0.000119729
-0.00107175
4.77137e-05
-0.00109267
-3.20977e-05
-0.00111444
-0.00113835
-0.000118467
-0.000510906
-0.000862873
-0.000443619
-0.000848782
-0.00037697
-0.000835811
-0.000312598
-0.000822837
-0.000249361
-0.000814108
-0.000188759
-0.000804272
-0.000129669
-0.000798604
-7.34386e-05
-0.00079193
-1.89148e-05
-0.000789178
3.38216e-05
-0.000786475
8.34882e-05
-0.000784934
0.00013123
-0.000784425
0.000175844
-0.000785954
0.000218426
-0.000787182
0.000256779
-0.000789136
0.000294065
-0.000792778
0.000328123
-0.000795975
0.000358947
-0.000800716
0.00038649
-0.000804898
0.000411685
-0.000811496
0.000434485
-0.000816542
0.000451916
-0.000821979
0.000467769
-0.000829697
0.000480049
-0.000836793
0.000488695
-0.000844227
0.000493628
-0.000852028
0.000494764
-0.000860158
0.000492164
-0.000868778
0.000485467
-0.000878457
0.000475666
-0.000888564
0.000460754
-0.000898101
0.000441497
-0.000908825
0.000418729
-0.000919968
0.000389673
-0.000930592
0.000356724
-0.000943327
0.00031808
-0.000955514
0.000274566
-0.000968259
0.000225783
-0.00098225
0.000170919
-0.000995721
0.000109719
-0.00101055
4.29734e-05
-0.00102592
-2.98766e-05
-0.00104159
-0.00105784
-0.000110379
-0.000430984
-0.000923957
-0.000370568
-0.000909198
-0.000312247
-0.000894133
-0.000254797
-0.000880287
-0.000198441
-0.000870463
-0.000144589
-0.000858124
-9.21433e-05
-0.00085105
-4.11243e-05
-0.000842949
7.15682e-06
-0.000837459
5.27497e-05
-0.000832067
9.78697e-05
-0.000830054
0.000140127
-0.000826683
0.000179458
-0.000825285
0.000215979
-0.000823702
0.000251669
-0.000824825
0.00028439
-0.000825499
0.000314143
-0.000825728
0.00034188
-0.000828453
0.000366556
-0.000829574
0.000388128
-0.000833068
0.000407525
-0.000835938
0.000424695
-0.000839149
0.000437615
-0.000842618
0.000448172
-0.00084735
0.000454416
-0.000850471
0.000459112
-0.000856724
0.000459375
-0.000860421
0.000456944
-0.000866347
0.000450791
-0.000872304
0.000439934
-0.000877707
0.000425991
-0.000884157
0.000407395
-0.000890229
0.000385446
-0.000898019
0.00035918
-0.000904326
0.000327893
-0.000912039
0.000292156
-0.000919777
0.00025251
-0.000928614
0.000206518
-0.000936257
0.000156348
-0.000945551
0.000100385
-0.000954582
3.91654e-05
-0.000964704
-2.83832e-05
-0.000974042
-0.000984851
-0.000101376
-0.000366934
-0.000979162
-0.000313903
-0.000962229
-0.000261553
-0.000946483
-0.000208744
-0.000933096
-0.000159572
-0.000919635
-0.000110269
-0.000907427
-6.47807e-05
-0.000896538
-1.93268e-05
-0.000888403
2.36228e-05
-0.000880409
6.64496e-05
-0.000874894
0.000105422
-0.000869026
0.000142867
-0.000864128
0.000178714
-0.000861133
0.000212999
-0.000857987
0.000243322
-0.000855148
0.000272051
-0.000854228
0.000299001
-0.000852678
0.000323133
-0.000852585
0.000346355
-0.000852796
0.000364703
-0.000851416
0.000382075
-0.00085331
0.000396423
-0.000853497
0.000407725
-0.00085392
0.000415938
-0.000855562
0.000422921
-0.000857454
0.000424736
-0.000858539
0.000426188
-0.000861874
0.000422401
-0.00086256
0.000416064
-0.000865967
0.000406172
-0.000867815
0.000392736
-0.000870722
0.000376258
-0.000873751
0.000355231
-0.000876992
0.000330477
-0.000879572
0.000302229
-0.000883792
0.000269097
-0.000886645
0.000231787
-0.000891303
0.000190712
-0.000895182
0.000143709
-0.000898548
9.26767e-05
-0.00090355
3.58821e-05
-0.000907909
-2.55982e-05
-0.000912561
-0.00091805
-9.23988e-05
-0.000316383
-0.00102912
-0.000267317
-0.0010113
-0.000220278
-0.000993522
-0.000174078
-0.000979296
-0.000128763
-0.000964951
-8.46324e-05
-0.000951557
-4.33407e-05
-0.00093783
-2.79666e-06
-0.000928947
3.66622e-05
-0.000919868
7.27236e-05
-0.000910956
0.000108478
-0.00090478
0.000142776
-0.000898426
0.000174382
-0.000892739
0.000203737
-0.000887342
0.000232167
-0.000883578
0.000258477
-0.000880538
0.000282094
-0.000876295
0.000303965
-0.000874456
0.000323094
-0.000871925
0.000341439
-0.000869761
0.000355149
-0.00086702
0.000368
-0.000866348
0.000378942
-0.000864862
0.000386173
-0.000862793
0.000391101
-0.000862382
0.000394114
-0.000861552
0.00039313
-0.00086089
0.000389905
-0.000859335
0.000383595
-0.000859657
0.000374755
-0.000858975
0.000361708
-0.000857675
0.000346148
-0.000858192
0.000326902
-0.000857745
0.000304081
-0.000856751
0.000277542
-0.000857253
0.000247935
-0.000857039
0.000213409
-0.000856777
0.000174155
-0.000855927
0.000132131
-0.000856525
8.50422e-05
-0.000856461
3.27248e-05
-0.000855592
-2.33583e-05
-0.000856478
-8.50536e-05
-0.000856355
-3.54955e-05
0.00260138
-0.00283099
0.000265105
0.000175531
0.00249913
-0.00271015
0.000368012
0.00240112
-0.0025936
0.000543299
0.00230612
-0.00248141
0.000701468
0.00221488
-0.00237304
0.000843622
0.00212663
-0.00226879
0.000969863
0.00204189
-0.00216813
0.00108131
0.00196013
-0.00207157
0.00117858
0.00188109
-0.00197836
0.00126181
0.00180503
-0.00188826
0.00133237
0.00173143
-0.001802
0.00139018
0.00166078
-0.00171859
0.00143614
0.00159259
-0.00163855
0.00147067
0.0015266
-0.00156113
0.00149468
0.0014628
-0.00148681
0.00150836
0.00140166
-0.00141534
0.00151263
0.00134246
-0.00134673
0.00150771
0.00128518
-0.00128026
0.00149407
0.00123027
-0.00121663
0.00147264
0.0011768
-0.00115536
0.00144365
0.00112544
-0.00109646
0.00140782
0.00107549
-0.00103966
0.0013654
0.00102782
-0.000985399
0.00131733
0.000981073
-0.000932995
0.00126366
0.00093632
-0.00088265
0.00120532
0.000892668
-0.00083433
0.0011426
0.00085051
-0.000787791
0.00107601
0.000809598
-0.000743009
0.00100608
0.000769874
-0.000699941
0.000933327
0.00073109
-0.000658341
0.000858098
0.000693581
-0.000618353
0.000780969
0.00065685
-0.000579721
0.000702839
0.000620649
-0.000542518
0.000623616
0.000585377
-0.000506154
0.000544454
0.000550191
-0.000471029
0.000465684
0.000515229
-0.000436459
0.000388026
0.000480362
-0.000402703
0.000312473
0.000444694
-0.00036914
0.000239524
0.000407907
-0.000334959
0.000170345
0.00036902
-0.000299842
0.000104526
0.000327463
-0.000261643
3.29027e-05
0.000288786
-0.000217164
0.000305104
-0.000112752
-0.000159449
-3.43145e-05
0.00239286
0.000242842
0.000156983
0.00230783
0.000331867
0.00222624
0.000490906
0.00214708
0.000634677
0.0020711
0.000763779
0.00199753
0.000879062
0.00192661
0.00098086
0.00185833
0.00106978
0.00179217
0.00114668
0.00172813
0.00121119
0.00166693
0.00126489
0.00160709
0.00130791
0.00154956
0.00134065
0.00149386
0.00136325
0.0014402
0.00137704
0.00138787
0.00138197
0.00133753
0.00137844
0.00128872
0.00136731
0.0012414
0.00134877
0.00119534
0.00132326
0.00115095
0.00129098
0.00110778
0.00125324
0.00106555
0.00120961
0.0010247
0.00116096
0.000984968
0.00110754
0.000946089
0.00105003
0.000908028
0.000988473
0.000871151
0.000923769
0.000834577
0.000856002
0.000798857
0.000785897
0.000763686
0.000713935
0.000728813
0.000640503
0.000694081
0.000566156
0.000659724
0.00049134
0.000625008
0.000416558
0.000590011
0.00034288
0.000554039
0.000270823
0.000516752
0.0002011
0.00047763
0.000134415
0.000435705
6.84874e-05
0.00039339
-1.06983e-05
0.000367971
0.000440915
-0.00014651
-3.28978e-05
0.00220386
0.000221895
0.000140663
0.00213427
0.000299577
0.00206732
0.000443667
0.00200299
0.000574529
0.00194024
0.000692228
0.00187983
0.000797085
0.00182175
0.000889944
0.00176547
0.000971142
0.00171097
0.00104101
0.00165826
0.00110065
0.00160729
0.0011499
0.00155784
0.0011896
0.00150986
0.00121986
0.0014636
0.00124129
0.00141877
0.00125426
0.0013749
0.00125936
0.00133243
0.00125696
0.00129111
0.00124722
0.00125114
0.00123076
0.0012118
0.00120794
0.00117377
0.00117941
0.00113631
0.00114487
0.00110009
0.00110542
0.00106416
0.00106122
0.00102916
0.00101249
0.000994824
0.000959657
0.000960858
0.000903354
0.000927454
0.000843628
0.000894303
0.000781141
0.000861344
0.000716351
0.000828476
0.00064959
0.000795574
0.000580961
0.00076271
0.000511586
0.0007291
0.000441513
0.00069508
0.000371725
0.0006598
0.000302447
0.000623317
0.000234474
0.000584724
0.000168876
0.000543228
0.000105168
0.000499413
3.96712e-05
0.000458886
-4.32895e-05
0.000450931
0.000567604
-0.000169979
-3.12283e-05
0.00203245
0.000202639
0.000126214
0.00197683
0.000270001
0.00192354
0.000401463
0.00187153
0.000520141
0.00182156
0.000626866
0.00177311
0.000722455
0.00172616
0.000806972
0.00168095
0.000881248
0.0016367
0.000945109
0.0015944
0.000999619
0.00155278
0.00104487
0.00151258
0.0010812
0.00147354
0.00110917
0.00143563
0.00112935
0.00139858
0.00114162
0.00136263
0.00114657
0.00132748
0.00114477
0.00129291
0.00113635
0.00125957
0.00112188
0.00122627
0.00110152
0.00119413
0.00107539
0.00116244
0.00104454
0.00113093
0.00100869
0.00110001
0.000968216
0.00106964
0.000923939
0.0010391
0.000875605
0.00100919
0.000824069
0.00097899
0.00076931
0.000949061
0.000711984
0.000918671
0.00065213
0.000888329
0.000590409
0.000857295
0.000527142
0.000825977
0.000462812
0.000793431
0.000397996
0.000759895
0.000332958
0.000724838
0.000268405
0.00068787
0.00020525
0.000647879
0.0001436
0.000604878
8.32096e-05
0.000559803
1.96757e-05
0.00052242
-6.27558e-05
0.000533362
0.000682988
-0.00017814
-2.96722e-05
0.00187667
0.000185447
0.000113066
0.00183409
0.000244112
0.00179249
0.000363004
0.00175264
0.000471071
0.0017135
0.000568352
0.00167583
0.000655158
0.00163936
0.000732305
0.00160381
0.000799843
0.00156916
0.000858345
0.00153589
0.000908129
0.001503
0.000949507
0.0014712
0.000983046
0.00144
0.00100881
0.00140987
0.00102734
0.00138005
0.001039
0.00135097
0.00104408
0.0013224
0.00104269
0.0012943
0.00103563
0.00126663
0.00102253
0.00123937
0.0010042
0.00121246
0.00098099
0.00118565
0.000952806
0.00115911
0.000920223
0.00113259
0.00088382
0.00110604
0.00084308
0.00107984
0.000799237
0.00105304
0.000751833
0.00102639
0.000701684
0.00099921
0.000648998
0.000971358
0.000594015
0.000943312
0.000537174
0.000914137
0.000479111
0.000884039
0.000419775
0.000852766
0.000359671
0.00082
0.00029942
0.000785089
0.000239842
0.000747447
0.000180976
0.000706744
0.000123779
0.000662075
6.69789e-05
0.000616603
6.2492e-06
0.00058315
-7.28614e-05
0.000612472
0.00078838
-0.000178253
-2.82661e-05
0.00173572
0.000169218
0.000101643
0.00170418
0.000220261
0.00167387
0.000328918
0.00164398
0.000426883
0.00161553
0.000515227
0.00158748
0.000594497
0.00156009
0.000664703
0.0015336
0.000726176
0.00150769
0.000779709
0.00148236
0.000825124
0.00145758
0.000863225
0.0014331
0.000893822
0.0014094
0.000917694
0.001386
0.000934892
0.00136285
0.000945736
0.00134013
0.00095077
0.00131736
0.000949852
0.00129522
0.00094351
0.00127297
0.000931825
0.00125105
0.000915589
0.0012287
0.000894456
0.00120678
0.000869017
0.00118455
0.000839379
0.00116223
0.000806097
0.00113932
0.000769282
0.00111666
0.000729066
0.00109325
0.000686018
0.00106944
0.00064011
0.00104512
0.000591711
0.00101976
0.000541262
0.00099376
0.000489232
0.000966167
0.000435496
0.000937775
0.000380858
0.000907405
0.000325545
0.000875313
0.000270106
0.000840527
0.00021473
0.000802824
0.000160466
0.000761009
0.00010722
0.00071532
5.4624e-05
0.0006692
-2.45434e-06
0.000640228
-7.72119e-05
0.00068723
0.000884755
-0.000173587
-2.63653e-05
0.00160758
0.000154505
9.12902e-05
0.00158652
0.000199321
0.00156584
0.000297508
0.00154579
0.000386905
0.00152613
0.000467559
0.00150683
0.000539504
0.00148814
0.000603492
0.00146961
0.000659585
0.00145159
0.000708304
0.00143364
0.000749731
0.00141615
0.000784415
0.00139842
0.000812695
0.00138112
0.000834798
0.00136389
0.000850514
0.00134713
0.000860901
0.00132974
0.000865277
0.00131299
0.000864946
0.00129555
0.000859221
0.0012787
0.000849091
0.00126118
0.000834144
0.00124365
0.000815167
0.00122576
0.000792119
0.0012076
0.000765528
0.00118882
0.000735062
0.00116979
0.000701478
0.00115024
0.000664853
0.00112988
0.000625543
0.00110875
0.000583711
0.00108695
0.000539445
0.00106402
0.000493208
0.00104
0.000445189
0.00101419
0.000396118
0.000986846
0.000346251
0.000957272
0.000295568
0.000925996
0.000244383
0.000891713
0.000193404
0.000853802
0.000143267
0.000811146
9.40407e-05
0.000764547
4.46327e-05
0.000718608
-9.19885e-06
0.00069406
-7.94341e-05
0.000757465
0.000971941
-0.00016662
-2.47638e-05
0.00149133
0.000141014
8.24767e-05
0.00147928
0.000180451
0.00146787
0.000269712
0.00145653
0.00035103
0.00144482
0.000423947
0.00143391
0.000489815
0.00142227
0.000547736
0.00141169
0.000599134
0.0014002
0.000643437
0.00138934
0.000681537
0.00137805
0.000713179
0.00136677
0.000739037
0.00135527
0.000759075
0.00134386
0.000773828
0.00133238
0.000783135
0.00132044
0.000787553
0.00130857
0.000787153
0.00129595
0.000782381
0.00128347
0.000773199
0.00127037
0.000759938
0.00125691
0.000742529
0.00124317
0.000721562
0.00122857
0.000697298
0.00121309
0.000669808
0.00119728
0.000639408
0.00118064
0.000606076
0.00116321
0.000570051
0.00114478
0.000531889
0.00112511
0.000491142
0.00110477
0.000448968
0.00108217
0.000404972
0.00105818
0.000360034
0.00103178
0.000314325
0.00100298
0.000267941
0.00097238
0.000220681
0.000938973
0.000173655
0.000900828
0.000127643
0.000857157
8.27833e-05
0.000809407
3.74214e-05
0.00076397
-1.28194e-05
0.0007443
-7.74562e-05
0.000822102
0.00105215
-0.000157663
-2.30943e-05
0.000128618
0.00138581
7.40238e-05
0.00138216
0.000162992
0.0013789
0.000244388
0.00137514
0.000318137
0.00137107
0.000384825
0.00136723
0.000444702
0.0013624
0.000497898
0.0013585
0.000544369
0.00135372
0.000584992
0.00134872
0.000619447
0.0013436
0.000648033
0.00133819
0.000671831
0.00133147
0.000690717
0.00132497
0.000704362
0.00131873
0.000713211
0.00131159
0.000717236
0.00130455
0.000717192
0.00129599
0.000713163
0.0012875
0.000704941
0.00127859