/*--------------------------------*- C++ -*----------------------------------*\
| =========                 |                                                 |
| \\      /  F ield         | OpenFOAM: The Open Source CFD Toolbox           |
|  \\    /   O peration     | Version:  2.3.0                                 |
|   \\  /    A nd           | Web:      www.OpenFOAM.org                      |
|    \\/     M anipulation  |                                                 |
\*---------------------------------------------------------------------------*/
FoamFile
{
    version     2.0;
    format      ascii;
    class       volScalarField;
    location    "4000";
    object      nut;
}
// * * * * * * * * * * * * * * * * * * * * * * * * * * * * * * * * * * * * * //

dimensions      [0 2 -1 0 0 0 0];

internalField   nonuniform List<scalar> 
38546
(
0.0721289
0.0704559
0.0687699
0.0670774
0.0653799
0.0636786
0.0619749
0.0602697
0.0585639
0.0568587
0.0551552
0.0534541
0.0517564
0.0500626
0.0483737
0.0466902
0.0450131
0.0433432
0.0416805
0.0400255
0.0383788
0.0367407
0.0351117
0.033492
0.0318821
0.0302826
0.028694
0.0271166
0.0255508
0.0239981
0.0224594
0.0209356
0.0194282
0.0179416
0.0164785
0.0150428
0.0136426
0.0122861
0.0109876
0.00975949
0.00860666
0.00745922
0.00575396
0.0730733
0.0715754
0.070069
0.0685573
0.0670411
0.0655207
0.0639966
0.0624699
0.0609407
0.0594098
0.0578777
0.0563451
0.0548122
0.0532794
0.0517473
0.0502162
0.0486872
0.0471603
0.0456358
0.044114
0.0425955
0.0410804
0.0395695
0.038063
0.036562
0.0350665
0.0335783
0.032098
0.0306274
0.029169
0.0277248
0.0262973
0.0248918
0.0235144
0.0221704
0.0208695
0.0196235
0.0184449
0.0173498
0.0163547
0.0154789
0.0147386
0.0141442
0.0739518
0.0726111
0.0712623
0.0699083
0.0685491
0.0671849
0.0658161
0.0644431
0.063066
0.0616851
0.0603009
0.0589137
0.0575232
0.0561299
0.0547342
0.0533365
0.0519371
0.0505362
0.0491342
0.0477316
0.0463287
0.0449264
0.0435248
0.0421246
0.0407268
0.0393322
0.0379424
0.036559
0.0351846
0.0338214
0.0324726
0.0311421
0.0298355
0.0285584
0.0273181
0.0261246
0.0249873
0.0239176
0.0229292
0.0220344
0.0212456
0.020573
0.0200257
0.0747679
0.0735672
0.0723568
0.0711398
0.0699167
0.0686876
0.0674524
0.0662115
0.0649649
0.0637124
0.0624547
0.0611918
0.0599231
0.058649
0.0573698
0.0560855
0.0547965
0.053503
0.0522058
0.050905
0.0496012
0.0482953
0.0469874
0.0456783
0.0443692
0.0430613
0.0417562
0.0404556
0.0391619
0.0378784
0.0366083
0.035356
0.0341266
0.032926
0.0317616
0.030642
0.029576
0.0285748
0.0276496
0.0268096
0.0260648
0.0254243
0.0248936
0.0755324
0.0744496
0.0733587
0.0722606
0.0711554
0.0700428
0.0689227
0.0677952
0.06666
0.0655176
0.0643679
0.0632107
0.0620461
0.0608737
0.0596932
0.0585052
0.0573095
0.0561069
0.0548981
0.0536833
0.0524633
0.0512387
0.0500099
0.0487782
0.0475444
0.0463095
0.0450755
0.0438442
0.0426185
0.0414011
0.0401958
0.0390061
0.037838
0.0366968
0.0355891
0.0345232
0.033508
0.0325538
0.0316692
0.0308634
0.0301463
0.0295242
0.0290033
0.0762414
0.0752608
0.0742736
0.0732788
0.0722758
0.0712639
0.0702431
0.0692129
0.0681735
0.0671248
0.0660667
0.0649998
0.063924
0.0628382
0.0617421
0.0606358
0.059519
0.0583931
0.0572585
0.0561158
0.0549658
0.0538096
0.0526474
0.0514809
0.0503107
0.0491373
0.0479623
0.0467886
0.0456191
0.0444567
0.0433051
0.0421673
0.0410484
0.0399538
0.0388904
0.0378654
0.0368877
0.0359666
0.0351103
0.0343285
0.0336297
0.0330199
0.032505
0.0768872
0.0760019
0.0751066
0.0742022
0.0732877
0.0723633
0.0714286
0.0704821
0.0695249
0.0685562
0.0675762
0.0665859
0.0655857
0.0645747
0.0635512
0.0625143
0.0614648
0.0604036
0.0593317
0.0582492
0.0571575
0.0560581
0.054952
0.0538408
0.0527245
0.0516036
0.0504786
0.0493524
0.048229
0.0471126
0.0460063
0.0449127
0.0438347
0.0427783
0.04175
0.0407573
0.039808
0.0389113
0.0380761
0.0373115
0.0366258
0.0360254
0.035515
0.077481
0.076679
0.0758641
0.0750384
0.0742012
0.0733521
0.0724938
0.0716178
0.0707326
0.0698321
0.0689191
0.0679928
0.0670565
0.0661105
0.0651512
0.0641739
0.0631817
0.0621743
0.0611564
0.0601252
0.0590811
0.0580289
0.0569698
0.0559042
0.054834
0.0537594
0.0526787
0.0515916
0.0505051
0.0494258
0.0483585
0.0473043
0.0462624
0.0452379
0.0442377
0.0432722
0.0423444
0.0414657
0.0406458
0.0398939
0.0392186
0.0386269
0.03812
0.0780309
0.0772988
0.0765513
0.075793
0.0750249
0.0742371
0.0734558
0.072632
0.0718137
0.0709681
0.070114
0.0692394
0.0683537
0.0674597
0.0665614
0.0656364
0.0646982
0.0637332
0.0627608
0.0617776
0.0607692
0.0597534
0.0587327
0.057702
0.0566673
0.0556334
0.0545958
0.0535415
0.0524819
0.0514296
0.0503931
0.0493779
0.0483731
0.0473783
0.0464002
0.0454585
0.0445483
0.0436852
0.042878
0.042136
0.0414684
0.0408894
0.0403833
0.00489524
0.00532016
0.0059594
0.00663202
0.00731131
0.00799345
0.00867691
0.00936252
0.0100523
0.0107491
0.0114562
0.0121769
0.0129144
0.0136706
0.0144489
0.0152507
0.0160771
0.0169295
0.0178073
0.0187113
0.0196406
0.020593
0.0215669
0.0225582
0.0235652
0.0245897
0.0256442
0.0267402
0.0278788
0.0290548
0.0302654
0.0315097
0.0327873
0.0340957
0.0354325
0.0367963
0.0381855
0.0395997
0.0410374
0.042498
0.0439811
0.045487
0.047017
0.0137062
0.013424
0.0132917
0.0132944
0.013421
0.0136549
0.0139838
0.0143936
0.0148754
0.0154179
0.0160142
0.0166574
0.0173416
0.018064
0.0188195
0.0196061
0.0204208
0.0212626
0.0221298
0.0230204
0.0239334
0.0248679
0.0258215
0.0267946
0.0277861
0.0287972
0.0298292
0.0308829
0.0319583
0.0330551
0.0341719
0.0353096
0.0364674
0.0376449
0.0388418
0.0400578
0.0412923
0.0425453
0.0438161
0.0451044
0.0464101
0.0477346
0.0490849
0.0195999
0.0192925
0.0191015
0.0190268
0.0190613
0.0191993
0.0194291
0.0197435
0.020131
0.0205849
0.0210954
0.0216579
0.0222653
0.0229126
0.0235957
0.0243116
0.0250573
0.0258296
0.0266269
0.0274472
0.0282888
0.0291502
0.0300312
0.0309292
0.0318447
0.032777
0.033726
0.0346911
0.035672
0.0366685
0.03768
0.0387066
0.0397483
0.0408044
0.0418751
0.0429602
0.0440598
0.0451735
0.0463008
0.0474413
0.0485945
0.04976
0.0509374
0.0244722
0.0241556
0.0239451
0.0238398
0.0238363
0.0239287
0.0241098
0.0243705
0.0247036
0.025101
0.0255562
0.0260624
0.0266132
0.0272041
0.0278313
0.0284902
0.0291774
0.0298916
0.0306288
0.0313876
0.0321662
0.0329627
0.0337761
0.0346046
0.0354478
0.0363052
0.0371753
0.0380584
0.038953
0.0398598
0.040778
0.0417075
0.0426481
0.0435997
0.0445624
0.045536
0.0465205
0.0475153
0.0485201
0.0495343
0.0505574
0.0515875
0.0526218
0.0285829
0.0282616
0.02804
0.027918
0.0278923
0.0279575
0.0281066
0.0283328
0.028629
0.0289879
0.0294035
0.0298683
0.0303773
0.0309258
0.0315094
0.0321237
0.032766
0.0334333
0.0341222
0.0348311
0.0355573
0.0362995
0.0370558
0.0378252
0.0386067
0.0393993
0.0402019
0.0410142
0.0418356
0.042666
0.0435047
0.0443517
0.045207
0.0460702
0.0469414
0.0478208
0.0487077
0.0496015
0.050502
0.0514086
0.0523204
0.0532367
0.0541558
0.0320861
0.0317622
0.0315344
0.0314023
0.0313623
0.0314092
0.0315373
0.0317394
0.0320087
0.0323398
0.0327252
0.0331588
0.0336357
0.0341513
0.034701
0.0352812
0.0358878
0.0365174
0.037167
0.0378344
0.0385175
0.0392137
0.0399226
0.0406423
0.0413717
0.0421093
0.0428546
0.0436075
0.0443671
0.045133
0.045905
0.0466826
0.0474657
0.0482545
0.0490492
0.0498486
0.0506527
0.0514609
0.0522723
0.053087
0.0539038
0.0547218
0.0555414
0.0350972
0.0347717
0.0345404
0.0344013
0.034352
0.0343868
0.0344996
0.0346832
0.0349322
0.0352416
0.0356042
0.036014
0.0364654
0.0369545
0.0374794
0.0380331
0.0386109
0.0392088
0.0398247
0.0404578
0.0411046
0.0417627
0.0424316
0.0431098
0.0437949
0.0444861
0.0451829
0.0458861
0.0465936
0.0473053
0.048021
0.0487398
0.0494621
0.0501888
0.0509188
0.0516507
0.0523841
0.0531191
0.0538547
0.0545904
0.0553252
0.0560584
0.0567908
0.0377029
0.0373761
0.037143
0.0369994
0.0369459
0.0369725
0.0370719
0.0372395
0.0374716
0.0377666
0.0381118
0.0385004
0.0389303
0.0394008
0.0399095
0.040441
0.0409926
0.0415624
0.0421494
0.0427559
0.0433716
0.0439962
0.0446329
0.0452761
0.0459229
0.0465737
0.0472291
0.0478932
0.0485549
0.0492209
0.0498897
0.0505584
0.0512293
0.051905
0.0525805
0.053254
0.0539276
0.0545994
0.05527
0.0559386
0.0566021
0.0572603
0.0579159
0.0399693
0.0396395
0.0394106
0.0392603
0.039213
0.0392304
0.0393152
0.0394666
0.039686
0.0399775
0.040302
0.0406691
0.0410835
0.0415427
0.0420491
0.0425471
0.0430767
0.0436195
0.0441817
0.0447729
0.0453521
0.0459515
0.0465665
0.0471752
0.0477874
0.0484044
0.0490253
0.0496642
0.0502744
0.0509116
0.0515387
0.0521631
0.0527925
0.053431
0.0540555
0.054679
0.0553042
0.0559215
0.0565371
0.0571503
0.0577497
0.0583439
0.0589354
0.0204506
0.0193418
0.018277
0.0172543
0.0162727
0.0153312
0.0144287
0.0135641
0.0127364
0.0119445
0.0111875
0.0104649
0.00977561
0.00911924
0.00849501
0.00790236
0.007341
0.00681061
0.00631161
0.00584512
0.00541317
0.00501949
0.00467035
0.00436994
0.00410899
0.00387601
0.00366248
0.00346264
0.00327255
0.00308888
0.00290922
0.00273094
0.00255187
0.00236994
0.00218299
0.00198889
0.00178553
0.00157105
0.00134368
0.00110122
0.000838674
0.00059147
0.000922117
0.0204229
0.0193967
0.0184082
0.0174557
0.0165381
0.0156543
0.0148035
0.0139847
0.0131971
0.01244
0.0117126
0.0110141
0.0103439
0.00970163
0.00908671
0.00849872
0.0079372
0.00740196
0.00689295
0.00641077
0.00595661
0.00553251
0.00514229
0.00479177
0.00448513
0.00421513
0.00397282
0.00375092
0.00354373
0.00334692
0.0031569
0.0029706
0.00278542
0.00259868
0.00240794
0.00221059
0.00200422
0.00178646
0.00155525
0.00131203
0.00111926
0.00149502
0.0028091
0.0203983
0.0194546
0.0185404
0.0176553
0.016799
0.0159707
0.0151695
0.0143948
0.0136459
0.0129223
0.0122233
0.0115481
0.0108967
0.0102684
0.00966301
0.00908008
0.00851948
0.0079809
0.00746425
0.00697
0.00649852
0.00605108
0.00563006
0.00523973
0.00488712
0.00457543
0.00429728
0.00404566
0.00381453
0.00359875
0.00339384
0.00319589
0.0030015
0.00280753
0.00261096
0.00240886
0.00219825
0.0019764
0.00174387
0.00153811
0.0017137
0.00301025
0.00489583
0.0203794
0.0195099
0.0186637
0.0178407
0.0170408
0.0162635
0.0155081
0.0147741
0.0140611
0.0133685
0.0126959
0.0120429
0.0114092
0.0107944
0.0101986
0.00962122
0.00906236
0.0085219
0.00799968
0.00749609
0.00701138
0.00654639
0.00610264
0.00568283
0.00529262
0.00494008
0.00462441
0.0043395
0.00407977
0.00384034
0.00361632
0.0034032
0.00319686
0.00299339
0.00278928
0.002581
0.00236522
0.00213965
0.00191615
0.00184416
0.00265024
0.0046434
0.00684358
0.0203668
0.0195623
0.0187773
0.0180107
0.0172622
0.0165313
0.0158175
0.0151208
0.0144406
0.0137765
0.0131285
0.012496
0.011879
0.0112771
0.0106905
0.010119
0.00956261
0.00902132
0.00849511
0.00798424
0.00748914
0.00701039
0.00654887
0.00610678
0.00568779
0.00529928
0.004948
0.00462959
0.00433941
0.00407331
0.00382693
0.00359566
0.00337482
0.00315998
0.00294681
0.00273126
0.00250967
0.00228202
0.00208682
0.00227014
0.00373671
0.00616046
0.00858917
0.0203551
0.0196112
0.0188818
0.0181662
0.0174643
0.0167755
0.0160998
0.015437
0.0147867
0.0141489
0.0135233
0.0129098
0.0123082
0.0117185
0.0111407
0.0105749
0.0100212
0.00947975
0.00895072
0.00843418
0.00793069
0.00744069
0.00696497
0.00650511
0.00606383
0.00564653
0.00526242
0.00491238
0.0045921
0.00429836
0.00402774
0.00377608
0.00353868
0.00331072
0.00308726
0.00286363
0.00263601
0.0024087
0.00226781
0.00279414
0.00480934
0.00751623
0.0101356
0.0203475
0.0196572
0.0189777
0.0183084
0.0176488
0.0169983
0.0163572
0.0157253
0.0151025
0.0144887
0.0138836
0.0132875
0.0127003
0.0121218
0.0115524
0.0109922
0.0104414
0.00990013
0.00936882
0.00884762
0.00833708
0.00783775
0.00735019
0.00687566
0.00641627
0.00597613
0.00556327
0.0051844
0.00483586
0.00451514
0.00421984
0.00394665
0.00369134
0.00344892
0.00321402
0.00298155
0.00274777
0.00252404
0.0024646
0.00336492
0.00579667
0.00871646
0.0115016
0.0203409
0.0196994
0.0190655
0.0184382
0.0178174
0.0172019
0.0165921
0.0159888
0.0153915
0.0147996
0.0142135
0.0136336
0.0130597
0.0124915
0.0119297
0.0113751
0.0108276
0.0102869
0.00975328
0.00922746
0.00871079
0.00820363
0.00770615
0.00721909
0.00674414
0.0062845
0.00584731
0.00544243
0.00506796
0.00472149
0.00440196
0.00410731
0.00383341
0.00357561
0.00332896
0.00308759
0.00284748
0.00263035
0.00267361
0.00393571
0.00668376
0.00977804
0.0127078
0.0203332
0.0197369
0.0191446
0.0185548
0.0179725
0.0173903
0.0168062
0.0162302
0.0156594
0.0150892
0.0145206
0.013957
0.0133975
0.0128386
0.0122824
0.0117332
0.0111919
0.0106565
0.0101212
0.00958667
0.00906305
0.00855067
0.0080478
0.00755498
0.0070715
0.00659221
0.00612765
0.00569661
0.00530258
0.00493189
0.00458391
0.00426453
0.00397317
0.00369804
0.00343393
0.00318067
0.00293879
0.00273237
0.00290716
0.00452108
0.00749271
0.010725
0.0137748
0.00182527
0.00264851
0.00328567
0.00387844
0.0046172
0.00544886
0.00634163
0.00728722
0.00828138
0.0093215
0.0104035
0.0115248
0.0126836
0.0138778
0.0151094
0.0163764
0.0176809
0.0190238
0.0204061
0.0218305
0.0232986
0.0248143
0.0263796
0.0279982
0.0296738
0.0314111
0.0332147
0.0350892
0.0370408
0.0390751
0.0411985
0.0434179
0.0457405
0.0481735
0.0507208
0.0533866
0.0561749
0.0590903
0.0621369
0.0653194
0.0686416
0.0721075
0.0757208
0.00426428
0.00551192
0.00659001
0.0075535
0.0084405
0.00927668
0.0101131
0.0110145
0.0119953
0.0130327
0.0141144
0.0152346
0.0163909
0.0175817
0.0188054
0.0200619
0.0213514
0.0226744
0.0240331
0.0254285
0.0268633
0.0283395
0.0298606
0.0314292
0.0330496
0.0347247
0.0364592
0.0382575
0.0401242
0.0420646
0.044084
0.0461881
0.048383
0.0506746
0.0530656
0.0555587
0.058157
0.0608635
0.0636811
0.066613
0.0696623
0.0728314
0.0761227
0.0066622
0.00822797
0.00962194
0.0108747
0.0120161
0.0130735
0.0140735
0.0150406
0.0159968
0.016967
0.0179755
0.0190327
0.020134
0.021274
0.0224491
0.0236586
0.0249008
0.0261774
0.0274886
0.028836
0.0302218
0.0316468
0.0331138
0.034626
0.0361861
0.0377972
0.0394626
0.041186
0.0429711
0.0448225
0.0467442
0.0487409
0.0508174
0.0529784
0.0552256
0.0575608
0.0599858
0.0625025
0.0651129
0.0678188
0.0706226
0.073526
0.0765291
0.00885239
0.0106585
0.0122872
0.0137613
0.0151064
0.0163464
0.0175028
0.0185945
0.0196405
0.0206582
0.0216652
0.0226778
0.0237113
0.0247786
0.0258847
0.027029
0.0282107
0.0294291
0.0306849
0.0319785
0.0333107
0.0346831
0.036097
0.0375541
0.0390572
0.0406083
0.0422099
0.0438645
0.0455753
0.0473455
0.0491785
0.0510778
0.0530469
0.0550898
0.057207
0.0593995
0.0616684
0.0640141
0.0664378
0.0689406
0.0715242
0.0741908
0.0769398
0.0108028
0.0128076
0.0146254
0.016277
0.0177856
0.0191729
0.020459
0.0216633
0.0227999
0.0238853
0.0249336
0.0259584
0.0269747
0.0279974
0.0290409
0.0301181
0.0312354
0.0323935
0.0335935
0.0348343
0.036116
0.037439
0.0388039
0.0402117
0.0416636
0.043161
0.0447055
0.0462989
0.0479434
0.0496415
0.0513952
0.0532073
0.0550803
0.057017
0.0590179
0.0610829
0.063212
0.0654046
0.0676605
0.0699805
0.0723666
0.0748214
0.0773506
0.0125282
0.0147028
0.0166794
0.0184786
0.0201218
0.0216307
0.0230247
0.0243218
0.0255374
0.0266852
0.027779
0.0288315
0.0298558
0.0308663
0.0318769
0.032904
0.0339635
0.0350665
0.0362147
0.0374077
0.0386439
0.0399236
0.0412457
0.0426107
0.0440183
0.0454687
0.046963
0.0485028
0.0500891
0.0517236
0.0534074
0.0551415
0.0569283
0.0587706
0.0606681
0.0626202
0.0646252
0.0666808
0.0687855
0.0709404
0.0731473
0.0754073
0.0777186
0.0140521
0.0163743
0.0184879
0.0204127
0.0221693
0.0237796
0.0252634
0.0266386
0.0279206
0.0291228
0.0302574
0.0313386
0.0323791
0.0333912
0.0343877
0.0353854
0.0364046
0.0374616
0.0385652
0.0397161
0.0409133
0.0421556
0.0434423
0.0447712
0.04614
0.0475494
0.0490005
0.0504933
0.052029
0.0536082
0.0552299
0.0568935
0.0586029
0.0603615
0.0621687
0.064022
0.0659178
0.0678511
0.0698187
0.0718231
0.0738694
0.0759565
0.078081
0.0153974
0.0178503
0.0200841
0.0221181
0.0239715
0.0256674
0.027226
0.0286674
0.0300061
0.0312546
0.032425
0.0335329
0.03459
0.0356067
0.0365983
0.0375838
0.03858
0.0396024
0.0406675
0.0417819
0.0429452
0.0441573
0.0454168
0.0467154
0.0480479
0.0494222
0.0508367
0.0522879
0.0537804
0.0553135
0.0568785
0.0584755
0.0601153
0.0618015
0.0635312
0.0653004
0.0671015
0.0689254
0.0707647
0.0726306
0.0745344
0.0764715
0.0784339
0.0165853
0.0191541
0.0214962
0.0236277
0.0255639
0.0273327
0.0289512
0.0304496
0.0318399
0.0331288
0.034327
0.0354553
0.0365235
0.0375439
0.0385349
0.0395308
0.0405108
0.0415042
0.0425369
0.0436201
0.0447549
0.0459443
0.0471866
0.0484552
0.0497474
0.0510983
0.0524807
0.0538923
0.0553538
0.0568514
0.0583574
0.0598862
0.0614698
0.0630977
0.0647642
0.0664655
0.0681867
0.0699101
0.0716202
0.0733572
0.0751415
0.0769528
0.0787872
0.000330879
0.00152073
0.00289899
0.00435781
0.00586451
0.00740085
0.0089592
0.0105344
0.0121219
0.0137189
0.015325
0.0169401
0.0185636
0.020197
0.0218403
0.0234945
0.0251592
0.0268345
0.0285216
0.0302199
0.0319289
0.0336492
0.0353802
0.0371216
0.0388729
0.0406341
0.042404
0.0441828
0.0459691
0.0477625
0.0495618
0.0513665
0.0531754
0.0549873
0.0568013
0.0586161
0.0604306
0.0622433
0.0640532
0.0658588
0.0676586
0.0694522
0.0712361
0.000206357
0.0010476
0.00211596
0.00331065
0.00459516
0.0059498
0.00736117
0.00881881
0.0103161
0.0118464
0.0134061
0.0149914
0.0165998
0.0182294
0.0198787
0.0215468
0.0232313
0.0249325
0.0266493
0.0283806
0.0301258
0.0318847
0.033656
0.0354391
0.0372337
0.0390388
0.0408539
0.0426776
0.0445096
0.0463488
0.048194
0.0500445
0.051899
0.0537562
0.0556153
0.057475
0.0593337
0.0611901
0.0630433
0.0648914
0.0667332
0.0685668
0.070388
0.000158658
0.000853727
0.00173603
0.00275089
0.00387187
0.00508075
0.00636399
0.00771126
0.00911449
0.0105666
0.0120621
0.0135958
0.0151643
0.0167642
0.0183927
0.0200471
0.0217256
0.0234265
0.0251482
0.026889
0.0286475
0.0304228
0.032214
0.0340198
0.0358388
0.0376704
0.0395136
0.0413668
0.0432295
0.0451002
0.0469781
0.0488614
0.0507494
0.0526407
0.0545339
0.0564276
0.0583208
0.0602116
0.0620988
0.0639808
0.065856
0.0677228
0.0695771
0.00014083
0.000702158
0.00146785
0.00236824
0.00337968
0.00448484
0.00567071
0.00692777
0.00824825
0.00962546
0.0110539
0.012529
0.0140469
0.0156037
0.0171963
0.0188221
0.0204783
0.0221628
0.0238734
0.0256082
0.0273655
0.0291439
0.0309416
0.0327573
0.0345892
0.0364362
0.0382969
0.04017
0.0420542
0.0439481
0.0458504
0.0477597
0.0496743
0.0515931
0.0535145
0.0554372
0.0573596
0.0592801
0.0611971
0.0631092
0.0650149
0.066912
0.0687991
0.000154135
0.000615251
0.00130707
0.00212568
0.00305231
0.00407233
0.00517473
0.00635137
0.00759521
0.00890085
0.0102635
0.0116787
0.0131422
0.0146509
0.0162018
0.0177915
0.0194172
0.0210767
0.0227674
0.0244872
0.0262345
0.0280068
0.029802
0.0316189
0.0334555
0.0353099
0.0371806
0.0390665
0.0409654
0.0428758
0.0447967
0.0467258
0.0486617
0.050603
0.0525482
0.0544954
0.0564431
0.0583895
0.0603333
0.0622726
0.064206
0.0661323
0.0680532
0.000162165
0.000558432
0.001196
0.00195138
0.0028106
0.00376101
0.00479376
0.00590159
0.00707855
0.00831997
0.00962198
0.0109803
0.0123909
0.0138516
0.0153589
0.0169095
0.018501
0.0201311
0.0217968
0.023496
0.0252269
0.0269867
0.0287733
0.0305852
0.0324199
0.0342755
0.0361508
0.0380435
0.0399516
0.0418736
0.0438078
0.0457521
0.047705
0.0496647
0.0516294
0.0535976
0.0555671
0.0575364
0.0595038
0.0614674
0.0634258
0.0653764
0.0673145
0.000166417
0.00051386
0.00110826
0.00181354
0.00261856
0.00351232
0.00448716
0.00553675
0.00665608
0.00784107
0.00908841
0.0103941
0.0117554
0.0131696
0.0146337
0.016145
0.017701
0.0192993
0.020937
0.0226121
0.0243225
0.0260655
0.027839
0.0296412
0.0314693
0.033322
0.0351968
0.0370916
0.0390045
0.0409336
0.0428769
0.0448327
0.0467987
0.0487732
0.0507543
0.05274
0.0547283
0.0567177
0.058706
0.0606915
0.0626723
0.0646459
0.0666052
0.000169466
0.000478928
0.001037
0.00170117
0.00246129
0.00330775
0.00423353
0.00523309
0.00630222
0.00743754
0.00863566
0.00989382
0.0112094
0.0125797
0.0140027
0.0154752
0.0169956
0.0185613
0.0201696
0.0218186
0.0235061
0.0252294
0.0269868
0.0287756
0.0305939
0.0324394
0.03431
0.0362033
0.0381173
0.0400497
0.0419989
0.0439625
0.0459383
0.0479246
0.0499189
0.0519193
0.053924
0.0559308
0.0579376
0.0599428
0.0619443
0.0639409
0.0659291
0.00017173
0.00045063
0.00097777
0.00160742
0.00232958
0.00313558
0.00401903
0.00497518
0.00600037
0.00709138
0.00824543
0.00946052
0.0107338
0.0120636
0.0134473
0.0148828
0.0163681
0.0179013
0.0194797
0.0211017
0.0227648
0.0244668
0.0262056
0.0279789
0.0297842
0.0316199
0.0334833
0.0353719
0.0372841
0.0392172
0.0411691
0.0431376
0.0451204
0.0471153
0.0491202
0.0511331
0.0531514
0.0551733
0.0571966
0.0592192
0.061239
0.0632538
0.0652558
0.000173489
0.000426755
0.000927392
0.00152759
0.00221717
0.00298809
0.00383457
0.00475248
0.00573867
0.00679004
0.00790453
0.00908022
0.0103149
0.0116066
0.0129536
0.0143538
0.0158056
0.017307
0.0188558
0.0204505
0.0220888
0.0237682
0.025487
0.027243
0.0290338
0.0308572
0.032711
0.0345929
0.0365005
0.0384315
0.0403836
0.0423543
0.0443415
0.0463428
0.048356
0.0503787
0.0524088
0.0544436
0.0564811
0.0585194
0.0605564
0.0625902
0.0646187
0.000174709
0.00040587
0.00088344
0.00145805
0.00211917
0.00285932
0.00367326
0.00455745
0.00550865
0.00652463
0.00760328
0.00874298
0.00994198
0.0111985
0.012511
0.013878
0.0152979
0.0167687
0.0182886
0.0198561
0.0214691
0.0231255
0.0248235
0.0265612
0.0283359
0.0301455
0.0319882
0.033861
0.0357621
0.0376888
0.0396388
0.0416097
0.0435991
0.0456048
0.0476239
0.0496545
0.0516939
0.0537395
0.0557897
0.0578417
0.0598933
0.0619428
0.0639842
0.000175758
0.000387877
0.000845125
0.00139698
0.00203296
0.00274579
0.00353076
0.00438457
0.00530441
0.00628828
0.00733443
0.00844122
0.00960729
0.0108312
0.0121116
0.0134472
0.0148367
0.016278
0.0177699
0.0193107
0.0208989
0.0225323
0.0242091
0.0259274
0.027685
0.0294799
0.0313097
0.0331722
0.035065
0.0369857
0.0389319
0.0409011
0.0428909
0.0448987
0.0469218
0.0489584
0.0510052
0.0530602
0.0551208
0.0571844
0.059249
0.061311
0.0633624
0.000176694
0.00037198
0.000811715
0.0013429
0.00195629
0.0026446
0.00340352
0.00422993
0.00512125
0.00607593
0.00709232
0.00816902
0.0093047
0.0104983
0.0117487
0.0130547
0.0144149
0.0158283
0.0172933
0.0188084
0.0203721
0.0219825
0.023638
0.0253367
0.0270766
0.0288559
0.0306721
0.0325228
0.0344059
0.0363192
0.03826
0.0402257
0.0422141
0.0442223
0.0462481
0.0482888
0.0503414
0.0524037
0.0544731
0.0565472
0.0586236
0.0607003
0.0627744
0.00017753
0.000358137
0.000782129
0.00129439
0.00188743
0.00255368
0.00328904
0.00409049
0.00495601
0.00588403
0.00687308
0.00792188
0.00902941
0.0101948
0.0114171
0.0126951
0.014028
0.0154146
0.0168535
0.0183436
0.0198834
0.0214712
0.0231055
0.0247846
0.0265067
0.0282696
0.0300712
0.0319094
0.033782
0.0356866
0.0376204
0.0395815
0.041567
0.0435743
0.045601
0.047644
0.0497009
0.0517693
0.053846
0.0559288
0.0580147
0.0601009
0.0621809
0.000178414
0.000345765
0.000755546
0.00125062
0.00182515
0.00247125
0.00318514
0.00396392
0.00480573
0.0057091
0.00667282
0.00769589
0.00877739
0.00991638
0.0111123
0.0123643
0.0136712
0.0150321
0.0164461
0.0179121
0.0194287
0.0209942
0.0226079
0.0242673
0.0259712
0.0277175
0.029504
0.031329
0.0331903
0.0350851
0.0370112
0.0389664
0.0409477
0.0429528
0.0449788
0.047023
0.0490831
0.0511557
0.0532383
0.0553281
0.0574222
0.0595178
0.0616104
0.000179173
0.00033448
0.00073129
0.00121076
0.00176843
0.00239625
0.00309039
0.00384836
0.00466825
0.0055489
0.00648922
0.00748832
0.00854546
0.00965981
0.0108309
0.0120581
0.0133404
0.0146771
0.0160675
0.0175102
0.0190042
0.0205484
0.0221411
0.0237812
0.0254671
0.0271966
0.028968
0.0307792
0.0326283
0.0345127
0.0364302
0.0383782
0.0403545
0.042356
0.0443803
0.0464246
0.048486
0.0505618
0.052649
0.0547446
0.0568457
0.0589492
0.0610505
0.000179882
0.000324292
0.000709247
0.00117423
0.00171652
0.00232754
0.00300352
0.00374214
0.00454189
0.00540156
0.00632006
0.00729679
0.00833108
0.00942233
0.0105701
0.0117739
0.0130329
0.0143467
0.0157141
0.0171345
0.0186068
0.0201298
0.0217027
0.0233237
0.0249915
0.0267043
0.0284602
0.0302574
0.0320937
0.0339672
0.0358752
0.0378155
0.0397855
0.0417826
0.0438041
0.0458473
0.0479092
0.0499868
0.0520775
0.0541778
0.0562849
0.0583955
0.060505
0.000180517
0.000314954
0.000689081
0.00114094
0.00166874
0.00226412
0.00292333
0.00364416
0.00442519
0.00526522
0.00616349
0.0071193
0.00813221
0.0092018
0.0103277
0.0115093
0.0127462
0.0140379
0.0153835
0.0167825
0.0182337
0.0197366
0.0212896
0.022892
0.024542
0.026238
0.0279784
0.0297612
0.0315845
0.0334466
0.0353447
0.0372765
0.0392396
0.0412315
0.0432491
0.0452902
0.0473513
0.04943
0.0515229
0.0536271
0.0557393
0.0578565
0.0599742
0.000181145
0.00030647
0.000670663
0.00111046
0.00162452
0.00220544
0.00284915
0.00355349
0.004317
0.0051386
0.00601782
0.00695413
0.00794694
0.00899619
0.0101013
0.0112619
0.0124778
0.0137483
0.015073
0.0164515
0.0178826
0.0193657
0.0208998
0.0224838
0.0241162
0.0257955
0.0275203
0.0292887
0.0310991
0.0329493
0.0348368
0.0367596
0.0387153
0.0407011
0.0427143
0.0447521
0.0468118
0.0488903
0.0509848
0.0530918
0.0552084
0.0573314
0.0594567
0.000181723
0.000298585
0.000653574
0.0010822
0.00158349
0.00215095
0.00278015
0.003469
0.00421622
0.00502072
0.00588217
0.00679994
0.00777377
0.00880362
0.00988906
0.01103
0.0122257
0.0134762
0.0147811
0.0161396
0.0175514
0.0190154
0.0205309
0.0220969
0.023712
0.025375
0.0270842
0.0288385
0.0306356
0.0324735
0.0343504
0.0362637
0.0382113
0.0401904
0.0421983
0.0442324
0.0462896
0.0483674
0.0504624
0.0525713
0.0546913
0.0568192
0.0589504
0.000182256
0.000291645
0.000637803
0.001056
0.00154534
0.00210017
0.00271568
0.00339001
0.00412188
0.00491046
0.00575519
0.00665553
0.0076116
0.00862318
0.00968999
0.010812
0.0119886
0.01322
0.0145057
0.0158452
0.0172382
0.0186837
0.0201813
0.0217296
0.0233279
0.0249746
0.0266688
0.0284087
0.0301923
0.0320179
0.0338836
0.0357872
0.0377262
0.039698
0.0417
0.0437298
0.0457841
0.0478603
0.0499549
0.052065
0.0541873
0.0563186
0.0584536
0.000183087
0.000286619
0.000623171
0.00103157
0.00150977
0.00205265
0.00265545
0.00331619
0.00403365
0.00480701
0.00563588
0.00651997
0.00745928
0.00845345
0.00950245
0.0106064
0.0117649
0.012978
0.0142454
0.0155667
0.0169414
0.0183693
0.019849
0.0213805
0.0229621
0.0245931
0.0262721
0.0279975
0.0297678
0.0315812
0.0334356
0.0353291
0.0372589
0.0392231
0.041219
0.0432436
0.0452943
0.0473681
0.0494619
0.0515722
0.0536962
0.0558297
0.0579675
0.00018455
0.000284918
0.000609647
0.0010088
0.00147637
0.00200814
0.00259903
0.00324698
0.00395077
0.00470977
0.00552367
0.00639237
0.00731558
0.00829324
0.00932544
0.0104121
0.0115533
0.012749
0.0139989
0.0153025
0.0166598
0.0180702
0.0195332
0.0210478
0.0226134
0.0242288
0.0258928
0.027604
0.0293611
0.031162
0.033005
0.034888
0.0368088
0.038765
0.0407541
0.0427733
0.0448197
0.0468905
0.0489826
0.0510929
0.0532178
0.0553539
0.0574953
0.000186643
0.000285739
0.000597142
0.000987441
0.00144514
0.00196635
0.00254594
0.00318171
0.00387263
0.00461803
0.00541784
0.00627182
0.00717981
0.00814187
0.00915813
0.0102284
0.0113529
0.0125319
0.0137648
0.0150515
0.0163919
0.0177857
0.0192321
0.0207307
0.0222803
0.0238805
0.0255298
0.0272271
0.0289707
0.0307592
0.0325908
0.0344633
0.0363747
0.0383226
0.0403045
0.0423176
0.0443594
0.0464269
0.048517
0.0506265
0.0527524
0.0548921
0.0570437
0.000188979
0.000287811
0.000585553
0.000967509
0.00141598
0.00192698
0.00249575
0.00312005
0.00379883
0.00453156
0.0053179
0.00615795
0.00705136
0.00799846
0.00899937
0.010054
0.0111627
0.0123255
0.0135422
0.0148127
0.0161369
0.0175143
0.0189448
0.0204275
0.0219618
0.023547
0.025182
0.0268654
0.0285959
0.0303719
0.0321919
0.0340538
0.0359556
0.037895
0.0398692
0.0418762
0.0439129
0.0459765
0.0480638
0.050172
0.0522976
0.0544373
0.0565844
0.000191406
0.000290065
0.000574647
0.000948702
0.00138845
0.00188974
0.00244837
0.00306182
0.00372913
0.00444967
0.00522328
0.00604993
0.00692949
0.00786238
0.00884864
0.0098884
0.0109818
0.0121291
0.0133302
0.014585
0.0158934
0.0172552
0.0186702
0.0201375
0.0216569
0.0232276
0.0248482
0.0265178
0.0282353
0.029999
0.0318076
0.0336587
0.0355508
0.0374813
0.0394479
0.0414483
0.0434795
0.0455387
0.047623
0.0497291
0.051854
0.0539942
0.0561467
0.00019384
0.000292344
0.000564665
0.000931141
0.00136248
0.00185453
0.00240346
0.00300656
0.00366286
0.0043718
0.00513328
0.00594717
0.00681373
0.00773308
0.00870535
0.00973073
0.0108096
0.0119419
0.0131279
0.0143675
0.0156608
0.0170076
0.0184073
0.0198598
0.0213646
0.0229207
0.0245275
0.0261837
0.0278884
0.0296401
0.0314369
0.0332773
0.0351594
0.037081
0.0390397
0.0410331
0.0430586
0.0451131
0.0471937
0.0492974
0.0514207
0.0535594
0.0557079
0.000196156
0.000294204
0.000555293
0.000914576
0.00133795
0.00182116
0.00236079
0.00295413
0.00360003
0.00429795
0.00504776
0.00584957
0.00670353
0.0076098
0.00856864
0.00958035
0.010645
0.0117632
0.0129346
0.0141597
0.0154383
0.0167702
0.0181554
0.0195935
0.021084
0.0226261
0.0242191
0.0258622
0.0275542
0.0292935
0.0310789
0.0329086
0.0347808
0.0366933
0.0386441
0.0406303
0.0426495
0.0446989
0.0467756
0.0488764
0.050998
0.0531366
0.0552876
0.000198148
0.000295579
0.000546367
0.000898816
0.00131457
0.00178926
0.00232013
0.00290414
0.00354008
0.00422752
0.00496631
0.00575653
0.00659844
0.00749212
0.0084381
0.00943658
0.0104879
0.0115923
0.0127498
0.0139608
0.0152251
0.0165428
0.0179138
0.0193379
0.0208144
0.0223427
0.0239223
0.0255524
0.0272317
0.0289591
0.0307332
0.0325521
0.0344143
0.0363177
0.0382602
0.040239
0.0422519
0.044296
0.0463685
0.0484662
0.0505859
0.0527241
0.0548764
0.000199919
0.000296779
0.000537955
0.000883903
0.00129242
0.00175908
0.00228157
0.00285655
0.00348298
0.00416029
0.00488844
0.00566764
0.00649802
0.00737983
0.00831342
0.00929915
0.0103375
0.0114285
0.0125725
0.0137698
0.0150205
0.0163245
0.0176818
0.019092
0.0205547
0.0220698
0.0236364
0.0252536
0.0269207
0.0286363
0.0303988
0.0322072
0.0340593
0.0359535
0.0378875
0.0398589
0.0418653
0.0439038
0.0459718
0.0480661
0.0501835
0.0523207
0.054473
0.000201687
0.000297909
0.000529969
0.000869695
0.00127134
0.00173041
0.0022447
0.00281121
0.00342848
0.00409617
0.0048142
0.00558265
0.00640189
0.00727222
0.00819388
0.00916752
0.0101933
0.0112715
0.0124026
0.0135866
0.014824
0.0161146
0.0174584
0.0188553
0.0203049
0.0218069
0.0233606
0.0249654
0.0266202
0.028324