/*--------------------------------*- C++ -*----------------------------------*\
| =========                 |                                                 |
| \\      /  F ield         | OpenFOAM: The Open Source CFD Toolbox           |
|  \\    /   O peration     | Version:  2.3.0                                 |
|   \\  /    A nd           | Web:      www.OpenFOAM.org                      |
|    \\/     M anipulation  |                                                 |
\*---------------------------------------------------------------------------*/
FoamFile
{
    version     2.0;
    format      ascii;
    class       volScalarField;
    location    "4000";
    object      nuTilda;
}
// * * * * * * * * * * * * * * * * * * * * * * * * * * * * * * * * * * * * * //

dimensions      [0 2 -1 0 0 0 0];

internalField   nonuniform List<scalar> 
38546
(
0.0721289
0.0704559
0.0687699
0.0670774
0.0653799
0.0636786
0.0619749
0.0602697
0.0585639
0.0568587
0.0551552
0.0534541
0.0517564
0.0500626
0.0483737
0.0466902
0.0450131
0.0433432
0.0416805
0.0400255
0.0383788
0.0367407
0.0351117
0.033492
0.0318821
0.0302826
0.028694
0.0271166
0.0255508
0.0239981
0.0224595
0.0209356
0.0194282
0.0179416
0.0164785
0.0150428
0.0136426
0.0122861
0.0109876
0.0097595
0.00860667
0.00745924
0.005754
0.0730733
0.0715754
0.070069
0.0685573
0.0670411
0.0655207
0.0639966
0.0624699
0.0609407
0.0594098
0.0578777
0.0563451
0.0548122
0.0532794
0.0517473
0.0502162
0.0486872
0.0471603
0.0456358
0.044114
0.0425955
0.0410804
0.0395695
0.038063
0.036562
0.0350665
0.0335783
0.032098
0.0306274
0.029169
0.0277248
0.0262973
0.0248918
0.0235144
0.0221704
0.0208695
0.0196235
0.0184449
0.0173498
0.0163547
0.0154789
0.0147386
0.0141442
0.0739518
0.0726111
0.0712623
0.0699083
0.0685491
0.0671849
0.0658161
0.0644431
0.063066
0.0616851
0.0603009
0.0589137
0.0575232
0.0561299
0.0547342
0.0533365
0.0519371
0.0505362
0.0491342
0.0477316
0.0463287
0.0449264
0.0435248
0.0421246
0.0407268
0.0393322
0.0379424
0.036559
0.0351846
0.0338214
0.0324726
0.0311421
0.0298355
0.0285584
0.0273181
0.0261246
0.0249873
0.0239176
0.0229292
0.0220344
0.0212456
0.020573
0.0200257
0.0747679
0.0735672
0.0723568
0.0711398
0.0699167
0.0686876
0.0674524
0.0662115
0.0649649
0.0637124
0.0624547
0.0611918
0.0599231
0.058649
0.0573698
0.0560855
0.0547965
0.053503
0.0522058
0.050905
0.0496012
0.0482953
0.0469874
0.0456783
0.0443692
0.0430613
0.0417562
0.0404556
0.0391619
0.0378784
0.0366083
0.035356
0.0341266
0.032926
0.0317616
0.030642
0.029576
0.0285748
0.0276496
0.0268096
0.0260648
0.0254243
0.0248936
0.0755324
0.0744496
0.0733587
0.0722606
0.0711554
0.0700428
0.0689227
0.0677952
0.06666
0.0655176
0.0643679
0.0632107
0.0620461
0.0608737
0.0596932
0.0585052
0.0573095
0.0561069
0.0548981
0.0536833
0.0524633
0.0512387
0.0500099
0.0487782
0.0475444
0.0463095
0.0450755
0.0438442
0.0426185
0.0414011
0.0401958
0.0390062
0.037838
0.0366968
0.0355891
0.0345232
0.033508
0.0325538
0.0316692
0.0308634
0.0301463
0.0295242
0.0290033
0.0762414
0.0752608
0.0742736
0.0732788
0.0722758
0.0712639
0.0702431
0.0692129
0.0681735
0.0671248
0.0660667
0.0649998
0.063924
0.0628382
0.0617421
0.0606358
0.059519
0.0583931
0.0572585
0.0561158
0.0549658
0.0538096
0.0526474
0.0514809
0.0503107
0.0491373
0.0479623
0.0467886
0.0456191
0.0444567
0.0433051
0.0421673
0.0410484
0.0399538
0.0388904
0.0378654
0.0368877
0.0359666
0.0351103
0.0343285
0.0336297
0.0330199
0.032505
0.0768872
0.0760019
0.0751066
0.0742022
0.0732877
0.0723633
0.0714286
0.0704821
0.0695249
0.0685562
0.0675762
0.0665859
0.0655857
0.0645747
0.0635512
0.0625143
0.0614648
0.0604036
0.0593317
0.0582492
0.0571575
0.0560581
0.054952
0.0538408
0.0527245
0.0516036
0.0504786
0.0493524
0.048229
0.0471126
0.0460063
0.0449127
0.0438347
0.0427783
0.04175
0.0407573
0.039808
0.0389113
0.0380761
0.0373115
0.0366258
0.0360254
0.035515
0.077481
0.076679
0.0758641
0.0750384
0.0742012
0.0733521
0.0724938
0.0716178
0.0707326
0.0698321
0.0689191
0.0679928
0.0670565
0.0661105
0.0651512
0.0641739
0.0631817
0.0621743
0.0611564
0.0601252
0.0590811
0.0580289
0.0569698
0.0559042
0.054834
0.0537594
0.0526787
0.0515916
0.0505051
0.0494258
0.0483585
0.0473043
0.0462624
0.0452379
0.0442377
0.0432722
0.0423444
0.0414657
0.0406458
0.0398939
0.0392186
0.0386269
0.03812
0.0780309
0.0772988
0.0765513
0.075793
0.0750249
0.0742371
0.0734558
0.072632
0.0718137
0.0709681
0.070114
0.0692394
0.0683537
0.0674597
0.0665614
0.0656364
0.0646982
0.0637332
0.0627608
0.0617776
0.0607692
0.0597534
0.0587327
0.057702
0.0566673
0.0556334
0.0545958
0.0535415
0.0524819
0.0514296
0.0503931
0.0493779
0.0483731
0.0473783
0.0464002
0.0454585
0.0445483
0.0436852
0.042878
0.042136
0.0414684
0.0408894
0.0403833
0.0048953
0.00532021
0.00595944
0.00663205
0.00731134
0.00799348
0.00867693
0.00936253
0.0100523
0.0107491
0.0114562
0.0121769
0.0129144
0.0136706
0.0144489
0.0152507
0.0160771
0.0169295
0.0178073
0.0187113
0.0196406
0.020593
0.0215669
0.0225582
0.0235652
0.0245897
0.0256442
0.0267402
0.0278788
0.0290548
0.0302655
0.0315097
0.0327873
0.0340957
0.0354325
0.0367963
0.0381855
0.0395997
0.0410374
0.042498
0.0439811
0.045487
0.047017
0.0137062
0.013424
0.0132917
0.0132944
0.013421
0.0136549
0.0139838
0.0143936
0.0148755
0.015418
0.0160142
0.0166574
0.0173416
0.018064
0.0188195
0.0196061
0.0204208
0.0212626
0.0221298
0.0230204
0.0239334
0.0248679
0.0258215
0.0267946
0.0277861
0.0287972
0.0298292
0.0308829
0.0319583
0.0330551
0.0341719
0.0353096
0.0364674
0.037645
0.0388418
0.0400578
0.0412923
0.0425453
0.0438161
0.0451044
0.0464101
0.0477346
0.0490849
0.0195999
0.0192925
0.0191015
0.0190268
0.0190613
0.0191993
0.0194291
0.0197435
0.020131
0.0205849
0.0210954
0.0216579
0.0222653
0.0229126
0.0235957
0.0243116
0.0250573
0.0258296
0.0266269
0.0274472
0.0282888
0.0291502
0.0300312
0.0309292
0.0318447
0.032777
0.033726
0.0346911
0.035672
0.0366685
0.03768
0.0387066
0.0397483
0.0408044
0.0418751
0.0429602
0.0440598
0.0451735
0.0463008
0.0474413
0.0485945
0.04976
0.0509374
0.0244722
0.0241556
0.0239451
0.0238398
0.0238363
0.0239287
0.0241098
0.0243705
0.0247036
0.025101
0.0255562
0.0260624
0.0266132
0.0272041
0.0278313
0.0284902
0.0291774
0.0298916
0.0306288
0.0313877
0.0321662
0.0329627
0.0337761
0.0346046
0.0354478
0.0363052
0.0371753
0.0380584
0.038953
0.0398598
0.040778
0.0417075
0.0426481
0.0435997
0.0445624
0.045536
0.0465205
0.0475153
0.0485201
0.0495343
0.0505574
0.0515875
0.0526218
0.0285829
0.0282616
0.02804
0.027918
0.0278923
0.0279575
0.0281066
0.0283328
0.028629
0.0289879
0.0294035
0.0298683
0.0303773
0.0309258
0.0315094
0.0321237
0.032766
0.0334333
0.0341222
0.0348311
0.0355573
0.0362995
0.0370558
0.0378252
0.0386067
0.0393993
0.0402019
0.0410142
0.0418356
0.042666
0.0435047
0.0443517
0.045207
0.0460702
0.0469414
0.0478208
0.0487077
0.0496015
0.050502
0.0514086
0.0523204
0.0532367
0.0541558
0.0320861
0.0317622
0.0315344
0.0314023
0.0313623
0.0314092
0.0315373
0.0317394
0.0320087
0.0323398
0.0327252
0.0331588
0.0336357
0.0341513
0.034701
0.0352812
0.0358878
0.0365174
0.037167
0.0378344
0.0385175
0.0392137
0.0399226
0.0406423
0.0413717
0.0421093
0.0428546
0.0436075
0.0443671
0.045133
0.045905
0.0466826
0.0474657
0.0482545
0.0490492
0.0498486
0.0506527
0.0514609
0.0522723
0.053087
0.0539038
0.0547218
0.0555414
0.0350972
0.0347718
0.0345404
0.0344013
0.034352
0.0343868
0.0344996
0.0346832
0.0349322
0.0352416
0.0356042
0.036014
0.0364654
0.0369545
0.0374794
0.0380331
0.0386109
0.0392088
0.0398247
0.0404578
0.0411046
0.0417627
0.0424316
0.0431098
0.0437949
0.0444861
0.0451829
0.0458861
0.0465936
0.0473053
0.048021
0.0487398
0.0494621
0.0501888
0.0509188
0.0516507
0.0523841
0.0531191
0.0538547
0.0545905
0.0553252
0.0560584
0.0567908
0.0377029
0.0373761
0.037143
0.0369994
0.0369459
0.0369725
0.0370719
0.0372395
0.0374716
0.0377666
0.0381118
0.0385004
0.0389303
0.0394008
0.0399095
0.040441
0.0409926
0.0415624
0.0421494
0.0427559
0.0433716
0.0439962
0.0446329
0.0452761
0.0459229
0.0465737
0.0472291
0.0478932
0.0485549
0.0492209
0.0498897
0.0505584
0.0512293
0.051905
0.0525805
0.053254
0.0539276
0.0545994
0.05527
0.0559386
0.0566021
0.0572603
0.0579159
0.0399693
0.0396395
0.0394106
0.0392603
0.039213
0.0392304
0.0393152
0.0394666
0.039686
0.0399775
0.040302
0.0406691
0.0410835
0.0415427
0.0420491
0.0425471
0.0430767
0.0436195
0.0441817
0.0447729
0.0453521
0.0459515
0.0465665
0.0471752
0.0477874
0.0484044
0.0490253
0.0496643
0.0502744
0.0509116
0.0515387
0.0521631
0.0527925
0.053431
0.0540555
0.054679
0.0553042
0.0559215
0.0565371
0.0571503
0.0577497
0.0583439
0.0589354
0.0204506
0.0193418
0.018277
0.0172543
0.0162727
0.0153313
0.0144287
0.0135641
0.0127364
0.0119445
0.0111875
0.0104649
0.00977563
0.00911926
0.00849503
0.00790239
0.00734103
0.00681064
0.00631165
0.00584516
0.00541322
0.00501955
0.00467041
0.00437001
0.00410907
0.0038761
0.00366258
0.00346276
0.00327268
0.00308902
0.00290938
0.00273112
0.00255208
0.00237019
0.00218328
0.00198924
0.00178597
0.00157161
0.00134444
0.00110236
0.000840622
0.000595337
0.000923731
0.0204229
0.0193967
0.0184082
0.0174557
0.0165381
0.0156543
0.0148035
0.0139848
0.0131971
0.01244
0.0117127
0.0110141
0.0103439
0.00970164
0.00908673
0.00849874
0.00793722
0.00740198
0.00689298
0.0064108
0.00595665
0.00553255
0.00514235
0.00479183
0.0044852
0.0042152
0.00397291
0.00375102
0.00354384
0.00334704
0.00315704
0.00297075
0.0027856
0.00259888
0.00240818
0.00221087
0.00200456
0.00178689
0.00155582
0.00131283
0.00112035
0.00149564
0.00280927
0.0203983
0.0194546
0.0185404
0.0176553
0.016799
0.0159707
0.0151695
0.0143948
0.0136459
0.0129223
0.0122233
0.0115481
0.0108967
0.0102684
0.00966302
0.0090801
0.0085195
0.00798092
0.00746428
0.00697003
0.00649855
0.00605112
0.00563011
0.00523978
0.00488717
0.0045755
0.00429735
0.00404575
0.00381462
0.00359886
0.00339396
0.00319602
0.00300166
0.0028077
0.00261116
0.0024091
0.00219853
0.00197676
0.00174432
0.00153869
0.00171417
0.0030104
0.00489589
0.0203794
0.0195099
0.0186637
0.0178408
0.0170408
0.0162635
0.0155081
0.0147741
0.0140611
0.0133685
0.0126959
0.0120429
0.0114093
0.0107945
0.0101986
0.00962123
0.00906238
0.00852192
0.0079997
0.00749611
0.0070114
0.00654642
0.00610268
0.00568287
0.00529267
0.00494014
0.00462447
0.00433957
0.00407985
0.00384044
0.00361643
0.00340332
0.00319699
0.00299355
0.00278946
0.0025812
0.00236546
0.00213995
0.00191653
0.00184457
0.00265044
0.00464346
0.00684361
0.0203668
0.0195623
0.0187773
0.0180107
0.0172622
0.0165313
0.0158176
0.0151208
0.0144406
0.0137765
0.0131285
0.012496
0.011879
0.0112772
0.0106906
0.010119
0.00956262
0.00902134
0.00849513
0.00798426
0.00748917
0.00701042
0.00654891
0.00610682
0.00568783
0.00529933
0.00494806
0.00462965
0.00433949
0.00407339
0.00382702
0.00359576
0.00337494
0.00316012
0.00294696
0.00273145
0.00250989
0.00228229
0.00208714
0.00227041
0.00373681
0.00616049
0.00858919
0.0203551
0.0196112
0.0188818
0.0181662
0.0174643
0.0167755
0.0160999
0.015437
0.0147867
0.014149
0.0135233
0.0129098
0.0123082
0.0117185
0.0111408
0.0105749
0.0100212
0.00947977
0.00895074
0.0084342
0.00793072
0.00744072
0.00696499
0.00650514
0.00606387
0.00564658
0.00526247
0.00491243
0.00459216
0.00429844
0.00402783
0.00377618
0.00353879
0.00331084
0.00308741
0.0028638
0.00263621
0.00240893
0.00226808
0.00279432
0.0048094
0.00751625
0.0101356
0.0203475
0.0196572
0.0189777
0.0183084
0.0176488
0.0169983
0.0163572
0.0157253
0.0151025
0.0144887
0.0138836
0.0132875
0.0127003
0.0121218
0.0115524
0.0109922
0.0104414
0.00990015
0.00936883
0.00884764
0.0083371
0.00783777
0.00735021
0.00687569
0.0064163
0.00597617
0.00556332
0.00518446
0.00483592
0.0045152
0.00421991
0.00394674
0.00369144
0.00344904
0.00321415
0.0029817
0.00274796
0.00252426
0.00246483
0.00336504
0.00579671
0.00871648
0.0115016
0.0203409
0.0196994
0.0190655
0.0184382
0.0178174
0.017202
0.0165921
0.0159888
0.0153915
0.0147996
0.0142135
0.0136336
0.0130597
0.0124915
0.0119297
0.0113752
0.0108276
0.010287
0.0097533
0.00922748
0.00871081
0.00820365
0.00770617
0.00721911
0.00674417
0.00628454
0.00584735
0.00544248
0.00506802
0.00472156
0.00440203
0.0041074
0.00383351
0.00357571
0.00332908
0.00308774
0.00284765
0.00263055
0.0026738
0.0039358
0.00668379
0.00977805
0.0127079
0.0203332
0.019737
0.0191446
0.0185548
0.0179725
0.0173903
0.0168063
0.0162302
0.0156594
0.0150892
0.0145206
0.013957
0.0133975
0.0128386
0.0122824
0.0117333
0.0111919
0.0106565
0.0101212
0.00958669
0.00906307
0.00855069
0.00804782
0.00755501
0.00707152
0.00659224
0.00612768
0.00569665
0.00530263
0.00493195
0.00458397
0.00426461
0.00397325
0.00369814
0.00343404
0.0031808
0.00293895
0.00273255
0.00290732
0.00452114
0.00749274
0.010725
0.0137748
0.00182569
0.00264871
0.0032858
0.00387854
0.00461727
0.0054489
0.00634166
0.00728725
0.0082814
0.00932151
0.0104035
0.0115248
0.0126836
0.0138778
0.0151094
0.0163764
0.0176809
0.0190238
0.0204061
0.0218305
0.0232986
0.0248143
0.0263796
0.0279982
0.0296738
0.0314111
0.0332147
0.0350892
0.0370408
0.0390751
0.0411985
0.0434179
0.0457405
0.0481735
0.0507208
0.0533866
0.0561749
0.0590903
0.0621369
0.0653194
0.0686416
0.0721075
0.0757208
0.00426436
0.00551196
0.00659004
0.00755352
0.00844052
0.0092767
0.0101131
0.0110145
0.0119953
0.0130328
0.0141145
0.0152346
0.0163909
0.0175817
0.0188054
0.0200619
0.0213514
0.0226744
0.0240331
0.0254285
0.0268633
0.0283395
0.0298606
0.0314292
0.0330496
0.0347247
0.0364592
0.0382575
0.0401242
0.0420646
0.044084
0.0461881
0.048383
0.0506746
0.0530656
0.0555587
0.058157
0.0608635
0.0636811
0.066613
0.0696623
0.0728314
0.0761227
0.00666223
0.00822799
0.00962196
0.0108747
0.0120161
0.0130735
0.0140735
0.0150406
0.0159968
0.016967
0.0179755
0.0190327
0.020134
0.021274
0.0224491
0.0236586
0.0249008
0.0261774
0.0274886
0.028836
0.0302218
0.0316468
0.0331138
0.034626
0.0361861
0.0377972
0.0394626
0.041186
0.0429711
0.0448225
0.0467442
0.0487409
0.0508174
0.0529784
0.0552256
0.0575608
0.0599858
0.0625025
0.0651129
0.0678188
0.0706226
0.073526
0.0765291
0.00885241
0.0106585
0.0122872
0.0137613
0.0151064
0.0163464
0.0175028
0.0185945
0.0196405
0.0206582
0.0216652
0.0226778
0.0237113
0.0247786
0.0258847
0.027029
0.0282107
0.0294291
0.0306849
0.0319785
0.0333107
0.0346831
0.036097
0.0375541
0.0390572
0.0406083
0.0422099
0.0438645
0.0455753
0.0473455
0.0491785
0.0510778
0.0530469
0.0550898
0.057207
0.0593995
0.0616684
0.0640141
0.0664378
0.0689406
0.0715242
0.0741908
0.0769398
0.0108029
0.0128076
0.0146254
0.016277
0.0177856
0.0191729
0.020459
0.0216633
0.0227999
0.0238853
0.0249336
0.0259584
0.0269747
0.0279974
0.0290409
0.0301181
0.0312354
0.0323935
0.0335935
0.0348343
0.036116
0.037439
0.0388039
0.0402117
0.0416636
0.043161
0.0447055
0.0462989
0.0479434
0.0496415
0.0513952
0.0532073
0.0550803
0.057017
0.0590179
0.0610829
0.063212
0.0654046
0.0676605
0.0699805
0.0723666
0.0748214
0.0773506
0.0125282
0.0147028
0.0166794
0.0184786
0.0201218
0.0216307
0.0230247
0.0243218
0.0255374
0.0266852
0.027779
0.0288315
0.0298558
0.0308663
0.0318769
0.032904
0.0339635
0.0350665
0.0362147
0.0374077
0.0386439
0.0399236
0.0412457
0.0426107
0.0440183
0.0454687
0.046963
0.0485028
0.0500891
0.0517236
0.0534074
0.0551415
0.0569283
0.0587706
0.0606681
0.0626202
0.0646252
0.0666808
0.0687855
0.0709404
0.0731473
0.0754073
0.0777186
0.0140521
0.0163743
0.0184879
0.0204127
0.0221693
0.0237796
0.0252634
0.0266386
0.0279206
0.0291228
0.0302574
0.0313386
0.0323791
0.0333912
0.0343877
0.0353854
0.0364046
0.0374616
0.0385652
0.0397161
0.0409133
0.0421556
0.0434423
0.0447712
0.04614
0.0475494
0.0490005
0.0504933
0.052029
0.0536082
0.0552299
0.0568935
0.0586029
0.0603615
0.0621687
0.064022
0.0659178
0.0678511
0.0698187
0.0718231
0.0738694
0.0759565
0.078081
0.0153974
0.0178503
0.0200841
0.0221181
0.0239716
0.0256674
0.027226
0.0286674
0.0300061
0.0312546
0.032425
0.0335329
0.03459
0.0356067
0.0365983
0.0375838
0.03858
0.0396024
0.0406675
0.0417819
0.0429452
0.0441573
0.0454168
0.0467154
0.0480479
0.0494222
0.0508367
0.0522879
0.0537804
0.0553135
0.0568785
0.0584755
0.0601153
0.0618015
0.0635312
0.0653004
0.0671015
0.0689254
0.0707647
0.0726306
0.0745344
0.0764715
0.0784339
0.0165853
0.0191541
0.0214962
0.0236277
0.0255639
0.0273327
0.0289512
0.0304496
0.0318399
0.0331288
0.034327
0.0354553
0.0365235
0.0375439
0.0385349
0.0395308
0.0405108
0.0415042
0.0425369
0.0436201
0.0447549
0.0459443
0.0471866
0.0484552
0.0497474
0.0510983
0.0524807
0.0538923
0.0553538
0.0568514
0.0583574
0.0598862
0.0614698
0.0630977
0.0647642
0.0664655
0.0681867
0.0699101
0.0716202
0.0733572
0.0751415
0.0769528
0.0787872
0.000342266
0.00152132
0.00289916
0.00435788
0.00586455
0.00740087
0.00895922
0.0105344
0.0121219
0.0137189
0.015325
0.0169401
0.0185636
0.020197
0.0218403
0.0234945
0.0251592
0.0268345
0.0285216
0.0302199
0.0319289
0.0336492
0.0353802
0.0371216
0.038873
0.0406341
0.042404
0.0441828
0.0459691
0.0477625
0.0495618
0.0513665
0.0531754
0.0549873
0.0568013
0.0586161
0.0604306
0.0622433
0.0640532
0.0658588
0.0676586
0.0694522
0.0712361
0.000229815
0.00104885
0.00211627
0.00331078
0.00459523
0.00594984
0.00736119
0.00881882
0.0103161
0.0118464
0.0134061
0.0149914
0.0165998
0.0182294
0.0198787
0.0215468
0.0232313
0.0249325
0.0266493
0.0283806
0.0301258
0.0318847
0.033656
0.0354391
0.0372337
0.0390388
0.0408539
0.0426776
0.0445096
0.0463488
0.048194
0.0500445
0.051899
0.0537562
0.0556153
0.057475
0.0593337
0.0611901
0.0630433
0.0648914
0.0667332
0.0685668
0.070388
0.000190383
0.000855607
0.00173649
0.00275107
0.00387196
0.0050808
0.00636402
0.00771128
0.00911451
0.0105667
0.0120621
0.0135958
0.0151643
0.0167642
0.0183927
0.0200471
0.0217256
0.0234265
0.0251482
0.026889
0.0286476
0.0304228
0.032214
0.0340198
0.0358388
0.0376704
0.0395136
0.0413668
0.0432295
0.0451002
0.0469781
0.0488614
0.0507494
0.0526407
0.0545339
0.0564276
0.0583208
0.0602116
0.0620988
0.0639808
0.065856
0.0677228
0.0695771
0.000176295
0.000704924
0.00146849
0.00236849
0.0033798
0.00448491
0.00567076
0.0069278
0.00824827
0.00962547
0.0110539
0.012529
0.0140469
0.0156037
0.0171963
0.0188221
0.0204783
0.0221628
0.0238734
0.0256082
0.0273655
0.0291439
0.0309416
0.0327573
0.0345892
0.0364362
0.0382969
0.04017
0.0420542
0.0439481
0.0458504
0.0477597
0.0496743
0.0515931
0.0535145
0.0554372
0.0573596
0.0592801
0.0611971
0.0631092
0.0650149
0.066912
0.0687991
0.000186775
0.000618833
0.00130788
0.00212598
0.00305246
0.00407241
0.00517478
0.0063514
0.00759524
0.00890087
0.0102635
0.0116787
0.0131422
0.0146509
0.0162018
0.0177915
0.0194172
0.0210767
0.0227674
0.0244872
0.0262345
0.0280068
0.029802
0.0316189
0.0334555
0.0353099
0.0371806
0.0390665
0.0409654
0.0428758
0.0447967
0.0467258
0.0486617
0.050603
0.0525482
0.0544954
0.0564431
0.0583895
0.0603333
0.0622726
0.064206
0.0661323
0.0680532
0.000193195
0.000562755
0.00119696
0.00195174
0.00281078
0.00376111
0.00479382
0.00590163
0.00707857
0.00831999
0.009622
0.0109803
0.012391
0.0138516
0.0153589
0.0169095
0.018501
0.0201311
0.0217968
0.023496
0.0252269
0.0269867
0.0287733
0.0305852
0.0324199
0.0342755
0.0361508
0.0380435
0.0399516
0.0418736
0.0438078
0.0457521
0.047705
0.0496647
0.0516294
0.0535976
0.0555671
0.0575364
0.0595038
0.0614674
0.0634258
0.0653764
0.0673145
0.000196623
0.000518933
0.00110938
0.00181395
0.00261876
0.00351244
0.00448723
0.00553679
0.00665611
0.00784109
0.00908843
0.0103941
0.0117554
0.0131696
0.0146337
0.016145
0.017701
0.0192993
0.020937
0.0226121
0.0243225
0.0260655
0.027839
0.0296412
0.0314693
0.033322
0.0351968
0.0370916
0.0390045
0.0409336
0.0428769
0.0448327
0.0467987
0.0487732
0.0507543
0.05274
0.0547283
0.0567177
0.058706
0.0606915
0.0626723
0.0646459
0.0666052
0.000199095
0.00048473
0.00103828
0.00170165
0.00246152
0.00330788
0.00423361
0.00523314
0.00630226
0.00743756
0.00863568
0.00989383
0.0112094
0.0125797
0.0140027
0.0154752
0.0169957
0.0185613
0.0201696
0.0218186
0.0235061
0.0252294
0.0269868
0.0287756
0.0305939
0.0324394
0.03431
0.0362033
0.0381173
0.0400497
0.0419989
0.0439625
0.0459383
0.0479246
0.0499189
0.0519193
0.053924
0.0559308
0.0579376
0.0599428
0.0619443
0.0639409
0.0659291
0.000200937
0.000457138
0.000979207
0.00160795
0.00232983
0.00313572
0.00401912
0.00497524
0.00600041
0.00709141
0.00824545
0.00946054
0.0107339
0.0120636
0.0134473
0.0148828
0.0163681
0.0179013
0.0194797
0.0211017
0.0227648
0.0244668
0.0262056
0.0279789
0.0297842
0.0316199
0.0334833
0.0353719
0.0372841
0.0392172
0.0411691
0.0431376
0.0451204
0.0471153
0.0491202
0.0511331
0.0531514
0.0551733
0.0571966
0.0592192
0.061239
0.0632538
0.0652558
0.000202372
0.00043396
0.000928988
0.00152819
0.00221745
0.00298825
0.00383467
0.00475254
0.00573872
0.00679007
0.00790456
0.00908023
0.0103149
0.0116066
0.0129536
0.0143538
0.0158056
0.017307
0.0188558
0.0204505
0.0220888
0.0237682
0.025487
0.027243
0.0290338
0.0308572
0.032711
0.0345929
0.0365005
0.0384315
0.0403836
0.0423543
0.0443415
0.0463428
0.048356
0.0503787
0.0524088
0.0544436
0.0564811
0.0585194
0.0605564
0.0625902
0.0646187
0.000203369
0.000413775
0.000885197
0.0014587
0.00211947
0.00285948
0.00367336
0.00455752
0.0055087
0.00652466
0.00760331
0.00874299
0.00994199
0.0111986
0.012511
0.013878
0.0152979
0.0167687
0.0182886
0.0198561
0.0214691
0.0231255
0.0248235
0.0265612
0.0283359
0.0301455
0.0319882
0.033861
0.0357621
0.0376888
0.0396388
0.0416097
0.0435991
0.0456048
0.0476239
0.0496545
0.0516939
0.0537395
0.0557897
0.0578417
0.0598933
0.0619428
0.0639842
0.000204228
0.000396465
0.000847044
0.00139769
0.00203329
0.00274598
0.00353087
0.00438465
0.00530446
0.00628831
0.00733445
0.00844124
0.0096073
0.0108313
0.0121117
0.0134472
0.0148367
0.016278
0.0177699
0.0193107
0.0208989
0.0225323
0.0242091
0.0259274
0.027685
0.0294799
0.0313097
0.0331722
0.035065
0.0369857
0.0389319
0.0409011
0.0428909
0.0448987
0.0469218
0.0489584
0.0510052
0.0530602
0.0551208
0.0571844
0.059249
0.061311
0.0633624
0.000204995
0.000381243
0.000813793
0.00134367
0.00195665
0.0026448
0.00340363
0.00423001
0.0051213
0.00607596
0.00709235
0.00816904
0.00930471
0.0104983
0.0117487
0.0130547
0.014415
0.0158283
0.0172933
0.0188084
0.0203721
0.0219825
0.023638
0.0253367
0.0270766
0.0288559
0.0306721
0.0325228
0.0344059
0.0363192
0.03826
0.0402257
0.0422141
0.0442223
0.0462481
0.0482888
0.0503414
0.0524037
0.0544731
0.0565472
0.0586236
0.0607003
0.0627744
0.000205681
0.000368049
0.000784366
0.00129521
0.00188781
0.00255389
0.00328917
0.00409057
0.00495606
0.00588407
0.00687311
0.00792191
0.00902943
0.0101948
0.0114171
0.0126952
0.014028
0.0154146
0.0168535
0.0183436
0.0198834
0.0214712
0.0231055
0.0247846
0.0265067
0.0282696
0.0300712
0.0319094
0.033782
0.0356866
0.0376204
0.0395815
0.041567
0.0435743
0.045601
0.047644
0.0497009
0.0517693
0.053846
0.0559288
0.0580147
0.0601009
0.0621809
0.000206408
0.000356312
0.00075794
0.0012515
0.00182556
0.00247148
0.00318528
0.00396401
0.00480579
0.00570914
0.00667285
0.00769592
0.00877741
0.0099164
0.0111123
0.0123643
0.0136712
0.0150321
0.0164461
0.0179121
0.0194287
0.0209942
0.0226079
0.0242673
0.0259712
0.0277175
0.029504
0.031329
0.0331903
0.0350851
0.0370112
0.0389664
0.0409477
0.0429528
0.0449788
0.047023
0.0490831
0.0511557
0.0532383
0.0553281
0.0574222
0.0595178
0.0616104
0.000207032
0.000345655
0.000733843
0.00121169
0.00176887
0.0023965
0.00309054
0.00384846
0.00466831
0.00554894
0.00648926
0.00748835
0.00854548
0.00965983
0.0108309
0.0120581
0.0133404
0.0146771
0.0160675
0.0175103
0.0190042
0.0205484
0.0221411
0.0237812
0.0254671
0.0271966
0.028968
0.0307792
0.0326283
0.0345127
0.0364302
0.0383782
0.0403545
0.042356
0.0443803
0.0464246
0.048486
0.0505618
0.052649
0.0547446
0.0568457
0.0589492
0.0610505
0.000207616
0.00033608
0.000711959
0.00117523
0.00171699
0.00232779
0.00300367
0.00374224
0.00454195
0.00540161
0.0063201
0.00729681
0.0083311
0.00942235
0.0105702
0.0117739
0.0130329
0.0143467
0.0157142
0.0171345
0.0186068
0.0201298
0.0217027
0.0233237
0.0249915
0.0267043
0.0284602
0.0302574
0.0320937
0.0339672
0.0358752
0.0378155
0.0397855
0.0417826
0.0438041
0.0458473
0.0479092
0.0499868
0.0520775
0.0541778
0.0562849
0.0583955
0.060505
0.00020814
0.000327343
0.00069195
0.00114199
0.00166923
0.00226439
0.00292349
0.00364427
0.00442526
0.00526527
0.00616352
0.00711933
0.00813223
0.00920182
0.0103278
0.0115093
0.0127462
0.0140379
0.0153835
0.0167825
0.0182337
0.0197366
0.0212897
0.022892
0.024542
0.026238
0.0279784
0.0297612
0.0315845
0.0334466
0.0353447
0.0372765
0.0392396
0.0412315
0.0432491
0.0452902
0.0473513
0.04943
0.0515229
0.0536271
0.0557393
0.0578565
0.0599742
0.000208658
0.000319443
0.000673689
0.00111157
0.00162504
0.00220573
0.00284932
0.0035536
0.00431707
0.00513865
0.00601786
0.00695416
0.00794696
0.00899621
0.0101013
0.0112619
0.0124778
0.0137483
0.0150731
0.0164515
0.0178826
0.0193657
0.0208999
0.0224838
0.0241162
0.0257955
0.0275203
0.0292887
0.0310991
0.0329493
0.0348368
0.0367596
0.0387153
0.0407011
0.0427143
0.0447522
0.0468118
0.0488903
0.0509848
0.0530918
0.0552084
0.0573314
0.0594567
0.000209135
0.000312132
0.000656757
0.00108338
0.00158404
0.00215125
0.00278033
0.00346912
0.00421629
0.00502077
0.00588221
0.00679996
0.00777379
0.00880363
0.00988908
0.01103
0.0122258
0.0134762
0.0147811
0.0161396
0.0175514
0.0190154
0.0205309
0.0220969
0.023712
0.025375
0.0270843
0.0288385
0.0306356
0.0324735
0.0343504
0.0362637
0.0382113
0.0401904
0.0421983
0.0442324
0.0462896
0.0483674
0.0504624
0.0525713
0.0546913
0.0568192
0.0589504
0.000209576
0.000305727
0.000641142
0.00105723
0.00154591
0.00210048
0.00271587
0.00339013
0.00412197
0.00491051
0.00575523
0.00665556
0.00761162
0.0086232
0.00969001
0.010812
0.0119886
0.01322
0.0145058
0.0158452
0.0172382
0.0186837
0.0201813
0.0217296
0.0233279
0.0249746
0.0266688
0.0284087
0.0301923
0.0320179
0.0338836
0.0357872
0.0377263
0.039698
0.0417
0.0437298
0.0457841
0.0478603
0.0499549
0.052065
0.0541873
0.0563186
0.0584536
0.000210263
0.000301106
0.000626665
0.00103286
0.00151037
0.00205298
0.00265565
0.00331632
0.00403373
0.00480707
0.00563592
0.00652
0.00745931
0.00845347
0.00950246
0.0106064
0.0117649
0.012978
0.0142454
0.0155667
0.0169415
0.0183693
0.019849
0.0213805
0.0229621
0.0245931
0.0262721
0.0279975
0.0297678
0.0315812
0.0334356
0.0353291
0.0372589
0.0392231
0.041219
0.0432436
0.0452943
0.0473681
0.0494619
0.0515722
0.0536962
0.0558297
0.0579675
0.000211475
0.000299545
0.000613293
0.00101015
0.001477
0.00200848
0.00259923
0.00324711
0.00395085
0.00470983
0.00552372
0.0063924
0.00731561
0.00829326
0.00932546
0.0104122
0.0115534
0.012749
0.0139989
0.0153025
0.0166598
0.0180702
0.0195332
0.0210478
0.0226134
0.0242288
0.0258928
0.027604
0.0293611
0.031162
0.033005
0.034888
0.0368088
0.038765
0.0407541
0.0427733
0.0448197
0.0468905
0.0489826
0.0510929
0.0532178
0.0553539
0.0574953
0.000213212
0.000300298
0.000600938
0.00098885
0.0014458
0.0019667
0.00254615
0.00318184
0.00387273
0.0046181
0.00541789
0.00627185
0.00717983
0.00814189
0.00915814
0.0102284
0.0113529
0.0125319
0.0137648
0.0150515
0.0163919
0.0177857
0.0192321
0.0207307
0.0222803
0.0238805
0.0255299
0.0272271
0.0289707
0.0307592
0.0325908
0.0344633
0.0363747
0.0383226
0.0403045
0.0423176
0.0443594
0.0464269
0.048517
0.0506265
0.0527524
0.0548921
0.0570437
0.000215158
0.0003022
0.000589497
0.000968976
0.00141667
0.00192735
0.00249597
0.00312019
0.00379892
0.00453163
0.00531795
0.00615799
0.00705139
0.00799848
0.00899939
0.010054
0.0111627
0.0123255
0.0135422
0.0148127
0.0161369
0.0175143
0.0189448
0.0204275
0.0219618
0.023547
0.0251821
0.0268654
0.0285959
0.030372
0.0321919
0.0340538
0.0359556
0.037895
0.0398692
0.0418762
0.0439129
0.0459765
0.0480638
0.050172
0.0522976
0.0544373
0.0565844
0.000217186
0.000304273
0.000578738
0.000950227
0.00138916
0.00189013
0.0024486
0.00306197
0.00372923
0.00444974
0.00522333
0.00604997
0.00692951
0.0078624
0.00884866
0.00988841
0.0109819
0.0121291
0.0133302
0.014585
0.0158934
0.0172553
0.0186702
0.0201375
0.0216569
0.0232276
0.0248482
0.0265179
0.0282353
0.029999
0.0318076
0.0336587
0.0355508
0.0374813
0.0394479
0.0414483
0.0434795
0.0455387
0.047623
0.0497291
0.051854
0.0539942
0.0561467
0.000219226
0.000306371
0.000568896
0.000932725
0.00136322
0.00185493
0.0024037
0.00300671
0.00366297
0.00437188
0.00513333
0.00594721
0.00681376
0.0077331
0.00870537
0.00973074
0.0108096
0.011942
0.0131279
0.0143675
0.0156608
0.0170076
0.0184073
0.0198598
0.0213646
0.0229207
0.0245275
0.0261837
0.0278884
0.0296401
0.0314369
0.0332773
0.0351594
0.037081
0.0390397
0.0410331
0.0430586
0.0451131
0.0471937
0.0492974
0.0514207
0.0535594
0.0557079
0.000221172
0.000308085
0.000559663
0.000916217
0.00133872
0.00182158
0.00236104
0.00295429
0.00360014
0.00429802
0.00504782
0.00584961
0.00670356
0.00760982
0.00856866
0.00958037
0.0106451
0.0117632
0.0129346
0.0141597
0.0154383
0.0167702
0.0181554
0.0195935
0.021084
0.0226261
0.0242191
0.0258622
0.0275542
0.0292935
0.0310789
0.0329086
0.0347808
0.0366933
0.0386441
0.0406303
0.0426495
0.0446989
0.0467756
0.0488764
0.050998
0.0531366
0.0552876
0.000222851
0.000309355
0.000550877
0.000900515
0.00131537
0.00178969
0.00232039
0.0029043
0.00354019
0.0042276
0.00496637
0.00575657
0.00659848
0.00749214
0.00843812
0.0094366
0.0104879
0.0115923
0.0127498
0.0139608
0.0152251
0.0165428
0.0179138
0.0193379
0.0208144
0.0223427
0.0239223
0.0255524
0.0272317
0.0289591
0.0307332
0.0325521
0.0344143
0.0363177
0.0382602
0.040239
0.0422519
0.044296
0.0463685
0.0484662
0.0505859
0.0527241
0.0548764
0.000224348
0.000310463
0.000542601
0.000885659
0.00129324
0.00175953
0.00228183
0.00285672
0.00348309
0.00416037
0.0048885
0.00566768
0.00649806
0.00737985
0.00831344
0.00929917
0.0103375
0.0114285
0.0125725
0.0137698
0.0150205
0.0163245
0.0176818
0.019092
0.0205547
0.0220698
0.0236364
0.0252536
0.0269207
0.0286363
0.0303989
0.0322072
0.0340593
0.0359535
0.0378875
0.0398589
0.0418653
0.0439038
0.0459718
0.0480661
0.0501835
0.0523207
0.054473
0.000225845
0.000311508
0.000534751
0.000871508
0.0012722
0.00173087
0.00224497
0.00281138
0.0034286
0.00409626
0.00481426
0.0055827
0.00640193
0.00727224
0.0081939
0.00916754
0.0101933
0.0112715
0.0124026
0.0135866
0.014824
0.0161146
0.0174584
0.0188553
0.0203049
0.0218069
0.0233606
0.0249654
0.0266202
0.028324
0.0300754