/*--------------------------------*- C++ -*----------------------------------*\
| =========                 |                                                 |
| \\      /  F ield         | OpenFOAM: The Open Source CFD Toolbox           |
|  \\    /   O peration     | Version:  2.3.0                                 |
|   \\  /    A nd           | Web:      www.OpenFOAM.org                      |
|    \\/     M anipulation  |                                                 |
\*---------------------------------------------------------------------------*/
FoamFile
{
    version     2.0;
    format      ascii;
    class       volScalarField;
    location    "4000";
    object      p;
}
// * * * * * * * * * * * * * * * * * * * * * * * * * * * * * * * * * * * * * //

dimensions      [0 2 -2 0 0 0 0];

internalField   nonuniform List<scalar> 
38546
(
0.000807835
2.448
4.37679
6.22472
8.07474
9.91698
11.745
13.558
15.357
17.1431
18.9127
20.6649
22.3992
24.1135
25.8067
27.472
29.1098
30.7093
32.2684
33.7757
35.2235
36.5968
37.8842
39.0658
40.1255
41.0377
41.7771
42.3021
42.5914
42.5772
42.2212
41.4412
40.1499
38.2536
35.587
32.0004
27.2425
20.8149
12.1288
0.397105
-15.4318
-38.6824
-79.3404
-1.52606
0.595065
2.39257
4.11334
5.84432
7.57997
9.31385
11.0424
12.7674
14.4866
16.1999
17.9044
19.5986
21.2823
22.9523
24.6081
26.2468
27.8654
29.4625
31.0354
32.5795
34.0901
35.56
36.9809
38.3411
39.6255
40.8174
41.8884
42.8134
43.5489
44.0493
44.2592
44.108
43.504
42.3472
40.5212
37.8788
34.251
29.3997
23.0403
14.8547
4.3821
-9.27078
-3.36626
-1.46449
0.0750274
1.51356
2.94933
4.37501
5.78601
7.17737
8.55004
9.90045
11.2276
12.5272
13.797
15.0341
16.2327
17.3897
18.4995
19.5565
20.5536
21.4832
22.3342
23.0967
23.7567
24.2999
24.7079
24.9597
25.032
24.8919
24.5063
23.8303
22.8177
21.4082
19.5339
17.1115
14.0502
10.2452
5.5772
-0.0769712
-6.84617
-14.8432
-24.1539
-34.7772
-46.5201
-5.00392
-3.34117
-2.0131
-0.768618
0.471786
1.70092
2.91595
4.11558
5.29785
6.46416
7.61135
8.73601
9.83719
10.9112
11.9524
12.9578
13.9228
14.8444
15.7153
16.5297
17.2778
17.949
18.532
19.0119
19.3726
19.5935
19.6523
19.5234
19.1745
18.5683
17.663
16.4106
14.7551
12.6378
9.9896
6.738
2.80831
-1.87452
-7.37822
-13.7484
-21.0036
-29.11
-37.9511
-6.36997
-5.05189
-3.9407
-2.86985
-1.80572
-0.753207
0.282847
1.30199
2.30242
3.28451
4.24428
5.18199
6.0937
6.97546
7.82079
8.62471
9.38139
10.0883
10.7371
11.3234
11.8372
12.2682
12.6058
12.8316
12.931
12.8854
12.672
12.2658
11.6395
10.7578
9.58169
8.06923
6.1694
3.83876
1.02005
-2.34176
-6.30114
-10.905
-16.1891
-22.1666
-28.8186
-36.0799
-43.8389
-7.50722
-6.5931
-5.66534
-4.75257
-3.84439
-2.93729
-2.04509
-1.16717
-0.305439
0.540272
1.3609
2.167
2.94803
3.70384
4.4243
5.10292
5.73517
6.32486
6.85348
7.32329
7.72234
8.04265
8.27685
8.40323
8.40164
8.26168
7.96262
7.47438
6.7826
5.85217
4.64332
3.11442
1.22194
-1.06477
-3.79097
-6.99798
-10.7376
-15.0221
-19.8941
-25.3425
-31.3469
-37.8465
-44.7564
-9.32404
-8.12856
-7.28624
-6.47701
-5.67981
-4.89209
-4.11682
-3.3605
-2.61346
-1.87391
-1.17142
-0.476294
0.202963
0.87332
1.50455
2.06523
2.56286
3.04897
3.47021
3.84299
4.14275
4.36438
4.51617
4.57301
4.48897
4.26661
3.89134
3.3109
2.54494
1.57117
0.34191
-1.19851
-3.10934
-5.3884
-8.07504
-11.1821
-14.8101
-18.8894
-23.514
-28.6143
-34.2033
-40.2147
-46.584
-10.565
-9.48229
-8.76797
-8.05374
-7.32113
-6.60774
-5.90089
-5.273
-4.63894
-3.99026
-3.39679
-2.82555
-2.27338
-1.65731
-0.988897
-0.430433
-0.0557945
0.32322
0.62212
0.926512
1.13287
1.24312
1.33027
1.36067
1.2367
0.989443
0.631339
0.00133949
-0.82433
-1.81872
-3.01358
-4.4746
-6.34298
-8.57033
-11.2263
-14.1581
-17.738
-21.6588
-26.1717
-30.9859
-36.2471
-41.8754
-47.8561
-11.2235
-10.5217
-10.1417
-9.69232
-9.10004
-8.26663
-7.65813
-6.97408
-6.61431
-6.03738
-5.60865
-5.20963
-4.95259
-4.71976
-4.38277
-3.23907
-2.8315
-2.399
-2.29814
-2.08986
-1.94779
-2.12581
-2.28283
-2.36763
-2.70409
-3.18574
-3.46327
-4.08663
-4.90544
-5.86759
-6.99448
-8.35072
-10.2017
-12.1685
-14.7697
-17.2357
-20.8383
-23.8836
-28.2078
-32.5815
-37.4518
-42.6958
-48.4713
-148.02
-156.707
-154.215
-159.618
-167.03
-172.28
-175.889
-178.697
-180.927
-182.669
-184.003
-185.049
-185.851
-186.481
-186.946
-187.257
-187.465
-187.559
-187.58
-187.517
-187.38
-187.194
-186.956
-186.686
-186.386
-186.066
-185.73
-185.389
-185.046
-184.708
-184.374
-184.054
-183.745
-183.45
-183.168
-182.902
-182.65
-182.414
-182.194
-181.99
-181.804
-181.633
-181.653
-28.8529
-49.7689
-68.2866
-84.7321
-99.1255
-111.382
-121.721
-130.479
-137.84
-144.016
-149.157
-153.437
-156.981
-159.905
-162.32
-164.308
-165.948
-167.299
-168.424
-169.371
-170.175
-170.872
-171.486
-172.032
-172.534
-172.995
-173.424
-173.828
-174.207
-174.566
-174.9
-175.216
-175.51
-175.782
-176.037
-176.273
-176.493
-176.695
-176.883
-177.057
-177.215
-177.33
-177.565
-58.9583
-71.1444
-82.3125
-92.4186
-101.547
-109.724
-116.953
-123.321
-128.908
-133.809
-138.103
-141.871
-145.184
-148.111
-150.699
-152.994
-155.047
-156.888
-158.536
-160.027
-161.373
-162.592
-163.699
-164.705
-165.623
-166.459
-167.219
-167.916
-168.553
-169.141
-169.679
-170.178
-170.641
-171.072
-171.478
-171.859
-172.219
-172.56
-172.884
-173.195
-173.494
-173.772
-174.188
-47.3554
-57.0226
-66.6281
-75.9364
-84.7736
-93.0248
-100.629
-107.571
-113.86
-119.525
-124.614
-129.168
-133.242
-136.881
-140.138
-143.048
-145.654
-147.992
-150.092
-151.988
-153.701
-155.259
-156.675
-157.968
-159.157
-160.249
-161.258
-162.196
-163.066
-163.881
-164.636
-165.346
-166.011
-166.633
-167.221
-167.777
-168.3
-168.797
-169.27
-169.72
-170.155
-170.59
-171.12
-51.9268
-60.1861
-68.4199
-76.4458
-84.1287
-91.3738
-98.121
-104.345
-110.049
-115.247
-119.968
-124.249
-128.127
-131.632
-134.806
-137.688
-140.311
-142.696
-144.871
-146.863
-148.689
-150.37
-151.919
-153.344
-154.668
-155.891
-157.028
-158.088
-159.075
-160.002
-160.863
-161.67
-162.43
-163.144
-163.822
-164.464
-165.072
-165.647
-166.194
-166.714
-167.203
-167.673
-167.986
-51.949
-59.3167
-66.7131
-73.9804
-81.0201
-87.7386
-94.0724
-99.9859
-105.472
-110.533
-115.181
-119.44
-123.333
-126.891
-130.147
-133.119
-135.844
-138.339
-140.62
-142.721
-144.66
-146.444
-148.091
-149.612
-151.024
-152.338
-153.551
-154.695
-155.764
-156.764
-157.694
-158.569
-159.393
-160.171
-160.914
-161.618
-162.286
-162.92
-163.52
-164.094
-164.633
-165.157
-165.443
-53.1969
-60.0032
-66.8084
-73.5006
-80.0429
-86.3349
-92.2884
-97.8818
-103.107
-107.962
-112.44
-116.56
-120.364
-123.858
-127.077
-130.022
-132.734
-135.24
-137.51
-139.631
-141.622
-143.441
-145.129
-146.693
-148.141
-149.499
-150.741
-151.941
-153.065
-154.102
-155.07
-155.984
-156.839
-157.66
-158.449
-159.195
-159.901
-160.571
-161.207
-161.823
-162.392
-162.942
-163.159
-53.9709
-60.4127
-66.8144
-73.0989
-79.2846
-85.2528
-90.9004
-96.2452
-101.242
-105.885
-110.243
-114.265
-118.016
-121.415
-124.581
-127.519
-130.231
-132.749
-134.974
-137.178
-139.262
-141.059
-142.743
-144.343
-145.816
-147.207
-148.433
-149.717
-150.888
-151.919
-152.906
-153.835
-154.687
-155.539
-156.376
-157.145
-157.867
-158.556
-159.211
-159.848
-160.42
-160.937
-161.137
-54.1419
-60.4194
-66.7978
-72.915
-78.8785
-84.6612
-90.0754
-95.2474
-100.104
-104.72
-109.223
-113.275
-116.981
-120.187
-123.462
-126.579
-129.372
-131.925
-134.029
-136.862
-138.706
-140.236
-141.92
-143.541
-144.887
-146.143
-147.182
-148.924
-149.857
-150.745
-151.721
-152.547
-153.283
-154.167
-155.023
-155.693
-156.301
-156.896
-157.49
-158.106
-158.58
-158.879
-158.892
-152.031
-152.486
-152.965
-153.433
-153.895
-154.351
-154.802
-155.245
-155.681
-156.109
-156.527
-156.936
-157.333
-157.718
-158.088
-158.442
-158.778
-159.095
-159.392
-159.668
-159.924
-160.162
-160.383
-160.592
-160.794
-160.994
-161.201
-161.42
-161.659
-161.928
-162.233
-162.586
-162.993
-163.464
-164.009
-164.637
-165.359
-166.185
-167.125
-168.183
-169.356
-170.842
-173.788
-151.467
-151.851
-152.256
-152.654
-153.048
-153.439
-153.827
-154.212
-154.594
-154.975
-155.354
-155.732
-156.109
-156.486
-156.864
-157.242
-157.621
-158.001
-158.383
-158.767
-159.152
-159.537
-159.923
-160.307
-160.69
-161.071
-161.449
-161.825
-162.197
-162.567
-162.934
-163.3
-163.664
-164.029
-164.393
-164.757
-165.115
-165.463
-165.79
-166.092
-166.419
-167.194
-169.823
-150.912
-151.264
-151.622
-151.971
-152.318
-152.664
-153.008
-153.352
-153.696
-154.038
-154.381
-154.724
-155.068
-155.412
-155.757
-156.103
-156.45
-156.8
-157.152
-157.506
-157.863
-158.222
-158.583
-158.944
-159.306
-159.666
-160.023
-160.376
-160.724
-161.064
-161.394
-161.713
-162.016
-162.301
-162.562
-162.794
-162.991
-163.146
-163.251
-163.333
-163.603
-164.953
-168.28
-150.429
-150.746
-151.071
-151.389
-151.706
-152.022
-152.337
-152.652
-152.966
-153.279
-153.591
-153.903
-154.213
-154.521
-154.829
-155.135
-155.439
-155.743
-156.045
-156.347
-156.648
-156.949
-157.25
-157.55
-157.849
-158.148
-158.445
-158.74
-159.031
-159.319
-159.601
-159.876
-160.143
-160.399
-160.64
-160.863
-161.063
-161.237
-161.387
-161.577
-162.184
-164.255
-167.622
-150.017
-150.284
-150.572
-150.858
-151.145
-151.433
-151.72
-152.008
-152.295
-152.583
-152.869
-153.156
-153.441
-153.725
-154.01
-154.293
-154.576
-154.859
-155.142
-155.424
-155.706
-155.988
-156.269
-156.548
-156.826
-157.102
-157.374
-157.643
-157.907
-158.166
-158.418
-158.664
-158.902
-159.131
-159.352
-159.563
-159.764
-159.951
-160.141
-160.435
-161.371
-163.785
-166.904
-149.609
-149.85
-150.11
-150.369
-150.63
-150.893
-151.155
-151.419
-151.683
-151.946
-152.21
-152.474
-152.737
-153.001
-153.265
-153.531
-153.797
-154.065
-154.334
-154.604
-154.875
-155.147
-155.419
-155.691
-155.96
-156.227
-156.489
-156.747
-156.998
-157.241
-157.475
-157.698
-157.912
-158.115
-158.307
-158.491
-158.674
-158.864
-159.089
-159.486
-160.718
-163.232
-166.158
-149.236
-149.452
-149.688
-149.924
-150.164
-150.406
-150.646
-150.888
-151.132
-151.374
-151.617
-151.861
-152.106
-152.35
-152.596
-152.845
-153.095
-153.348
-153.604
-153.86
-154.119
-154.38
-154.643
-154.905
-155.166
-155.425
-155.678
-155.927
-156.169
-156.402
-156.621
-156.824
-157.013
-157.192
-157.355
-157.501
-157.645
-157.842
-158.157
-158.742
-160.258
-162.801
-165.654
-148.902
-149.095
-149.309
-149.523
-149.743
-149.967
-150.188
-150.409
-150.636
-150.858
-151.081
-151.308
-151.536
-151.763
-151.993
-152.228
-152.466
-152.707
-152.951
-153.199
-153.445
-153.7
-153.955
-154.212
-154.469
-154.724
-154.973
-155.215
-155.457
-155.692
-155.907
-156.093
-156.262
-156.417
-156.546
-156.617
-156.672
-156.767
-157.102
-157.776
-159.363
-161.788
-164.652
-148.58
-148.758
-148.95
-149.143
-149.355
-149.574
-149.772
-149.971
-150.193
-150.402
-150.608
-150.822
-151.044
-151.257
-151.468
-151.69
-151.919
-152.153
-152.39
-152.627
-152.849
-153.097
-153.343
-153.59
-153.838
-154.1
-154.345
-154.567
-154.794
-155.036
-155.277
-155.45
-155.583
-155.745
-155.941
-155.976
-155.758
-155.741
-156.459
-158.06
-160.215
-163.165
-166.634
-180.517
-183.632
-184.922
-185.735
-186.395
-186.907
-187.283
-187.563
-187.785
-187.968
-188.125
-188.259
-188.372
-188.464
-188.535
-188.583
-188.606
-188.603
-188.573
-188.517
-188.433
-188.322
-188.187
-188.027
-187.847
-187.648
-187.433
-187.207
-186.972
-186.733
-186.494
-186.26
-186.033
-185.818
-185.619
-185.439
-185.282
-185.15
-185.046
-184.973
-184.932
-184.927
-184.959
-174.804
-178.67
-181.408
-183.282
-184.561
-185.432
-186.03
-186.442
-186.717
-186.886
-186.975
-187.006
-186.996
-186.954
-186.889
-186.806
-186.711
-186.608
-186.498
-186.386
-186.272
-186.159
-186.047
-185.937
-185.83
-185.726
-185.625
-185.526
-185.43
-185.334
-185.238
-185.141
-185.043
-184.944
-184.842
-184.739
-184.634
-184.53
-184.426
-184.324
-184.225
-184.125
-184.035
-172.238
-175.831
-178.803
-181.114
-182.86
-184.169
-185.148
-185.876
-186.404
-186.777
-187.027
-187.182
-187.263
-187.286
-187.262
-187.202
-187.114
-187.002
-186.871
-186.725
-186.566
-186.398
-186.221
-186.038
-185.851
-185.661
-185.47
-185.279
-185.09
-184.903
-184.721
-184.543
-184.371
-184.206
-184.048
-183.899
-183.758
-183.628
-183.506
-183.394
-183.288
-183.183
-183.115
-171.01
-174.182
-176.96
-179.263
-181.103
-182.542
-183.656
-184.505
-185.141
-185.608
-185.94
-186.162
-186.295
-186.353
-186.351
-186.303
-186.217
-186.104
-185.968
-185.815
-185.649
-185.473
-185.291
-185.106
-184.919
-184.732
-184.547
-184.364
-184.184
-184.007
-183.834
-183.665
-183.5
-183.34
-183.185
-183.038
-182.9
-182.77
-182.648
-182.533
-182.428
-182.333
-182.279
-170.007
-172.953
-175.6
-177.859
-179.724
-181.228
-182.417
-183.345
-184.062
-184.601
-184.997
-185.276
-185.457
-185.557
-185.589
-185.563
-185.494
-185.391
-185.259
-185.107
-184.938
-184.757
-184.568
-184.375
-184.182
-183.989
-183.798
-183.607
-183.419
-183.233
-183.052
-182.875
-182.702
-182.534
-182.375
-182.225
-182.087
-181.957
-181.832
-181.713
-181.613
-181.558
-181.394
-169.107
-171.927
-174.466
-176.658
-178.519
-180.042
-181.268
-182.238
-182.988
-183.557
-183.99
-184.311
-184.531
-184.657
-184.704
-184.694
-184.639
-184.549
-184.426
-184.278
-184.109
-183.926
-183.737
-183.549
-183.362
-183.177
-182.991
-182.803
-182.617
-182.435
-182.258
-182.082
-181.908
-181.741
-181.585
-181.441
-181.315
-181.193
-181.07
-180.945
-180.835
-180.754
-180.72
-168.495
-171.192
-173.628
-175.736
-177.58
-179.093
-180.324
-181.292
-182.04
-182.614
-183.07
-183.421
-183.666
-183.801
-183.844
-183.833
-183.789
-183.715
-183.602
-183.454
-183.282
-183.093
-182.907
-182.735
-182.567
-182.397
-182.217
-182.031
-181.851
-181.675
-181.509
-181.331
-181.154
-180.987
-180.835
-180.705
-180.607
-180.497
-180.367
-180.227
-180.108
-180.022
-180.036
-167.48
-170.148
-172.488
-174.452
-176.39
-177.911
-179.175
-180.124
-180.847
-181.43
-181.973
-182.428
-182.719
-182.827
-182.86
-182.885
-182.893
-182.865
-182.754
-182.601
-182.429
-182.256
-182.116
-181.991
-181.871
-181.724
-181.536
-181.347
-181.179
-181.016
-180.852
-180.647
-180.456
-180.288
-180.152
-180.062
-180.01
-179.873
-179.685
-179.512
-179.407
-179.389
-179.536
-169.516
-172.074
-173.861
-175.831
-178.897
-180.908
-181.752
-182.147
-182.548
-183.157
-183.699
-184.136
-184.208
-183.884
-183.642
-183.753
-183.952
-183.644
-183.221
-182.831
-182.503
-182.255
-182.061
-181.894
-181.647
-181.273
-180.951
-180.613
-180.342
-180.089
-179.876
-179.543
-179.328
-179.168
-179.069
-179.004
-178.916
-178.539
-178.389
-178.39
-178.499
-178.792
-179.235
156.539
155.263
149.744
143.481
137.147
130.833
124.651
118.554
112.525
106.684
101.083
95.8028
90.8348
86.172
81.8076
77.701
73.8485
70.1951
66.7286
63.4188
60.2409
57.1717
54.1978
51.2974
48.4588
45.6725
42.9303
40.2244
37.5506
34.907
32.2884
29.6942
27.1246
24.5773
22.0495
19.5426
17.0599
14.5944
12.1467
9.72769
7.34522
4.92574
2.18334
122.894
120.387
115.955
111.573
107.534
103.775
100.227
96.8486
93.6021
90.4555
87.3816
84.3645
81.3846
78.4357
75.5084
72.607
69.7278
66.8715
64.04
61.2413
58.4684
55.7275
53.0198
50.3445
47.7016
45.0903
42.509
39.9577
37.4273
34.928
32.4469
29.9882
27.5478
25.1261
22.7219
20.3308
17.9564
15.595
13.2442
10.9122
8.60326
6.26673
3.65936
127.727
126.634
125.071
123.12
120.775
118.078
115.092
111.866
108.457
104.903
101.251
97.5312
93.7846
90.0374
86.3076
82.6243
78.9938
75.4292
71.9354
68.521
65.1805
61.9165
58.7275
55.6092
52.5576
49.5661
46.637
43.7638
40.9408
38.1667
35.4381
32.7515
30.1043
27.4929
24.9162
22.37
19.8564
17.3686
14.9062
12.469
10.0642
7.66926
5.08757
115.573
114.62
113.367
111.845
110.095
108.14
106.007
103.72
101.298
98.7586
96.12
93.3926
90.5896
87.7232
84.8065
81.8467
78.8551
75.8407
72.8129
69.7796
66.7497
63.7283
60.7165
57.7289
54.7638
51.8234
48.9128
46.0301
43.1821
40.3621
37.5766
34.8235
32.1003
29.4084
26.7495
24.1162
21.5135
18.9374
16.3866
13.8585
11.3554
8.89996
6.33544
104.79
104.505
104.088
103.433
102.555
101.464
100.168
98.6769
97.0014
95.1527
93.1447
90.9904
88.7045
86.3013
83.7962
81.203
78.5356
75.8069
73.0314
70.2158
67.3715
64.5133
61.6404
58.7638
55.8913
53.025
50.17
47.3293
44.5075
41.7039
38.9205
36.1624
33.4271
30.7136
28.0276
25.3647
22.7289
20.1164
17.5309
14.972
12.4489
9.99479
7.71703
97.6718
97.4883
97.1344
96.5917
95.8917
95.0367
94.0297
92.872
91.5677
90.1204
88.5362
86.8212
84.9796
83.0195
80.95
78.7778
76.5113
74.161
71.7352
69.2414
66.6897
64.091
61.4511
58.777
56.0804
53.3635
50.6343
47.8988
45.1621
42.4266
39.6982
36.9778
34.2716
31.577
28.9
26.2372
23.5975
20.9716
18.3674
15.7837
13.233
10.6629
7.68921
90.8663
90.7148
90.4083
89.9699
89.4187
88.754
87.9739
87.0756
86.0585
84.9213
83.665
82.29
80.7978
79.1915
77.4748
75.6523
73.7268
71.7081
69.6005
67.4095
65.145
62.813
60.4195
57.9745
55.4837
52.9537
50.3912
47.8027
45.1946
42.5708
39.9374
37.2982
34.6576
32.0173
29.3844
26.7556
24.139
21.5318
18.9357
16.3543
13.8085
11.2051
7.91949
84.3704
84.2682
84.0497
83.7269
83.3119
82.8033
82.1981
81.4938
80.6882
79.7799
78.7668
77.6483
76.4245
75.0944
73.6607
72.124
70.4868
68.7533
66.9265
65.0099
63.0109
60.9333
58.7829
56.5666
54.2889
51.9575
49.5791
47.1581
44.7017
42.2158
39.7028
37.1723
34.6268
32.0684
29.5064
26.9387
24.3726
21.8088
19.252
16.7119
14.2112
11.6641
8.72817
78.4658
78.3977
78.2305
77.9758
77.6453
77.2382
76.7509
76.1809
75.5259
74.7835
73.9508
73.0269
72.0095
70.8968
69.6892
68.3856
66.9864
65.4944
63.9101
62.2352
60.4752
58.6302
56.7073
54.7097
52.6426
50.5096
48.3191
46.0737
43.7799
41.445
39.0705
36.6647
34.2314
31.7748
29.3021
26.8139
24.317
21.8139
19.3061
16.8033
14.3235
11.7998
8.80757
73.0139
72.9643
72.8292
72.6206
72.3495
72.0143
71.6126
71.1416
70.5991
69.9814
69.2865
68.512
67.6555
66.7142
65.6871
64.5725
63.3697
62.0789
60.7
59.2331
57.6817
56.0455
54.3272
52.5322
50.6614
48.7191
46.711
44.6406
42.5112
40.3308
38.1018
35.8308
33.5221
31.1803
28.81
26.4162
24.0026
21.5736
19.1318
16.6859
14.251
11.7735
8.94349
67.8892
67.8558
67.7483
67.5782
67.3551
67.0777
66.7428
66.3496
65.8942
65.3745
64.7876
64.131
63.4022
62.5983
61.7171
60.7568
59.7162
58.5936
57.3881
56.0994
54.7283
53.2754
51.7405
50.1273
48.4379
46.6725
44.8374
42.9339
40.9673
38.9405
36.8587
34.7257
32.5458
30.3257
28.0672
25.7755
23.4576
21.1138
18.7497
16.3714
13.9963
11.5678
8.76103
63.0423
63.0269
62.9441
62.8061
62.6228
62.3921
62.1123
61.7811
61.3964
60.9554
60.4556
59.8942
59.2688
58.5768
57.8155
56.9826
56.0767
55.0951
54.0366
52.9003
51.6854
50.3921
49.0198
47.5692
46.0431
44.4403
42.7662
41.02
39.2068
37.329
35.3906
33.3955
31.3461
29.2497
27.1071
24.9249
22.7075
20.4559
18.1763
15.8721
13.5648
11.1918
8.19666
58.4765
58.4708
58.4042
58.2911
58.1385
57.9443
57.7074
57.4261
57.0971
56.7196
56.2903
55.8066
55.2658
54.6655
54.0032
53.2762
52.4825
51.6198
50.6865
49.6803
48.6005
47.446
46.2165
44.9112
43.5309
42.0764
40.5487
38.9494
37.2801
35.5438
33.7434
31.8812
29.9614
27.988
25.9629
23.8931
21.7802
19.6293
17.4465
15.2387
13.0302
10.7669
8.1272
54.1252
54.1327
54.0832
53.9912
53.8645
53.7013
53.5006
53.26
52.978
52.6528
52.2819
51.8624
51.392
50.8683
50.2887
49.6507
48.9519
48.1902
47.3634
46.4693
45.5065
44.4732
43.3686
42.1921
40.9429
39.6213
38.2275
36.7624
35.2273
33.6236
31.9538
30.2193
28.4248
26.5708
24.6626
22.7031
20.6965
18.6462
16.5566
14.4354
12.3034
10.1255
7.5443
49.9907
50.0047
49.9654
49.8901
49.7845
49.6463
49.475
49.2686
49.0258
48.7442
48.4217
48.0561
47.6449
47.1855
46.6757
46.1134
45.4956
44.82
44.0846
43.2872
42.426
41.4985
40.5043
39.4414
38.3091
37.1072
35.8347
34.4919
33.0805
31.6003
30.0527
28.4394
26.7637
25.0258
23.2312
21.3802
19.4779
17.5272
15.5308
13.495
11.4332
9.32753
6.93005
46.0285
46.0505
46.0219
45.9623
45.8743
45.7583
45.6123
45.4351
45.2249
44.9802
44.6991
44.3792
44.0181
43.6137
43.1636
42.6659
42.1175
41.5163
40.8603
40.1469
39.3739
38.5396
37.6423
36.6804
35.6525
34.5578
33.3954
32.1644
30.8659
29.4997
28.0662
26.5666
25.0034
23.3767
21.6904
19.9453
18.1458
16.2934
14.3919
12.4445
10.46
8.42684
6.17818
42.2212
42.2507
42.2332
42.1868
42.116
42.0192
41.8954
41.7433
41.5619
41.3496
41.104
40.8234
40.5056
40.1485
39.75
39.3079
38.8196
38.2833
37.6962
37.0561
36.3608
35.6084
34.797
33.9246
32.9902
31.9916
30.9284
29.7993
28.604
27.3427
26.0154
24.6219
23.1646
21.6436
20.0608
18.4184
16.719
14.9633
13.1564
11.3009
9.40547
7.45987
5.33386
38.5746
38.6084
38.5969
38.5608
38.5029
38.4218
38.3164
38.1858
38.0289
37.8437
37.6288
37.382
37.1015
36.7855
36.4319
36.0382
35.6024
35.1225
34.5956
34.0199
33.3931
32.713
31.9779
31.1855
30.3345
29.4228
28.449
27.4125
26.3116
25.1469
23.9174
22.6232
21.2646
19.8434
18.3592
16.8143
15.2112
13.5502
11.8353
10.0692
8.26001
6.39433
4.33929
35.0516
35.091
35.0869
35.061
35.0148
34.9481
34.8596
34.7483
34.6128
34.4516
34.2634
34.0466
33.7988
33.519
33.2046
32.8534
32.4638
32.0331
31.5595
31.0409
30.4748
29.8591
29.1919
28.4711
27.6946
26.8611
25.9684
25.0158
24.0016
22.9255
21.7861
20.5841
19.3183
17.9903
16.5998
15.1481
13.6367
12.067
10.4413
8.76238
7.03848
5.2551
3.27077
31.6508
31.6932
31.6954
31.6783
31.6431
31.5894
31.5159
31.4216
31.3052
31.1652
31.001
30.8102
30.5915
30.3433
30.0635
29.7503
29.4012
29.0143
28.5882
28.1199
27.6079
27.0497
26.4432
25.7868
25.0775
24.3146
23.4954
22.6194
21.6844
20.6894
19.6337
18.5166
17.3377
16.0967
14.7943
13.4308
12.0076
10.525
8.98588
7.39128
5.75043
4.04938
2.1415
28.3444
28.3946
28.4054
28.3984
28.3744
28.3334
28.2736
28.195
28.0963
27.9763
27.8335
27.6661
27.4733
27.2535
27.0045
26.7248
26.4121
26.0646
25.6806
25.2575
24.7938
24.2869
23.7352
23.1361
22.4881
21.7889
21.0367
20.2304
19.3677
18.4473
17.4687
16.4303
15.3322
14.173
12.9534
11.6735
10.3338
8.93461
7.47828
5.96588
4.40574
2.78961
0.962689
25.1612
25.2149
25.2297
25.2285
25.213
25.1814
25.1331
25.0677
24.984
24.8807
24.7566
24.6103
24.4409
24.2461
24.0244
23.7745
23.4941
23.1818
22.8354
22.453
22.0325
21.5721
21.0693
20.5226
19.9295
19.2885
18.5972
17.8543
17.0579
16.2066
15.2989
14.3337
13.3103
12.2277
11.0859
9.88451
8.62399
7.30444
5.92691
4.49224
3.00796
1.46904
-0.283064
22.0603
22.1225
22.1429
22.1497
22.142
22.1199
22.0826
22.0296
21.9593
21.871
21.7638
21.6366
21.4877
21.3153
21.1183
20.8951
20.644
20.3632
20.051
19.7049
19.3236
18.9049
18.4468
17.9473
17.4043
16.8161
16.1806
15.4958
14.7602
13.9721
13.1302
12.2328
11.2791
10.268
9.19924
8.07191
6.88624
5.64182
4.33959
2.9792
1.56638
0.0935056
-1.5975
19.0694
19.1328
19.1549
19.1651
19.1631
19.1483
19.1199
19.0767
19.0182
18.9431
18.8511
18.7404
18.6098
18.4577
18.2831
18.0839
17.8589
17.6068
17.3252
17.0121
16.6661
16.2854
15.8678
15.4114
14.9138
14.3738
13.7893
13.158
12.4784
11.7486
10.9674
10.1328
9.24422
8.29994
7.29936
6.24188
5.12762
3.95598
2.72765
1.44404
0.112692
-1.26388
-2.80632
16.1328
16.2038
16.2321
16.2499
16.256
16.2499
16.2306
16.1979
16.1509
16.0889
16.0107
15.9157
15.8019
15.6685
15.5141
15.3369
15.136
14.9096
14.6557
14.373
14.0592
13.7129
13.3322
12.9149
12.4592
11.9635
11.4256
10.8433
10.2151
9.53927
8.81416
8.03814
7.2098
6.32814
5.39158
4.39967
3.35198
2.24796
1.08761
-0.128712
-1.39657
-2.71509
-4.21066
13.2837
13.3573
13.3886
13.4119
13.4245
13.4257
13.4149
13.3916
13.3555
13.3052
13.2401
13.1591
13.0606
12.9441
12.8081
12.6513
12.4721
12.2692
12.0408
11.7855
11.5012
11.1864
10.8394
10.458
10.0408
9.58561
9.09045
8.55344
7.9729
7.34696
6.67403
5.95219
5.18011
4.35672
3.48008
2.54993
1.56533
0.525563
-0.569493
-1.7193
-2.91944
-4.16328
-5.52895
10.5034
10.5815
10.6172
10.6462
10.6647
10.6729
10.6699
10.6552
10.6285
10.5887
10.5353
10.4669
10.3828
10.2819
10.1628
10.0241
9.86496
9.68351
9.47826
9.24795
8.99075
8.70497
8.38876
8.04049
7.65851
7.24065
6.78496
6.28972
5.75336
5.17362
4.54907
3.87771
3.15816
2.3891
1.56893
0.696561
-0.228781
-1.20816
-2.24222
-3.33118
-4.47332
-5.66593
-6.96186
7.81136
7.8875
7.92313
7.95452
7.97679
7.99005
7.99268
7.98518
7.96662
7.93618
7.89291
7.83624
7.76509
7.67819
7.57442
7.45278
7.3116
7.14995
6.96606
6.75884
6.52651
6.26714
5.97952
5.6618
5.31211
4.92862
4.50957
4.05311
3.55763
3.02068
2.44115
1.817
1.14653
0.428356
-0.338711
-1.15665
-2.02619
-2.94817
-3.92404
-4.9539
-6.0371
-7.17579
-8.41962
5.18482
5.25756
5.29366
5.32748
5.35289
5.36996
5.37795
5.3769
5.36572
5.34368
5.31001
5.26374
5.20419
5.12991
5.04034
4.93393
4.80978
4.66639
4.50225
4.31626
4.10661
3.87195
3.61069
3.32127
3.0015
2.64981
2.26461
1.84409
1.3863
0.889425
0.351893
-0.228283
-0.85262
-1.52303
-2.24031
-3.00673
-3.82312
-4.69078
-5.61094
-6.58439
-7.60867
-8.68618
-9.94257
2.5734
2.65271
2.69731
2.73903
2.77165
2.79626
2.81202
2.81866
2.81603
2.80306
2.779
2.74348
2.69526
2.63337
2.55709
2.4652
2.35691
2.23032
2.08453
1.91811
1.72983
1.51807
1.28117
1.01768
0.725593
0.403602
0.0500098
-0.337277
-0.759603
-1.21908
-1.71752
-2.25656
-2.83779
-3.46309
-4.13362
-4.85137
-5.61712
-6.43285
-7.29954
-8.218
-9.18371
-10.1938
-11.3977
0.0356559
0.117523
0.164605
0.21042
0.248173
0.278689
0.300701
0.314745
0.319557
0.314858
0.300003
0.274114
0.236635
0.186563
0.122625
0.0445013
-0.0494127
-0.160308
-0.289026
-0.437202
-0.605691
-0.796287
-1.01042
-1.24975
-1.51588
-1.81013
-2.13446
-2.49057
-2.87996
-3.30464
-3.76643
-4.2668
-4.80767
-5.39038
-6.01677
-6.68842
-7.40624
-8.17208
-8.98716
-9.85174
-10.7608
-11.7076
-12.8249
-2.41154
-2.33552
-2.29079
-2.2455
-2.20664
-2.17408
-2.14843
-2.13019
-2.11986
-2.11804
-2.12545
-2.14314
-2.17159
-2.21148
-2.26405
-2.32987
-2.41036
-2.50643
-2.61945
-2.75069
-2.90102
-3.07204
-3.26515
-3.48172
-3.72351
-3.99211
-4.28905
-4.61614
-4.97487
-5.36699
-5.79439
-6.25843
-6.7612
-7.30409
-7.8888
-8.51686
-9.18966
-9.90851
-10.6753
-11.4912
-12.3553
-13.2658
-14.3027
-4.8505
-4.76949
-4.71905
-4.66814
-4.62386
-4.58597
-4.55467
-4.53062
-4.51401
-4.5052
-4.50504
-4.51458
-4.53378
-4.56386
-4.60579
-4.66015
-4.72821
-4.8107
-4.90898
-5.02423
-5.15743
-5.31029
-5.48379
-5.67931
-5.89851
-6.14304
-6.41448
-6.71433
-7.04412
-7.40584
-7.80089
-8.23093
-8.69784
-9.20331
-9.74871
-10.3355
-10.9654
-11.6392
-12.3585
-13.1241
-13.9345
-14.7808
-15.6642
-7.22632
-7.14556
-7.09389
-7.04063
-6.9933
-6.95104
-6.91523
-6.88574
-6.86308
-6.84776
-6.84065
-6.8421
-6.85273
-6.87346
-6.90527
-6.94879
-7.00498
-7.07463
-7.15915
-7.25942
-7.3769
-7.5125
-7.66743
-7.84323
-8.04146
-8.26359
-8.51104
-8.78539
-9.08816
-9.42107
-9.7858
-10.1839
-10.6171
-11.0872
-11.5956
-12.1436
-12.7328
-13.3638
-14.0378
-14.7539
-15.5112
-16.3009
-17.027
-9.55522
-9.47409
-9.42052
-9.3648
-9.31478
-9.26922
-9.22921
-9.1952
-9.16723
-9.14627
-9.13252
-9.12666
-9.12942
-9.1415
-9.16405
-9.19729
-9.2423
-9.30015
-9.37148
-9.45798
-9.56041
-9.67973
-9.81738
-9.97476
-10.1533
-10.3541
-10.579
-10.8295
-11.1068
-11.4129
-11.7491
-12.1171
-12.5189
-12.9556
-13.4292
-13.9409
-14.4926
-15.0853
-15.7205
-16.3997
-17.1267
-17.9089
-18.6881
-11.8469
-11.7643
-11.7079
-11.6492
-11.5959
-11.5467
-11.5022
-11.4633
-11.4303
-11.4035
-11.3835
-11.3709
-11.3661
-11.37
-11.3833
-11.4068
-11.4416
-11.488
-11.5475
-11.6209
-11.7091
-11.8132
-11.9346
-12.0747
-12.2346
-12.4156
-12.6195
-12.8473
-13.1006
-13.3814
-13.6908
-14.0305
-14.4024
-14.8077
-15.2483
-15.7259
-16.2419
-16.7979
-17.3957
-18.037
-18.7239
-19.4635
-20.2348
-14.1011
-14.0167
-13.9576
-13.8952
-13.8383
-13.7848
-13.7361
-13.6926
-13.6543
-13.6218
-13.5956
-13.5764
-13.5645
-13.5605
-13.5654
-13.5799
-13.6046
-13.6405
-13.6885
-13.7495
-13.8242
-13.914
-14.0204
-14.144
-14.2863
-14.4486
-14.6325
-14.8392
-15.07
-15.3267
-15.6109
-15.9239
-16.2673
-16.643
-17.0525
-17.4974
-17.9793
-18.4999
-19.0614
-19.6653
-20.3122
-21.0084
-21.8083
-16.3202
-16.2323
-16.1694
-16.1036
-16.0427
-15.9854
-15.9324
-15.884
-15.8406
-15.8025
-15.7703
-15.7447
-15.7258
-15.7145
-15.7114
-15.7172
-15.7326
-15.7584
-15.7955
-15.8447
-15.9069
-15.9832
-16.0751
-16.1834
-16.3093
-16.454
-16.619
-16.8055
-17.015
-17.2492
-17.5094
-17.797
-18.1137
-18.4613
-18.8412
-19.2548
-19.7039
-20.1899
-20.7149
-21.2797
-21.8818
-22.5191
-23.2663
-18.4702
-18.3858
-18.326
-18.2605
-18.1992
-18.1404
-18.0848
-18.0335
-17.9866
-17.9441
-17.9072
-17.8759
-17.851
-17.8329
-17.8222
-17.82
-17.8265
-17.8428
-17.8697
-17.9079
-17.9583
-18.0219
-18.1002
-18.1939
-18.3041
-18.4322
-18.5794
-18.747
-18.9364
-19.1491
-19.3864
-19.6501
-19.9416
-20.2624
-20.614
-20.9979
-21.4158
-21.869
-22.3594
-22.8878
-23.453
-24.0581
-24.7517
-20.6245
-20.5344
-20.4683
-20.3974
-20.3312
-20.2677
-20.2077
-20.1517
-20.0998
-20.0525
-20.0101
-19.9734
-19.9423
-19.9175
-19.8998
-19.8898
-19.888
-19.8952
-19.9123
-19.94
-19.9793
-20.031
-20.0965
-20.1762
-20.2717
-20.384
-20.5143
-20.6641
-20.8344
-21.0267
-21.2426
-21.4837
-21.751
-22.0463
-22.371
-22.7267
-23.1151
-23.5374
-23.9954
-24.4901
-25.0205
-25.5898
-26.2665
-22.7162
-22.6276
-22.5625
-22.4908
-22.423
-22.3573
-22.2941
-22.2345
-22.1787
-22.127
-22.0799
-22.0376
-22.0007
-21.9697
-21.9452
-21.9279
-21.9181
-21.9167
-21.9246
-21.9426
-21.9712
-22.0115
-22.0646
-22.1312
-22.2128
-22.3102
-22.4246
-22.5572
-22.7094
-22.8825
-23.0782
-23.2975
-23.5419
-23.8131
-24.1123
-24.4412
-24.8012
-25.1939
-25.6205
-26.0818
-26.5784
-27.1124
-27.6765
-24.7726
-24.6846
-24.6195
-24.5469
-24.4774
-24.4096
-24.3443
-24.2819
-24.223
-24.1676
-24.1161
-24.0689
-24.0267
-23.99
-23.9593
-23.935
-23.9178
-23.9084
-23.9077
-23.9162
-23.9345
-23.9641
-24.0055
-24.06
-24.1281
-24.2113
-24.3104
-24.427
-24.5621
-24.7169
-24.8931
-25.0918
-25.3144
-25.5626
-25.8377
-26.1412
-26.4743
-26.839
-27.2365
-27.6677
-28.1342
-28.6435
-29.1972
-26.8081
-26.719
-26.6523
-26.5771
-26.505
-26.4344
-26.3658
-26.3
-26.2373
-26.1779
-26.1221
-26.0702
-26.0226
-25.9803
-25.9436
-25.9126
-25.8882
-25.8711
-25.8622
-25.8615
-25.8704
-25.8897
-25.9201
-25.9626
-26.0182
-26.0879
-26.1727
-26.2739
-26.3927
-26.5301
-26.688
-26.867
-27.069
-27.2953
-27.5474
-27.8266
-28.1343
-28.4723
-28.8419
-29.2443
-29.6803
-30.159
-30.7029
-28.8146
-28.7244
-28.656
-28.5788
-28.5039
-28.4304
-28.3587
-28.2894
-28.2229
-28.1594
-28.0991
-28.0424
-27.9898
-27.9421
-27.8991
-27.8617
-27.8307
-27.8063
-27.7891
-27.78
-27.78
-27.7895
-27.8093
-27.8404
-27.8839
-27.9408
-28.0119
-28.0985
-28.2017
-28.3227
-28.4629
-28.6233
-28.8056
-29.0111
-29.2413
-29.4973
-29.7807
-30.0928