/*--------------------------------*- C++ -*----------------------------------*\
| =========                 |                                                 |
| \\      /  F ield         | OpenFOAM: The Open Source CFD Toolbox           |
|  \\    /   O peration     | Version:  2.3.0                                 |
|   \\  /    A nd           | Web:      www.OpenFOAM.org                      |
|    \\/     M anipulation  |                                                 |
\*---------------------------------------------------------------------------*/
FoamFile
{
    version     2.0;
    format      ascii;
    class       surfaceScalarField;
    location    "4000";
    object      phi;
}
// * * * * * * * * * * * * * * * * * * * * * * * * * * * * * * * * * * * * * //

dimensions      [0 3 -1 0 0 0 0];

internalField   nonuniform List<scalar> 
76752
(
0.00227816
-0.00341609
0.00370566
-0.00256774
0.00202017
-0.00324879
0.00350678
0.00179155
-0.00308841
0.00331703
0.00159158
-0.00293545
0.00313542
0.00141853
-0.00278879
0.00296184
0.00127096
-0.00264857
0.00279614
0.00114719
-0.00251424
0.00263802
0.00104621
-0.00238571
0.00248669
0.00096668
-0.0022625
0.00234203
0.00090702
-0.00214459
0.00220425
0.000866214
-0.00203177
0.00207258
0.00084336
-0.00192379
0.00194664
0.000836911
-0.00182005
0.0018265
0.000846252
-0.00172076
0.00171142
0.00086971
-0.00162547
0.00160201
0.000907048
-0.00153417
0.00149683
0.000957011
-0.0014469
0.00139693
0.001019
-0.0013628
0.00130081
0.00109188
-0.00128212
0.00120924
0.00117507
-0.0012044
0.00112122
0.00126799
-0.00112998
0.00103706
0.00136976
-0.00105795
0.000956179
0.00147996
-0.000988775
0.000878573
0.00159827
-0.000921986
0.000803678
0.00172429
-0.000857769
0.000731745
0.00185704
-0.000795083
0.000662342
0.00199655
-0.000735195
0.00059568
0.00214258
-0.000675799
0.000529771
0.00229434
-0.000619012
0.000467254
0.00245332
-0.000564082
0.000405097
0.00261784
-0.000509752
0.00034523
0.00278867
-0.000456469
0.00028564
0.00296748
-0.000405303
0.000226497
0.00315403
-0.000356001
0.00016945
0.00334929
-0.000306024
0.000110764
0.00355583
-0.000258341
5.18051e-05
0.00377636
-0.000212332
-8.19711e-06
0.00401555
-0.000167374
-7.18165e-05
0.00427776
-0.000124438
-0.000137776
0.00457289
-8.21205e-05
-0.000213012
0.00491734
-4.59105e-05
-0.000298535
0.00534801
-1.41797e-05
-0.000416487
3.62316e-06
0.00598998
-0.000645601
0.00213168
-0.00315314
-0.00239463
0.00189722
-0.00301433
0.00168976
-0.00288095
0.00150765
-0.00275335
0.00134951
-0.00263065
0.00121368
-0.00251274
0.00109962
-0.00240018
0.00100559
-0.00229168
0.000930922
-0.00218784
0.00087423
-0.0020879
0.000834704
-0.00199225
0.000810996
-0.00190008
0.000802428
-0.00181148
0.000808332
-0.00172666
0.000827578
-0.00164472
0.000859515
-0.00156611
0.000903012
-0.00149039
0.000957693
-0.00141748
0.00102252
-0.00134694
0.00109746
-0.00127935
0.00118111
-0.00121363
0.00127388
-0.00115072
0.0013745
-0.00108939
0.0014828
-0.00103029
0.00159798
-0.000972956
0.00171999
-0.000917088
0.00184867
-0.000863872
0.00198414
-0.000811277
0.00212639
-0.000761255
0.00227407
-0.000711767
0.00242858
-0.000664261
0.00258986
-0.00061775
0.00275866
-0.000574099
0.00293375
-0.000531093
0.00311809
-0.000490367
0.00331311
-0.000453355
0.00351868
-0.000417904
0.00373773
-0.000386422
0.00397322
-0.000359927
0.00423006
-0.000338963
0.00451143
-0.000327279
0.00482191
-0.000324666
-0.000337268
0.0051628
0.00198555
-0.00291561
-0.00222308
0.0017731
-0.00280189
0.00158469
-0.00269254
0.00141829
-0.00258695
0.00127364
-0.00248599
0.00114954
-0.00238865
0.0010444
-0.00229503
0.000957635
-0.00220492
0.000887939
-0.00211814
0.000834595
-0.00203456
0.000796701
-0.00195435
0.000773673
-0.00187705
0.000764342
-0.00180215
0.000767887
-0.00173021
0.000784101
-0.00166093
0.000812161
-0.00159417
0.000850743
-0.00152898
0.000899996
-0.00146673
0.000958879
-0.00140583
0.0010269
-0.00134737
0.00110417
-0.00129089
0.00118958
-0.00123613
0.00128284
-0.00118266
0.00138371
-0.00113116
0.00149173
-0.00108097
0.0016077
-0.00103307
0.00172893
-0.000985097
0.00185757
-0.000939916
0.00199175
-0.000895433
0.00213321
-0.000853233
0.00228042
-0.000811463
0.00243493
-0.000772265
0.00259531
-0.000734475
0.00276248
-0.000698268
0.00293749
-0.000665372
0.003119
-0.000634865
0.00330808
-0.000606982
0.00350587
-0.000584216
0.00371264
-0.000566698
0.00392689
-0.000553209
0.00414623
-0.000546625
0.0043708
-0.000549238
-0.000559938
0.00459348
0.00184279
-0.00270054
-0.00205786
0.00164972
-0.00260882
0.00147746
-0.00252028
0.00132549
-0.00243497
0.00119254
-0.00235304
0.00107762
-0.00227373
0.000979988
-0.00219741
0.000899039
-0.00212397
0.000833247
-0.00205235
0.000782371
-0.00198368
0.000745585
-0.00191757
0.000721431
-0.0018529
0.000710181
-0.0017909
0.000711131
-0.00173116
0.000722596
-0.0016724
0.000744966
-0.00161654
0.00077762
-0.00156163
0.000819436
-0.00150855
0.000870904
-0.00145729
0.000930494
-0.00140696
0.000998214
-0.00135861
0.00107355
-0.00131147
0.00115624
-0.00126535
0.00124621
-0.00122112
0.00134262
-0.00117738
0.00144514
-0.00113559
0.00155463
-0.00109459
0.00166931
-0.0010546
0.00179057
-0.00101669
0.00191697
-0.000979634
0.00204967
-0.00094417
0.0021874
-0.000909989
0.00233145
-0.000878527
0.00248095
-0.00084777
0.00263602
-0.000820443
0.00279649
-0.000795334
0.00296337
-0.000773866
0.00313668
-0.000757521
0.00331421
-0.000744231
0.00349735
-0.000736351
0.00368649
-0.000735763
0.00387706
-0.000739806
-0.000753065
0.00407018
0.0017062
-0.00250456
-0.00190218
0.00152964
-0.00243225
0.00137208
-0.00236272
0.00123264
-0.00229554
0.00111011
-0.00223051
0.00100415
-0.00216776
0.00091362
-0.00210688
0.000837387
-0.00204774
0.000775914
-0.00199088
0.000727477
-0.00193524
0.000690971
-0.00188106
0.000667417
-0.00182934
0.000654791
-0.00177827
0.000652462
-0.00172883
0.000661454
-0.00168139
0.000679363
-0.00163445
0.000706713
-0.00158898
0.000742812
-0.00154465
0.000787341
-0.00150182
0.000839969
-0.00145959
0.000899501
-0.00141815
0.00096649
-0.00137846
0.00103999
-0.00133885
0.00112028
-0.00130142
0.00120694
-0.00126403
0.00129909
-0.00122774
0.00139723
-0.00119272
0.00150146
-0.00115883
0.00161048
-0.00112571
0.00172468
-0.00109383
0.00184406
-0.00106355
0.00196818
-0.0010341
0.00209773
-0.00100808
0.00223192
-0.000981965
0.00237051
-0.000959031
0.0025142
-0.000939028
0.0026628
-0.000922458
0.00281521
-0.00090993
0.0029711
-0.000900126
0.00313205
-0.000897297
0.00329524
-0.000898959
0.00346101
-0.000905569
-0.000920296
0.00362824
0.00157561
-0.00232473
-0.00175544
0.00141417
-0.00227081
0.00126975
-0.00221831
0.00114177
-0.00216755
0.00102881
-0.00211755
0.000930682
-0.00206964
0.000846607
-0.0020228
0.000775879
-0.00197701
0.000717453
-0.00193245
0.000671366
-0.00188916
0.000636562
-0.00184626
0.000612389
-0.00180517
0.000598643
-0.00176453
0.000594781
-0.00172497
0.000600405
-0.00168701
0.000614696
-0.00164874
0.000637598
-0.00161188
0.00066869
-0.00157574
0.000707149
-0.00154028
0.000752683
-0.00150512
0.000805814
-0.00147128
0.000864646
-0.00143729
0.00093032
-0.00140452
0.00100166
-0.00137276
0.00107893
-0.0013413
0.0011616
-0.00131041
0.00124904
-0.00128016
0.00134193
-0.00125172
0.00143947
-0.00122325
0.00154246
-0.00119683
0.00165011
-0.0011712
0.00176271
-0.00114671
0.0018779
-0.00112327
0.00199925
-0.00110331
0.0021242
-0.00108399
0.00225272
-0.00106755
0.00238548
-0.00105522
0.00252113
-0.00104558
0.00266135
-0.00104034
0.00280386
-0.00103981
0.00294927
-0.00104437
0.00309699
-0.00105329
-0.00106878
0.00324547
0.00145115
-0.00216186
-0.00161402
0.00130404
-0.0021237
0.00117194
-0.0020862
0.00105385
-0.00204947
0.000950247
-0.00201394
0.000859562
-0.00197895
0.000781477
-0.00194472
0.000715283
-0.00191081
0.000660734
-0.0018779
0.000616637
-0.00184506
0.000583695
-0.00181331
0.00055996
-0.00178143
0.000545883
-0.00175045
0.000540336
-0.00171942
0.000543162
-0.00168984
0.000555009
-0.00166058
0.000574179
-0.00163105
0.00060035
-0.00160191
0.000633864
-0.0015738
0.000674142
-0.0015454
0.000720428
-0.00151756
0.000772605
-0.00148946
0.000831182
-0.0014631
0.000894945
-0.00143652
0.000963586
-0.00140995
0.00103754
-0.00138436
0.00111714
-0.00135977
0.00120027
-0.00133485
0.0012887
-0.00131168
0.00138061
-0.00128873
0.00147712
-0.00126772
0.00157787
-0.00124745
0.00168339
-0.00122879
0.00179134
-0.00121125
0.00190329
-0.00119594
0.00201983
-0.00118409
0.00213888
-0.00117427
0.00226157
-0.00116826
0.0023871
-0.00116587
0.00251463
-0.00116734
0.00264553
-0.00117526
0.0027786
-0.00118637
-0.00120363
0.00291345
0.00133485
-0.00201326
-0.00148345
0.00119986
-0.00198872
0.00107875
-0.00196509
0.000970684
-0.0019414
0.000875077
-0.00191834
0.00079125
-0.00189513
0.000719024
-0.00187249
0.000657411
-0.0018492
0.000606175
-0.00182666
0.000565021
-0.00180391
0.00053304
-0.00178133
0.000510372
-0.00175877
0.000495974
-0.00173605
0.000489728
-0.00171318
0.000490842
-0.00169095
0.000499658
-0.0016694
0.00051529
-0.00164668
0.000538349
-0.00162497
0.000567336
-0.00160278
0.000602753
-0.00158082
0.00064406
-0.00155887
0.000690741
-0.00153615
0.000742576
-0.00151493
0.000799417
-0.00149336
0.000861184
-0.00147171
0.000927488
-0.00145066
0.000998553
-0.00143083
0.00107401
-0.0014103
0.00115268
-0.00139035
0.00123594
-0.00137199
0.00132294
-0.00135472
0.00141411
-0.00133861
0.00150862
-0.0013233
0.00160736
-0.00131
0.00170912
-0.0012977
0.00181299
-0.00128796
0.00192035
-0.00128163
0.00203045
-0.00127836
0.00214371
-0.00127914
0.00225933
-0.00128296
0.00237725
-0.00129319
0.00249736
-0.00130648
-0.00132536
0.0026191
0.00122547
-0.00136123
-0.0018775
0.00110255
-0.0018658
0.00099142
-0.00185396
0.000892104
-0.00184208
0.000803998
-0.00183023
0.000726866
-0.00181799
0.00065963
-0.00180526
0.000602883
-0.00179245
0.000554551
-0.00177833
0.000515884
-0.00176524
0.000485736
-0.00175118
0.000463856
-0.00173689
0.000449522
-0.00172172
0.000442549
-0.0017062
0.000441746
-0.00169015
0.000448657
-0.00167631
0.000462169
-0.0016602
0.00048199
-0.00164479
0.000507282
-0.00162808
0.000538594
-0.00161213
0.000575338
-0.00159561
0.000617159
-0.00157797
0.000662778
-0.00156055
0.00071395
-0.00154453
0.000769904
-0.00152767
0.000829231
-0.00150999
0.000892699
-0.0014943
0.000960788
-0.00147839
0.00103276
-0.00146232
0.00110782
-0.00144705
0.00118637
-0.00143328
0.00126896
-0.00142121
0.00135499
-0.00140933
0.0014435
-0.00139851
0.00153468
-0.00138887
0.00163028
-0.00138356
0.00172565
-0.00137699
0.00182732
-0.00138004
0.00192928
-0.0013811
0.00203416
-0.00138784
0.00214
-0.00139903
0.00224869
-0.00141517
0.00235886
-0.00143552
0.00599336
-4.7878e-05
4.45029e-05
0.00610753
-0.000138002
2.38307e-05
0.00625628
-0.000227566
7.88146e-05
0.00642995
-0.000318522
0.000144853
0.0066254
-0.000413453
0.000218003
0.00683252
-0.000503881
0.000296758
0.00704568
-0.000592124
0.00037897
0.0072611
-0.000677724
0.000462299
0.00747677
-0.00076339
0.000547719
0.00768748
-0.000845178
0.000634471
0.00789064
-0.000926612
0.000723455
0.00808533
-0.00100843
0.000813731
0.00826705
-0.00108769
0.000905977
0.00843918
-0.00117073
0.000998596
0.00859753
-0.00125132
0.00109297
0.00874251
-0.00133475
0.00118977
0.0088734
-0.00141783
0.00128694
0.0089889
-0.00150332
0.00138783
0.00909196
-0.00159139
0.00148833
0.00918026
-0.00168019
0.00159188
0.0092535
-0.0017721
0.00169886
0.00931335
-0.00186761
0.00180776
0.00935572
-0.00196325
0.00192088
0.00938361
-0.00206429
0.00203641
0.00939523
-0.00216838
0.00215676
0.00939053
-0.00227563
0.00228033
0.0093676
-0.00238675
0.00240968
0.00932645
-0.00250082
0.00254197
0.00926492
-0.00262005
0.00268159
0.00918512
-0.00274488
0.00282468
0.00908124
-0.0028712
0.00297508
0.00895649
-0.00300592
0.00313068
0.00880706
-0.00314358
0.00329301
0.00863272
-0.0032873
0.00346164
0.00843337
-0.00343697
0.00363631
0.00820577
-0.00359287
0.00382047
0.00795
-0.00375462
0.00401039
0.00766303
-0.00392321
0.00421018
0.00734471
-0.00409807
0.00441639
0.00699241
-0.00428034
0.00463264
0.00660634
-0.00447207
0.00485813
0.00618564
-0.00467011
0.00509081
-0.0048744
0.00533795
0.00572209
0.00548575
-0.000370826
0.0057742
-0.000426453
0.00603136
-0.000484725
0.00626376
-0.000550921
0.00646786
-0.000617555
0.00665537
-0.000691383
0.00682496
-0.000761723
0.0069849
-0.000837655
0.00713188
-0.000910378
0.00727318
-0.000986475
0.0074059
-0.00105933
0.00753292
-0.00113545
0.00765459
-0.00120936
0.00776832
-0.00128447
0.00787607
-0.00135907
0.00797621
-0.00143489
0.00807044
-0.00151206
0.00815679
-0.00158967
0.0082333
-0.0016679
0.0083014
-0.00174828
0.00835889
-0.00182959
0.00840365
-0.00191238
0.00843939
-0.00199898
0.00846063
-0.00208554
0.00846821
-0.00217596
0.00846173
-0.00226915
0.00843963
-0.00236465
0.008402
-0.00246319
0.00834683
-0.00256489
0.00827278
-0.00267083
0.00818091
-0.00277932
0.00806783
-0.00289285
0.00793475
-0.0030105
0.00777891
-0.00313146
0.00760004
-0.00325809
0.00739601
-0.00338885
0.00716678
-0.00352539
0.00691041
-0.00366684
0.00662628
-0.00381394
0.00631183
-0.0039659
0.00596552
-0.00412575
0.00558482
-0.00428941
-0.00446309
0.0051735
0.00481114
-0.000588495
0.00501616
-0.000631466
0.00521325
-0.00068182
0.00540175
-0.000739425
0.00558439
-0.000800188
0.00575721
-0.000864204
0.00592606
-0.000930577
0.00608551
-0.000997097
0.00623961
-0.00106449
0.00638456
-0.00113142
0.0065251
-0.00119987
0.00665717
-0.00126752
0.00678217
-0.00133437
0.0068992
-0.00140149
0.00701079
-0.00147065
0.0071139
-0.00153801
0.00720692
-0.00160508
0.00729285
-0.0016756
0.00736856
-0.00174361
0.0074348
-0.00181452
0.00749123
-0.00188602
0.00753781
-0.00195895
0.00757211
-0.00203329
0.00759478
-0.00210821
0.00760485
-0.00218603
0.00760193
-0.00226623
0.00758437
-0.00234709
0.00755329
-0.00243211
0.00750545
-0.00251704
0.00744226
-0.00260764
0.00736148
-0.00269854
0.00726289
-0.00279426
0.00714445
-0.00289206
0.00700638
-0.00299339
0.00684689
-0.0030986
0.00666571
-0.00320766
0.00646116
-0.00332084
0.0062323
-0.00343798
0.00597708
-0.00355872
0.0056964
-0.00368522
0.00538651
-0.00381586
0.00504824
-0.00395114
-0.0040929
0.00467806
0.00425919
-0.000777496
0.00444576
-0.000818041
0.00462646
-0.000862522
0.00480047
-0.000913428
0.00496835
-0.000968071
0.00513026
-0.00102611
0.00528364
-0.00108396
0.00543073
-0.00114419
0.00557191
-0.00120567
0.00570697
-0.00126648
0.005836
-0.00132889
0.00595749
-0.00138901
0.00607357
-0.00145045
0.00618326
-0.00151118
0.00628447
-0.00157186
0.00637838
-0.00163192
0.00646681
-0.00169351
0.00654567
-0.00175446
0.00661713
-0.00181507
0.00668022
-0.00187762
0.00673336
-0.00193916
0.00677699
-0.00200259
0.00681054
-0.00206684
0.00683322
-0.00213089
0.00684539
-0.00219819
0.00684403
-0.00226487
0.00683075
-0.00233381
0.0068033
-0.00240467
0.00676246
-0.0024762
0.00670649
-0.00255167
0.00663518
-0.00262723
0.00654633
-0.00270541
0.00644183
-0.00278756
0.00631838
-0.00286994
0.0061757
-0.00295592
0.00601422
-0.00304618
0.00583064
-0.00313726
0.00562429
-0.00323162
0.00539673
-0.00333116
0.0051439
-0.00343239
0.00486637
-0.00353833
0.00456137
-0.00364614
-0.00376173
0.0042302
0.00379478
-0.000944033
0.00395708
-0.000980345
0.00411767
-0.00102312
0.00427369
-0.00106945
0.00442482
-0.0011192
0.00456931
-0.0011706
0.00471064
-0.00122529
0.0048463
-0.00127986
0.00497602
-0.00133539
0.00510183
-0.00139229
0.00522027
-0.00144734
0.00533356
-0.00150231
0.00544128
-0.00155817
0.00554401
-0.00161391
0.00563946
-0.00166731
0.00572834
-0.0017208
0.00581014
-0.0017753
0.00588457
-0.00182889
0.00595208
-0.00188258
0.00601123
-0.00193677
0.00606217
-0.0019901
0.00610304
-0.00204345
0.00613536
-0.00209916
0.00615755
-0.00215308
0.00616884
-0.00220949
0.0061695
-0.00226552
0.00615816
-0.00232247
0.00613575
-0.00238226
0.00609973
-0.00244018
0.00605004
-0.00250197
0.00598644
-0.00256363
0.00590831
-0.00262728
0.00581353
-0.00269278
0.00570261
-0.00275902
0.00557599
-0.0028293
0.00542888
-0.00289907
0.00526509
-0.00297348
0.0050806
-0.00304713
0.00487451
-0.00312507
0.00464739
-0.00320527
0.00439605
-0.00328699
0.00412441
-0.00337451
-0.00346039
0.00382308
0.00339584
-0.0010944
0.00354274
-0.00112725
0.00368663
-0.001167
0.00382694
-0.00120976
0.00396334
-0.0012556
0.00409658
-0.00130384
0.00422494
-0.00135365
0.00434854
-0.00140346
0.00446832
-0.00145516
0.00458279
-0.00150675
0.00469168
-0.00155623
0.00479714
-0.00160777
0.00489657
-0.0016576
0.00498871
-0.00170605
0.00507763
-0.00175623
0.00515951
-0.00180269
0.0052351
-0.00185089
0.00530412
-0.00189791
0.00536617
-0.00194463
0.00542069
-0.00199129
0.00546749
-0.0020369
0.00550629
-0.00208225
0.00553629
-0.00212916
0.00555744
-0.00217422
0.00556783
-0.00221988
0.00556924
-0.00226694
0.00556061
-0.00231384
0.00553954
-0.00236119
0.00550809
-0.00240873
0.00546394
-0.00245783
0.0054068
-0.00250649
0.00533571
-0.00255619
0.00525118
-0.00260826
0.00515286
-0.0026607
0.00503725
-0.00271369
0.0049059
-0.00276772
0.00475666
-0.00282424
0.00459146
-0.00288193
0.00440512
-0.00293873
0.00420073
-0.00300088
0.00397685
-0.0030631
0.0037278
-0.00312546
-0.00319275
0.00346015
0.00304649
-0.00122744
0.00318053
-0.00126128
0.00330996
-0.00129643
0.00343762
-0.00133741
0.00356114
-0.00137912
0.00368184
-0.00142455
0.00379875
-0.00147055
0.00391243
-0.00151714
0.00402075
-0.00156348
0.00412471
-0.00161072
0.00422593
-0.00165745
0.004322
-0.00170384
0.00441184
-0.00174744
0.00449932
-0.00179353
0.00457887
-0.00183578
0.0046553
-0.00187911
0.00472434
-0.00191993
0.00478726
-0.00196083
0.0048453
-0.00200267
0.00489454
-0.00204054
0.0049383
-0.00208066
0.00497388
-0.00211782
0.00500115
-0.00215644
0.0050208
-0.00219387
0.00503231
-0.00223139
0.00503442
-0.00226905
0.00502651
-0.00230593
0.00500777
-0.00234245
0.0049795
-0.00238046
0.00493926
-0.00241759
0.00488745
-0.00245468
0.00482421
-0.00249294
0.00474811
-0.00253216
0.00465746
-0.00257004
0.00455414
-0.00261038
0.00443547
-0.00264904
0.00430089
-0.00268967
0.00415027
-0.00273131
0.0039843
-0.00277276
0.00379863
-0.00281521
0.00359392
-0.00285839
0.00337341
-0.00290494
-0.00294847
0.00312913
0.00274127
-0.00134961
0.00286029
-0.00138031
0.00297946
-0.0014156
0.0030945
-0.00145246
0.00320864
-0.00149325
0.00331744
-0.00153335
0.00342381
-0.00157692
0.00352572
-0.00161905
0.00362605
-0.00166381
0.00372228
-0.00170695
0.00381338
-0.00174854
0.00390015
-0.00179062
0.0039841
-0.00183139
0.00406227
-0.0018717
0.00413618
-0.00190969
0.00420461
-0.00194754
0.00426914
-0.00198445
0.00432776
-0.00201946
0.00437892
-0.00205382
0.00442581
-0.00208743
0.00446519
-0.00212004
0.00449784
-0.00215047
0.00452344
-0.00218204
0.00454146
-0.00221189
0.0045515
-0.00224143
0.00455291
-0.00227045
0.00454562
-0.00229864
0.00453028
-0.00232712
0.00450375
-0.00235392
0.00446779
-0.00238164
0.00442206
-0.00240894
0.00436495
-0.00243583
0.00429538
-0.00246259
0.00421407
-0.00248873
0.00412016
-0.00251647
0.00401216
-0.00254104
0.0038914
-0.00256891
0.00375496
-0.00259487
0.00360561
-0.00262341
0.00343691
-0.00264651
0.00325497
-0.00267646
0.00305277
-0.00270274
-0.00273007
0.00283437
0.00247066
-0.00146142
0.00257953
-0.00148918
0.00268594
-0.00152201
0.00279159
-0.00155811
0.00289392
-0.00159558
0.00299385
-0.00163328
0.00308993
-0.001673
0.00318429
-0.00171341
0.00327471
-0.00175423
0.00336169
-0.00179393
0.00344545
-0.0018323
0.00352527
-0.00187043
0.00360132
-0.00190744
0.00367349
-0.00194387
0.00374146
-0.00197767
0.00380464
-0.00201072
0.00386238
-0.00204219
0.00391589
-0.00207298
0.00396542
-0.00210335
0.00400648
-0.00212849
0.00404173
-0.00215529
0.0040723
-0.00218104
0.00409515
-0.00220489
0.00411134
-0.00222807
0.00412051
-0.0022506
0.00412244
-0.00227238
0.00411745
-0.00229364
0.00410152
-0.0023112
0.00407844
-0.00233084
0.00404559
-0.00234878
0.00400303
-0.00236638
0.00395084
-0.00238364
0.00388824
-0.0024
0.00381651
-0.002417
0.00372966
-0.00242962
0.00363237
-0.00244375
0.00352385
-0.00246038
0.00340007
-0.00247109
0.00326292
-0.00248626
0.00311283
-0.00249642
0.00294487
-0.0025085
0.00276467
-0.00252255
-0.0025317
0.00256631
0.000368248
0.00662156
-0.00720762
0.000217815
0.000909693
0.00639676
-0.00693821
0.00141045
0.00617828
-0.00667905
0.0018728
0.00596786
-0.00643022
0.00229876
0.00576576
-0.00619172
0.00268348
0.00557406
-0.00595879
0.00303816
0.00538402
-0.00573871
0.00335374
0.00520657
-0.00552216
0.00363852
0.00503109
-0.00531587
0.00389042
0.0048659
-0.0051178
0.00411161
0.00470236
-0.00492355
0.00430162
0.00454941
-0.00473941
0.0044648
0.00439809
-0.00456127
0.00459876
0.00425499
-0.00438895
0.00470551
0.00411566
-0.0042224
0.00478704
0.00398024
-0.00406176
0.00484092
0.00385073
-0.0039046
0.00487135
0.00372486
-0.00375528
0.00487809
0.00360255
-0.00360929
0.00485854
0.00348611
-0.00346655
0.00481737
0.00337068
-0.00332952
0.00475388
0.00326089
-0.00319739
0.00466841
0.00314966
-0.0030642
0.00456254
0.0030462
-0.00294032
0.00443644
0.00294107
-0.00281498
0.0042904
0.00284094
-0.0026949
0.00412448
0.00274152
-0.0025756
0.00394332
0.00264258
-0.00246142
0.00374114
0.00254818
-0.00234599
0.00352899
0.00245003
-0.00223788
0.00329719
0.00235856
-0.00212676
0.00305461
0.00226534
-0.00202276
0.00280272
0.00217186
-0.00191998
0.00253821
0.00208076
-0.00181625
0.00226659
0.00198718
-0.00171555
0.00198708
0.00189711
-0.00161761
0.00170527
0.00180189
-0.00152007
0.00142146
0.00170819
-0.00142437
0.00113784
0.00160726
-0.00132364
0.000857889
0.00150328
-0.00122333
0.000594355
0.00137964
-0.0011161
0.00038103
0.00120019
-0.000986865
0.000897759
0.000261952
-0.000778681
0.000339004
0.00608958
0.000192966
0.000832433
0.00590332
0.00128741
0.0057233
0.00170602
0.00554925
0.00209017
0.00538161
0.00244207
0.00522217
0.00275925
0.00506684
0.00304595
0.00491987
0.0033025
0.00477455
0.00353271
0.0046357
0.00373206
0.00450302
0.00390496
0.00437652
0.00405143
0.00425163
0.00417322
0.00413321
0.0042727
0.00401619
0.004345
0.00390795
0.00439689
0.00379884
0.00442365
0.00369811
0.00442949
0.00359671
0.00441662
0.00349899
0.00438228
0.00340501
0.00432886
0.00331431
0.0042536
0.00322491
0.0041613
0.0031385
0.00404931
0.00305306
0.00392179
0.00296845
0.00377718
0.00288613
0.00361544
0.00280431
0.00343866
0.00272496
0.00324527
0.00264342
0.00304042
0.00256341
0.00282435
0.0024814
0.00259578
0.00240044
0.0023579
0.00231864
0.00210965
0.00223543
0.0018567
0.00215006
0.00159822
0.00206037
0.00133976
0.00196664
0.00107817
0.00186885
0.00082362
0.00175783
0.000591775
0.00161148
0.000425227
0.00136674
0.00103852
0.000284464
0.000311895
0.00560978
0.000167899
0.000759907
0.00545531
0.00117146
0.00531174
0.00155078
0.00516992
0.00190022
0.00503217
0.00221737
0.00490502
0.00250633
0.00477788
0.00276718
0.00465903
0.00299979
0.00454194
0.00320611
0.00442938
0.00338651
0.00432263
0.0035448
0.00421824
0.00367885
0.00411759
0.00378856
0.00402351
0.00387583
0.00392892
0.00394326
0.00384053
0.00399021
0.00375189
0.00401692
0.0036714
0.00402527
0.00358837
0.00401292
0.00351134
0.0039821
0.00343583
0.00393466
0.00336174
0.00387063
0.00328894
0.00378729
0.00322183
0.00369144
0.0031489
0.00357661
0.00308328
0.00344641
0.00301634
0.00330141
0.00294929
0.00314392
0.00288245
0.00297219
0.00281514
0.00278795
0.00274765
0.0025903
0.00267904
0.0023837
0.00260704
0.00216697
0.00253537
0.0019431
0.0024593
0.00171275
0.0023804
0.00147585
0.00229727
0.00123375
0.00220874
0.000994853
0.00210775
0.00076155
0.00199114
0.000565848
0.00180718
0.000419861
0.00151272
0.00118631
0.000272076
0.000289134
0.00517074
0.00014991
0.000691917
0.00505253
0.00106919
0.00493447
0.00141215
0.00482696
0.00172709
0.00471724
0.00201624
0.00461587
0.00227734
0.00451678
0.00251483
0.00442156
0.00272599
0.00433079
0.00291135
0.00424403
0.00307678
0.00415722
0.00321844
0.00407659
0.00333797
0.00399807
0.00343999
0.0039215
0.00352004
0.00384888
0.0035799
0.00378067
0.00362182
0.00370997
0.00364589
0.00364733
0.00365181
0.00358243
0.0036417
0.00352145
0.00361559
0.00346193
0.00357318
0.00340414
0.00351436
0.00334776
0.0034437
0.00329247
0.00335398
0.00323862
0.003252
0.00318525
0.00313766
0.00313066
0.00300858
0.00307837
0.00286695
0.00302407
0.00271308
0.00296901
0.00254718
0.00291355
0.0023715
0.00285472
0.00218248
0.00279606
0.001987
0.00273084
0.00178147
0.00266483
0.00157114
0.00259073
0.00135491
0.0025135
0.00113473
0.00242893
0.00091324
0.00232924
0.000706825
0.00219755
0.000537395
0.00197661
0.000394864
0.00165526
0.00132513
0.000256038
0.000264094
0.00477601
0.000130632
0.000632911
0.00468371
0.000969576
0.0045978
0.00128489
0.00451165
0.00157025
0.00443188
0.00183168
0.00435445
0.00206751
0.00428096
0.0022816
0.00420747
0.00247201
0.00414039
0.00264491
0.00407114
0.00279184
0.00401031
0.00292129
0.00394715
0.00303102
0.00388834
0.00312113
0.00383139
0.00319325
0.00377676
0.00325015
0.00372377
0.00328721
0.0036729
0.00331078
0.00362376
0.00331638
0.00357683
0.00330612
0.00353171
0.00328444
0.0034836
0.00324469
0.00344388
0.00319314
0.0033993
0.00312731
0.0033583
0.00304997
0.00331596
0.00296009
0.00327513
0.00285394
0.00323681
0.00273997
0.00319233
0.00261165
0.0031524
0.00247296
0.0031077
0.00232439
0.00306211
0.00216404
0.00301507
0.00199649
0.00296361
0.0018178
0.00290953
0.00163279
0.00284984
0.00143856
0.00278496
0.00124206
0.00271001
0.00104222
0.00262877
0.000841711
0.00252974
0.00065635
0.00238292
0.000503907
0.00212906
0.000367897
0.00179127
0.00145571
0.000237317
0.000243041
0.00441544
0.000117525
0.000576126
0.00435062
0.000885563
0.00428837
0.00116724
0.00422997
0.00142718
0.00417195
0.00166373
0.00411791
0.00188091
0.00406378
0.00207199
0.00401639
0.00224796
0.00396443
0.00240035
0.00391875
0.0025352
0.00387546
0.00265261
0.00382974
0.0027505
0.00379045
0.00283304
0.00374885
0.00289814
0.00371165
0.00294762
0.00367429
0.0029819
0.00363861
0.00300243
0.00360322
0.00300983
0.00356942
0.00300184
0.00353969
0.00297989
0.00350555
0.00294659
0.00347718
0.00289965
0.00344624
0.00284135
0.0034166
0.00277086
0.00338645
0.00268877
0.00335721
0.00259698
0.0033286
0.00249068
0.00329864
0.00237667
0.0032664
0.00225082
0.00323356
0.00211711
0.00319582
0.00197161
0.00316057
0.00181846
0.00311676
0.00165861
0.00306939
0.00149031
0.00301814
0.0013162
0.00295908
0.00113515
0.00289105
0.000953146
0.00281078
0.000771779
0.00271111
0.000606667
0.00254803
0.000466834
0.00226889
0.000340107
0.00191799
0.00157515
0.000220673
0.000222313
0.00408803
0.000105092
0.000525945
0.00404699
0.000804147
0.00401017
0.00106281
0.00397131
0.0012981
0.00393666
0.00151186
0.00390415
0.00170609
0.00386956
0.00188321
0.00383928
0.00204085
0.0038068
0.00217899
0.00378062
0.00230208
0.00375237
0.00240775
0.00372407
0.00249814
0.00370006
0.0025712
0.0036758
0.00263107
0.00365177
0.00267788
0.00362748
0.00270924
0.00360726
0.00272743
0.00358503
0.00273223
0.00356462
0.00272576
0.00354614
0.00270615
0.00352517
0.00267714
0.00350619
0.00263463
0.00348874
0.00258055
0.00347068
0.00251734
0.00344967
0.00244233
0.00343221
0.0023598
0.00341113
0.00226566
0.00339278
0.00216162
0.00337044
0.00204976
0.00334541
0.00192599
0.00331959
0.00179903
0.00328754
0.00166069
0.0032551
0.00151265
0.00321742
0.00136057
0.00317023
0.00120253
0.00311712
0.00103988
0.0030537
0.000873472
0.00297718
0.000708388
0.00287619
0.000560222
0.00269619
0.000432388
0.00239673
0.000314137
0.00203624
0.0016847
0.00020459
0.000203093
0.00379199
9.29543e-05
0.000478007
0.00377208
0.000733523
0.00375465
0.00096543
0.00373941
0.00117814
0.00372395
0.00137564
0.00370666
0.00155171
0.00369349
0.00171054
0.00368046
0.0018522
0.00366514
0.0019787
0.00365411
0.00209003
0.00364104
0.00218629
0.00362781
0.00226727
0.00361907
0.00233515
0.00360792
0.00239004
0.00359687
0.00242974
0.00358777
0.00245823
0.00357876
0.00247596
0.0035673
0.00248035
0.00356022
0.00247371
0.00355278
0.00245585
0.00354302
0.00242904
0.00353299
0.00239086
0.00352692
0.00234357
0.00351797
0.00228709
0.00350614
0.00221895
0.00350036
0.0021436
0.00348648
0.00205861
0.00347777
0.00196639
0.00346267
0.00186428
0.00344752
0.00175459
0.00342928
0.00163514
0.00340699
0.00151036
0.00337988
0.00137891
0.00334888
0.00124026
0.00330888
0.00109569
0.00326169
0.000948642
0.00320075
0.000798819
0.00312701
0.00065186
0.00302315
0.000517391
0.00283066
0.000399623
0.00251449
0.000292447
0.00214342
0.00178524
0.000191903
0.000186123
0.00352246
8.34073e-05
0.000436228
0.00352197
0.000665018
0.00352587
0.000876822
0.00352761
0.0010734
0.00352738
0.00124855
0.00353151
0.00140877
0.00353328
0.00155391
0.00353532
0.00168388
0.00353518
0.0017987
0.0035393
0.00189852
0.00354122
0.00198531
0.00354102
0.00205914
0.00354523
0.00211989
0.00354716
0.00216771
0.00354904
0.00220689
0.00354859
0.00223287
0.00355278
0.00224563
0.00355453
0.00225188
0.00355397
0.0022469
0.00355775
0.00223098
0.00355894
0.00220398
0.00356
0.00217239
0.00355851
0.00212961
0.00356075
0.00207526
0.00356049
0.0020184
0.00355722
0.00194769
0.00355719
0.00187206
0.0035534
0.00178686
0.00354787
0.00169637
0.00353801
0.00159598
0.00352966
0.00148844
0.00351452
0.00137576
0.00349256
0.00125574
0.0034689
0.00112817
0.00343645
0.00099645
0.00339342
0.000863352
0.00333385
0.000729663
0.0032607
0.000599941
0.00315288
0.000480518
0.00295008
0.000373227
0.00262179
0.000274191
0.00224245
0.000179642
0.00187979
-6.50318e-05
0.000561839
-0.000234855
-0.000267822
0.000391519
-0.000188729
-0.000402939
0.000290969
-0.000155852
-0.000495308
0.000222873
-0.000130504
-0.000557762
0.00017131
-0.000108857
-0.000598807
0.000129756
-8.87101e-05
-0.000623496
9.32485e-05
-6.85598e-05
-0.000635972
6.0448e-05
-4.79719e-05
-0.000638225
2.89812e-05
-2.67283e-05
-0.000632699
-9.36993e-07
-4.58858e-06
-0.000620893
-3.02129e-05
1.84065e-05
-0.000603834
-5.93778e-05
4.23192e-05
-0.000582512
-8.86878e-05
6.73657e-05
-0.000558367
-0.000117546
9.34009e-05
-0.000531425
-0.000147004
0.000120062
-0.000502632
-0.000176675
0.000147883
-0.000473263
-0.000206322
0.000176952
-0.000443274
-0.000236893
0.000206904
-0.000414057
-0.000267128
0.000237911
-0.00038553
-0.000298082
0.000269555
-0.000359116
-0.000328614
0.0003022
-0.000334723
-0.000360248
0.000335856
-0.000313662
-0.000391243
0.000370182
-0.000295904
-0.000422676
0.000404918
-0.000282707
-0.000453378
0.000440181
-0.000274279
-0.000484241
0.000475812
-0.00027073
-0.000514552
0.000511002