/*--------------------------------*- C++ -*----------------------------------*\
| =========                 |                                                 |
| \\      /  F ield         | OpenFOAM: The Open Source CFD Toolbox           |
|  \\    /   O peration     | Version:  2.3.0                                 |
|   \\  /    A nd           | Web:      www.OpenFOAM.org                      |
|    \\/     M anipulation  |                                                 |
\*---------------------------------------------------------------------------*/
FoamFile
{
    version     2.0;
    format      ascii;
    class       volVectorField;
    location    "4000";
    object      U;
}
// * * * * * * * * * * * * * * * * * * * * * * * * * * * * * * * * * * * * * //

dimensions      [0 1 -1 0 0 0 0];

internalField   nonuniform List<vector> 
38546
(
(13.2875 -1.93802 3.35691e-21)
(13.135 -2.01711 -1.58094e-20)
(12.9839 -2.10557 0)
(12.8307 -2.19612 0)
(12.6751 -2.28902 -2.26309e-20)
(12.5172 -2.3847 0)
(12.3568 -2.48332 0)
(12.194 -2.58492 0)
(12.0285 -2.68956 0)
(11.8603 -2.79734 7.59869e-21)
(11.6893 -2.90848 -9.56245e-21)
(11.5154 -3.02313 2.84755e-20)
(11.3384 -3.14149 -2.63154e-20)
(11.1582 -3.26379 5.98285e-20)
(10.9745 -3.39031 2.7629e-20)
(10.7871 -3.52141 6.46839e-20)
(10.5959 -3.65746 3.72471e-21)
(10.4005 -3.79901 -1.03454e-19)
(10.2006 -3.94652 -6.62998e-20)
(9.99575 -4.10068 1.61002e-19)
(9.78559 -4.26224 -1.10803e-19)
(9.56958 -4.4321 0)
(9.34711 -4.61124 -3.10776e-20)
(9.11755 -4.80089 -1.79819e-20)
(8.88022 -5.00238 1.70079e-20)
(8.63441 -5.21732 0)
(8.37934 -5.44771 1.00775e-19)
(8.11419 -5.69563 -1.7447e-20)
(7.83801 -5.96355 1.62605e-20)
(7.55026 -6.2549 4.1742e-22)
(7.25024 -6.57302 8.81929e-21)
(6.93735 -6.92257 -6.57736e-20)
(6.61114 -7.30855 1.46544e-21)
(6.27241 -7.7376 5.75985e-20)
(5.92157 -8.21807 -3.82519e-20)
(5.55863 -8.75966 4.12152e-20)
(5.18405 -9.37615 -1.09472e-19)
(4.79408 -10.0817 1.15516e-19)
(4.39183 -10.8998 0)
(3.9828 -11.8624 2.47298e-20)
(3.58827 -13.0226 0)
(3.25502 -14.4602 -6.96254e-19)
(3.06898 -16.1674 7.29604e-19)
(13.3934 -2.10065 5.41748e-21)
(13.2606 -2.17598 -1.07899e-21)
(13.1309 -2.26241 9.7679e-21)
(13.0002 -2.35201 -7.27917e-21)
(12.8681 -2.44433 -7.54154e-21)
(12.7346 -2.53957 -5.67288e-21)
(12.5995 -2.63788 -5.73962e-21)
(12.4629 -2.73932 2.68345e-20)
(12.3246 -2.84398 -4.66888e-21)
(12.1847 -2.95201 -1.38259e-20)
(12.0431 -3.06361 1.95637e-20)
(11.8998 -3.179 1.68435e-20)
(11.7547 -3.29841 1.84839e-20)
(11.6078 -3.42211 0)
(11.459 -3.55039 -5.3918e-20)
(11.3083 -3.68355 7.88642e-20)
(11.1556 -3.82196 1.84495e-21)
(11.0009 -3.96607 2.93202e-20)
(10.8441 -4.11629 6.93283e-21)
(10.6854 -4.27319 0)
(10.5246 -4.43739 1.61756e-20)
(10.3617 -4.6096 1.71492e-20)
(10.1969 -4.79066 -4.47978e-20)
(10.0302 -4.98148 -1.75588e-21)
(9.86177 -5.18317 6.90438e-20)
(9.69181 -5.39696 -2.1309e-20)
(9.52082 -5.62425 -2.8395e-20)
(9.34927 -5.86675 2.93264e-20)
(9.17794 -6.12622 -1.58438e-20)
(9.00805 -6.40492 1.64283e-20)
(8.84096 -6.70517 8.72436e-21)
(8.67849 -7.02962 -9.07462e-21)
(8.52359 -7.38129 2.68782e-20)
(8.38002 -7.76351 -4.49065e-20)
(8.25224 -8.17969 -6.41069e-20)
(8.14689 -8.6335 9.22233e-20)
(8.07288 -9.1289 1.55687e-19)
(8.04215 -9.66962 -1.77115e-20)
(8.07193 -10.2587 -2.99703e-20)
(8.18547 -10.8973 -1.17708e-19)
(8.41703 -11.5824 0)
(8.81565 -12.3019 2.0349e-20)
(9.44742 -13.0263 1.61981e-19)
(13.4892 -2.23771 3.68935e-21)
(13.3747 -2.31275 2.56145e-21)
(13.2619 -2.39869 -4.06174e-21)
(13.148 -2.48775 1.80935e-21)
(13.033 -2.5796 -2.49822e-21)
(12.9168 -2.67448 2.25876e-20)
(12.7995 -2.77252 -1.89435e-20)
(12.6809 -2.87383 -1.76994e-20)
(12.5611 -2.97848 -5.4696e-22)
(12.4401 -3.08665 0)
(12.318 -3.19853 0)
(12.1948 -3.31439 -5.01687e-21)
(12.0704 -3.4345 -3.12038e-20)
(11.9449 -3.55918 -3.15157e-20)
(11.8183 -3.6888 3.28407e-20)
(11.6905 -3.82368 -2.31797e-20)
(11.5616 -3.96421 0)
(11.4316 -4.11085 -3.8981e-21)
(11.3007 -4.26412 5.41044e-21)
(11.1689 -4.42457 0)
(11.0364 -4.59293 -2.75801e-20)
(10.9034 -4.7699 -1.6962e-20)
(10.77 -4.95634 -2.93382e-20)
(10.6364 -5.15315 4.34403e-20)
(10.5031 -5.36136 -3.39988e-20)
(10.3706 -5.58216 2.10043e-20)
(10.2394 -5.81674 -1.68585e-20)
(10.1104 -6.0666 4.99524e-20)
(9.98484 -6.3332 -3.33684e-20)
(9.86401 -6.61829 0)
(9.74965 -6.92357 0)
(9.64403 -7.25089 1.49838e-20)
(9.5502 -7.60201 -4.10112e-20)
(9.47171 -7.97877 4.11799e-20)
(9.41307 -8.38266 9.18734e-21)
(9.3801 -8.81454 -2.58684e-20)
(9.3794 -9.27479 -1.51664e-20)
(9.41907 -9.7622 5.28913e-21)
(9.50909 -10.2732 5.35793e-21)
(9.66046 -10.8009 1.82414e-21)
(9.88526 -11.3332 1.09693e-19)
(10.1948 -11.8504 -1.30244e-19)
(10.5971 -12.3226 0)
(13.584 -2.35042 -1.99615e-20)
(13.4848 -2.42708 5.7906e-21)
(13.3866 -2.51132 -4.3385e-21)
(13.2876 -2.59802 -6.9842e-22)
(13.1879 -2.68731 -7.62245e-22)
(13.0874 -2.77952 -5.96395e-21)
(12.986 -2.8748 1.15321e-20)
(12.8837 -2.97326 3.88476e-21)
(12.7805 -3.07498 0)
(12.6765 -3.18008 7.20946e-21)
(12.5718 -3.28876 -1.93473e-21)
(12.4665 -3.40122 -4.02266e-21)
(12.3606 -3.51778 4.22015e-21)
(12.2543 -3.63878 2.38632e-20)
(12.1474 -3.76458 -1.54223e-20)
(12.0401 -3.89549 1.49096e-20)
(11.9324 -4.03186 -1.50163e-20)
(11.8244 -4.17401 3.30615e-21)
(11.7165 -4.32246 -2.48176e-21)
(11.6088 -4.47766 1.95392e-20)
(11.5016 -4.64021 -8.29252e-21)
(11.3954 -4.81079 2.18087e-20)
(11.2903 -4.99009 -2.22509e-20)
(11.1868 -5.17888 -1.34312e-20)
(11.0856 -5.37801 1.40042e-20)
(10.9872 -5.58835 0)
(10.8926 -5.81091 0)
(10.8027 -6.04665 -1.53373e-20)
(10.7189 -6.29674 1.55557e-20)
(10.6427 -6.56228 1.67268e-21)
(10.576 -6.8444 -1.20052e-20)
(10.5209 -7.14401 -1.48447e-20)
(10.4804 -7.46194 0)
(10.4578 -7.79874 9.52498e-21)
(10.457 -8.15452 -9.83359e-21)
(10.483 -8.52877 9.75336e-22)
(10.5407 -8.92018 -8.78295e-21)
(10.6363 -9.32601 -2.59405e-21)
(10.776 -9.74181 8.98229e-21)
(10.9656 -10.1613 5.06969e-20)
(11.2101 -10.5753 -5.81535e-20)
(11.5124 -10.9715 1.34791e-19)
(11.8708 -11.3352 -3.0707e-19)
(13.6758 -2.44859 0)
(13.5886 -2.52567 -4.8722e-21)
(13.5021 -2.6066 1.19485e-21)
(13.4154 -2.68988 3.74485e-21)
(13.3283 -2.7758 3.18464e-21)
(13.2406 -2.86462 -2.10674e-21)
(13.1522 -2.95649 8.57997e-22)
(13.0631 -3.05149 -3.11452e-21)
(12.9731 -3.14973 -1.01812e-21)
(12.8824 -3.25132 -6.27694e-21)
(12.7911 -3.35636 1.03069e-21)
(12.6993 -3.46504 -1.05907e-20)
(12.6073 -3.5776 1.16945e-20)
(12.5153 -3.69446 -9.69865e-21)
(12.423 -3.81612 -6.64914e-21)
(12.3305 -3.94282 0)
(12.2378 -4.07488 0)
(12.1453 -4.2126 4.77911e-21)
(12.053 -4.35638 -5.03122e-21)
(11.9615 -4.50667 2.72583e-21)
(11.8708 -4.66394 -1.36375e-20)
(11.7817 -4.82878 2.09505e-20)
(11.6944 -5.00188 -2.93381e-20)
(11.6094 -5.18393 -1.01492e-22)
(11.5273 -5.37564 8.2576e-21)
(11.4489 -5.5777 -1.52944e-20)
(11.3749 -5.79092 1.55457e-20)
(11.3064 -6.01608 4.15673e-21)
(11.245 -6.25396 -6.28802e-21)
(11.1919 -6.50551 1.12939e-21)
(11.1489 -6.7715 5.88966e-21)
(11.1178 -7.05251 2.80026e-21)
(11.1012 -7.34869 -2.89061e-21)
(11.1018 -7.66 0)
(11.123 -7.98593 0)
(11.1687 -8.32539 0)
(11.2429 -8.67645 0)
(11.3501 -9.03589 -6.1251e-21)
(11.4942 -9.39956 0)
(11.679 -9.7616 1.75933e-20)
(11.907 -10.1143 -6.39229e-20)
(12.1786 -10.4488 6.44367e-20)
(12.4914 -10.7552 0)
(13.7596 -2.54111 0)
(13.6833 -2.61134 -8.0375e-21)
(13.6076 -2.68737 -5.69489e-21)
(13.5317 -2.7664 5.72005e-21)
(13.4555 -2.8483 -3.17382e-21)
(13.3788 -2.93317 2.78322e-21)
(13.3014 -3.02112 3.80493e-21)
(13.2232 -3.11217 2.54754e-21)
(13.1443 -3.20638 9.97739e-22)
(13.0647 -3.30399 8.15254e-22)
(12.9843 -3.40503 -4.81726e-22)
(12.9036 -3.50945 4.81951e-22)
(12.8227 -3.6175 1.81873e-21)
(12.7422 -3.72952 4.04466e-22)
(12.662 -3.84619 4.41115e-21)
(12.5817 -3.96794 8.85626e-22)
(12.5012 -4.09493 6.40799e-21)
(12.4211 -4.22737 5.7684e-21)
(12.3414 -4.36571 -9.97119e-21)
(12.2627 -4.51023 1.27553e-20)
(12.1852 -4.66139 4.44852e-21)
(12.1095 -4.81953 -1.34304e-20)
(12.0363 -4.98538 6.35973e-21)
(11.9661 -5.15965 0)
(11.8992 -5.34294 -5.36499e-21)
(11.8363 -5.53573 1.24219e-20)
(11.7784 -5.7388 -4.31486e-21)
(11.7264 -5.95265 -2.69388e-21)
(11.682 -6.17773 -2.15333e-21)
(11.6468 -6.41487 1.51363e-21)
(11.6222 -6.66482 5.35218e-21)
(11.6095 -6.92806 0)
(11.6105 -7.20426 0)
(11.628 -7.49292 2.03317e-21)
(11.6649 -7.79312 -2.09234e-21)
(11.7245 -8.10362 0)
(11.8099 -8.42237 0)
(11.9249 -8.74622 -1.66204e-20)
(12.0719 -9.07157 3.30943e-20)
(12.2537 -9.39281 0)
(12.4717 -9.70397 -3.20371e-20)
(12.7255 -9.99838 1.19781e-19)
(13.0126 -10.2687 -3.65101e-20)
(13.8358 -2.61287 4.0974e-22)
(13.7695 -2.68085 6.79893e-21)
(13.7034 -2.75423 -8.4166e-21)
(13.6369 -2.82964 0)
(13.57 -2.90771 4.28526e-21)
(13.5027 -2.98867 2.89639e-21)
(13.4346 -3.07263 1.58988e-21)
(13.3656 -3.15975 -6.80001e-21)
(13.2957 -3.24981 0)
(13.2254 -3.34333 -7.96401e-22)
(13.1539 -3.44056 0)
(13.0818 -3.54107 0)
(13.0094 -3.64491 2.94523e-22)
(12.9376 -3.75218 -2.9562e-22)
(12.8669 -3.86377 -9.84154e-22)
(12.7966 -3.98059 -3.74263e-21)
(12.7258 -4.1027 -1.33243e-21)
(12.6553 -4.23001 0)
(12.5852 -4.36319 2.10012e-21)
(12.5162 -4.50234 -1.08741e-20)
(12.4484 -4.64805 -6.77203e-22)
(12.3823 -4.80024 7.39425e-21)
(12.3192 -4.95939 -2.80308e-21)
(12.2597 -5.1267 2.86551e-21)
(12.2034 -5.30262 -1.02462e-21)
(12.1515 -5.48719 2.89757e-21)
(12.1051 -5.68146 0)
(12.0642 -5.8859 0)
(12.031 -6.10022 3.28588e-21)
(12.0075 -6.32504 -2.86696e-21)
(11.9953 -6.56147 2.49531e-23)
(11.9949 -6.81024 -4.01412e-22)
(12.0071 -7.07099 -1.28014e-21)
(12.0345 -7.34212 1.76473e-21)
(12.0797 -7.62262 -8.2217e-21)
(12.1466 -7.91145 -2.71432e-21)
(12.2362 -8.20648 0)
(12.3536 -8.50483 3.83489e-21)
(12.4986 -8.80363 5.65186e-21)
(12.6746 -9.09685 -7.80316e-20)
(12.8823 -9.38002 3.16504e-20)
(13.1212 -9.64756 -3.80019e-20)
(13.3889 -9.89384 6.67891e-21)
(13.9109 -2.67783 3.91545e-22)
(13.8505 -2.7413 1.45416e-20)
(13.7914 -2.811 -4.97642e-21)
(13.7324 -2.88256 0)
(13.673 -2.95671 -7.16058e-21)
(13.6137 -3.03404 1.7077e-21)
(13.5531 -3.11386 -7.21948e-21)
(13.4922 -3.19747 4.75283e-21)
(13.4293 -3.28324 -6.16862e-21)
(13.3672 -3.3725 0)
(13.3034 -3.46608 0)
(13.2387 -3.56319 -6.92164e-22)
(13.1728 -3.66365 1.22907e-21)
(13.1069 -3.76675 3.03497e-21)
(13.0424 -3.87332 0)
(12.9808 -3.98487 8.38256e-22)
(12.9176 -4.10254 1.407e-21)
(12.8558 -4.2249 -1.3261e-21)
(12.7933 -4.35325 0)
(12.7322 -4.48712 0)
(12.6725 -4.62814 2.34024e-21)
(12.6133 -4.77538 7.1749e-22)
(12.5574 -4.92832 8.29297e-22)
(12.5065 -5.08933 3.02124e-22)
(12.4579 -5.25923 -2.21622e-21)
(12.4132 -5.43632 0)
(12.3758 -5.62238 2.03937e-21)
(12.343 -5.81917 3.0351e-21)
(12.3174 -6.02474 -7.35899e-23)
(12.3021 -6.23923 5.9142e-21)
(12.2989 -6.46375 0)
(12.3082 -6.70007 1.04948e-21)
(12.3278 -6.94825 -1.07886e-21)
(12.3618 -7.20591 8.55958e-21)
(12.4111 -7.46972 0)
(12.4836 -7.74206 1.09771e-20)
(12.5736 -8.01754 1.70851e-20)
(12.695 -8.296 2.05775e-20)
(12.8377 -8.57561 2.28822e-20)
(13.0086 -8.84782 2.78674e-20)
(13.2081 -9.11017 1.08734e-19)
(13.4361 -9.35824 1.1074e-20)
(13.6893 -9.58666 -1.38391e-19)
(13.9749 -2.73309 1.36475e-20)
(13.9225 -2.79434 -1.27569e-20)
(13.8717 -2.85975 -6.45129e-21)
(13.8211 -2.92688 -1.65906e-20)
(13.7675 -2.99637 0)
(13.7145 -3.07159 -9.89082e-21)
(13.658 -3.14607 0)
(13.6049 -3.22784 -8.67625e-21)
(13.5471 -3.30893 5.81371e-21)
(13.4941 -3.39344 4.36849e-22)
(13.4372 -3.48298 -7.16906e-21)
(13.3807 -3.57622 0)
(13.3222 -3.67434 1.346e-21)
(13.2643 -3.77458 3.40134e-22)
(13.2037 -3.87606 5.07501e-21)
(13.1479 -3.98083 2.10291e-22)
(13.0874 -4.09454 -3.46601e-21)
(13.0327 -4.21244 1.24771e-21)
(12.977 -4.33738 0)
(12.9222 -4.46534 0)
(12.8713 -4.60216 -6.05657e-22)
(12.819 -4.74606 6.20235e-22)
(12.7689 -4.89293 7.1911e-22)
(12.7284 -5.04724 1.68301e-21)
(12.6893 -5.2133 -9.50053e-22)
(12.6499 -5.38349 4.35491e-21)
(12.6213 -5.56043 3.78924e-21)
(12.5941 -5.75015 -2.1905e-21)
(12.5728 -5.94949 6.98935e-21)
(12.5625 -6.15702 -5.45431e-21)
(12.5657 -6.3728 -6.55147e-22)
(12.5845 -6.59896 3.60559e-22)
(12.6063 -6.83531 1.96923e-20)
(12.643 -7.08551 -3.22053e-20)
(12.6877 -7.33158 0)
(12.7665 -7.59855 0)
(12.8447 -7.85217 -3.62131e-20)
(12.9719 -8.11672 -4.42736e-20)
(13.1075 -8.38522 0)
(13.2711 -8.644 9.56056e-20)
(13.4606 -8.89169 -6.71543e-20)
(13.6789 -9.12643 -4.2804e-20)
(13.9208 -9.33922 4.34416e-20)
(4.89556 -16.9732 1.89973e-18)
(6.45873 -16.4357 -1.87804e-18)
(7.90798 -15.7746 0)
(9.3394 -15.3319 -7.77269e-20)
(10.6502 -14.9733 0)
(11.7973 -14.6374 6.96728e-20)
(12.7988 -14.3349 -1.79938e-18)
(13.6772 -14.0732 1.49905e-18)
(14.448 -13.8475 -1.16788e-19)
(15.1246 -13.6497 -1.52241e-18)
(15.72 -13.4722 1.35081e-18)
(16.2458 -13.3078 -1.23098e-18)
(16.712 -13.1513 1.35431e-18)
(17.1264 -12.9968 -1.31207e-18)
(17.4967 -12.8417 2.38537e-18)
(17.8289 -12.6835 -1.08137e-18)
(18.1283 -12.521 0)
(18.3996 -12.354 0)
(18.6463 -12.1822 0)
(18.8721 -12.0063 1.42545e-19)
(19.0798 -11.8271 0)
(19.2717 -11.6456 1.0425e-20)
(19.45 -11.4627 -2.03623e-18)
(19.6164 -11.279 3.99804e-18)
(19.7721 -11.0956 -1.71484e-18)
(19.9183 -10.9128 2.47454e-19)
(20.0561 -10.7313 0)
(20.1862 -10.5514 -1.64533e-18)
(20.3093 -10.3732 2.2979e-19)
(20.4259 -10.1972 2.31425e-18)
(20.5365 -10.0234 0)
(20.6417 -9.85177 9.13814e-19)
(20.7419 -9.68243 -2.28382e-18)
(20.8374 -9.51532 1.59448e-18)
(20.9287 -9.35044 -2.25719e-18)
(21.0161 -9.18778 1.35036e-18)
(21.0999 -9.02733 9.0443e-19)
(21.1804 -8.86908 -9.05105e-19)
(21.2577 -8.71301 4.44877e-19)
(21.3321 -8.55913 0)
(21.4037 -8.40734 -4.43842e-19)
(21.4736 -8.25818 1.33559e-18)
(21.5413 -8.11104 4.30163e-19)
(10.3129 -13.6381 -1.98306e-19)
(11.147 -14.1148 4.41264e-19)
(11.9154 -14.4421 1.14832e-19)
(12.6447 -14.6329 -1.49149e-18)
(13.3342 -14.7044 7.98676e-19)
(13.9724 -14.6796 5.86937e-20)
(14.5585 -14.5831 -9.04881e-19)
(15.0948 -14.4338 -6.48628e-20)
(15.5851 -14.247 1.20966e-20)
(16.0326 -14.0341 -4.28016e-20)
(16.4417 -13.8049 1.07257e-18)
(16.8163 -13.5666 -1.17434e-18)
(17.1598 -13.3243 1.06491e-18)
(17.4756 -13.0823 1.27813e-19)
(17.7665 -12.843 -9.12628e-19)
(18.035 -12.6085 1.79476e-18)
(18.2834 -12.3799 -1.00471e-18)
(18.5136 -12.1579 1.1984e-19)
(18.7276 -11.9426 9.75094e-19)
(18.9267 -11.7342 -9.52215e-19)
(19.1123 -11.5322 1.05461e-18)
(19.2858 -11.3365 -6.88474e-19)
(19.4482 -11.1467 0)
(19.6005 -10.962 8.99825e-19)
(19.7437 -10.7824 -6.69661e-19)
(19.8784 -10.6071 2.15622e-19)
(20.0055 -10.4359 0)
(20.1257 -10.2684 0)
(20.2396 -10.1042 -2.22438e-19)
(20.3477 -9.9432 -2.21421e-19)
(20.4507 -9.78509 0)
(20.5489 -9.62969 2.12113e-19)
(20.6427 -9.47684 2.12607e-19)
(20.7326 -9.3264 2.20863e-19)
(20.8189 -9.17828 4.42799e-19)
(20.902 -9.03238 -4.44205e-19)
(20.9819 -8.88862 4.32979e-19)
(21.059 -8.74694 8.81825e-19)
(21.1332 -8.60723 -1.77061e-18)
(21.2049 -8.4694 -8.88219e-19)
(21.2739 -8.33314 8.88563e-19)
(21.3412 -8.19883 -4.49044e-19)
(21.4063 -8.06062 -4.50537e-19)
(11.0927 -12.7125 2.29759e-20)
(11.6512 -13.0048 3.15299e-20)
(12.2411 -13.2061 7.23901e-19)
(12.8414 -13.3278 -6.73654e-19)
(13.4351 -13.382 0)
(14.0086 -13.3785 8.4522e-19)
(14.5532 -13.3287 -9.3861e-19)
(15.0643 -13.2416 -1.09184e-19)
(15.54 -13.1261 9.08475e-19)
(15.98 -12.9888 -9.4334e-19)
(16.3854 -12.8361 0)
(16.7578 -12.6721 -1.08743e-18)
(17.0995 -12.5008 9.45019e-19)
(17.4131 -12.3249 7.19139e-19)
(17.7009 -12.1468 -9.29399e-19)
(17.9654 -11.9679 9.40355e-19)
(18.2091 -11.7896 -1.71732e-18)
(18.434 -11.6127 7.80664e-19)
(18.642 -11.4378 -1.08254e-19)
(18.8351 -11.2655 1.07076e-19)
(19.0148 -11.0959 -8.78034e-19)
(19.1827 -10.9292 6.41426e-19)
(19.34 -10.7655 0)
(19.4878 -10.6049 -2.06443e-19)
(19.6271 -10.4473 -2.13562e-19)
(19.7586 -10.2925 -2.12018e-19)
(19.8832 -10.1406 -1.03379e-18)
(20.0016 -9.99149 8.24531e-19)
(20.1143 -9.84499 -8.265e-19)
(20.2217 -9.70104 6.207e-19)
(20.3243 -9.55954 0)
(20.4225 -9.42038 -2.10047e-19)
(20.5166 -9.28343 -2.10807e-19)
(20.607 -9.1486 -8.37418e-19)
(20.6939 -9.01581 1.68314e-18)
(20.7776 -8.88499 -8.46399e-19)
(20.8582 -8.75607 -1.4967e-18)
(20.9357 -8.62896 4.33797e-19)
(21.0104 -8.50357 -4.28602e-19)
(21.0823 -8.37979 1.73952e-18)
(21.1515 -8.25748 -8.72277e-19)
(21.2182 -8.13725 4.32816e-19)
(21.2812 -8.01457 -4.25254e-19)
(12.2785 -11.6524 2.22124e-19)
(12.7232 -11.9154 -5.90607e-20)
(13.1906 -12.1208 -3.04919e-20)
(13.6665 -12.2686 3.39634e-20)
(14.1398 -12.3621 4.30309e-19)
(14.6015 -12.4066 -2.53009e-19)
(15.0453 -12.4084 0)
(15.4673 -12.3745 1.05973e-19)
(15.865 -12.311 0)
(16.2377 -12.2238 0)
(16.5856 -12.118 0)
(16.9092 -11.9979 9.81475e-19)
(17.21 -11.8671 -1.71693e-18)
(17.4895 -11.7287 9.59184e-19)
(17.749 -11.585 1.04928e-19)
(17.9902 -11.4379 1.10054e-19)
(18.2148 -11.2891 -1.09045e-19)
(18.424 -11.1395 1.02982e-19)
(18.6195 -10.9903 -7.30941e-19)
(18.8024 -10.8421 7.14555e-19)
(18.9738 -10.6953 7.18093e-19)
(19.1349 -10.5503 -6.04609e-19)
(19.2864 -10.4074 0)
(19.4293 -10.2668 -6.00428e-19)
(19.5643 -10.1283 1.79229e-18)
(19.6919 -9.9921 5.21413e-21)
(19.8131 -9.85813 2.06596e-19)
(19.9282 -9.72634 -1.58493e-18)
(20.0378 -9.59672 7.90941e-19)
(20.1422 -9.46919 9.98088e-19)
(20.242 -9.34364 3.55042e-21)
(20.3374 -9.21998 -9.97413e-19)
(20.4289 -9.0981 0)
(20.5168 -8.97796 8.13238e-19)
(20.6014 -8.85954 -8.16942e-19)
(20.6828 -8.74281 8.26739e-19)
(20.7612 -8.62768 -1.66131e-18)
(20.8367 -8.51406 1.26386e-18)
(20.9092 -8.40182 4.24359e-19)
(20.9791 -8.29083 -4.26338e-19)
(21.0466 -8.18105 4.48694e-21)
(21.1119 -8.0727 -8.65009e-19)
(21.1759 -7.9655 8.55018e-19)
(12.8405 -11.0253 2.21819e-21)
(13.2196 -11.2542 2.54722e-19)
(13.6199 -11.4383 -1.87476e-19)
(14.0316 -11.5766 -7.45634e-20)
(14.4455 -11.6707 -8.14618e-20)
(14.854 -11.7239 -8.74027e-20)
(15.2513 -11.7409 0)
(15.6331 -11.7264 -9.28171e-20)
(15.9966 -11.6855 0)
(16.3404 -11.6227 -3.09576e-19)
(16.6639 -11.5421 3.96828e-19)
(16.9672 -11.4477 0)
(17.2509 -11.3424 -1.00554e-19)
(17.5157 -11.229 -4.15365e-19)
(17.7629 -11.1097 -1.13563e-19)
(17.9937 -10.9863 5.04046e-19)
(18.2092 -10.8602 -4.09287e-19)
(18.4106 -10.7325 2.97278e-19)
(18.5991 -10.6041 0)
(18.7758 -10.4758 0)
(18.9417 -10.3482 0)
(19.0977 -10.2216 -9.96703e-20)
(19.2445 -10.0963 -3.92192e-19)
(19.3828 -9.97238 -1.95278e-19)
(19.5136 -9.85001 3.80344e-19)
(19.6373 -9.72921 0)
(19.7549 -9.61004 5.77494e-19)
(19.8668 -9.4926 -3.8433e-19)
(19.9734 -9.37697 5.78344e-19)
(20.0749 -9.26301 -3.86189e-19)
(20.1718 -9.15065 0)
(20.2647 -9.03981 -1.94387e-19)
(20.3538 -8.93043 -1.78608e-21)
(20.4396 -8.82261 9.90587e-19)
(20.5221 -8.71638 -3.99716e-19)
(20.6014 -8.61167 -2.00364e-19)
(20.6775 -8.50837 4.1289e-19)
(20.7505 -8.40634 -4.11883e-19)
(20.8207 -8.30543 2.06509e-19)
(20.888 -8.20547 -2.08346e-19)
(20.953 -8.10627 4.26658e-19)
(21.0156 -8.00711 0)
(21.0777 -7.9094 -4.27905e-19)
(13.3289 -10.5093 -5.13983e-20)
(13.669 -10.7164 5.89272e-20)
(14.0267 -10.8865 0)
(14.3948 -11.0184 -3.00589e-19)
(14.7658 -11.1132 -2.63172e-20)
(15.1332 -11.1733 -2.45518e-20)
(15.492 -11.2014 2.49432e-19)
(15.8385 -11.2013 2.88087e-21)
(16.1703 -11.1771 3.81156e-19)
(16.4857 -11.1323 -4.69161e-19)
(16.7841 -11.0707 2.98618e-19)
(17.0654 -10.9956 -2.87702e-19)
(17.3298 -10.9095 1.00287e-19)
(17.5778 -10.815 9.75172e-20)
(17.8104 -10.7141 3.99602e-19)
(18.0283 -10.6086 -8.8859e-19)
(18.2327 -10.4998 2.91985e-19)
(18.4242 -10.3887 0)
(18.6043 -10.2762 0)
(18.7737 -10.1634 9.56621e-20)
(18.9328 -10.0508 0)
(19.0825 -9.93864 3.85175e-19)
(19.2235 -9.82707 -7.62287e-19)
(19.3566 -9.71641 5.7002e-19)
(19.4827 -9.60678 1.88816e-19)
(19.6022 -9.49828 -3.76364e-19)
(19.7161 -9.39105 1.88218e-19)
(19.8245 -9.28552 -1.89315e-19)
(19.9275 -9.18158 -3.63267e-21)
(20.0255 -9.07895 0)
(20.1191 -8.97758 0)
(20.2089 -8.87747 0)
(20.2953 -8.77865 -5.79404e-19)
(20.3784 -8.68138 3.89792e-19)
(20.4582 -8.58569 -5.87907e-19)
(20.5346 -8.49143 2.00486e-19)
(20.6076 -8.39839 6.0522e-19)
(20.6775 -8.30638 -4.05422e-19)
(20.7446 -8.21541 -2.06817e-19)
(20.8089 -8.12532 2.08741e-19)
(20.871 -8.03592 0)
(20.9306 -7.94638 2.11887e-19)
(20.9904 -7.86104 -2.08403e-19)
(13.6821 -10.1143 -9.76227e-20)
(13.9948 -10.306 0)
(14.3228 -10.4648 -6.47266e-20)
(14.6612 -10.5904 7.02887e-20)
(15.0028 -10.6842 0)
(15.3413 -10.747 0)
(15.6727 -10.7806 5.16471e-19)
(15.9939 -10.7884 -1.65147e-19)
(16.303 -10.7738 0)
(16.5984 -10.7403 0)
(16.8789 -10.6911 9.51155e-20)
(17.1442 -10.6288 -2.10246e-21)
(17.3944 -10.5557 0)
(17.6305 -10.4742 -2.11835e-21)
(17.8523 -10.3865 0)
(18.0606 -10.294 -3.89147e-19)
(18.2564 -10.1979 3.82317e-19)
(18.4403 -10.0992 -3.86139e-19)
(18.6143 -9.99859 3.78048e-19)
(18.7779 -9.89817 -9.58701e-20)
(18.9309 -9.79755 1.87262e-19)
(19.0749 -9.69643 -1.8646e-19)
(19.211 -9.5956 0)
(19.3395 -9.49543 -5.60477e-19)
(19.4614 -9.39595 1.85979e-19)
(19.5772 -9.29719 0)
(19.6882 -9.19966 0)
(19.793 -9.10428 -1.8768e-19)
(19.892 -9.01 -1.88036e-19)
(19.9865 -8.91654 0)
(20.077 -8.82414 1.86625e-19)
(20.164 -8.73281 0)
(20.2479 -8.64274 1.91969e-19)
(20.3284 -8.55449 5.78791e-19)
(20.4052 -8.46787 -7.73071e-19)
(20.4783 -8.38248 -1.96469e-19)
(20.548 -8.29809 1.98617e-19)
(20.6147 -8.21457 1.99054e-19)
(20.6787 -8.13212 0)
(20.74 -8.05068 -2.06682e-19)
(20.7992 -7.96983 6.1736e-19)
(20.8564 -7.88867 2.09166e-19)
(20.9142 -7.81302 -4.07574e-19)
(13.9667 -9.79291 -1.20506e-20)
(14.2583 -9.97311 1.09518e-19)
(14.565 -10.1238 6.35724e-20)
(14.8833 -10.2435 -6.90738e-20)
(15.2032 -10.3364 -7.35909e-20)
(15.5189 -10.4006 7.78691e-20)
(15.8286 -10.4373 -8.25096e-20)
(16.13 -10.4497 -8.57956e-20)
(16.4215 -10.4417 1.79418e-19)
(16.7009 -10.417 -1.75538e-19)
(16.9665 -10.377 9.0915e-20)
(17.2187 -10.3237 -4.69671e-19)
(17.4569 -10.2599 3.67587e-19)
(17.6833 -10.1882 -2.88326e-19)
(17.8953 -10.1114 3.71566e-19)
(18.0953 -10.0289 1.87569e-19)
(18.2835 -9.94294 -2.84923e-19)
(18.4607 -9.85343 1.8475e-19)
(18.6308 -9.76233 0)
(18.7875 -9.67266 3.75718e-19)
(18.9343 -9.58078 -1.82207e-19)
(19.0735 -9.48791 1.91255e-19)
(19.205 -9.396 -5.50905e-19)
(19.3294 -9.3043 1.85486e-19)
(19.4479 -9.21273 3.68163e-19)
(19.5604 -9.12158 3.68554e-19)
(19.6694 -9.03241 -3.65364e-19)
(19.7691 -8.9461 -1.85655e-19)
(19.8645 -8.85921 3.66892e-19)
(19.956 -8.77309 0)
(20.0437 -8.68809 -5.59269e-19)
(20.1282 -8.60382 -2.16206e-21)
(20.21 -8.52117 5.62279e-19)
(20.2876 -8.44089 1.88817e-19)
(20.361 -8.36197 5.76766e-19)
(20.4305 -8.284 -1.91443e-19)
(20.4968 -8.20675 3.93098e-19)
(20.5604 -8.13027 -3.96724e-19)
(20.6218 -8.0552 0)
(20.6801 -7.98156 -2.03577e-19)
(20.7365 -7.90823 -4.10036e-19)
(20.7915 -7.83493 2.05366e-19)
(20.8462 -7.76893 4.04526e-19)
(14.1869 -9.53706 -1.07663e-19)
(14.4584 -9.70628 0)
(14.7567 -9.84893 0)
(15.0671 -9.95818 2.73304e-19)
(15.3694 -10.0526 -2.16986e-19)
(15.6657 -10.1169 7.21361e-20)
(15.9587 -10.1538 1.67659e-19)
(16.2461 -10.1683 -3.36676e-19)
(16.5256 -10.1651 3.42395e-19)
(16.7941 -10.1479 -1.70572e-19)
(17.0501 -10.1116 -9.05332e-20)
(17.2928 -10.0629 -1.87061e-19)
(17.5214 -10.006 1.82636e-19)
(17.7412 -9.94401 -1.86307e-19)
(17.9441 -9.8759 0)
(18.1411 -9.79774 -1.88504e-19)
(18.3232 -9.72037 -1.89332e-19)
(18.4966 -9.63693 5.58802e-19)
(18.6666 -9.55384 -1.80109e-19)
(18.8139 -9.47198 -1.86346e-19)
(18.955 -9.38594 1.87497e-19)
(19.0889 -9.30196 0)
(19.2155 -9.21845 1.8568e-19)
(19.3362 -9.13289 -1.84834e-19)
(19.4503 -9.04801 -1.8515e-19)
(19.5591 -8.96359 1.46115e-21)
(19.6669 -8.88313 -1.77669e-19)
(19.7584 -8.80393 -5.55212e-19)
(19.8521 -8.72219 -3.75704e-19)
(19.9395 -8.64352 1.08808e-21)
(20.0241 -8.56458 0)
(20.1054 -8.48627 -1.87042e-19)
(20.1846 -8.41074 -2.32445e-21)
(20.2578 -8.33771 -1.97633e-21)
(20.3275 -8.26517 -1.9299e-19)
(20.3923 -8.19391 0)
(20.4539 -8.1228 -2.01277e-19)
(20.5143 -8.05231 8.086e-22)
(20.5728 -7.98432 2.00643e-19)
(20.6272 -7.91839 0)
(20.6803 -7.85189 0)
(20.7316 -7.78589 2.08792e-19)
(20.7797 -7.7265 2.04711e-19)
(21.7689 -1.28915 -7.10312e-19)
(21.7929 -1.31345 -1.85439e-19)
(21.8169 -1.33874 0)
(21.8408 -1.3634 9.35393e-19)
(21.8643 -1.38781 -1.12466e-18)
(21.8875 -1.41192 1.50401e-18)
(21.9101 -1.43571 1.13678e-18)
(21.932 -1.45917 -1.51772e-18)
(21.9531 -1.48226 1.91715e-19)
(21.9733 -1.50499 0)
(21.9922 -1.52733 5.97957e-22)
(22.0096 -1.54927 -9.89195e-20)
(22.0251 -1.5708 1.00375e-19)
(22.0384 -1.59189 0)
(22.0489 -1.61254 -1.04012e-19)
(22.056 -1.63272 0)
(22.059 -1.65241 -1.73547e-18)
(22.0572 -1.67159 1.77818e-18)
(22.0493 -1.69026 5.69619e-20)
(22.0344 -1.70837 -1.7677e-18)
(22.0108 -1.72589 -6.362e-20)
(21.9772 -1.74279 2.00874e-18)
(21.9315 -1.75896 -2.08235e-18)
(21.8722 -1.7743 2.22076e-18)
(21.7973 -1.78867 0)
(21.7053 -1.80191 -7.25616e-20)
(21.5943 -1.81385 0)
(21.4627 -1.82428 -2.52691e-18)
(21.3088 -1.83303 2.56213e-18)
(21.1306 -1.83987 -4.40889e-20)
(20.9265 -1.84456 2.94831e-18)
(20.694 -1.84691 -3.12732e-18)
(20.4306 -1.84661 -1.78164e-18)
(20.1335 -1.84346 3.60415e-18)
(19.7986 -1.83718 -3.915e-18)
(19.4201 -1.8275 2.14205e-18)
(18.9896 -1.81401 2.38914e-18)
(18.4944 -1.79607 -2.59453e-18)
(17.9142 -1.77264 -4.86315e-20)
(17.2135 -1.74192 5.73069e-20)
(16.3206 -1.70972 -6.85778e-20)
(14.8893 -1.71504 0)
(11.5167 -1.71923 -2.90156e-18)
(21.7411 -1.30666 3.95895e-19)
(21.7623 -1.33032 -2.40594e-20)
(21.7834 -1.35426 0)
(21.8045 -1.37764 0)
(21.8253 -1.40077 7.76465e-19)
(21.8458 -1.42368 -7.78091e-19)
(21.866 -1.44635 -1.95706e-19)
(21.8857 -1.4688 -9.76774e-20)
(21.9049 -1.491 0)
(21.9234 -1.51295 9.89433e-20)
(21.9411 -1.53465 -1.50456e-18)
(21.9578 -1.55609 1.61948e-18)
(21.9733 -1.57727 0)
(21.9873 -1.59815 0)
(21.9994 -1.61876 -1.05899e-19)
(22.0092 -1.63905 -1.73777e-18)
(22.0163 -1.65903 1.88529e-18)
(22.02 -1.67868 -1.70936e-18)
(22.0195 -1.69798 1.87022e-18)
(22.0139 -1.71691 -1.99253e-18)
(22.0022 -1.73545 1.99083e-18)
(21.9829 -1.75357 0)
(21.9546 -1.77124 6.65249e-20)
(21.9154 -1.78839 -2.29166e-18)
(21.8633 -1.80494 2.30424e-18)
(21.7965 -1.82077 7.50013e-20)
(21.7128 -1.83579 -7.78342e-20)
(21.6101 -1.84985 2.6174e-18)
(21.486 -1.86279 -5.39162e-18)
(21.3382 -1.87445 2.87658e-18)
(21.1639 -1.88468 -9.4492e-20)
(20.9601 -1.89324 0)
(20.7236 -1.89993 1.77039e-18)
(20.4502 -1.90448 -3.73194e-18)
(20.1349 -1.90657 1.91886e-18)
(19.7708 -1.90576 6.6972e-20)
(19.3487 -1.90134 1.18596e-18)
(18.855 -1.89227 -1.39842e-18)
(18.2675 -1.87718 9.22817e-20)
(17.5423 -1.8553 0)
(16.5084 -1.84313 2.42323e-19)
(14.4551 -1.89483 0)
(10.9962 -1.87612 0)
(21.715 -1.32266 -1.70766e-19)
(21.7341 -1.34468 1.73753e-19)
(21.753 -1.36699 0)
(21.7717 -1.38897 0)
(21.7904 -1.4108 -2.0019e-19)
(21.8088 -1.43251 -3.00163e-19)
(21.8269 -1.45407 0)
(21.8448 -1.4755 9.0579e-19)
(21.8623 -1.4968 -1.71722e-18)
(21.8793 -1.51795 8.12278e-19)
(21.8958 -1.53899 -1.7459e-18)
(21.9115 -1.55988 1.65757e-18)
(21.9263 -1.58063 -1.04769e-19)
(21.9401 -1.60124 1.06355e-19)
(21.9525 -1.62171 1.0898e-19)
(21.9632 -1.64203 0)
(21.9719 -1.66217 0)
(21.978 -1.68215 1.74455e-18)
(21.9811 -1.70195 -1.96727e-18)
(21.9803 -1.72153 -6.12182e-20)
(21.9748 -1.74089 -1.96901e-18)
(21.9636 -1.75998 2.03308e-18)
(21.9452 -1.77876 -6.83408e-20)
(21.9182 -1.79718 0)
(21.8806 -1.81517 7.31747e-20)
(21.8304 -1.83261 0)
(21.7654 -1.8494 8.01361e-20)
(21.6832 -1.86541 -8.2913e-20)
(21.581 -1.88046 1.39736e-18)
(21.4561 -1.89436 -1.37235e-18)
(21.3052 -1.90691 1.92663e-19)
(21.1248 -1.91782 1.01275e-19)
(20.9108 -1.92678 1.62435e-18)
(20.6583 -1.93338 -1.84405e-18)
(20.3616 -1.93711 1.92114e-18)
(20.013 -1.9373 -3.27631e-18)
(19.6026 -1.93298 1.16559e-18)
(19.1156 -1.92278 0)
(18.5268 -1.90581 6.26449e-19)
(17.7612 -1.88741 -6.98175e-19)
(16.4713 -1.9086 -9.17845e-20)
(14.0199 -1.98996 -1.19782e-20)
(10.9655 -1.942 0)
(21.6925 -1.33742 1.99199e-19)
(21.7089 -1.35736 -3.07955e-19)
(21.7258 -1.37806 2.05457e-19)
(21.7427 -1.39864 -2.04908e-19)
(21.7595 -1.4192 0)
(21.7762 -1.43972 1.02712e-18)
(21.7928 -1.46019 -1.54197e-18)
(21.8091 -1.4806 1.64883e-18)
(21.8252 -1.50097 -8.26682e-19)
(21.8409 -1.52128 -1.04394e-19)
(21.8562 -1.54154 5.15567e-22)
(21.8709 -1.56175 0)
(21.885 -1.58191 5.65272e-22)
(21.8982 -1.60202 -1.09377e-19)
(21.9103 -1.62207 1.77728e-18)
(21.9212 -1.64207 -1.69572e-18)
(21.9305 -1.66199 1.15353e-19)
(21.9377 -1.68186 1.18895e-19)
(21.9425 -1.70166 -6.06851e-20)
(21.9443 -1.72137 1.25336e-19)
(21.9424 -1.74097 -6.44383e-20)
(21.9358 -1.76045 -2.14048e-18)
(21.9236 -1.77976 1.10519e-18)
(21.9042 -1.79886 1.14937e-18)
(21.8761 -1.81768 -1.2728e-18)
(21.8373 -1.83615 7.52499e-20)
(21.7855 -1.85411 -2.42293e-21)
(21.7183 -1.87145 1.35443e-18)
(21.6328 -1.88798 1.50624e-18)
(21.5259 -1.90352 -1.8305e-19)
(21.394 -1.91779 -1.65597e-18)
(21.2333 -1.93049 1.54131e-18)
(21.0391 -1.94123 -1.62761e-18)
(20.806 -1.94952 0)
(20.5277 -1.95469 2.46851e-19)
(20.1961 -1.95589 0)
(19.8006 -1.95206 -1.43015e-19)
(19.3252 -1.94184 -1.56311e-19)
(18.7373 -1.9256 6.91622e-19)
(17.9043 -1.91886 -1.2069e-18)
(16.3455 -1.97783 3.63377e-19)
(13.7898 -2.06456 0)
(11.0435 -1.98277 0)
(21.6709 -1.34906 -2.33623e-19)
(21.686 -1.36787 1.31586e-19)
(21.7011 -1.38739 3.35417e-22)
(21.7162 -1.40677 -4.21674e-19)
(21.7315 -1.42616 4.20524e-19)
(21.7466 -1.44557 -3.91234e-22)
(21.7617 -1.46499 7.37683e-19)
(21.7767 -1.48443 -8.4365e-19)
(21.7915 -1.50389 2.11909e-19)
(21.8061 -1.52337 -7.4704e-19)
(21.8203 -1.54287 9.6607e-19)
(21.8342 -1.5624 8.68849e-19)
(21.8475 -1.58195 -1.75689e-18)
(21.8602 -1.60153 7.7968e-19)
(21.8722 -1.62113 -1.13087e-19)
(21.8831 -1.64075 -1.15866e-19)
(21.8928 -1.66038 -1.18414e-19)
(21.901 -1.68004 0)
(21.9072 -1.69971 3.41505e-22)
(21.911 -1.71939 -1.27755e-19)
(21.9118 -1.73906 6.60744e-20)
(21.9089 -1.7587 3.92016e-22)
(21.9013 -1.77827 -1.05893e-18)
(21.8879 -1.79774 1.24272e-18)
(21.8671 -1.81706 -1.21815e-18)
(21.8372 -1.83614 2.53267e-18)
(21.7959 -1.85487 -1.31861e-18)
(21.7408 -1.87314 -1.29168e-18)
(21.6689 -1.89073 -9.25485e-20)
(21.577 -1.90746 1.59774e-18)
(21.4612 -1.92307 0)
(21.3174 -1.93725 1.03305e-19)
(21.1406 -1.94961 0)
(20.9249 -1.95962 1.15287e-19)
(20.6634 -1.96659 -1.23492e-19)
(20.3476 -1.96959 0)
(19.9663 -1.96737 1.4233e-19)
(19.5021 -1.9588 1.54362e-19)
(18.9096 -1.94599 0)
(17.9837 -1.95638 0)
(16.2181 -2.04271 -1.63192e-19)
(13.6872 -2.11571 2.95202e-19)
(11.1218 -2.01008 -2.60118e-19)
(21.6513 -1.35962 -1.08279e-19)