/*--------------------------------*- C++ -*----------------------------------*\
| =========                 |                                                 |
| \\      /  F ield         | OpenFOAM: The Open Source CFD Toolbox           |
|  \\    /   O peration     | Version:  2.3.0                                 |
|   \\  /    A nd           | Web:      www.OpenFOAM.org                      |
|    \\/     M anipulation  |                                                 |
\*---------------------------------------------------------------------------*/
FoamFile
{
    version     2.0;
    format      ascii;
    class       volVectorField;
    location    "9000";
    object      U;
}
// * * * * * * * * * * * * * * * * * * * * * * * * * * * * * * * * * * * * * //

dimensions      [0 1 -1 0 0 0 0];

internalField   nonuniform List<vector> 
6717
(
(23.0212 2.93299 -2.98193e-20)
(23.2653 3.44518 1.65363e-19)
(23.5326 4.11404 1.56539e-19)
(23.8222 4.90573 -7.05172e-19)
(24.0872 5.80732 3.46497e-19)
(24.2367 6.77882 0)
(24.1581 7.77236 4.39844e-21)
(23.7478 8.73812 -4.80799e-19)
(22.9396 9.63867 1.00578e-18)
(21.721 10.4782 -5.15112e-19)
(20.1065 11.2536 0)
(18.0911 11.7098 0)
(22.5181 3.04156 4.90706e-20)
(22.5541 3.41825 3.38114e-20)
(22.5304 3.86093 0)
(22.4477 4.33987 5.71173e-20)
(22.309 4.85786 -6.41382e-20)
(22.1164 5.40075 0)
(21.8663 5.93921 2.51724e-19)
(21.5521 6.43382 -2.48798e-19)
(21.1712 6.8437 -3.01885e-19)
(20.7285 7.13386 2.93849e-19)
(20.23 7.2723 0)
(19.6874 7.22833 0)
(22.1454 3.0665 -5.51558e-20)
(22.1207 3.38553 2.44351e-20)
(22.0556 3.7281 1.41005e-19)
(21.9446 4.06318 2.07394e-19)
(21.7812 4.38362 -4.41462e-19)
(21.5631 4.68184 -5.63364e-19)
(21.2918 4.95015 5.36601e-19)
(20.9736 5.18031 3.68159e-19)
(20.6187 5.36408 -3.36071e-19)
(20.2399 5.49425 4.4232e-19)
(19.8522 5.5653 -4.48385e-19)
(19.4739 5.57433 0)
(21.8275 3.00714 1.24269e-19)
(21.7564 3.26194 -3.32098e-19)
(21.6542 3.52275 4.34649e-20)
(21.5227 3.77252 3.27164e-19)
(21.3624 4.00588 3.49122e-19)
(21.175 4.21689 -3.48008e-19)
(20.9629 4.39975 2.21236e-20)
(20.7296 4.54937 0)
(20.4804 4.66163 -2.80614e-20)
(20.2215 4.73378 -3.45421e-21)
(19.9603 4.76488 -1.75184e-20)
(19.7049 4.75604 0)
(21.5879 2.93411 -1.55834e-19)
(21.5032 3.13172 -1.78301e-19)
(21.3963 3.32856 2.96539e-19)
(21.2688 3.51357 -4.377e-19)
(21.121 3.68272 8.04382e-19)
(20.9542 3.83292 -2.42232e-20)
(20.7707 3.96127 -5.10284e-19)
(20.5733 4.06527 5.25882e-19)
(20.366 4.14291 -5.63124e-19)
(20.1533 4.19286 3.63511e-20)
(19.9403 4.21491 4.0532e-20)
(19.7318 4.20988 -1.78023e-19)
(21.4015 2.84158 -2.74942e-19)
(21.3114 3.00274 1.38109e-19)
(21.2075 3.15697 -4.18453e-19)
(21.0899 3.30084 5.19416e-19)
(20.9588 3.43147 0)
(20.8148 3.54686 5.74137e-20)
(20.6591 3.64496 6.18481e-20)
(20.4933 3.72412 0)
(20.3198 3.783 3.61608e-20)
(20.1416 3.82068 0)
(19.9623 3.83685 3.09291e-19)
(19.7853 3.83196 -1.68312e-19)
(21.2522 2.75931 -1.5353e-19)
(21.1667 2.88672 3.13692e-19)
(21.0694 3.00934 5.30894e-20)
(20.9621 3.12426 -5.57536e-20)
(20.8445 3.22881 0)
(20.7172 3.32153 6.57704e-20)
(20.5808 3.40054 6.96681e-20)
(20.4358 3.46445 -2.99889e-19)
(20.284 3.51224 3.03658e-19)
(20.1277 3.54302 -3.42e-19)
(19.9696 3.55628 3.4677e-19)
(19.8123 3.55213 4.7546e-20)
(21.1357 2.67216 -5.3336e-20)
(21.0549 2.78134 -5.5448e-20)
(20.9645 2.88243 0)
(20.8667 2.97752 -2.51344e-19)
(20.7602 3.0642 2.52208e-19)
(20.646 3.14185 -6.64058e-20)
(20.5248 3.20825 -7.04298e-20)
(20.3958 3.26211 0)
(20.2602 3.30265 3.30825e-19)
(20.1197 3.32891 -1.59902e-19)
(19.9769 3.34036 -1.78508e-19)
(19.8341 3.33664 -4.83185e-20)
(21.0387 2.60562 0)
(20.9674 2.69182 2.45711e-19)
(20.8838 2.77426 -4.34187e-19)
(20.7953 2.85451 3.17446e-19)
(20.6985 2.92792 3.39673e-19)
(20.5946 2.99521 8.13916e-20)
(20.4858 3.05287 -2.8787e-19)
(20.3686 3.09991 0)
(20.245 3.13578 2.53319e-19)
(20.1165 3.15866 -5.17943e-19)
(19.9849 3.16917 3.67982e-19)
(19.8527 3.16612 -1.88395e-19)
(20.9593 2.53847 1.94241e-19)
(20.8957 2.61415 -1.27546e-19)
(20.8202 2.68206 2.03217e-19)
(20.7429 2.75318 -3.98183e-19)
(20.6562 2.81579 -6.80962e-20)
(20.5611 2.87608 2.19257e-19)
(20.4644 2.92525 -2.93087e-19)
(20.3547 2.96662 0)
(20.2406 3.0008 -1.49066e-21)
(20.1214 3.01981 0)
(19.9976 3.02948 -1.86733e-19)
(19.874 3.02722 2.85115e-19)
(15.7298 11.2751 1.58945e-19)
(14.7887 10.2079 -1.54625e-19)
(14.4264 9.13759 5.09851e-19)
(14.3837 8.07379 -6.63016e-19)
(14.5335 7.03178 0)
(14.8073 6.03296 -1.77286e-18)
(15.1544 5.11016 3.1967e-18)
(15.5335 4.29166 -2.14381e-18)
(15.9118 3.59503 -5.34591e-19)
(16.2678 3.02321 0)
(16.5924 2.56149 -7.40686e-19)
(16.8869 2.15664 -7.7947e-19)
(19.1293 7.02039 -2.08533e-19)
(18.6209 6.67665 3.57481e-19)
(18.1731 6.24363 -9.93196e-20)
(17.7958 5.7696 5.70458e-19)
(17.4908 5.28206 -6.03395e-19)
(17.2598 4.79927 0)
(17.1036 4.33362 -1.3982e-18)
(17.0213 3.89229 1.65328e-18)
(17.0083 3.47802 1.62031e-18)
(17.0556 3.09132 -1.56798e-18)
(17.15 2.7307 0)
(17.2774 2.38098 -6.26776e-19)
(19.1173 5.52494 0)
(18.784 5.41665 -2.69504e-21)
(18.4791 5.24923 -2.99626e-20)
(18.2116 5.03045 -4.24953e-19)
(17.9872 4.76851 9.89258e-19)
(17.8092 4.47241 -5.70648e-19)
(17.6783 4.15163 0)
(17.593 3.81633 3.41598e-19)
(17.5493 3.47666 -6.91107e-19)
(17.5421 3.14205 6.76784e-19)
(17.5654 2.81926 2.36909e-19)
(17.6157 2.50465 7.46247e-20)
(19.458 4.71088 9.30957e-20)
(19.2162 4.63036 -1.20248e-19)
(18.982 4.5144 5.37715e-20)
(18.7615 4.3661 4.92363e-19)
(18.56 4.18924 -6.34401e-19)
(18.3817 3.98834 0)
(18.2298 3.76819 0)
(18.1065 3.53363 3.13931e-19)
(18.0132 3.28939 -6.20965e-19)
(17.9499 3.03988 9.76706e-21)
(17.9154 2.78861 -6.18849e-19)
(17.9087 2.5346 2.84655e-19)
(19.5296 4.17965 2.27628e-19)
(19.3316 4.12427 1.02214e-19)
(19.1397 4.04316 -2.78094e-19)
(18.9578 3.93774 4.10163e-19)
(18.7896 3.80998 3.93712e-19)
(18.6378 3.66247 1.5006e-19)
(18.5045 3.49815 -1.10647e-18)
(18.3912 3.32004 7.12823e-19)
(18.2985 3.1312 -1.44012e-19)
(18.2266 2.93452 4.88891e-21)
(18.1748 2.73269 3.95236e-20)
(18.1427 2.52636 -3.39657e-20)
(19.612 3.80715 -1.39264e-19)
(19.4419 3.76263 -2.07681e-19)
(19.2765 3.69828 5.67704e-20)
(19.1187 3.61506 2.53786e-21)
(18.971 3.5145 2.51802e-19)
(18.8354 3.39853 -3.84942e-19)
(18.7134 3.26929 -1.3232e-19)
(18.6063 3.12897 0)
(18.5148 2.97952 -1.40572e-19)
(18.439 2.82278 2.79311e-19)
(18.3788 2.66069 4.21352e-19)
(18.3333 2.49432 0)
(19.6576 3.53126 -5.14916e-20)
(19.5059 3.49396 5.21084e-20)
(19.3589 3.4404 1.1238e-19)
(19.2188 3.37127 5.78056e-20)
(19.0872 3.28806 0)
(18.9657 3.19239 0)
(18.8553 3.08607 2.79557e-21)
(18.7569 2.97102 1.32306e-19)
(18.6711 2.84857 1.34194e-19)
(18.5977 2.72013 -1.40167e-19)
(18.5366 2.5874 1.31437e-19)
(18.4871 2.45087 1.27679e-19)
(19.6927 3.31814 -1.02325e-19)
(19.554 3.28561 -7.99533e-20)
(19.4203 3.23931 3.05144e-20)
(19.2933 3.1796 -2.33074e-19)
(19.1736 3.10821 0)
(19.0632 3.02635 0)
(18.9619 2.93577 1.2922e-19)
(18.871 2.83847 -3.95553e-19)
(18.791 2.73525 1.28153e-19)
(18.7212 2.62751 -4.00142e-19)
(18.6614 2.51673 3.38711e-22)
(18.611 2.40255 -2.57825e-19)
(19.721 3.14898 -1.00069e-19)
(19.5914 3.1198 1.34687e-19)
(19.4678 3.07859 -2.74433e-20)
(19.3506 3.0254 1.15414e-19)
(19.239 2.96327 1.18906e-19)
(19.1382 2.89147 1.22179e-19)
(19.0434 2.81171 2.53829e-19)
(18.959 2.72713 5.22942e-21)
(18.8848 2.63778 -1.27772e-19)
(18.8193 2.54563 2.60459e-19)
(18.7629 2.4515 1.14915e-19)
(18.7141 2.35421 -1.09581e-19)
(19.7481 3.01029 1.01884e-19)
(19.6236 2.98451 1.34838e-20)
(19.5082 2.94607 -6.86408e-20)
(19.3975 2.89629 -5.69638e-20)
(19.2925 2.84334 -1.16972e-19)
(19.1984 2.78006 -4.89001e-22)
(19.1071 2.7074 0)
(19.0285 2.63295 0)
(18.9599 2.55378 -1.49731e-21)
(18.8985 2.47431 -1.30566e-19)
(18.8473 2.39222 0)
(18.8014 2.30515 1.29038e-19)
(18.0527 -1.08533 0)
(17.4581 -1.0723 0)
(16.8612 -1.06161 7.2584e-19)
(16.271 -1.04606 -1.63911e-18)
(15.6876 -1.02809 1.65113e-18)
(15.1054 -1.00807 -2.1742e-18)
(14.513 -0.985797 1.59179e-19)
(13.8927 -0.960698 0)
(13.2144 -0.930623 -1.17614e-19)
(12.4238 -0.894533 7.60791e-19)
(11.4519 -0.792643 -8.40701e-19)
(10.9263 -0.733385 0)
(18.0429 -1.06461 -5.86202e-19)
(17.5044 -1.05299 0)
(16.9625 -1.04241 1.12205e-18)
(16.4233 -1.02786 0)
(15.8855 -1.01071 2.36123e-19)
(15.3433 -0.991261 0)
(14.7855 -0.969114 -1.54974e-19)
(14.1941 -0.943671 -1.81603e-19)
(13.5396 -0.91195 3.29112e-19)
(12.7793 -0.875208 -1.37995e-19)
(11.9385 -0.793382 1.83008e-19)
(11.9225 -0.693442 0)
(18.0367 -1.04992 -3.91875e-19)
(17.5482 -1.0405 -6.15097e-19)
(17.0539 -1.02989 -3.87286e-19)
(16.5573 -1.01512 8.51501e-19)
(16.0569 -0.997323 0)
(15.5464 -0.976881 -2.67081e-19)
(15.0147 -0.953557 0)
(14.444 -0.926947 1.58211e-18)
(13.8066 -0.893668 -2.08621e-18)
(13.074 -0.851043 0)
(12.3357 -0.774544 -3.31879e-19)
(12.5439 -0.664234 -2.02159e-19)
(18.0277 -1.03581 3.31698e-19)
(17.5816 -1.02714 3.68327e-19)
(17.1264 -1.01625 -8.00194e-19)
(16.6647 -1.00138 0)
(16.1941 -0.983478 1.20336e-18)
(15.7083 -0.962866 2.68674e-19)
(15.1961 -0.939313 -1.20361e-18)
(14.64 -0.912352 1.73012e-19)
(14.0142 -0.878735 4.04698e-19)
(13.3033 -0.832165 0)
(12.6379 -0.755074 1.08033e-18)
(12.9621 -0.64547 -5.42228e-19)
(18.0215 -1.02383 1.01178e-18)
(17.6119 -1.01471 4.79793e-20)
(17.1915 -1.00366 2.05352e-19)
(16.7604 -0.989222 8.94331e-19)
(16.3156 -0.971847 -4.84641e-19)
(15.8505 -0.951647 -1.07221e-18)
(15.3541 -0.928295 0)
(14.8091 -0.901122 -1.69773e-19)
(14.1922 -0.867084 5.9265e-19)
(13.4983 -0.818074 -9.40594e-19)
(12.8847 -0.739338 -2.89224e-19)
(13.2795 -0.63335 1.3277e-18)
(18.0167 -1.00857 -1.47618e-18)
(17.6407 -1.00277 -2.00198e-19)
(17.2512 -0.99286 4.24363e-19)
(16.847 -0.979331 -4.56813e-19)
(16.4246 -0.962798 9.83092e-19)
(15.9774 -0.943263 0)
(15.4945 -0.920321 -5.96149e-19)
(14.9587 -0.893138 6.69638e-19)
(14.3492 -0.858725 0)
(13.6687 -0.80818 0)
(13.0919 -0.728 0)
(13.533 -0.62469 1.22875e-18)
(18.0124 -0.999256 4.36464e-19)
(17.6666 -0.993538 -6.74907e-19)
(17.3043 -0.98409 2.18286e-19)
(16.9234 -0.971576 -2.32056e-19)
(16.5198 -0.956176 -2.49079e-19)
(16.0872 -0.937722 -7.41103e-22)
(15.6151 -0.915296 5.91512e-19)
(15.0868 -0.887722 0)
(14.4836 -0.852355 3.7549e-19)
(13.8149 -0.799934 -5.46036e-19)
(13.2686 -0.717105 1.30495e-19)
(13.7512 -0.614904 -5.71872e-19)
(18.0081 -0.989734 2.03631e-19)
(17.688 -0.985339 -2.15293e-19)
(17.3497 -0.976451 -4.48262e-19)
(16.9895 -0.964417 1.41378e-18)
(16.6036 -0.949957 -1.00253e-18)
(16.185 -0.933163 8.08941e-19)
(15.7259 -0.912306 5.88138e-19)
(15.205 -0.885436 -1.3007e-18)
(14.6061 -0.850531 7.32278e-19)
(13.9445 -0.799053 0)
(13.4161 -0.71768 2.47844e-19)
(13.9162 -0.611648 -2.70077e-19)
(18.0102 -0.981726 1.86421e-19)
(17.7124 -0.978979 2.73286e-20)
(17.3945 -0.97155 2.28979e-19)
(17.0504 -0.960981 -4.77703e-19)
(16.6718 -0.9472 -2.52603e-19)
(16.2576 -0.933612 -5.37033e-19)
(15.8031 -0.91351 5.81665e-19)
(15.2888 -0.882305 6.16622e-22)
(14.696 -0.844458 -1.0186e-21)
(14.0445 -0.791523 4.08623e-19)
(13.5532 -0.706384 2.37159e-19)
(14.1396 -0.59594 2.5651e-19)
(17.9818 -0.97342 -1.96228e-19)
(17.7108 -0.971829 2.02045e-19)
(17.4175 -0.964423 -4.71079e-19)
(17.0982 -0.950888 2.43655e-19)
(16.7573 -0.936196 1.02987e-18)
(16.3538 -0.926737 1.00331e-21)
(15.9486 -0.918408 -2.91059e-19)
(15.4297 -0.88833 3.13552e-19)
(14.827 -0.851294 3.49718e-19)
(14.1635 -0.81085 -3.26791e-22)
(13.6376 -0.761703 -4.57986e-19)
(14.1342 -0.624339 4.8012e-19)
(14.6765 -0.729119 1.16743e-19)
(16.7937 -1.00762 0)
(18.0915 -1.06333 1.89822e-19)
(18.9302 -1.13302 1.02097e-19)
(19.5111 -1.17322 0)
(19.8965 -1.19694 -4.98535e-18)
(20.1229 -1.2058 4.22542e-18)
(20.2273 -1.20234 0)
(20.2529 -1.19012 0)
(20.2329 -1.1719 0)
(20.1874 -1.15203 -1.02794e-18)
(20.129 -1.12148 6.00983e-19)
(15.0711 -0.722454 -2.95321e-19)
(17.2917 -0.951902 -1.45849e-19)
(18.5315 -1.01168 -1.16462e-19)
(19.2785 -1.07872 -9.72173e-20)
(19.7608 -1.11298 0)
(20.0555 -1.13599 -4.56313e-18)
(20.2121 -1.1465 2.26858e-19)
(20.2737 -1.14694 3.7628e-18)
(20.2779 -1.1397 0)
(20.2498 -1.12738 2.75187e-18)
(20.2036 -1.1127 -3.20945e-18)
(20.1477 -1.08921 1.30738e-18)
(15.4225 -0.718434 1.72504e-19)
(17.6627 -0.91217 -7.29289e-22)
(18.8435 -0.979334 0)
(19.5123 -1.0374 0)
(19.9167 -1.06476 -1.63539e-19)
(20.1459 -1.08419 4.67022e-18)
(20.2571 -1.0935 -4.45167e-18)
(20.2937 -1.09589 0)
(20.2872 -1.09275 0)
(20.2566 -1.08576 2.03387e-18)
(20.2125 -1.07608 1.13311e-20)
(20.1607 -1.05916 -2.42182e-18)
(15.715 -0.708369 0)
(17.9465 -0.881387 -1.25071e-19)
(19.0717 -0.953339 0)
(19.6736 -1.00408 0)
(20.0153 -1.02838 1.60675e-19)
(20.1957 -1.04559 0)
(20.2762 -1.05388 2.39269e-18)
(20.2979 -1.05686 -1.70085e-18)
(20.2867 -1.05559 0)
(20.2569 -1.05141 0)
(20.2166 -1.04485 -3.92231e-19)
(20.1702 -1.03189 3.63728e-19)
(15.9663 -0.698484 -1.14837e-18)
(18.177 -0.859482 -6.13902e-22)
(19.2501 -0.932698 0)
(19.7945 -0.977625 0)
(20.0853 -1.00009 2.55413e-18)
(20.2286 -1.01551 1.16474e-20)
(20.2869 -1.02305 -2.40004e-18)
(20.2979 -1.02628 -2.47881e-19)
(20.2833 -1.02602 -1.85803e-18)
(20.2545 -1.02351 3.48059e-18)
(20.2173 -1.01936 -1.22578e-18)
(20.1752 -1.01034 3.84524e-19)
(16.1802 -0.688325 1.07753e-18)
(18.3659 -0.841222 2.29532e-19)
(19.3907 -0.914022 -3.08604e-18)
(19.8855 -0.955071 -1.39281e-18)
(20.1351 -0.976475 1.45536e-19)
(20.2502 -0.990548 4.34871e-18)
(20.2924 -0.997633 -2.14927e-18)
(20.2958 -1.00098 -2.27295e-18)
(20.279 -1.00134 -2.46809e-19)
(20.251 -0.99979 1.79433e-18)
(20.2165 -0.996633 6.44413e-19)
(20.1784 -0.988106 -8.15091e-19)
(16.3732 -0.678001 0)
(18.5259 -0.825475 -2.1118e-19)
(19.5025 -0.897038 1.49737e-18)
(19.9529 -0.93561 -1.35202e-18)
(20.1691 -0.956438 -1.55734e-19)
(20.2628 -0.96971 -1.16183e-18)
(20.2934 -0.976548 1.08262e-18)
(20.2918 -0.979958 -2.05088e-18)
(20.2738 -0.980683 2.91082e-18)
(20.247 -0.979772 4.23712e-21)
(20.215 -0.977755 -4.43878e-19)
(20.1804 -0.9716 -4.28786e-19)
(16.5154 -0.661352 -4.78069e-19)
(18.6457 -0.80192 1.41296e-18)
(19.5836 -0.875859 -1.45433e-18)
(20.0008 -0.916733 9.93864e-19)
(20.1909 -0.939194 0)
(20.2691 -0.952324 5.78675e-19)
(20.2917 -0.95917 0)
(20.2868 -0.962618 -3.20049e-22)
(20.2684 -0.963513 -1.89999e-22)
(20.2427 -0.962868 0)
(20.2131 -0.961275 -2.31795e-19)
(20.1818 -0.95565 0)
(16.7262 -0.646823 1.0176e-20)
(18.7765 -0.786544 -1.95138e-18)
(19.6575 -0.864456 1.06133e-18)
(20.035 -0.906287 3.26909e-19)
(20.2062 -0.927053 0)
(20.2723 -0.93928 8.68498e-19)
(20.2888 -0.945433 -2.19386e-18)
(20.2815 -0.948528 1.04671e-18)
(20.2631 -0.949261 -1.56483e-22)
(20.2386 -0.948612 0)
(20.2106 -0.947517 4.81343e-19)
(20.1818 -0.943504 -4.74004e-19)
(16.6605 -0.586528 -4.29873e-19)
(18.7663 -0.724941 1.4956e-18)
(19.6533 -0.832807 -6.82553e-19)
(20.0585 -0.892499 -6.48986e-19)
(20.2134 -0.917345 3.03953e-19)
(20.2723 -0.927753 -2.89373e-19)
(20.2853 -0.933537 -1.37682e-18)
(20.277 -0.936765 1.307e-18)
(20.2592 -0.937231 5.06642e-19)
(20.2349 -0.935966 -2.5086e-19)
(20.209 -0.934927 0)
(20.1834 -0.931498 -2.51692e-19)
(15.7487 2.79943 -1.69093e-17)
(21.5287 2.01349 0)
(23.3866 2.1943 -3.44917e-18)
(24.5472 2.88303 4.30176e-19)
(25.3693 3.38812 4.07227e-19)
(25.8319 3.68318 1.5505e-18)
(25.9082 3.81305 8.40239e-19)
(25.6377 3.77168 -2.16013e-19)
(25.1344 3.56869 -2.49929e-19)
(24.546 3.25232 -6.20537e-19)
(23.9923 2.87639 1.92732e-19)
(23.5293 2.55276 3.15782e-20)
(-1.79877 -0.0673418 -4.67564e-17)
(11.1195 -0.26926 1.08312e-19)
(16.96 -0.0872253 3.28664e-18)
(20.3244 0.440643 -2.22672e-18)
(22.5273 0.937312 1.72434e-18)
(24.024 1.37365 1.23616e-18)
(24.9262 1.75042 -1.97368e-18)
(25.2803 2.03165 6.40019e-19)
(25.1858 2.18736 1.45946e-20)
(24.8029 2.216 -4.39704e-19)
(24.3017 2.13188 4.48952e-19)
(23.8103 1.99241 0)
(1.54868 -0.412965 -1.26904e-17)
(7.79808 -0.744821 1.95017e-20)
(12.8782 -0.655726 3.72093e-20)
(16.8086 -0.396761 1.74768e-18)
(19.766 -0.0408912 -1.30154e-18)
(21.9438 0.341894 1.04111e-18)
(23.4503 0.71251 0)
(24.3379 1.03671 -3.8953e-19)
(24.6783 1.28392 1.14734e-18)
(24.607 1.4385 -3.35738e-19)
(24.2924 1.49938 1.59232e-19)
(23.8931 1.47646 -2.55622e-19)
(4.37913 -0.470207 -1.09585e-17)
(8.14087 -0.795359 3.91548e-18)
(11.7583 -0.892345 0)
(15.1083 -0.853254 -1.61034e-18)
(18.0561 -0.660323 1.09845e-18)
(20.4677 -0.368677 9.14736e-19)
(22.2845 -0.0326894 -1.46349e-18)
(23.4963 0.302776 4.64272e-19)
(24.1355 0.597901 0)
(24.3047 0.824555 -1.06088e-19)
(24.1601 0.974617 2.06361e-19)
(23.8643 1.03715 2.2462e-19)
(5.34489 -0.455333 -8.25327e-18)
(8.41189 -0.730405 -3.25257e-18)
(11.3244 -0.910257 1.99363e-18)
(14.1316 -0.984036 0)
(16.8264 -0.931018 7.4037e-20)
(19.2495 -0.762872 -7.13427e-19)
(21.236 -0.512603 1.44067e-18)
(22.6847 -0.220582 8.73697e-20)
(23.5696 0.0719473 1.17535e-19)
(23.9491 0.328393 -1.7849e-19)
(23.9616 0.530526 -2.32864e-19)
(23.7671 0.65572 -1.27053e-20)
(5.7833 -0.46002 6.07973e-18)
(8.54208 -0.692336 -2.5437e-18)
(11.1079 -0.87889 -9.86279e-20)
(13.5506 -0.992232 -1.08134e-18)
(15.9634 -1.0168 8.40665e-19)
(18.269 -0.941747 -7.45351e-19)
(20.3005 -0.776218 3.89824e-19)
(21.8998 -0.547473 -4.00684e-19)
(22.9797 -0.290729 1.59795e-19)
(23.5474 -0.0425158 -8.39904e-20)
(23.7099 0.17483 2.80207e-21)
(23.6191 0.333477 -2.17142e-19)
(6.21965 -0.479429 -4.59964e-18)
(8.73015 -0.686144 4.0408e-18)
(11.0629 -0.864206 -2.38719e-18)
(13.2512 -0.990316 5.27515e-21)
(15.4205 -1.0535 4.74084e-20)
(17.5595 -1.03717 5.36586e-19)
(19.5454 -0.935422 0)
(21.2099 -0.761713 -7.43455e-20)
(22.4223 -0.54395 -1.15086e-19)
(23.1417 -0.316516 2.60913e-19)
(23.4362 -0.102512 -1.14939e-19)
(23.4454 0.0618907 1.53022e-19)
(6.61001 -0.502864 -3.45696e-18)
(8.93007 -0.691123 0)
(11.0866 -0.859993 -9.02979e-21)
(13.0889 -0.98856 -6.83473e-19)
(15.0678 -1.07075 -2.33024e-21)
(17.0463 -1.09131 1.15597e-20)
(18.9478 -1.03734 1.55648e-20)
(20.6221 -0.910347 3.52135e-19)
(21.9181 -0.729184 2.97495e-20)
(22.7556 -0.524209 -1.53179e-19)
(23.1624 -0.317445 8.77839e-20)
(23.2565 -0.149367 0)
(6.92953 -0.523975 -2.49058e-18)
(9.11016 -0.696821 0)
(11.1288 -0.857119 7.06293e-19)
(12.9886 -0.983855 -1.00368e-18)
(14.8189 -1.07478 -3.87313e-21)
(16.6588 -1.1178 8.06879e-21)
(18.4656 -1.09858 5.03925e-19)
(20.1174 -1.01082 -5.66032e-20)
(21.4617 -0.864257 9.61498e-21)
(22.3902 -0.683516 2.57489e-22)
(22.893 -0.489591 -1.15715e-19)
(23.0615 -0.321034 -3.08234e-20)
(7.20155 -0.542744 0)
(9.27892 -0.702816 -8.17229e-19)
(11.1849 -0.854916 5.24645e-19)
(12.9294 -0.97839 -3.88403e-19)
(14.6395 -1.07303 -4.38965e-21)
(16.3611 -1.12948 5.84074e-21)
(18.0744 -1.1345 -2.63037e-20)
(19.685 -1.07796 1.86486e-19)
(21.0506 -0.962324 6.57944e-20)
(22.0467 -0.805995 4.75291e-20)
(22.6323 -0.629348 -2.86975e-20)
(22.8709 -0.464475 9.43805e-21)
(7.4401 -0.558104 0)
(9.44038 -0.709306 0)
(11.2519 -0.853825 -1.31469e-20)
(12.8998 -0.973531 9.78254e-21)
(14.5097 -1.06937 -2.15967e-20)
(16.1302 -1.13397 0)
(17.7563 -1.15581 -6.62555e-20)
(19.3164 -1.12343 9.01782e-21)
(20.6839 -1.03417 1.12272e-20)
(21.728 -0.90044 7.65101e-20)
(22.3838 -0.741861 -5.97453e-20)
(22.6893 -0.58362 1.91643e-20)
(7.65163 -0.569239 4.02597e-19)
(9.59128 -0.715435 -2.28319e-21)
(11.3233 -0.853502 -1.32301e-19)
(12.8892 -0.969274 8.31804e-20)
(14.4143 -1.06485 7.92201e-20)
(15.9479 -1.13433 -1.07217e-19)
(17.4948 -1.16792 4.40685e-20)
(19.0014 -1.15415 1.34476e-21)
(20.3577 -1.08707 0)
(21.4342 -0.97383 6.98536e-22)
(22.1487 -0.832014 -3.23474e-20)
(22.5163 -0.688431 2.51633e-21)
(7.84154 -0.577509 -2.43946e-19)
(9.73017 -0.720757 1.06181e-20)
(11.395 -0.853476 7.3739e-20)
(12.8907 -0.965399 -5.55214e-20)
(14.343 -1.05982 3.77529e-20)
(15.8013 -1.13207 -1.87402e-20)
(17.2769 -1.17383 -3.06858e-20)
(18.7303 -1.1742 2.71453e-20)
(20.067 -1.12537 7.45847e-21)
(21.1634 -1.03006 -2.20721e-20)
(21.9256 -0.901364 -5.99701e-20)
(22.3468 -0.763608 6.48181e-21)
(8.01393 -0.584611 -1.1753e-18)
(9.85778 -0.725509 3.00284e-19)
(11.4652 -0.853701 0)
(12.9003 -0.961959 5.02733e-21)
(14.2893 -1.05475 0)
(15.6818 -1.12843 8.56103e-20)
(17.0932 -1.1759 -3.54201e-20)
(18.495 -1.18713 1.0416e-20)
(19.807 -1.1534 3.77697e-20)
(20.9131 -1.07435 6.0196e-20)
(21.7125 -0.959427 5.21852e-20)
(22.1776 -0.82981 -9.33857e-20)
(8.17123 -0.591464 9.81769e-19)
(9.97525 -0.730011 -5.29845e-19)
(11.5331 -0.854224 0)
(12.9154 -0.959076 1.7735e-20)
(14.2489 -1.05004 -1.35383e-20)
(15.5832 -1.1243 1.47955e-19)
(16.9369 -1.17584 1.46389e-20)
(18.2898 -1.19554 -1.35675e-19)
(19.574 -1.17442 -9.27141e-20)
(20.6825 -1.10992 -4.826e-20)
(21.5113 -1.00877 0)
(22.0165 -0.888233 0)
(8.31503 -0.598311 -5.57734e-21)
(10.0837 -0.734368 -7.59566e-19)
(11.5984 -0.854978 9.4648e-19)
(12.934 -0.956682 -3.53458e-19)
(14.2185 -1.04574 2.51797e-19)
(15.5012 -1.12002 -2.05133e-19)
(16.8029 -1.17443 1.09797e-20)
(18.1101 -1.20075 1.79142e-19)
(19.3654 -1.19008 -1.03196e-20)
(20.4709 -1.13821 -5.89034e-20)
(21.3226 -1.04969 0)
(21.8643 -0.938915 0)
(8.44655 -0.605094 1.69776e-18)
(10.1841 -0.738591 2.60126e-20)
(11.6607 -0.855889 0)
(12.9551 -0.954666 -4.25521e-19)
(14.196 -1.04178 6.68539e-19)
(15.4325 -1.1157 -5.21448e-19)
(16.6871 -1.17207 1.07712e-19)
(17.9518 -1.20354 0)
(19.1778 -1.20149 7.08539e-20)
(20.2765 -1.16056 1.37711e-19)
(21.1452 -1.08332 1.32675e-19)
(21.7195 -0.982788 -1.01011e-19)
(8.5669 -0.611667 6.23921e-20)
(10.2771 -0.742657 0)
(11.7199 -0.856896 -7.17515e-19)
(12.9776 -0.952944 5.45844e-19)
(14.1793 -1.03814 -2.61357e-20)
(15.3744 -1.11141 -3.12989e-19)
(16.5864 -1.16908 5.76403e-19)
(17.8114 -1.20455 -2.74261e-19)
(19.0085 -1.20962 3.73087e-19)
(20.0973 -1.1782 -2.28611e-19)
(20.9783 -1.11096 -1.28097e-19)
(21.581 -1.02026 -1.25466e-19)
(8.67712 -0.617934 4.23687e-21)
(10.3633 -0.746571 1.30424e-18)
(11.7762 -0.85798 -1.0181e-21)
(13.0007 -0.951491 -3.5288e-20)
(14.1673 -1.03479 -9.08391e-19)
(15.3249 -1.10724 3.61489e-19)
(16.498 -1.16572 0)
(17.6863 -1.20429 2.44004e-19)
(18.8551 -1.21523 -2.10416e-19)
(19.9319 -1.19204 9.73669e-20)
(20.8213 -1.1337 -1.52699e-19)
(21.4485 -1.05216 -1.26127e-20)
(8.7782 -0.623839 2.44686e-18)
(10.4434 -0.750298 -2.91731e-18)
(11.8294 -0.859096 1.86964e-18)
(13.0241 -0.950244 1.33696e-18)
(14.1588 -1.03172 -9.9253e-19)
(15.2823 -1.10322 -4.08693e-19)
(16.42 -1.16211 2.47712e-19)
(17.574 -1.20308 -2.15546e-19)
(18.7155 -1.21884 -2.50584e-21)
(19.7789 -1.20278 1.99916e-19)
(20.6736 -1.1524 5.27414e-21)
(21.3217 -1.0793 2.84931e-19)
(8.87094 -0.629357 8.67858e-20)
(10.5178 -0.753837 3.26219e-18)
(11.8795 -0.860228 -1.06755e-18)
(13.0473 -0.949171 -4.82306e-20)
(14.1529 -1.02887 -5.67365e-19)
(15.2455 -1.09935 3.93878e-19)
(16.3506 -1.15838 8.90159e-20)
(17.4729 -1.20116 -3.92638e-19)
(18.588 -1.22091 2.60705e-19)
(19.6371 -1.211 2.22896e-19)
(20.5342 -1.16774 -1.72045e-19)
(21.2001 -1.10228 0)
(8.95619 -0.634486 5.89123e-18)
(10.5868 -0.757176 -1.73794e-18)
(11.9268 -0.861348 3.39063e-20)
(13.0701 -0.948238 4.87671e-20)
(14.1492 -1.02624 0)
(15.2133 -1.09565 -5.00117e-19)
(16.2885 -1.15459 8.13619e-19)
(17.3812 -1.19875 -3.44702e-19)
(18.4712 -1.2218 0)
(19.5053 -1.21725 0)
(20.4028 -1.18044 1.35446e-20)
(21.0837 -1.12206 0)
(9.03465 -0.639244 -3.21693e-18)
(10.6509 -0.760316 -1.71865e-19)
(11.9712 -0.862446 3.91917e-20)
(13.0921 -0.947422 0)
(14.1469 -1.0238 -4.3307e-20)
(15.1849 -1.09212 -4.27672e-21)
(16.2326 -1.15081 1.13291e-19)
(17.2976 -1.196 8.85532e-20)
(18.3636 -1.22177 0)
(19.3826 -1.22184 0)
(20.2787 -1.19074 7.95101e-21)
(20.972 -1.13834 -3.67052e-19)
(9.10695 -0.643668 5.08312e-20)
(10.7105 -0.763275 -1.87833e-18)
(12.013 -0.863527 2.56337e-18)
(13.1134 -0.946716 -1.00096e-18)
(14.1458 -1.02154 4.3765e-20)
(15.1598 -1.08877 -4.0645e-21)
(16.1819 -1.1471 6.6409e-21)
(17.2212 -1.19303 0)
(18.2643 -1.22105 3.29239e-19)
(19.268 -1.22512 -2.75101e-19)
(20.1612 -1.19922 -2.38372e-19)
(20.8649 -1.15269 -1.99118e-19)
(9.17361 -0.647769 7.04566e-18)
(10.7659 -0.766057 -1.85298e-18)
(12.0521 -0.864579 0)
(13.1337 -0.946107 -6.72536e-20)
(14.1456 -1.01947 7.68413e-19)
(15.1372 -1.08561 -5.38171e-19)
(16.1356 -1.1435 2.51343e-19)
(17.1509 -1.18996 -1.05851e-19)
(18.1722 -1.21988 1.34702e-21)
(19.1608 -1.22745 1.83903e-21)
(20.0498 -1.20621 -9.64129e-21)
(20.7615 -1.1649 -3.81201e-21)
(9.23523 -0.651569 3.68551e-18)
(10.8175 -0.768663 2.08894e-18)
(12.0888 -0.865594 -1.41324e-18)
(13.153 -0.945581 -9.97273e-19)
(14.1459 -1.01756 1.62779e-18)
(15.1169 -1.08266 8.30083e-20)
(16.0933 -1.14005 -5.60518e-21)
(17.0861 -1.18688 -3.32863e-19)
(18.0867 -1.21839 3.69194e-19)
(19.0603 -1.22903 -3.0816e-19)
(19.9442 -1.21206 2.53466e-19)
(20.6625 -1.17605 -2.20388e-19)
(9.29226 -0.655115 -4.47031e-22)
(10.8655 -0.771125 -2.32192e-18)
(12.1232 -0.866591 1.53513e-18)
(13.1715 -0.945142 -1.04698e-18)
(14.1467 -1.01581 5.46763e-20)
(15.0986 -1.07989 -7.67595e-19)
(16.0544 -1.13676 -6.1534e-21)
(17.0261 -1.18384 4.63605e-19)
(18.007 -1.21668 0)
(18.9659 -1.23002 1.65386e-19)
(19.844 -1.21684 -2.77145e-19)
(20.567 -1.18498 2.22125e-19)
(9.34508 -0.658406 0)
(10.9103 -0.773425 -2.27348e-18)
(12.1554 -0.86754 1.6063e-18)
(13.1889 -0.94476 -7.43849e-20)
(14.1478 -1.01419 2.12401e-21)
(15.0818 -1.0773 9.13381e-20)
(16.0185 -1.13362 2.93049e-19)
(16.9703 -1.18083 4.86542e-19)
(17.9326 -1.21479 -4.05263e-19)
(18.877 -1.23049 -1.66483e-19)
(19.7487 -1.22083 -1.02991e-20)
(20.4749 -1.19283 -2.45957e-21)
(9.39413 -0.661464 0)
(10.952 -0.77559 2.63685e-21)
(12.1857 -0.868459 1.80856e-21)
(13.2055 -0.944436 7.49208e-20)
(14.1491 -1.01271 8.82583e-19)
(15.0665 -1.07488 -9.37513e-19)
(15.9852 -1.13064 -9.19159e-19)
(16.9185 -1.1779 1.01542e-18)
(17.863 -1.21281 -8.46806e-19)
(18.7934 -1.23064 -1.81153e-19)
(19.6581 -1.22431 5.86064e-19)
(20.387 -1.19992 2.42129e-19)
(9.43969 -0.664327 0)
(10.991 -0.777639 -7.76875e-20)
(12.2141 -0.869351 1.68351e-18)
(13.2212 -0.944157 -1.27045e-18)
(14.1505 -1.01133 9.79608e-19)
(15.0523 -1.07258 9.61174e-20)
(15.9543 -1.12777 -4.81188e-19)
(16.87 -1.175 5.28763e-19)
(17.7977 -1.21068 -2.16429e-19)
(18.7144 -1.2303 3.67667e-19)
(19.5719 -1.22685 -6.19922e-19)
(20.3019 -1.20445 -1.74573e-21)
(9.48187 -0.666983 0)
(11.0274 -0.779576 -2.5278e-18)
(12.2407 -0.870197 1.8e-18)
(13.2359 -0.943899 1.31825e-18)
(14.152 -1.01001 -1.01779e-18)
(15.0392 -1.07039 1.02977e-19)
(15.9254 -1.125 1.68127e-19)
(16.8246 -1.17215 5.48873e-19)
(17.7363 -1.2085 -4.49847e-19)
(18.6397 -1.2298 -3.81178e-19)
(19.4899 -1.22965 -9.06639e-21)
(20.2212 -1.21334 -2.67202e-19)
(9.52132 -0.66938 -4.49359e-18)
(11.0613 -0.781274 2.60845e-18)
(12.2656 -0.870899 0)
(13.2498 -0.943574 1.36484e-18)
(14.1534 -1.00871 -1.12148e-18)
(15.0269 -1.06824 2.90342e-21)
(15.8983 -1.12226 -1.693e-19)
(16.782 -1.16927 5.68366e-19)
(17.6786 -1.20615 -7.05667e-19)
(18.5694 -1.22883 -2.00448e-19)
(19.4124 -1.23075 6.52804e-19)
(20.1457 -1.21913 2.73637e-19)
(9.55781 -0.671661 4.60752e-18)
(11.0929 -0.78294 0)
(12.2888 -0.871598 -1.91833e-18)
(13.2627 -0.943255 2.8201e-18)
(14.1547 -1.00741 -9.54169e-19)
(15.0153 -1.06607 -8.67583e-19)
(15.8728 -1.11943 7.10141e-19)
(16.7418 -1.16615 0)
(17.6238 -1.20328 7.35839e-19)
(18.5023 -1.22688 -6.12652e-19)
(19.3378 -1.22984 4.04103e-21)
(20.0709 -1.21837 -3.907e-21)
(9.59167 -0.673802 0)
(11.1221 -0.784458 0)
(12.3103 -0.87221 0)
(13.2746 -0.942927 0)
(14.1556 -1.00614 -6.94492e-20)
(15.0042 -1.06396 7.87504e-19)
(15.8484 -1.11669 -5.47492e-19)
(16.7035 -1.16311 0)
(17.5717 -1.20051 2.55141e-19)
(18.4381 -1.22531 -4.19696e-19)
(19.2661 -1.23086 -3.46072e-19)
(19.9989 -1.22496 -9.21925e-21)
(9.62281 -0.675769 4.82297e-18)
(11.1492 -0.785824 -2.91443e-18)
(12.3302 -0.872729 2.02986e-18)
(13.2855 -0.942562 0)
(14.1562 -1.00488 0)
(14.9933 -1.06189 9.25761e-19)
(15.8252 -1.114 -9.41695e-19)
(16.667 -1.16009 6.23861e-19)
(17.522 -1.19762 4.77809e-22)
(18.3769 -1.22316 -6.44437e-19)
(19.1975 -1.22954 -3.8164e-21)
(19.9278 -1.2217 -6.41243e-21)
(9.6516 -0.677571 0)
(11.1742 -0.787081 0)
(12.3485 -0.873195 0)
(13.2954 -0.942181 0)
(14.1564 -1.00364 1.19201e-18)
(14.9828 -1.05987 -3.42497e-23)
(15.8028 -1.11134 -1.55371e-18)
(16.6321 -1.15707 -1.62299e-19)
(17.4746 -1.19465 1.06533e-18)
(18.3183 -1.22093 -6.66943e-19)
(19.1313 -1.22951 7.37273e-19)
(19.8598 -1.22522 -6.43577e-21)
(9.67813 -0.679224 5.02388e-18)
(11.1974 -0.788236 0)
(12.3654 -0.873603 0)
(13.3043 -0.941783 0)
(14.1562 -1.00242 -1.22428e-18)
(14.9724 -1.0579 3.26045e-23)
(15.7813 -1.10874 9.99537e-19)
(16.5986 -1.1541 9.88003e-19)
(17.4291 -1.1917 4.02913e-22)
(18.262 -1.21845 -2.29509e-19)
(19.0675 -1.22798 7.64236e-21)
(19.7944 -1.22635 3.05071e-19)
(9.70254 -0.680771 0)
(11.2186 -0.789351 0)
(12.3807 -0.874001 2.11567e-18)
(13.3122 -0.941412 -1.5155e-18)
(14.1555 -1.00127 0)
(14.9621 -1.05601 -8.77373e-19)
(15.7604 -1.10624 8.22733e-19)
(16.5664 -1.15121 3.29156e-21)
(17.3853 -1.18878 0)
(18.2078 -1.21603 -2.3528e-19)
(19.0057 -1.22654 -3.87077e-19)
(19.7315 -1.2276 -6.25877e-19)
(9.72519 -0.682117 5.21333e-18)
(11.2381 -0.790254 -3.18144e-18)
(12.3948 -0.874267 6.91514e-20)
(13.3193 -0.940983 1.91913e-21)
(14.1544 -1.00012 0)
(14.9518 -1.05419 -1.27421e-19)
(15.7401 -1.10385 -4.19459e-19)
(16.5354 -1.14846 3.21224e-21)
(17.3433 -1.18602 5.74332e-19)
(18.1557 -1.2138 -3.81535e-21)
(18.9463 -1.22517 3.96687e-19)
(19.6692 -1.22556 0)
(9.74593 -0.683413 5.30423e-18)
(11.2561 -0.791193 0)
(12.4076 -0.874591 0)
(13.3255 -0.940624 -1.90499e-18)
(14.1529 -0.999078 2.71677e-18)
(14.9417 -1.05249 -2.23987e-18)
(15.7204 -1.1016 1.71407e-18)
(16.5054 -1.14584 -7.05009e-19)
(17.3027 -1.18333 5.8759e-19)
(18.1054 -1.21152 -3.74687e-21)
(18.8887 -1.22413 -8.03465e-19)
(19.6072 -1.22383 3.30133e-19)
(9.76518 -0.684644 0)
(11.2726 -0.792049 0)
(12.4193 -0.874878 2.32798e-18)
(13.3309 -0.940292 -1.73191e-18)
(14.1511 -0.998094 -8.34224e-20)
(14.9316 -1.05089 -2.27692e-21)
(15.7013 -1.09949 8.74755e-19)
(16.4765 -1.1434 -1.62779e-18)
(17.2637 -1.18087 1.20087e-18)
(18.057 -1.2095 -2.51299e-19)
(18.8331 -1.22378 6.89315e-21)
(19.548 -1.22524 3.38219e-19)
(9.78282 -0.685766 1.09583e-17)
(11.2878 -0.7928 -1.97443e-22)
(12.4299 -0.875097 -2.37355e-18)
(13.3357 -0.939934 -1.78341e-21)
(14.1489 -0.997123 0)
(14.9217 -1.04934 1.36481e-19)
(15.6827 -1.09744 8.939e-19)
(16.4486 -1.14102 -7.39591e-19)
(17.2262 -1.17844 -3.08997e-19)
(18.0104 -1.20731 5.09437e-19)