/*--------------------------------*- C++ -*----------------------------------*\
| =========                 |                                                 |
| \\      /  F ield         | OpenFOAM: The Open Source CFD Toolbox           |
|  \\    /   O peration     | Version:  2.3.0                                 |
|   \\  /    A nd           | Web:      www.OpenFOAM.org                      |
|    \\/     M anipulation  |                                                 |
\*---------------------------------------------------------------------------*/
FoamFile
{
    version     2.0;
    format      ascii;
    class       volScalarField;
    location    "350";
    object      nuTilda;
}
// * * * * * * * * * * * * * * * * * * * * * * * * * * * * * * * * * * * * * //

dimensions      [0 2 -1 0 0 0 0];

internalField   nonuniform List<scalar> 
7826
(
0.0668648
0.0618173
0.0570899
0.0527484
0.0488498
0.0454366
0.042531
0.0401267
0.0381805
0.0366127
0.0353148
0.0341685
0.0330579
0.0318819
0.0305851
0.0728496
0.0692854
0.0661039
0.0633359
0.0609907
0.0590564
0.0575046
0.056295
0.0553804
0.054712
0.0542429
0.0539326
0.0537459
0.053655
0.0536385
0.0781935
0.0756517
0.0734569
0.0715978
0.0700536
0.0687957
0.0677903
0.0670018
0.0663961
0.0659421
0.0656121
0.0653834
0.0652368
0.0651565
0.0651308
0.0827422
0.0809063
0.079342
0.0780296
0.0769438
0.0760575
0.0753433
0.0747753
0.0743304
0.0739886
0.0737332
0.0735501
0.0734278
0.0733568
0.0733298
0.0865659
0.0851984
0.0840394
0.0830668
0.082258
0.0815913
0.0810466
0.0806062
0.0802544
0.0799781
0.0797667
0.0796112
0.0795043
0.0794401
0.0794136
0.0897546
0.0887085
0.0878196
0.0870687
0.0864381
0.0859115
0.0854747
0.0851155
0.0848234
0.0845897
0.0844072
0.0842704
0.0841743
0.0841151
0.0840895
0.0924203
0.0915994
0.0908968
0.0902972
0.0897873
0.0893555
0.0889918
0.0886879
0.0884368
0.0882327
0.0880709
0.0879474
0.0878595
0.0878042
0.0877795
0.0946598
0.0940011
0.0934314
0.092939
0.0925145
0.0921498
0.0918381
0.0915739
0.0913526
0.0911703
0.0910238
0.0909106
0.0908288
0.0907766
0.0907527
0.0965525
0.0960147
0.0955424
0.0951282
0.0947661
0.0944507
0.0941776
0.0939432
0.0937443
0.0935787
0.093444
0.0933389
0.093262
0.0932122
0.0931888
0.0981672
0.0977181
0.097318
0.0969624
0.0966473
0.0963692
0.0961254
0.0959139
0.0957326
0.0955802
0.0954552
0.0953565
0.0952836
0.0952358
0.0952127
0.0995541
0.0991693
0.0988242
0.0985138
0.0982351
0.0979858
0.0977646
0.0975711
0.097404
0.0972624
0.0971453
0.0970522
0.0969827
0.0969366
0.0969136
0.100743
0.100412
0.100111
0.0998371
0.0995869
0.0993606
0.0991569
0.0989776
0.0988223
0.0986901
0.0985797
0.0984913
0.0984248
0.0983799
0.0983569
0.101768
0.101482
0.101218
0.100975
0.100746
0.10054
0.100348
0.10018
0.100035
0.0999122
0.099807
0.0997228
0.099659
0.0996148
0.0995912
0.102661
0.102411
0.102174
0.101962
0.101744
0.101561
0.101374
0.101216
0.101077
0.100966
0.100863
0.100783
0.100722
0.100678
0.100652
0.0306807
0.0321131
0.0332905
0.0343554
0.0354489
0.0367126
0.0382791
0.0402559
0.0427125
0.0456792
0.0491505
0.0530979
0.0574777
0.0622362
0.0673137
0.0536317
0.0536362
0.0537178
0.0539002
0.0542131
0.0546923
0.0553802
0.0563235
0.0575703
0.059166
0.0611488
0.0635446
0.0663609
0.069586
0.073189
0.0651338
0.0651659
0.0652533
0.0654088
0.0656484
0.0659911
0.0664602
0.067084
0.0678934
0.0689226
0.0702069
0.0717798
0.0736695
0.0758956
0.0784677
0.0733336
0.0733685
0.0734481
0.0735799
0.0737736
0.0740406
0.074395
0.0748543
0.0754383
0.0761703
0.0770763
0.0781834
0.0795188
0.0811078
0.0829727
0.0794174
0.0794517
0.0795244
0.0796402
0.0798052
0.0800268
0.0803141
0.0806781
0.0811317
0.0816908
0.0823733
0.083199
0.0841895
0.0853666
0.0867502
0.0840929
0.0841256
0.0841923
0.0842962
0.0844412
0.0846326
0.0848759
0.0851784
0.085549
0.0859983
0.0865383
0.0871835
0.0879498
0.0888547
0.0899174
0.0877824
0.087813
0.0878746
0.0879692
0.0880997
0.0882693
0.088482
0.0887422
0.0890562
0.089431
0.0898748
0.0903979
0.0910114
0.0917281
0.0925624
0.090755
0.0907836
0.0908406
0.090928
0.0910472
0.0912005
0.0913905
0.0916202
0.0918936
0.0922154
0.0925913
0.0930281
0.0935337
0.094117
0.0947856
0.0931903
0.093217
0.0932703
0.0933514
0.0934617
0.0936023
0.093775
0.0939818
0.094225
0.0945078
0.0948337
0.0952075
0.0956347
0.0961225
0.0966804
0.0952134
0.0952381
0.0952879
0.0953639
0.0954668
0.0955973
0.0957565
0.0959456
0.0961658
0.0964189
0.0967069
0.0970329
0.0974004
0.0978144
0.098281
0.0969134
0.0969361
0.0969828
0.0970541
0.0971507
0.0972732
0.0974219
0.0975971
0.0977992
0.0980291
0.0982877
0.0985766
0.0988978
0.0992543
0.0996511
0.098356
0.0983766
0.0984203
0.098487
0.0985783
0.0986945
0.098835
0.0989991
0.0991868
0.0993982
0.0996336
0.0998932
0.100178
0.100488
0.100826
0.0995906
0.0996079
0.0996497
0.0997111
0.0997983
0.0999098
0.100044
0.100199
0.100375
0.100572
0.100789
0.101025
0.10128
0.101554
0.101847
0.100655
0.100665
0.10071
0.100763
0.100848
0.100957
0.101088
0.101233
0.101399
0.101585
0.101789
0.102005
0.102237
0.102482
0.102743
0.0136631
0.0108337
0.00861869
0.00709872
0.00600468
0.00514052
0.00441089
0.00376853
0.00318832
0.00265654
0.00216633
0.0017157
0.00130552
0.00093383
0.000658595
0.0137199
0.0110921
0.00903489
0.00755016
0.00644657
0.0055809
0.00486049
0.00423184
0.00366474
0.00314191
0.00265383
0.00219613
0.00176605
0.00135949
0.0010259
0.0137866
0.0113754
0.00948054
0.00802612
0.00690847
0.00602578
0.00529627
0.00466465
0.0040964
0.00357067
0.00307542
0.00260379
0.00214938
0.00170525
0.00133044
0.01388
0.0116687
0.00990641
0.00848998
0.00736278
0.0064568
0.00570621
0.00505912
0.00447915
0.0039426
0.0034348
0.00294637
0.0024675
0.00198891
0.00157902
0.0140056
0.0119661
0.010303
0.00892728
0.0077978
0.00686907
0.00609179
0.00542119
0.00482197
0.00426887
0.00374496
0.0032383
0.00273596
0.00222635
0.00178467
0.0141162
0.0122475
0.0106701
0.00933422
0.00820807
0.00726022
0.0064551
0.0057567
0.00513321
0.00455935
0.00401669
0.00349092
0.00296624
0.00242851
0.00195763
0.0142376
0.0125052
0.0110073
0.00971031
0.00859135
0.00762849
0.00679693
0.0060693
0.0054186
0.00482113
0.00425776
0.00371238
0.00316638
0.00260292
0.00210521
0.0143818
0.0127454
0.0113162
0.0100564
0.00894703
0.00797295
0.00711745
0.00636097
0.00568191
0.0050591
0.00447378
0.00390845
0.00334205
0.00275493
0.00223255
0.0144923
0.0129658
0.0115995
0.0103743
0.00927564
0.0082933
0.00741679
0.00663293
0.00592554
0.00527676
0.00466877
0.0040834
0.00349747
0.00288843
0.00234342
0.0146072
0.013167
0.0118587
0.0106658
0.00957832
0.00859
0.00769519
0.006886
0.00615121
0.0054765
0.00484575
0.00424052
0.0036359
0.00300657
0.0024407
0.0147066
0.0133508
0.0120956
0.0109327
0.00985645
0.00886392
0.00795316
0.0071208
0.00636002
0.00566005
0.00500675
0.00438204
0.00375945
0.00311126
0.00252631
0.0147927
0.0135172
0.0123118
0.0111771
0.0101118
0.00911637
0.00819204
0.00733894
0.00655404
0.00583
0.00515507
0.00451154
0.0038723
0.00320612
0.00260296
0.0148772
0.0136678
0.0125076
0.0113986
0.0103431
0.00934454
0.00840705
0.00753395
0.00672595
0.00597897
0.0052824
0.00462134
0.00396435
0.00328534
0.00266805
0.0149957
0.0138486
0.0127305
0.0116442
0.0106027
0.0096076
0.00866306
0.00777523
0.00694367
0.00617009
0.00545643
0.00476946
0.00410672
0.00338364
0.00274088
0.00066845
0.000911558
0.00124974
0.00161516
0.00200298
0.00241083
0.00284238
0.00330982
0.00383963
0.00448875
0.0053843
0.00678147
0.00866627
0.011062
0.0140449
0.00102831
0.00130483
0.00165036
0.00201629
0.00239861
0.0027982
0.00322312
0.00369297
0.00424655
0.00495474
0.00592869
0.00729065
0.00909662
0.0113471
0.0141129
0.00132672
0.00162094
0.00198016
0.0023535
0.00274005
0.00314499
0.00358215
0.00407926
0.00468298
0.00546027
0.00648606
0.00781894
0.00954591
0.0116577
0.0142179
0.00157039
0.00187832
0.0022518
0.00263612
0.003034
0.00345565
0.00392073
0.00446218
0.00512587
0.00596367
0.00702015
0.00833081
0.00998384
0.0119689
0.0143358
0.0017721
0.00209272
0.0024803
0.00287829
0.00329352
0.00374112
0.00424501
0.00483879
0.00556101
0.00644679
0.00752194
0.00881351
0.0103984
0.0122683
0.014461
0.00194195
0.00227485
0.00267658
0.00309067
0.00352823
0.00400859
0.00455735
0.00520472
0.00597931
0.00690255
0.00798972
0.00926279
0.0107853
0.0125508
0.0145868
0.00208707
0.00243198
0.00284811
0.00328043
0.0037442
0.00426153
0.00485722
0.00555564
0.00637557
0.0073285
0.00842343
0.00967777
0.0111431
0.0128125
0.0147019
0.00221253
0.0025692
0.00300008
0.00345229
0.00394489
0.00450116
0.00514316
0.00588845
0.00674729
0.00772422
0.00882383
0.0100591
0.0114719
0.0130556
0.0148307
0.00232203
0.00269018
0.00313607
0.00360939
0.0041322
0.00472767
0.00541378
0.00620132
0.00709363
0.00809022
0.00919216
0.0104085
0.0117739
0.0132819
0.0149501
0.00241826
0.00279762
0.00325867
0.00375378
0.00430726
0.00494097
0.00566822
0.00649352
0.00741473
0.00842755
0.00953014
0.0107284
0.012051
0.0134903
0.015055
0.00250342
0.00289382
0.00337009
0.00388719
0.00447096
0.00514108
0.00590608
0.00676504
0.00771135
0.00873764
0.00983977
0.0110208
0.0123042
0.0136793
0.0151444
0.00257903
0.00297962
0.00347057
0.00400927
0.00462249
0.00532729
0.00612734
0.00701633
0.00798442
0.00902195
0.0101229
0.0112878
0.0125356
0.013854
0.0152474
0.00264663
0.00305938
0.00356716
0.00412902
0.00477066
0.00550656
0.00633357
0.00724829
0.00823568
0.00928398
0.0103833
0.0115325
0.0127469
0.0140111
0.0153121
0.00270761
0.0031217
0.00363212
0.00420134
0.00486519
0.00562408
0.00651277
0.00745998
0.0084675
0.00950739
0.0105942
0.011728
0.0129232
0.0141292
0.0153644
0.00129579
0.0039111
0.00679514
0.00990273
0.0132261
0.016763
0.0205242
0.0245335
0.0288238
0.0334297
0.0383767
0.0436725
0.0493013
0.0552233
0.0613779
1.90472e-05
0.000438977
0.00175373
0.00389386
0.00640178
0.00938664
0.0128535
0.0168004
0.0212231
0.0261155
0.031466
0.0372528
0.0434378
0.0499616
0.0567416
0
0.000233593
0.0010856
0.00254439
0.00436935
0.00669095
0.00955183
0.0129833
0.0170067
0.0216306
0.0268487
0.0326365
0.0389487
0.045719
0.0528775
4.99386e-05
0.000233448
0.00109184
0.00215978
0.00360991
0.00550997
0.00791968
0.010896
0.0144882
0.0187333
0.0236501
0.0292341
0.0354523
0.0422381
0.0494748
0.000127325
0.000571452
0.00105892
0.00195356
0.00319383
0.00483512
0.00694218
0.00958306
0.0128237
0.0167223
0.0213219
0.0266427
0.0326738
0.0393671
0.046639
0.00034624
0.000669926
0.00106716
0.00179307
0.0028916
0.00435791
0.0062527
0.0086467
0.0116135
0.0152238
0.0195377
0.0245962
0.0304107
0.0369529
0.0441433
0.000394089
0.000637572
0.00106491
0.00165904
0.00264949
0.00398485
0.00571951
0.00792356
0.0106732
0.0140456
0.018112
0.0229287
0.0285268
0.0349009
0.0420045
0.000383584
0.000592389
0.00103275
0.00155291
0.00245191
0.00368269
0.00528948
0.00734055
0.00991247
0.0130855
0.0169377
0.0215369
0.0269298
0.0331311
0.0401156
0.000375873
0.000568673
0.00100073
0.00149606
0.0022922
0.00343375
0.00493434
0.0068579
0.00928023
0.0122831
0.0159488
0.0203532
0.0255556
0.0315885
0.0384509
0.000370908
0.000558267
0.00097836
0.00145898
0.00216158
0.00322563
0.00463581
0.00645053
0.00874444
0.0115997
0.0151012
0.0193307
0.0243572
0.0302273
0.0369529
0.000367125
0.000552545
0.000962214
0.00142573
0.00205395
0.00304912
0.0043811
0.00610151
0.00828342
0.0110088
0.0143645
0.018436
0.0232999
0.0290124
0.0355929
0.00036374
0.000548077
0.000949982
0.00139817
0.00197743
0.00289911
0.00416119
0.00579869
0.00788175
0.0104919
0.0137167
0.0176447
0.0223579
0.0279201
0.0343611
0.000360665
0.000544482
0.000941717
0.00137983
0.00193117
0.0027721
0.00396954
0.00553311
0.00752808
0.0100349
0.0131414
0.0169383
0.0215111
0.0269295
0.0332285
0.000357915
0.000541742
0.000936595
0.00136807
0.00189924
0.00266368
0.00380109
0.00529805
0.00721378
0.00962719
0.0126261
0.0163024
0.0207446
0.0260279
0.0321994
0.000355423
0.000539494
0.000932908
0.00135878
0.00187188
0.0025716
0.00365194
0.00508831
0.00693224
0.00926071
0.0121612
0.0157263
0.0200471
0.0252047
0.0312591
0.000353108
0.000537396
0.000929557
0.00135039
0.00184833
0.00250095
0.00352003
0.00489998
0.00667831
0.00892907
0.011739
0.0152012
0.019409
0.0244471
0.0303779
0.000350934
0.000535404
0.00092655
0.00134359
0.00183088
0.00245356
0.00340419
0.0047301
0.00644795
0.00862722
0.0113536
0.0147203
0.0188218
0.0237452
0.0295522
0.000348909
0.000533622
0.000924226
0.00133889
0.00181902
0.00242072
0.0033024
0.00457625
0.00623789
0.00835103
0.0109998
0.0142772
0.0182783
0.0230908
0.028777
0.000347027
0.000532073
0.000922559
0.00133572
0.00181022
0.00239399
0.00321256
0.00443635
0.00604548
0.00809716
0.0106737
0.0138676
0.0177751
0.0224886
0.0280949
0.000345264
0.000530668
0.000921201
0.00133313
0.00180237
0.00236974
0.003135
0.00430881
0.0058685
0.00786282
0.0103718
0.0134874
0.0173058
0.0219194
0.0273959
0.000343594
0.000529303
0.000919837
0.00133056
0.00179497
0.00234846
0.00307353
0.00419297
0.00570522
0.00764572
0.0100914
0.0131335
0.0168691
0.0213957
0.0268147
0.000342
0.000527947
0.000918415
0.00132811
0.00178865
0.00233175
0.00302899
0.00408843
0.00555425
0.00744396
0.00983016
0.012803
0.0164597
0.0208966
0.0261875
0.000340476
0.000526637
0.000917076
0.0013261
0.00178394
0.00231957
0.00299635
0.00399426
0.00541443
0.00725593
0.009586
0.0124934
0.0160751
0.0204285
0.0256428
0.000339028
0.000525418
0.000915953
0.00132471
0.00178072
0.00231047
0.00296989
0.00390914
0.00528465
0.00708025
0.00935723
0.0122026
0.0157132
0.0199872
0.0251134
0.000337654
0.000524291
0.00091504
0.00132377
0.00177838
0.00230282
0.00294614
0.00383241
0.00516397
0.00691572
0.00914232
0.0119288
0.0153711
0.0195656
0.02459
0.000336343
0.000523225
0.000914226
0.00132301
0.00177631
0.0022956
0.00292404
0.00376524
0.00505174
0.00676128
0.0089399
0.0116701
0.0150466
0.0191653
0.0241132
0.000335085
0.000522189
0.000913399
0.00132219
0.0017742
0.00228872
0.00290432
0.00371019
0.00494779
0.0066161
0.00874888
0.0114255
0.0147405
0.0187949
0.0237055
0.000333874
0.000521143
0.00091249
0.00132126
0.00177213
0.00228263
0.00288807
0.00366779
0.00485203
0.00647949
0.00856833
0.011194
0.0144503
0.0184374
0.0232456
0.000332695
0.000520106
0.000911543
0.00132033
0.00177035
0.00227779
0.00287549
0.00363523
0.00476404
0.00635086
0.00839746
0.0109745
0.0141749
0.0180999
0.0228566
0.000331562
0.000519118
0.000910627
0.00131953
0.00176906
0.00227427
0.00286583
0.00360874
0.00468308
0.00622966
0.00823555
0.0107661
0.0139133
0.0177796
0.0224736
0.000330478
0.000518172
0.000909802
0.00131894
0.00176828
0.0022718
0.002858
0.00358544
0.00460845
0.00611533
0.00808192
0.0105681
0.0136645
0.0174743
0.0221051
0.00032943
0.00051725
0.000909051
0.00131853
0.00176785
0.00226992
0.00285104
0.00356376
0.00454
0.00600741
0.00793606
0.0103797
0.0134274
0.0171816
0.021745
0.00032841
0.000516381
0.000908358
0.0013182
0.00176757
0.00226824
0.00284437
0.00354326
0.00447872
0.00590562
0.00779737
0.0102
0.0132003
0.016898
0.0213873
0.000327437
0.000515543
0.000907684
0.00131788
0.00176726
0.00226655
0.00283793
0.00352443
0.00442629
0.00580988
0.00766537
0.0100285
0.0129832
0.0166301
0.021081
0.000326488
0.000514693
0.000906969
0.00131747
0.00176684
0.00226484
0.00283197
0.00350807
0.00438356
0.00572024
0.00753967
0.00986446
0.0127752
0.0163709
0.0207512
0.000325557
0.000513863
0.000906214
0.00131698
0.00176636
0.00226325
0.00282687
0.0034946
0.00434953
0.00563661
0.00741993
0.00970749
0.0125755
0.0161214
0.0204441
0.000324662
0.000513048
0.00090544
0.00131646
0.0017659
0.00226199
0.00282284
0.0034839
0.0043219
0.00555863
0.0073058
0.009557
0.0123833
0.0158801
0.0201452
0.000323787
0.000512227
0.00090466
0.00131595
0.00176558
0.00226115
0.00281988
0.00347535
0.00429832
0.00548579
0.00719695
0.00941268
0.0121991
0.0156523
0.0198885
0.000322927
0.000511431
0.000903898
0.00131549
0.00176543
0.00226076
0.0028178
0.00346825
0.00427708
0.00541764
0.00709307
0.00927426
0.0120223
0.0154321
0.0196112
0.000322096
0.000510684
0.000903194
0.00131513
0.00176546
0.00226071
0.00281627
0.00346193
0.00425715
0.00535402
0.00699388
0.00914138
0.0118522
0.0152208
0.0193608
0.000321297
0.000509943
0.000902526
0.00131484
0.00176562
0.00226086
0.00281504
0.00345596
0.00423807
0.00529531
0.00689921
0.0090139
0.0116895
0.0150214
0.0191361
0.000320507
0.000509228
0.000901885
0.00131458
0.00176582
0.00226109
0.00281389
0.00345015
0.00421994
0.00524246
0.00680901
0.00889161
0.0115331
0.014827
0.0188839
0.000319741
0.000508541
0.000901261
0.00131432
0.00176601
0.00226128
0.0028127
0.00344453
0.00420321
0.0051966
0.00672336
0.00877426
0.0113825
0.014638
0.018643
0.000319001
0.00050786
0.000900632
0.00131403
0.00176614
0.00226139
0.00281151
0.00343931
0.00418842
0.00515818
0.0066423
0.00866141
0.0112363
0.0144502
0.018389
0.000318272
0.000507164
0.000899971
0.00131369
0.00176618
0.00226143
0.00281041
0.00343474
0.00417587
0.00512653
0.00656577
0.0085528
0.0110949
0.0142708
0.0181813
0.00031755
0.000506488
0.000899291
0.00131329
0.00176616
0.00226146
0.00280954
0.00343099
0.00416557
0.00510024
0.00649355
0.00844818
0.0109576
0.0140949
0.0179491
0.000316854
0.000505826
0.000898608
0.00131287
0.00176613
0.00226157
0.00280898
0.00342815
0.0041572
0.00507773
0.0064253
0.0083473
0.0108244
0.0139239
0.0177349
0.000316168
0.000505154
0.000897912
0.00131244
0.00176611
0.0022618
0.0028088
0.00342612
0.00415029
0.00505765
0.00636066
0.00824992
0.010695
0.0137573
0.0175254
0.000315489
0.000504509
0.000897232
0.00131202
0.00176615
0.00226219
0.00280898
0.00342475
0.0041444
0.00503905
0.00629936
0.00815595
0.0105697
0.0135982
0.0173404
0.000314836
0.000503885
0.000896582
0.00131165
0.00176627
0.00226274
0.00280945
0.00342385
0.0041391
0.00502132
0.00624128
0.00806524
0.0104482
0.0134432
0.0171439
0.000314193
0.000503257
0.000895943
0.00131132
0.00176645
0.0022634
0.00281013
0.00342323
0.00413409
0.00500415
0.00618665
0.00797779
0.010331
0.0132957
0.016976
0.000313556
0.000502646
0.000895324
0.001311
0.00176668
0.00226415
0.00281091
0.0034227
0.00412919
0.00498752
0.00613601
0.00789356
0.0102174
0.0131504
0.0167808
0.000312937
0.00050207
0.00089473
0.00131071
0.00176692
0.00226491
0.00281169
0.00342218
0.00412437
0.00497165
0.00609013
0.00781257
0.0101074
0.01301
0.0166136
0.000312338
0.000501485
0.000894139
0.00131042
0.00176716
0.00226564
0.00281244
0.00342162
0.00411967
0.00495689
0.00604972
0.00773492
0.010001
0.0128748
0.0164507
0.000311739
0.00050091
0.000893545
0.0013101
0.00176736
0.00226632
0.00281311
0.00342104
0.00411526
0.0049436
0.00601499
0.00766072
0.00989811
0.0127432
0.0162841
0.000311155
0.000500353
0.000892952
0.00130977
0.0017675
0.00226691
0.00281371
0.00342049
0.00411132
0.00493202
0.00598554
0.00758996
0.00979841
0.0126147
0.0161198
0.000310588
0.0004998
0.000892355
0.00130941
0.00176759
0.00226745
0.00281427
0.00342008
0.00410798
0.00492219
0.00596051
0.00752257
0.0097017
0.012489
0.0159592
0.000310025
0.000499229
0.000891734
0.00130901
0.00176763
0.00226793
0.00281485
0.00341988
0.00410531
0.00491399
0.00593884
0.00745832
0.00960793
0.0123664
0.0158038
0.000309464
0.000498679
0.000891112
0.00130859
0.00176763
0.00226839
0.0028155
0.00341994
0.00410334
0.00490715
0.00591959
0.00739699
0.00951679
0.0122462
0.0156462
0.000308923
0.000498129
0.000890483
0.00130816
0.00176762
0.00226886
0.00281623
0.0034203
0.00410199
0.00490138
0.00590195
0.0073383
0.00942809
0.0121282
0.0154951
0.000308381
0.000497584
0.000889855
0.00130772
0.00176762
0.00226937
0.0028171
0.00342095
0.00410116
0.00489638
0.00588538
0.00728212
0.009342
0.0120148
0.0153631
0.000307849
0.00049706
0.000889236
0.00130729
0.00176763
0.00226994
0.00281809
0.00342183
0.00410073
0.00489187
0.00586947
0.00722842
0.00925876
0.011906
0.0152325
0.000307334
0.000496545
0.00088864
0.00130688
0.00176766
0.00227056
0.00281919
0.00342291
0.00410057
0.00488766
0.005854
0.00717727
0.00917805
0.011799
0.0150893
0.000306827
0.000496019
0.000888047
0.00130649
0.00176773
0.00227122
0.00282038
0.00342413
0.00410056
0.0048836
0.0058389
0.00712893
0.00909992
0.0116951
0.0149622
0.000306322
0.000495505
0.000887469
0.00130611
0.00176782
0.00227193
0.00282162
0.00342542
0.00410062
0.0048796
0.00582424
0.00708386
0.00902424
0.0115938
0.0148334
0.000305837
0.000495019
0.00088691
0.00130574
0.00176792
0.00227266
0.00282288
0.00342672
0.0041007
0.00487567
0.00581018
0.00704259
0.00895113
0.0114955
0.0147084
0.00030537
0.00049454
0.00088637
0.0013054
0.00176804
0.00227338
0.00282414
0.00342801
0.00410076
0.00487186
0.00579698
0.00700555
0.00888036
0.0113977
0.0145736
0.000304908
0.000494043
0.000885817
0.00130505
0.00176814
0.00227408
0.00282537
0.00342926
0.00410082
0.00486826
0.00578487
0.00697298
0.00881222
0.0113039
0.014464
0.000304449
0.000493569
0.000885286
0.0013047
0.00176824
0.00227478
0.00282658
0.0034305
0.00410094
0.00486501
0.0057741
0.00694473
0.00874666
0.0112118
0.014339
0.000304034
0.000493084
0.000884732
0.00130432
0.0017683
0.00227542
0.00282773
0.00343172
0.00410116
0.00486223
0.00576474
0.00692035
0.00868371
0.0111221
0.0142244
0.000303597
0.000492616
0.000884297
0.00130407
0.00176847
0.00227616
0.00282898
0.00343306
0.00410162
0.00486007
0.00575688
0.00689927
0.00862344
0.0110349
0.0141127
0.000303342
0.000492061
0.000883597
0.00130356
0.00176849
0.00227688
0.00283033
0.00343464
0.00410256
0.00485876
0.00575053
0.00688089
0.00856603
0.0109508
0.0140044
0.000302661
0.00049172
0.000883556
0.00130313
0.00176798
0.00227657
0.00283035
0.00343481
0.00410222
0.00485661
0.00574414
0.00686363
0.00850957
0.0108674
0.0138923
0.000304316
0.000491942
0.000885764
0.00130935
0.00177752
0.00228852
0.00284381
0.0034488
0.00411557
0.00486767
0.00575005
0.00685731
0.00846693
0.0107949
0.0137948
0.000286557
0.000469891
0.000841284
0.00125069
0.00171142
0.00221985
0.00277577
0.00338319
0.0040528
0.00480678
0.00568831
0.00678789
0.00835791
0.0106742
0.0136764
0.00127108
0.00382923
0.00665596
0.0097029
0.0129816
0.0165046
0.0202934
0.0243749
0.0287753
0.0335131
0.0385942
0.0440078
0.0497279
0.0557136
0.0619209
1.86838e-05
0.000425891
0.00169858
0.0038209
0.00630526
0.00927825
0.012753
0.016737
0.0212307
0.0262241
0.0316946
0.0376037
0.043897
0.0505054
0.0573558
0
0.000245241
0.00113677
0.00259468
0.00442486
0.00675541
0.00963096
0.0130897
0.0171592
0.021851
0.0271567
0.0330429
0.0394509
0.0462979
0.0534899
6.01492e-05
0.000281179
0.00113919
0.00223301
0.0037055
0.00562886
0.00806527
0.0110754
0.0147128
0.019018
0.0240104
0.0296812
0.0359891
0.0428585
0.050186
0.000120763
0.000539584
0.00108096
0.00200347
0.00327307
0.00494417
0.00708494
0.00976626
0.0130571
0.0170182
0.0216931
0.0270997
0.0332212
0.0400003
0.0473389
0.000363611
0.000601039
0.00100054
0.00181134
0.0029473
0.00444761
0.00637941
0.00881715
0.0118371
0.0155118
0.0199021
0.0250473
0.0309544
0.0375877
0.0448619
0.000411931
0.000565324
0.000921768
0.00165386
0.0026845
0.00405748
0.00583136
0.00808045
0.010884
0.0143213
0.0184642
0.023368
0.0290598
0.035526
0.0427024
0.000404102
0.000535868
0.000884836
0.00152599
0.00246918
0.00373946
0.00538725
0.00748397
0.0101096
0.0133469
0.0172748
0.0219596
0.0274426
0.0337234
0.0407296
0.000396593
0.000526233
0.000872005
0.00142324
0.00229352
0.0034753
0.00501839
0.00698816
0.00946386
0.0125298
0.0162693
0.0207566
0.0260455
0.0321558
0.0390712
0.000391969
0.000524219
0.000861453
0.00133915
0.00214709
0.00325216
0.00470636
0.00656809
0.00891498
0.0118318
0.0154049
0.0197145
0.0248247
0.0307722
0.0375548
0.000387997
0.000522556
0.000849107
0.00126863
0.00202341
0.00306324
0.00443865
0.00620657
0.00844117
0.011227
0.0146521
0.0188012
0.0237471
0.0295383
0.0361849
0.000384014
0.000519607
0.00083554
0.00121146
0.00191775
0.00290112
0.004206
0.00589139
0.00802703
0.0106965
0.0139888
0.0179921
0.0227847
0.0284217
0.0349131
0.000380318
0.000517484
0.000828743
0.00118719
0.00182861
0.00275989
0.0040014
0.00561354
0.0076611
0.0102264
0.0133989
0.017269
0.0219202
0.0274181
0.0338054
0.000377194
0.000517379
0.000829736
0.00118264
0.00175375
0.00263603
0.00382099
0.00536645
0.00733486
0.00980623
0.01287
0.0166183
0.0211391
0.0265061
0.0327678
0.000374528
0.000518334
0.000833527
0.00118055
0.00168984
0.00252688
0.00366109
0.00514506
0.00704174
0.00942787
0.0123924
0.0160287
0.0204273
0.0256654
0.0317846
0.000372058
0.000519001
0.000836128
0.00117525
0.00163385
0.0024299
0.00351795
0.00494532
0.00677658
0.00908487
0.0119583
0.0154906
0.0197745
0.0248896
0.0308858
0.000369599
0.000518722
0.000836145
0.00116663
0.00158584
0.00234295
0.0033886
0.00476379
0.00653518
0.00877207
0.0115614
0.0149974
0.0191745
0.0241789
0.0300847
0.000367163
0.000517882
0.000835284
0.00116032
0.00155893
0.00226618
0.00327144
0.00459907
0.00631438
0.00848532
0.0111969
0.0145435
0.0186213
0.0235215
0.0293214
0.000364878
0.000517285
0.000835928
0.00116005
0.00155125
0.00219963
0.00316527
0.00444899
0.00611153
0.00822129
0.0108607
0.0141239
0.0181087
0.0229088
0.0286016
0.000362823
0.000517283
0.000838555
0.00116394
0.00154991
0.00214165
0.00306883
0.00431143
0.00592441
0.00797718
0.0105494
0.0137347
0.0176316
0.0223353
0.0279236
0.000360969
0.000517639
0.000842085
0.00116866
0.00154786
0.00209009
0.00298078
0.00418468
0.00575109
0.00775066
0.01026
0.0133721
0.0171858
0.0217976
0.0272888
0.000359231
0.000517926
0.000845233
0.00117206
0.0015431
0.00204336
0.00289989
0.0040674
0.00559014
0.00753973
0.00999022
0.0130334
0.0167684
0.0212929
0.0266908
0.000357535
0.000517856
0.000847242
0.0011734
0.00153613
0.00200302
0.00282543
0.00395872
0.00544098
0.0073428
0.00973775
0.0127157
0.0163752
0.0208126
0.0261044
0.000355853
0.000517426
0.000848254
0.00117374
0.0015306
0.00197775
0.00275793
0.00385794
0.00530218
0.00715841
0.00950085
0.0124172
0.0160059
0.0203676
0.0256071
0.000354213
0.000516872
0.000849065
0.00117486
0.00152954
0.00196796
0.00269787
0.00376445
0.00517251
0.00698531
0.00927801
0.0121359
0.015657
0.0199408
0.0250686
0.00035266
0.000516447
0.000850379
0.00117764
0.00153252
0.00196557
0.00264452
0.00367763
0.005051
0.0068224
0.00906789
0.0118702
0.0153265
0.0195356
0.0245844
0.000351211
0.000516254
0.000852364
0.00118178
0.0015374
0.00196448
0.00259647
0.00359681
0.0049368
0.00666862
0.00886925
0.0116186
0.0150126
0.0191498
0.0241193
0.000349872
0.000516194
0.000854713
0.00118635
0.00154223
0.00196205
0.00255244
0.00352131
0.00482934
0.00652381
0.00868114
0.01138
0.0147153
0.0187889
0.0237116
0.000348596
0.000516138
0.000856967
0.00119051
0.00154588
0.0019576
0.0025118
0.0034506
0.00472818
0.00638725
0.00850278
0.0111535
0.0144334
0.018446
0.0232991
0.000347351
0.000515983
0.000858775
0.00119375
0.001548
0.00195172
0.00247631
0.00338439
0.00463279
0.00625813
0.00833347
0.0109385
0.0141659
0.018121
0.0229134
0.000346135
0.000515658
0.00086003
0.00119606
0.00154919
0.00194662
0.0024515
0.00332309
0.00454273
0.00613576
0.00817253
0.0107338
0.0139106
0.0178055
0.0225124
0.000344945
0.000515182
0.00086087
0.00119792
0.00155062
0.00194463
0.00243906
0.00326726
0.00445775
0.00601959
0.0080193
0.0105387
0.013667
0.0175076
0.0221723
0.00034377
0.000514686
0.000861601
0.00119992
0.0015532
0.00194619
0.00243456
0.00321674
0.00437757
0.00590913
0.00787318
0.0103525
0.0134342
0.017221
0.0218147
0.000342646
0.000514248
0.000862487
0.00120242
0.00155711
0.0019502
0.00243313
0.00317075
0.00430185
0.00580402
0.00773384
0.0101744
0.0132109
0.016944
0.0214728
0.000341589
0.000513888
0.000863632
0.00120547
0.00156194
0.00195522
0.00243189
0.00312839
0.00423031
0.00570397
0.00760112
0.0100039
0.0129974
0.0166829
0.0211773
0.000340575
0.00051361
0.000864962
0.00120883
0.00156708
0.00196008
0.00242956
0.0030889
0.00416259
0.00560869
0.0074745
0.00984061
0.0127921
0.016428
0.0208466
0.000339597
0.000513389
0.000866339
0.00121218
0.00157195
0.0019641
0.0024258
0.00305198
0.00409836
0.00551787
0.00735346
0.00968399
0.0125953
0.0161862
0.0205723
0.000338668
0.000513135
0.000867607
0.00121523
0.00157619
0.00196702
0.00242089
0.00301861
0.00403743
0.00543119
0.0072376
0.00953369
0.0124064
0.0159542
0.0202934
0.000337757
0.000512818
0.00086864
0.00121782
0.00157968
0.00196902
0.00241594
0.00299188
0.00398
0.00534836
0.00712655
0.00938947
0.0122256
0.0157348
0.0200439
0.000336853
0.000512452
0.000869405
0.00121992
0.00158256
0.00197073
0.00241264
0.00297461
0.00392649
0.00526928
0.0070201
0.00925104
0.0120521
0.0155216
0.0197726
0.000335979
0.000512013
0.000869955
0.0012217
0.0015852
0.00197293
0.00241206
0.00296581
0.00387717
0.00519383
0.00691799
0.00911801
0.0118852
0.0153156
0.0195197
0.000335117
0.000511544
0.000870386
0.00122337
0.001588
0.00197611
0.00241414
0.00296221
0.00383185
0.00512188
0.00681999
0.00899021
0.0117235
0.0151121
0.0192503
0.000334269
0.000511105
0.000870818
0.00122512
0.00159119
0.00198034
0.00241811
0.00296084
0.00379001
0.00505328
0.00672591
0.00886729
0.0115672
0.0149174
0.0190253
0.000333457
0.000510701
0.000871343
0.00122707
0.00159484
0.00198537
0.00242303
0.00295984
0.00375101
0.00498784
0.00663554
0.00874892
0.0114161
0.0147283
0.0187876
0.000332685
0.00051032
0.000871968
0.00122924
0.00159883
0.00199082
0.0024281
0.0029583
0.00371438
0.00492534
0.00654869
0.00863478
0.0112698
0.0145453
0.018563
0.000331928
0.000509992
0.000872675
0.00123153
0.00160297
0.0019963
0.00243279
0.0029558
0.00367978
0.00486554
0.0064651
0.00852452
0.011128
0.014367
0.01834
0.000331204
0.000509692
0.00087341
0.00123383
0.00160704
0.0020015
0.00243678
0.00295232
0.00364729
0.00480828
0.00638459
0.00841802
0.010991
0.0141971
0.0181428
0.000330511
0.000509376
0.000874111
0.00123603
0.00161087
0.0020062
0.00243996
0.00294814
0.00361796
0.00475347
0.00630696
0.00831493
0.0108576
0.0140265
0.0179049
0.000329829
0.000509048
0.000874712
0.00123802
0.00161434
0.00201035
0.00244249
0.00294404
0.00359384
0.00470124
0.00623206
0.00821515
0.0107287
0.0138677
0.0177461
0.000329154
0.000508719
0.000875195
0.00123977
0.00161741
0.002014
0.00244475
0.00294106
0.00357678
0.00465191
0.00615981
0.00811854
0.0106035
0.0137092
0.0175202
0.000328506
0.000508345
0.00087556
0.00124128
0.00162015
0.00201737
0.00244723
0.00294004
0.0035666
0.00460571
0.00609016
0.0080249
0.0104817
0.0135537
0.0173254
0.000327866
0.000507945
0.000875821
0.00124261
0.0016227
0.00202072
0.00245034
0.00294119
0.00356148
0.00456263
0.00602303
0.00793411
0.0103634
0.0134038
0.0171452
0.000327229
0.000507555