/*--------------------------------*- C++ -*----------------------------------*\
| =========                 |                                                 |
| \\      /  F ield         | OpenFOAM: The Open Source CFD Toolbox           |
|  \\    /   O peration     | Version:  2.3.0                                 |
|   \\  /    A nd           | Web:      www.OpenFOAM.org                      |
|    \\/     M anipulation  |                                                 |
\*---------------------------------------------------------------------------*/
FoamFile
{
    version     2.0;
    format      ascii;
    class       volScalarField;
    location    "350";
    object      p;
}
// * * * * * * * * * * * * * * * * * * * * * * * * * * * * * * * * * * * * * //

dimensions      [0 2 -2 0 0 0 0];

internalField   nonuniform List<scalar> 
7826
(
-0.000239223
-0.777201
-1.29796
-1.503
-1.41182
-1.08286
-0.578279
0.058037
0.81896
1.72935
2.82454
4.10276
5.48851
7.20551
10.5661
2.20347
1.75456
1.35509
1.06665
0.957782
1.0984
1.54507
2.32695
3.44529
4.87203
6.56166
8.45659
10.4961
12.6398
14.8601
4.50633
4.68592
5.02388
5.52022
6.15381
6.89263
7.70468
8.56336
9.44846
10.3447
11.2399
12.1256
12.9911
13.8319
14.6491
6.08709
6.36475
6.72912
7.17643
7.7043
8.30489
8.96722
9.67852
10.4251
11.1943
11.9727
12.7506
13.5169
14.2651
14.9916
7.36697
7.73222
8.16293
8.64554
9.17028
9.72552
10.301
10.8882
11.4801
12.0715
12.658
13.2363
13.803
14.3563
14.8958
8.3125
8.67518
9.08112
9.51593
9.97562
10.4543
10.9466
11.4481
11.9544
12.4622
12.9687
13.4712
13.9672
14.4548
14.933
9.05144
9.39552
9.77499
10.1708
10.5815
11.0034
11.4335
11.8691
12.3076
12.7474
13.1865
13.6237
14.0569
14.485
14.9069
9.63084
9.94045
10.2857
10.6408
11.0067
11.3816
11.7635
12.151
12.5424
12.9364
13.3317
13.727
14.1207
14.5118
14.8986
10.0952
10.3677
10.6792
10.9989
11.3282
11.6657
12.0101
12.3604
12.7156
13.0746
13.4363
13.7994
14.1627
14.5249
14.8845
10.4615
10.7045
10.9848
11.2747
11.5743
11.8816
12.197
12.5185
12.8459
13.1782
13.5141
13.8523
14.1923
14.5325
14.8717
10.7312
10.9652
11.2233
11.4894
11.7666
12.0495
12.3423
12.6409
12.9462
13.2574
13.5739
13.8923
14.2142
14.5373
14.8603
10.9287
11.1674
11.4108
11.6571
11.9177
12.1798
12.4553
12.735
13.0234
13.317
13.6197
13.9249
14.2362
14.548
14.8581
11.1528
11.3574
11.5734
11.8022
12.0481
12.2919
12.5534
12.8183
13.0964
13.3773
13.6612
13.9443
14.2346
14.5327
14.8338
11.3825
11.5416
11.7594
11.9398
12.2022
12.3902
12.6712
12.9071
13.1694
13.4376
13.7364
13.9299
14.1724
14.444
14.7351
17.3599
20.288
21.8354
23.3915
24.9583
26.4256
27.7647
28.9703
30.0105
30.8238
31.3364
31.4848
31.2404
30.6413
29.836
17.0716
19.2504
21.2922
23.1789
24.8752
26.3385
27.5288
28.4157
28.9877
29.2562
29.2538
29.0323
28.6516
28.1729
27.6622
15.457
16.2803
17.1292
18.007
18.9068
19.8197
20.736
21.6405
22.5135
23.3288
24.0533
24.6505
25.0883
25.3569
25.4881
15.7054
16.4238
17.1557
17.8977
18.6424
19.379
20.0982
20.7874
21.4351
22.0294
22.5592
23.0142
23.3873
23.6807
23.899
15.4285
15.9672
16.5177
17.0795
17.6501
18.226
18.8035
19.3777
19.9424
20.49
21.0102
21.4916
21.9222
22.2957
22.5952
15.4055
15.8807
16.362
16.8486
17.3382
17.8282
18.3159
18.7981
19.2714
19.7317
20.1739
20.5928
20.9816
21.339
21.6678
15.3251
15.7451
16.1691
16.596
17.0241
17.4519
17.8774
18.2987
18.714
19.1202
19.5148
19.8938
20.2532
20.5897
20.893
15.2828
15.6676
16.0544
16.4419
16.8284
17.2127
17.5933
17.9686
18.3375
18.6981
19.0487
19.3874
19.7112
20.0168
20.309
15.2424
15.6002
15.9586
16.3162
16.6716
17.0232
17.3703
17.7115
18.0455
18.3716
18.6883
18.9943
19.2867
19.5616
19.839
15.2097
15.547
15.8842
16.2194
16.5512
16.878
17.1992
17.5138
17.8209
18.1194
18.409
18.6885
18.9566
19.211
19.4805
15.1835
15.5045
15.8259
16.1434
16.4559
16.7624
17.0632
17.3565
17.642
17.9184
18.1862
18.4436
18.6906
18.9248
19.172
15.1698
15.4766
15.7846
16.086
16.3812
16.6698
16.9546
17.2303
17.4985
17.7568
18.0076
18.246
18.4753
18.6922
18.9133
15.1337
15.4288
15.7215
16.0205
16.3107
16.5847
16.8563
17.1194
17.3753
17.6175
17.8531
18.0725
18.2857
18.4854
18.6911
15.0696
15.3168
15.6423
15.9563
16.2478
16.5025
16.7592
17.0147
17.2626
17.4896
17.7072
17.9089
18.1036
18.2764
18.4394
11.6934
11.8006
11.9497
12.1484
12.3811
12.6235
12.8486
13.0348
13.1702
13.2521
13.2848
13.2731
13.2207
13.1216
13.1469
11.8097
11.8438
11.8588
11.8516
11.8194
11.7666
11.7025
11.638
11.5819
11.5392
11.5105
11.4921
11.4837
11.4683
11.4847
11.8395
11.8252
11.7802
11.7226
11.6651
11.6177
11.586
11.5705
11.5685
11.5752
11.5854
11.593
11.5994
11.6083
11.6303
11.9394
11.9533
11.9612
11.975
11.9962
12.023
12.0528
12.0829
12.1112
12.1362
12.1563
12.1691
12.1763
12.1876
12.2093
12.0628
12.0972
12.1266
12.1573
12.1881
12.2175
12.2451
12.2713
12.2959
12.3184
12.3378
12.3522
12.362
12.3763
12.4003
12.1419
12.1795
12.2017
12.2225
12.2429
12.263
12.2836
12.3047
12.3258
12.346
12.3637
12.3775
12.3874
12.4021
12.4273
12.2113
12.2386
12.2567
12.2752
12.2939
12.3124
12.3311
12.3498
12.3679
12.3847
12.3992
12.4103
12.4186
12.4324
12.458
12.2774
12.2999
12.3179
12.3362
12.3538
12.3703
12.3857
12.3999
12.4129
12.4244
12.4337
12.4404
12.4455
12.4575
12.4834
12.3174
12.3509
12.3712
12.389
12.4045
12.4176
12.4283
12.4367
12.4428
12.4464
12.4471
12.4455
12.4439
12.452
12.4776
12.3847
12.402
12.42
12.4362
12.45
12.4608
12.4683
12.4721
12.4719
12.4672
12.457
12.4415
12.4259
12.4217
12.4421
12.4333
12.4511
12.4663
12.4802
12.4924
12.5015
12.506
12.5045
12.4966
12.482
12.4558
12.4165
12.3709
12.3498
12.3663
12.4776
12.4976
12.513
12.528
12.543
12.5565
12.5662
12.569
12.5637
12.5542
12.5331
12.4663
12.3731
12.2796
12.2601
12.52
12.5306
12.5405
12.5515
12.5634
12.5734
12.5772
12.5654
12.5387
12.5212
12.4957
12.3914
12.141
12.0519
12.0143
12.5972
12.6158
12.6243
12.6384
12.6711
12.715
12.7697
12.8151
12.8047
12.8499
13.0578
12.9711
12.6138
12.0513
11.7371
13.2045
13.248
13.4133
13.53
13.612
13.6536
13.648
13.5906
13.488
13.3603
13.2389
13.1562
13.1393
13.1953
13.3087
11.5139
11.5388
11.5974
11.6485
11.7213
11.8188
11.9462
12.1021
12.2801
12.4679
12.6507
12.8156
12.9618
13.0978
13.2313
11.6613
11.6957
11.7404
11.7837
11.8324
11.8879
11.9582
12.0492
12.1654
12.3084
12.4737
12.6512
12.8297
13.0003
13.1588
12.2379
12.2726
12.3147
12.3576
12.3992
12.4405
12.4849
12.5338
12.589
12.6525
12.7269
12.8143
12.916
13.0311
13.1568
12.4278
12.4596
12.498
12.5379
12.5766
12.6162
12.6591
12.7062
12.7579
12.8139
12.8744
12.9404
13.0136
13.096
13.1898
12.4547
12.4862
12.5256
12.5667
12.607
12.6483
12.6928
12.7413
12.7946
12.8528
12.916
12.9839
13.0563
13.1329
13.2152
12.4857
12.5185
12.5612
12.6065
12.6514
12.6972
12.745
12.7954
12.8484
12.9044
12.9639
13.027
13.0937
13.1639
13.2388
12.5115
12.5463
12.5932
12.6444
12.6963
12.7493
12.8034
12.8582
12.9135
12.9692
13.0256
13.083
13.1417
13.2019
13.2653
12.5069
12.5459
12.6007
12.6618
12.725
12.7889
12.8523
12.9139
12.9733
13.0302
13.0852
13.1388
13.1914
13.2436
13.2982
12.4711
12.5159
12.5833
12.6613
12.7431
12.8243
12.9012
12.9713
13.0343
13.0914
13.1438
13.1931
13.2401
13.2855
13.3321
12.404
12.4681
12.5606
12.6665
12.775
12.8782
12.968
13.0436
13.1059
13.1589
13.2057
13.2485
13.2884
13.3261
13.3628
12.2988
12.376
12.4954
12.6408
12.7965
12.938
13.0521
13.1303
13.1865
13.2299
13.268
13.3031
13.3352
13.3647
13.3912
12.1541
12.3231
12.5176
12.7326
12.9289
13.1073
13.1917
13.2478
13.2762
13.3025
13.33
13.3576
13.3806
13.4031
13.4243
11.9913
12.0652
12.2389
12.5105
12.8524
13.1338
13.3125
13.3494
13.3543
13.3568
13.3749
13.4007
13.4205
13.4377
13.4514
-91.1433
-85.5218
-79.4324
-73.2605
-66.5325
-59.0991
-51.1494
-42.959
-34.8509
-27.1799
-20.2846
-14.4174
-9.67935
-5.98956
-3.06956
-14.6682
-15.8495
-16.6401
-17.2424
-17.749
-18.1266
-18.277
-18.081
-17.4209
-16.2098
-14.4283
-12.1553
-9.56927
-6.90342
-4.25433
-8.76981
-9.31517
-9.37212
-9.4571
-9.61447
-9.75553
-9.83062
-9.8122
-9.67055
-9.36616
-8.84847
-8.06238
-6.96992
-5.58878
-3.94832
-12.775
-12.782
-12.413
-12.1652
-11.9104
-11.5748
-11.1417
-10.5996
-9.93428
-9.13845
-8.21629
-7.1787
-6.03355
-4.7849
-3.41543
-9.74271
-9.45952
-9.23221
-9.14439
-9.02455
-8.85819
-8.64284
-8.36311
-7.99434
-7.51013
-6.88723
-6.11193
-5.18541
-4.12672
-3.02141
-5.62855
-5.34794
-5.35224
-5.37819
-5.3783
-5.36785
-5.34309
-5.28863
-5.18618
-5.01407
-4.74604
-4.35333
-3.81003
-3.0949
-2.25628
-3.53722
-3.47167
-3.52329
-3.52749
-3.52639
-3.52536
-3.51658
-3.48817
-3.42839
-3.32317
-3.15521
-2.90397
-2.54659
-2.0535
-1.4359
-2.44003
-2.44593
-2.46013
-2.44423
-2.43291
-2.41966
-2.39877
-2.363
-2.3038
-2.21012
-2.06857
-1.86381
-1.57926
-1.19204
-0.703748
-1.44571
-1.45544
-1.44968
-1.43499
-1.42317
-1.40868
-1.38836
-1.35804
-1.31125
-1.2392
-1.13078
-0.972597
-0.749796
-0.442754
-0.0483299
-0.555963
-0.557528
-0.547263
-0.535348
-0.523743
-0.50994
-0.491267
-0.465323
-0.427346
-0.370679
-0.286634
-0.164251
0.00962569
0.25331
0.581256
0.199824
0.202609
0.212379
0.22318
0.234588
0.247894
0.265566
0.289337
0.32294
0.37161
0.442229
0.543613
0.686702
0.887056
1.16509
0.862919
0.866728
0.875501
0.885835
0.896992
0.909542
0.925312
0.946317
0.975582
1.01737
1.07736
1.16291
1.2831
1.45016
1.68427
1.45848
1.46223
1.47043
1.48048
1.4914
1.503
1.51662
1.5348
1.55984
1.59521
1.64569
1.71744
1.81823
1.95816
2.15553
1.99533
1.99887
2.00663
2.01626
2.02656
2.03703
2.04889
2.06484
2.0865
2.11673
2.15951
2.21992
2.30437
2.42092
2.58695
2.48121
2.48452
2.49181
2.50082
2.51032
2.51988
2.53064
2.54492
2.56404
2.59051
2.6278
2.68037
2.75398
2.85597
3.00998
2.92383
2.92688
2.93366
2.94203
2.95085
2.96005
2.97023
2.98309
3.00018
3.02373
3.05682
3.1035
3.16916
3.25989
3.3985
3.32859
3.33142
3.33777
3.34565
3.35405
3.36316
3.37289
3.38441
3.3997
3.42065
3.44989
3.49101
3.54879
3.62792
3.74773
3.70066
3.70333
3.70934
3.71683
3.72489
3.73377
3.74288
3.75321
3.76696
3.78558
3.81138
3.84744
3.89798
3.96685
4.07012
4.04498
4.04751
4.0532
4.06033
4.068
4.0764
4.08482
4.09421
4.10669
4.12339
4.14635
4.1783
4.22294
4.28345
4.37533
4.36535
4.36773
4.3731
4.37983
4.38706
4.39489
4.40279
4.41156
4.42298
4.4381
4.45881
4.48758
4.52789
4.58294
4.66488
4.66405
4.66628
4.67134
4.67768
4.68448
4.69186
4.69953
4.7079
4.71831
4.73198
4.75057
4.77624
4.81195
4.86023
4.93046
4.94359
4.94567
4.95044
4.95643
4.96288
4.96994
4.97753
4.98557
4.99502
5.00741
5.02414
5.04711
5.07906
5.12305
5.18187
5.20633
5.2083
5.21284
5.21856
5.22477
5.23162
5.23911
5.2468
5.25548
5.26692
5.28225
5.3032
5.33212
5.37263
5.43527
5.45441
5.4563
5.46065
5.46616
5.47217
5.47882
5.48608
5.49338
5.50147
5.51215
5.52635
5.54565
5.57213
5.60848
5.66483
5.68936
5.69117
5.69534
5.70063
5.70642
5.71282
5.71976
5.72667
5.73432
5.74434
5.75752
5.77538
5.79981
5.8326
5.88287
5.91233
5.91405
5.91803
5.92309
5.92864
5.93475
5.94134
5.948
5.95536
5.96482
5.97722
5.994
6.01715
6.04841
6.09654
6.12375
6.12539
6.12919
6.13404
6.13936
6.14523
6.15157
6.15817
6.1654
6.17435
6.18606
6.20192
6.22388
6.25356
6.29806
6.32471
6.32626
6.32988
6.33451
6.3396
6.34523
6.35134
6.35789
6.36489
6.37318
6.38399
6.39849
6.41842
6.445
6.47814
6.51602
6.51749
6.52096
6.52539
6.53027
6.53568
6.54162
6.54808
6.55477
6.56239
6.57234
6.58555
6.60354
6.62791
6.65767
6.6988
6.70022
6.70358
6.70784
6.71256
6.71782
6.72362
6.72994
6.73634
6.74347
6.75284
6.76521
6.78204
6.80546
6.83267
6.87361
6.875
6.87825
6.88241
6.88703
6.89221
6.89789
6.90405
6.9102
6.91698
6.92589
6.93757
6.95327
6.97509
7.0003
7.0422
7.04349
7.04658
7.05055
7.05498
7.05994
7.06538
7.07124
7.07706
7.08348
7.09187
7.10282
7.11748
7.13767
7.15577
7.20331
7.20458
7.20761
7.21148
7.2158
7.22063
7.22591
7.23154
7.23716
7.24333
7.25122
7.26139
7.27491
7.29426
7.30742
7.35838
7.35963
7.36255
7.3663
7.3705
7.37519
7.3803
7.38576
7.39136
7.39747
7.40508
7.41494
7.428
7.44797
7.46803
7.50849
7.50963
7.5124
7.51596
7.51994
7.52441
7.52929
7.53454
7.5401
7.54609
7.5533
7.56269
7.57493
7.59312
7.60807
7.65176
7.65291
7.65565
7.65915
7.66307
7.66748
7.6723
7.67752
7.68312
7.68902
7.69585
7.70477
7.71627
7.73348
7.75124
7.79041
7.79152
7.79416
7.79756
7.80136
7.80565
7.81038
7.81551
7.82111
7.82688
7.83341
7.84199
7.85303
7.86924
7.88696
7.92488
7.92592
7.92845
7.93171
7.93536
7.93951
7.94409
7.9491
7.95457
7.9601
7.96628
7.97446
7.98499
7.99996
8.01642
8.05446
8.05548
8.05796
8.06115
8.06473
8.06879
8.0733
8.0782
8.08348
8.08871
8.09443
8.10194
8.11144
8.12443
8.13141
8.18007
8.18108
8.1835
8.18661
8.19011
8.1941
8.19851
8.20328
8.20836
8.21333
8.21868
8.22557
8.23409
8.24646
8.25083
8.30253
8.3035
8.30585
8.30889
8.31232
8.31623
8.32055
8.32522
8.33019
8.33508
8.34043
8.34732
8.35593
8.36967
8.37764
8.4218
8.42275
8.42504
8.42801
8.43136
8.43518
8.43944
8.44403
8.44889
8.45379
8.45917
8.46602
8.47442
8.4879
8.4972
8.53785
8.53877
8.54101
8.54389
8.54716
8.55089
8.55504
8.55953
8.56428
8.5692
8.57457
8.58127
8.58944
8.60229
8.6158
8.65042
8.65133
8.65351
8.65633
8.65954
8.6632
8.66726
8.67166
8.67634
8.68128
8.6866
8.69306
8.70101
8.71308
8.72743
8.7604
8.76125
8.76335
8.76607
8.76916
8.77269
8.77662
8.7809
8.78548
8.79042
8.79567
8.80192
8.80977
8.82121
8.84189
8.86707
8.86791
8.86998
8.87264
8.87566
8.87912
8.88296
8.88713
8.89158
8.89638
8.90128
8.90678
8.91347
8.92141
8.93097
8.9712
8.97204
8.97406
8.97667
8.97963
8.98301
8.98678
8.99087
8.99526
8.99998
9.00469
9.00983
9.01628
9.02429
9.03996
9.07383
9.07461
9.07654
9.07905
9.0819
9.08518
9.08885
9.09289
9.09724
9.10198
9.10673
9.11203
9.11903
9.12768
9.14502
9.17348
9.17427
9.1762
9.1787
9.18154
9.18482
9.1885
9.19255
9.19692
9.20166
9.20639
9.21167
9.21871
9.22697
9.24354
9.27094
9.27173
9.27363
9.27608
9.27888
9.28211
9.28574
9.28974
9.29402
9.29861
9.3031
9.30796
9.31435
9.32146
9.33563
9.3669
9.36763
9.36945
9.37181
9.37451
9.37763
9.38115
9.38502
9.38917
9.39357
9.39788
9.40257
9.40877
9.41559
9.43216
9.46059
9.46131
9.4631
9.46542
9.46808
9.47115
9.47461
9.47841
9.48246
9.48671
9.49088
9.49535
9.50111
9.50668
9.51604
9.55215
9.55288
9.55467
9.55698
9.55962
9.56269
9.56615
9.56993
9.57396
9.57821
9.58246
9.58705
9.59303
9.59965
9.61431
9.64253
9.64323
9.64495
9.6472
9.64979
9.65279
9.65617
9.65991
9.66392
9.66817
9.6726
9.67748
9.68388
9.69134
9.70448
9.731
9.73168
9.73337
9.73557
9.7381
9.74102
9.74434
9.74799
9.7519
9.75604
9.76041
9.76508
9.77088
9.77745
9.78748
9.81752
9.81819
9.81984
9.82199
9.82446
9.82732
9.83056
9.83411
9.83791
9.84194
9.84623
9.85069
9.85602
9.86229
9.87319
9.90216
9.90283
9.90447
9.9066
9.90904
9.91187
9.91507
9.91859
9.92237
9.92638
9.93072
9.93519
9.94042
9.94663
9.9585
9.98604
9.98665
9.98821
9.99025
9.99259
9.99531
9.9984
10.0018
10.0055
10.0095
10.0138
10.0183
10.0234
10.0293
10.0406
10.0675
10.0681
10.0697
10.0717
10.0741
10.0768
10.0799
10.0833
10.087
10.091
10.0953
10.0997
10.1047
10.1101
10.1198
10.1479
10.1485
10.15
10.152
10.1543
10.1569
10.16
10.1633
10.1671
10.1711
10.1755
10.1799
10.1851
10.1911
10.2032
10.2265
10.2271
10.2286
10.2306
10.2328
10.2354
10.2385
10.2419
10.2456
10.2497
10.2542
10.2589
10.2646
10.2715
10.2849
10.3035
10.3041
10.3055
10.3074
10.3096
10.3122
10.3152
10.3186
10.3223
10.3263
10.3308
10.3354
10.3408
10.3471
10.3567
10.3775
10.3781
10.3796
10.3816
10.3838
10.3865
10.3895
10.393
10.3967
10.4008
10.4052
10.4095
10.4144
10.4198
10.4282
10.4513
10.4519
10.4533
10.4551
10.4573
10.4598
10.4628
10.4662
10.47
10.4741
10.4787
10.4834
10.489
10.4959
10.5105
10.5227
10.5232
10.5246
10.5265
10.5286
10.5312
10.5342
10.5377
10.5415
10.5459
10.5507
10.5559
10.5622
10.5694
10.582
10.5915
10.5921
10.5935
10.5953
10.5974
10.6
10.6031
10.6066
10.6107
10.6152
10.6204
10.626
10.6328
10.6403
10.6536
10.6569
10.6574
10.6588
10.6606
10.6628
10.6655
10.6687
10.6724
10.6768
10.6818
10.6876
10.6942
10.7021
10.7111
10.7278
10.7195
10.72
10.7213
10.7231
10.7253
10.728
10.7313
10.7353
10.7401
10.7458
10.7528
10.7613
10.772
10.7843
10.8107
10.7742
10.7747
10.776
10.7779
10.7802
10.7831
10.7868
10.7915
10.7972
10.8044
10.8133
10.8243
10.8381
10.8531
10.8753
10.8247
10.8253
10.8266
10.8285
10.831
10.8342
10.8383
10.8436
10.8505
10.8592
10.8704
10.8845
10.9022
10.9219
10.9488
10.8495
10.85
10.8513
10.8533
10.8562
10.8604
10.8662
10.874
10.8845
10.8982
10.9157
10.9373
10.9633
10.9918
11.0233
10.8942
10.8948
10.8964
10.8987
10.9019
10.9065
10.9128
10.9218
10.9343
10.9511
10.9733
11.0012
11.0344
11.0706
11.1064
10.7697
10.7697
10.7714
10.7754
10.7833
10.7962
10.8155
10.8425
10.8782
10.9231
10.9759
11.0343
11.0942
11.1508
11.1974
10.9784
10.9803
10.9802
10.9856
10.9942
11.0059
11.0217
11.0428
11.0705
11.1056
11.1477
11.1952
11.2439
11.2898
11.3249
9.70716
9.62951
9.68803
9.76768
9.86466
9.98744
10.1419
10.3269
10.5354
10.7547
10.967
11.1538
11.2998
11.3996
11.4505
113.564
108.376
102.654
96.926
90.784
84.0554
76.8828
69.4897
62.1409
55.1397
48.7911
43.3322
38.8675
35.3577
32.7407
44.1962
43.7171
44.4291
45.1088
45.5925
45.9085
46.028
45.86
45.2987
44.2569
42.7002
40.6776
38.3293
35.8627
33.5956
37.2701
37.1927
37.6179
37.8029
37.9411
38.0626
38.1389
38.1339
38.0195
37.7634
37.3209
36.6369
35.6636
34.3927
32.9855
39.3136
39.3163
39.4095
39.2719
39.1056
38.8939
38.6102
38.232
37.7437
37.1352
36.4041
35.5533
34.5829
33.482
32.317
36.1311
36.389
36.4475
36.3969
36.3509
36.2817
36.1737
36.0115
35.7749
35.4381
34.9752
34.3665
33.6043
32.6881
31.6738
33.456
33.7584
33.7376
33.7224
33.7189
33.7007
33.6619
33.5967
33.4937
33.3354
33.0986
32.7563
32.2811
31.6484
30.8759
32.2895
32.3919
32.334
32.3262
32.312
32.2789
32.2267
32.153
32.0503
31.9088
31.7153
31.453
31.1008
30.6324
30.0322
31.1264
31.1379
31.1159
31.1221
31.1119
31.0874
31.0483
30.9908
30.9086
30.7932
30.6341
30.4181
30.1301
29.7519
29.2559
29.9318
29.9309
29.9348
29.9433
29.9396
29.9292
29.9088
29.8746
29.822
29.7442
29.632
29.4736
29.2554
28.9658
28.5924
28.9258
28.9282
28.9376
28.9431
28.9424
28.938
28.9258
28.9031
28.8664
28.8107
28.7288
28.6114
28.4463
28.2229
27.9321
28.0866
28.0909
28.0992
28.1033
28.1041
28.1021
28.0936
28.0766
28.0482
28.0044
27.9394
27.8455
27.7123
27.529
27.2913
27.3468
27.3513
27.3586
27.3634
27.3656
27.3651
27.3594
27.3467
27.3248
27.2901
27.2379
27.1614
27.0517
26.8982
26.7008
26.6809
26.6854
26.693
26.6997
26.7033
26.7038
26.7002
26.6911
26.6744
26.6473
26.6057
26.5443
26.4558
26.3308
26.1734
26.0827
26.0875
26.0955
26.1034
26.1076
26.1087
26.1067
26.1002
26.0873
26.0657
26.0321
25.9818
25.9088
25.8039
25.6678
25.5443
25.549
25.5568
25.5645
25.5686
25.5699
25.569
25.5641
25.5538
25.536
25.5079
25.4654
25.403
25.3122
25.1915
25.0545
25.0588
25.0659
25.073
25.0766
25.0781
25.078
25.0744
25.0661
25.0515
25.028
24.9922
24.9397
24.8641
24.7679
24.6036
24.6073
24.6138
24.6202
24.624
24.626
24.6265
24.6239
24.6173
24.6052
24.5855
24.5554
24.5109
24.4464
24.366
24.184
24.1873
24.1935
24.1998
24.2044
24.2072
24.208
24.2062
24.2009
24.1907
24.1739
24.1478
24.1088
24.0508
23.9773
23.7923
23.7956
23.8017
23.8084
23.8138
23.8171
23.8182
23.8171
23.8129
23.8044
23.79
23.7674
23.7333
23.6825
23.6186
23.4278
23.431
23.4371
23.4439
23.4496
23.4531
23.4544
23.454
23.4508
23.4438
23.4316
23.4121
23.3827
23.3385
23.2839
23.0879
23.0911
23.097
23.1036
23.1091
23.1124
23.1139
23.114
23.1116
23.1059
23.0955
23.0788
23.0534
23.015
22.9687
22.7692
22.7721
22.7777
22.7839
22.789
22.7921
22.7937
22.7942
22.7924
22.7876
22.7787
22.7641
22.7418
22.7076
22.6664
22.468
22.4707
22.4759
22.4816
22.4863
22.4894
22.4913
22.492
22.4907
22.4865
22.4787
22.4657
22.4457
22.4148
22.3764
22.1814
22.1839
22.1887
22.1942
22.1988
22.2024
22.2046
22.2055
22.2045
22.201
22.1942
22.1826
22.1646
22.1369
22.1029
21.9081
21.9104
21.9151
21.9204
21.9252
21.9294
21.9321
21.9331
21.9325
21.9297
21.9238
21.9137
21.8979
21.8734
21.8487
21.6476
21.6498
21.6545
21.6598
21.6648
21.6693
21.6722
21.6733
21.6732
21.6711
21.6661
21.6575
21.6437
21.622
21.6015
21.399
21.4012
21.4058
21.4111
21.4162
21.4207
21.4236
21.425
21.4252
21.4236
21.4194
21.4117
21.3994
21.3792
21.361
21.1619
21.1641
21.1684
21.1736
21.1786
21.183
21.1857
21.1872
21.1877
21.1864
21.1828
21.1761
21.1652
21.147
21.132
20.9353
20.9373
20.9415
20.9464
20.951
20.9551
20.9576
20.9591
20.9598
20.9588
20.9557
20.9498
20.9403
20.9239
20.9109
20.716
20.7179
20.7219
20.7266
20.731
20.7349
20.7376
20.7392
20.7401
20.7394
20.7367
20.7314
20.7228
20.7076
20.694
20.5038
20.5057
20.5094
20.5139
20.5182
20.522
20.525
20.5269
20.5279
20.5273
20.525
20.52
20.5118
20.4968
20.4801
20.2989
20.3006
20.3042
20.3085
20.3126
20.3165
20.3198
20.322
20.3229
20.3226
20.3206
20.3162
20.3089
20.2958
20.2763
20.1008
20.1024
20.1058
20.11
20.114
20.118
20.1215
20.1239
20.1249
20.1248
20.1232
20.1196
20.1135
20.1029
20.0849
19.9075
19.9091
19.9125
19.9167
19.9209
19.925
19.9288
19.9312
19.9323
19.9326
19.9313
19.9281
19.9226
19.9132
19.889
19.7202
19.7218
19.7251
19.7292
19.7334
19.7376
19.7414
19.7438
19.745
19.7453
19.7442
19.7411
19.7354
19.7269
19.701
19.5399
19.5413
19.5445
19.5484
19.5524
19.5564
19.5599
19.5622
19.5633
19.5638
19.5629
19.5602
19.5551
19.5485
19.5308
19.3631
19.3645
19.3677
19.3716
19.3756
19.3795
19.383
19.3852
19.3866
19.3872
19.3866
19.3844
19.3797
19.3732
19.3543
19.1908
19.1922
19.1953
19.1991
19.203
19.2068
19.2102
19.2125
19.214
19.215
19.2147
19.213
19.209
19.2033
19.187
19.0236
19.0249
19.0278
19.0313
19.0349
19.0385
19.0417
19.0442
19.0458
19.0468
19.0467
19.0454
19.0423
19.0381
19.018
18.8583
18.8596
18.8624
18.8659
18.8694
18.8729
18.8762
18.8789
18.8808
18.8819
18.8821
18.8811
18.8786
18.8762
18.8619
18.6957
18.697
18.6997
18.7031
18.7065
18.7101
18.7134
18.7164
18.7185
18.7196
18.7199
18.719
18.7164
18.7137
18.6971
18.5369
18.538
18.5406
18.5438
18.5471
18.5505
18.5538
18.5569
18.5589
18.5599
18.5602
18.5592
18.5563
18.5529
18.5381
18.3795
18.3806
18.3832
18.3863
18.3897
18.3931
18.3966
18.3998
18.402
18.403
18.4035
18.4029
18.4005
18.3978
18.3845
18.2244
18.2256
18.2281
18.2313
18.2347
18.2382
18.2418
18.2451
18.2474
18.2488
18.2497
18.2497
18.2485
18.2476
18.2392
18.0725
18.0736
18.076
18.0791
18.0824
18.0859
18.0895
18.0928
18.095
18.0965
18.0975
18.0978
18.0969
18.0961
18.0842
17.9226
17.9236
17.926
17.9289
17.9321
17.9355
17.9389
17.9421
17.9442
17.9455
17.9465
17.9466
17.9453
17.9442
17.932
17.7732
17.7743
17.7766
17.7796
17.7828
17.7862
17.7896
17.7926
17.7948
17.7962
17.7971
17.7973
17.796
17.7952
17.7851
17.6261
17.6271
17.6293
17.6322
17.6353
17.6387
17.642
17.645
17.6472
17.6487
17.6499
17.6503
17.6493
17.6488
17.644
17.4812
17.4822
17.4843
17.487
17.49
17.4931
17.4962
17.4991
17.5014
17.5031
17.5044
17.5051
17.5046
17.5042
17.5021
17.3361
17.337
17.3391
17.3418
17.3447
17.3479
17.351
17.354
17.3565
17.3585
17.3601
17.3612
17.3616
17.3617
17.3674
17.1914
17.1923
17.1944
17.197
17.1999
17.2029
17.2061
17.2092
17.212
17.2143
17.216
17.2175
17.2185
17.2183
17.217
17.0479
17.0487
17.0507
17.0532
17.0559
17.0588
17.0619
17.0649
17.0679
17.0702
17.0719
17.0733
17.0744
17.0748
17.0716
16.9036
16.9044
16.9063
16.9088
16.9115
16.9144
16.9175
16.9207
16.9238
16.9261
16.9279
16.9295
16.9309
16.9325
16.9331
16.7588
16.7597
16.7616
16.764
16.7667
16.7697
16.7728
16.7761
16.7794
16.7819
16.7838
16.7857
16.7872
16.7887
16.7871
16.6148
16.6155
16.6173
16.6196
16.6222
16.6251
16.6283
16.6315
16.6347
16.6373
16.6393
16.6412
16.6428
16.6442
16.6383
16.4692
16.47
16.4718
16.4741
16.4767
16.4796
16.4829
16.4862
16.4896
16.4924
16.4948
16.4975
16.5005
16.5048
16.5071
16.3224
16.3232
16.325
16.3273
16.3299
16.3329
16.3362
16.3397
16.3432
16.3463
16.3491
16.3524
16.356
16.3612
16.3542
16.1745
16.1752
16.1769
16.1792
16.1818
16.1848
16.1881
16.1916
16.1951
16.1983
16.2014
16.2049
16.2087
16.2152
16.2144
16.0251
16.0258
16.0274
16.0296
16.0321
16.035
16.0382
16.0416
16.0452
16.0485
16.0518
16.0559
16.0604
16.0681
16.068
15.8721
15.8728
15.8745
15.8766
15.8791
15.882
15.8853
15.8888
15.8925
15.8961
15.8999
15.9045
15.9096
15.9182
15.9185
15.7163
15.717
15.7186
15.7206
15.723
15.7259
15.7291
15.7327
15.7365
15.7405
15.7448
15.7502
15.7564
15.7669
15.7696
15.556
15.5567
15.5582
15.5602
15.5627
15.5655
15.5688
15.5725
15.5765
15.581
15.5859
15.592
15.5994
15.6115
15.6172
15.3915
15.3921
15.3935
15.3954
15.3978
15.4006
15.4038
15.4076
15.4119
15.4169
15.4225
15.4296
15.4384
15.453
15.4622
15.2202
15.2208
15.2223
15.2242
15.2265
15.2294
15.2327
15.2367
15.2413
15.2467
15.253
15.2606
15.27
15.2855
15.29
15.043
15.0435
15.0448
15.0466
15.0489
15.0517
15.0551
15.0591
15.0641
15.0702
15.0772
15.0858
15.0962
15.1128
15.1332
14.8568
14.8573
14.8586
14.8604
14.8627
14.8657
14.8693
14.8739
14.8796
14.8867
14.8954
14.9064
14.9205
14.941
14.9729
14.66
14.6605
14.6618
14.6637
14.6661
14.6693
14.6733
14.6786
14.6853
14.6941
14.7048
14.7189
14.7374
14.7623
14.8017
14.4508
14.4513
14.4525
14.4544
14.4569
14.4603
14.4648
14.4708
14.4788
14.4894
14.5028
14.5204
14.544
14.5745
14.623
14.2231
14.2236
14.2247
14.2266
14.2292
14.233
14.2383
14.2456
14.2554
14.2688
14.2862
14.3091
14.3399
14.3788
14.4388
13.9747
13.9752
13.9764
13.9785
13.9815
13.9859
13.9923
14.0013
14.0139
14.0312
14.0541
14.0846
14.1255
14.1769
14.2553
13.6818
13.6822
13.6834
13.6857
13.6896
13.6956
13.7047
13.7178
13.7364
13.7619
13.7956
13.8395
13.8963
13.9647
14.0683
13.3791
13.3794
13.3808
13.3835
13.3879
13.3952
13.4063
13.4231
13.4472
13.4811
13.5266
13.5856
13.6603
13.7461
13.8635
12.8741
12.8745
12.8766
12.8819
12.8927
12.9107
12.9383
12.9781
13.0326
13.1033
13.1903
13.2924
13.4084
13.53
13.6755
12.6218
12.6225
12.6216
12.6285
12.6414
12.6617
12.6919
12.7353
12.7949
12.8731
12.9703
13.0853
13.2166
13.3557
13.5017
10.8234
10.7493
10.8125
10.8998
11.0133
11.1649
11.3621
11.6047
11.8843
12.1842
12.4813
12.7527
12.9884
13.1904
13.3658
11.8997
18.0734
13.672
10.7743
4.01824
16.0276
13.9141
18.494
3.64162
10.7301
9.40104
20.4676
7.1614
18.1585
15.2403
13.682
12.7932
12.5486
15.8855
10.7898
14.1627
15.0538
14.8457
25.6149
15.4856
11.1802
12.7056
12.6507
19.9529
12.5371
10.0765
14.3483
13.5664
22.6807
13.3208
12.4764
7.54945
19.1993
4.65932
13.571
18.1873
11.526
17.6988
13.5936
15.2722
12.3085
26.0135
11.9265
13.3174
15.9481
19.3966
14.7159
14.7431
16.1737
11.8147
13.7604
9.77793
11.9203
21.4303
17.2809
12.2621
21.343
16.2372
13.9903
15.8213
7.00204
15.0758
19.6786
9.93573
23.0012
12.3299
11.4955
30.1737
15.9206
10.6516
14.5823
10.4078
12.9562
14.8794
24.9047
12.5822
9.21677
12.0293
13.5305
19.133
8.99609
12.5102
9.053
19.3576
13.4936
16.8006
13.3738
14.1855
18.5237
6.54029
13.6691
16.0059
15.6528
15.0516
15.1771
7.73537
24.5126
12.5136
9.65185
18.4008
9.42521
13.0482
12.7923
13.0148
21.3625
17.4188
13.232
18.0221
11.8791
15.3091
10.6285
12.6484
18.7533
5.88151
13.6067
6.99858
13.7617
8.68739
17.9382
12.0666
12.3682
19.2697
16.8132
4.92244
10.9705
21.8257
12.7572
3.12447
13.4728
15.273
18.348
4.05813
16.3409
16.4041
15.5087
12.3608
13.292
12.2908
11.3632
19.6055
15.4729
11.8944
13.2265
15.8721
18.0265
13.4652
10.9172
12.952
19.7635
11.4256
16.1591
12.9412
12.3957
16.0982
21.7152
12.5608
14.6164
12.6459
4.35017
14.1438
14.3001
13.885
1.44089
16.5024
12.8581
15.0956
11.7826
14.8963
9.91406
13.4504
12.2726
13.2306
12.4833
21.5259
10.1851
8.49733
19.3769
20.0906
10.9719
11.782
12.1789
12.8543
22.7505
12.8882
12.4331
20.6522
13.8005
5.71739
19.2016
13.5363
20.7669
10.4527
12.1484
10.0493
21.8155
11.3511
14.7993
12.3725
14.2356
19.0761
17.1106
10.606
23.3632
11.4648
14.6582
12.2828
14.6229
21.3094
8.41378
18.4035
24.855
20.9236
13.6915
17.8242
20.2042
19.6533
15.7245
13.4961
13.6505
18.9653
6.47862
19.0095
12.359
10.3429
13.2948
15.1346
6.83596
15.083
14.7233
8.63043
15.7379
14.0377
17.7853
14.2048
12.6696
11.9985
12.2529
13.6392
9.781
11.4067
12.1778
6.84953
16.6219
7.48258
11.3943
21.9402
15.314
11.3071
15.8913
12.1267
17.93
17.3395
16.5814
16.8349
13.4814
9.29963
18.0001
6.25582
13.9135
11.2778
13.7891
11.5756
8.04716
16.5624
12.6979
24.3237
11.53
19.6809
8.18155
13.4008
8.94784
16.0764
18.7028
9.26344
14.8461
9.51072
13.3633
16.6358
13.3619
18.219
13.281
10.0419
6.56414
18.0345
3.47923
8.70765
15.6336
19.9242
14.0233
21.7645
1.96454
9.84433
12.7426
14.9827
15.2933
15.2637
13.0566
17.5027
15.3475
13.1127
7.54303
13.1929
9.81348
13.4782
16.4205
13.5012
13.4892
18.4311
12.1528
7.77933
14.6848
10.522
26.3599
12.5365
9.792
13.1757
18.0011
7.48202
12.9435
8.64328
13.9669
13.5624
13.2938
13.4075
5.84913
14.3625
10.3055
19.2182
16.5906
9.55194
13.2102
16.745
15.2317
24.3843
11.4265
19.3584
12.8894
17.9101
13.9805
15.0714
10.0363
15.1367
10.2443
24.0399
14.1261
4.86828
9.96086
23.4779
16.2528
22.1473
16.1867
16.1867
13.8384
16.438
12.1662
14.0168
12.9859
13.0904
18.4482
14.5409
17.0299
13.41
15.1927
13.2416
13.906
8.48977
12.1109
14.2443
14.0351
12.1643
12.9785
14.8491
20.1646
2.17557
10.6828
20.0517
9.74187
11.9957
14.6912
19.023
17.2392
14.1926
16.8755
13.2951
10.6324
15.2929
14.9146
15.0036
7.97618
13.2766
5.92602
19.1631
16.2401
15.2306
11.6585
14.5591
6.65276
15.379
23.3567
14.1321
7.21545
14.9395
13.665
13.3504
16.993
9.39041
9.98724
17.7798
22.8062
10.431
14.8929
11.6869
13.3951
14.7734
16.781
11.9963
18.4919
11.9771
12.6519
9.0708
19.2051
20.5922
13.842
17.7326
16.8953
11.1546
15.6101
6.08485
18.0371
13.9795
17.1111
11.0811
11.9287
5.46506
12.8256
16.2168
12.569
14.0019
11.9287
12.0127
9.25094
21.2853
12.3127
9.0241
22.2506
16.4275
22.7528
15.8772
14.6833
13.5852
16.4626
1.22295
17.5335
17.0752
7.94842
8.51799
9.2151
12.9786
12.4351
12.1865
9.11975
20.8863
12.6341
12.1476
11.1901
18.7246
12.5939
8.69124
19.3685
12.457
9.8774
13.6439
5.89119
26.191
10.9156
14.94
15.3658
16.0599
11.4714
10.5573
16.7555
19.5431
10.344
15.3601
23.4787
17.1194
15.1517
13.04
14.549
18.9541
11.747
14.4476
21.6045
7.56571
9.50322
16.0513
19.2598
14.4822
20.4161
18.4293
9.97152
7.90892
11.8162
9.37329
8.47709
8.87126
14.9973
13.3911
12.7358
12.4319
15.2938
8.31176
22.0204
12.2511
21.0781
12.2907
20.6267
12.3531
20.5503
8.90359
17.7145
9.64147
13.6122
13.8349
1.68853
12.2835
13.3807
12.9019
17.9667
15.6931
13.4251
12.9828
16.0039
19.8889
15.611
11.656
21.147
11.9847
18.0283
17.6813
14.9379
14.1976
12.8784
16.7698
38.8383
20.6799
14.8635
11.7892
10.1898
24.3585
13.1401
13.0536
13.7675
15.9929
15.3754
11.7803
11.902
10.9008
12.2125
16.7952
22.2576
15.2234
15.1159
8.93415
8.98255
10.9413
13.8443
13.4261
19.7104
12.4608
13.2288
13.7735
11.9579