/*--------------------------------*- C++ -*----------------------------------*\
| =========                 |                                                 |
| \\      /  F ield         | OpenFOAM: The Open Source CFD Toolbox           |
|  \\    /   O peration     | Version:  2.3.0                                 |
|   \\  /    A nd           | Web:      www.OpenFOAM.org                      |
|    \\/     M anipulation  |                                                 |
\*---------------------------------------------------------------------------*/
FoamFile
{
    version     2.0;
    format      ascii;
    class       surfaceScalarField;
    location    "350";
    object      phi;
}
// * * * * * * * * * * * * * * * * * * * * * * * * * * * * * * * * * * * * * //

dimensions      [0 3 -1 0 0 0 0];

internalField   nonuniform List<scalar> 
15537
(
-0.00313626
-0.0203888
0.0222465
0.00127858
-0.00458004
-0.0171813
0.018625
-0.00568548
-0.0145018
0.0156073
-0.00650971
-0.012265
0.0130892
-0.00709148
-0.0103984
0.0109801
-0.00745713
-0.00884005
0.0092057
-0.00762652
-0.00753747
0.00770687
-0.00761699
-0.00644756
0.00643803
-0.00744804
-0.00553381
0.00536486
-0.00713873
-0.0047678
0.00445849
-0.00671019
-0.0041251
0.00369657
-0.00618191
-0.00358642
0.00305815
-0.00557279
-0.00313509
0.00252597
-0.0049006
-0.002757
0.00208481
-0.00244061
-0.00415992
0.00169994
-0.00284558
-0.0187436
0.00120047
-0.0040832
-0.0159436
-0.00498038
-0.0136046
-0.00559467
-0.0116507
-0.00597441
-0.0100186
-0.0061586
-0.00865586
-0.00617702
-0.00751905
-0.00605367
-0.00657091
-0.00580712
-0.00578037
-0.00545317
-0.00512174
-0.00500552
-0.00457276
-0.00447633
-0.0041156
-0.00387671
-0.00373472
-0.00321641
-0.0034173
-0.00315296
-0.00250407
-0.00258865
-0.0172639
0.00110893
-0.00369448
-0.0148378
-0.00448546
-0.0128137
-0.00501104
-0.0111251
-0.00531286
-0.00971681
-0.00542637
-0.00854235
-0.00538232
-0.0075631
-0.00520663
-0.0067466
-0.00492085
-0.00606615
-0.00454397
-0.00549862
-0.00409097
-0.00502576
-0.00357512
-0.00463145
-0.00300695
-0.00430289
-0.00239558
-0.00402867
-0.00380005
-0.00174848
-0.00232188
-0.0159412
0.00099913
-0.00330253
-0.0138572
-0.00399697
-0.0121192
-0.00445174
-0.0106703
-0.00470627
-0.00946228
-0.00479342
-0.0084552
-0.00474074
-0.00761578
-0.00457143
-0.0069159
-0.00430455
-0.00633302
-0.00395667
-0.0058465
-0.00354141
-0.00544102
-0.00306994
-0.00510292
-0.00255206
-0.00482077
-0.00199537
-0.00458536
-0.0043888
-0.00140662
-0.00208303
-0.0147525
0.000894367
-0.00296054
-0.0129796
-0.0035783
-0.0115015
-0.00397938
-0.0102692
-0.00419934
-0.00924232
-0.00426837
-0.00838617
-0.00421182
-0.00767234
-0.00405032
-0.0070774
-0.00380226
-0.00658108
-0.00348158
-0.00616719
-0.00310072
-0.00582188
-0.00266993
-0.00553371
-0.00219783
-0.00529288
-0.00169117
-0.00509202
-0.00492385
-0.00115612
-0.0018676
-0.0136824
0.000797451
-0.00265607
-0.0121912
-0.0032096
-0.0109479
-0.00356684
-0.00991199
-0.00376099
-0.00904816
-0.00381911
-0.00832806
-0.00376395
-0.00772749
-0.00361457
-0.00722679
-0.00338684
-0.0068088
-0.00309388
-0.00646015
-0.00274674
-0.00616902
-0.00235458
-0.00592586
-0.00192494
-0.00572252
-0.00146438
-0.00555258
-0.00541035
-0.000977887
-0.00167652
-0.0127162
0.000710329
-0.00238732
-0.0114804
-0.00288524
-0.01045
-0.0032059
-0.00959132
-0.00337898
-0.00887509
-0.00342917
-0.00827786
-0.00337682
-0.00777984
-0.00323969
-0.00736392
-0.00303143
-0.00701707
-0.00276422
-0.00672736
-0.0024481
-0.00648514
-0.00209132
-0.00628265
-0.00170047
-0.00611337
-0.00128162
-0.00597142
-0.00585257
-0.000839397
-0.00150679
-0.0118426
0.000633243
-0.00214901
-0.0108382
-0.00259844
-0.0100006
-0.0028876
-0.00930216
-0.00304289
-0.00871981
-0.00308685
-0.00823389
-0.00303817
-0.00782852
-0.0029124
-0.00748969
-0.00272249
-0.00720698
-0.0024792
-0.00697065
-0.00219136
-0.00677298
-0.00186683
-0.00660718
-0.00151156
-0.00646864
-0.00113073
-0.00635225
-0.00625465
-0.000728651
-0.00135602
-0.0110517
0.000565114
-0.00193744
-0.0102567
-0.00234406
-0.00959396
-0.00260492
-0.0090413
-0.00274477
-0.00857996
-0.00278365
-0.00819501
-0.00273891
-0.00787327
-0.00262375
-0.00760486
-0.00245084
-0.00737988
-0.00222935
-0.00719214
-0.00196787
-0.00703446
-0.00167241
-0.00690264
-0.00134936
-0.0067917
-0.00100313
-0.00669847
-0.0066201
-0.000637686
-0.00122211
-0.0103349
0.000505262
-0.00174859
-0.00973026
-0.00211664
-0.00922591
-0.00235279
-0.00880515
-0.00247917
-0.00845358
-0.00251399
-0.00816019
-0.00247248
-0.00791478
-0.002368
-0.00770934
-0.00221036
-0.00753752
-0.002009
-0.0073935
-0.00177081
-0.00727264
-0.00150233
-0.00717112
-0.00120871
-0.00708532
-0.00089384
-0.00701334
-0.00695237
-0.000561566
-0.00110258
-0.00968477
0.000452478
-0.00157983
-0.009253
-0.00191347
-0.00889227
-0.00212748
-0.00859114
-0.00224164
-0.00833942
-0.00227295
-0.00812888
-0.00223505
-0.00795269
-0.00213941
-0.00780498
-0.00199595
-0.00768098
-0.00181261
-0.00757684
-0.00159616
-0.0074891
-0.00135233
-0.00741494
-0.00108509
-0.00735256
-0.000798944
-0.00729948
-0.00725448
-0.000496839
-0.000995687
-0.00909502
0.000405939
-0.00142865
-0.00882004
-0.00173119
-0.00858973
-0.00192506
-0.00839727
-0.00202832
-0.00823616
-0.00205648
-0.00810072
-0.00202184
-0.00798733
-0.00193511
-0.00789171
-0.00180456
-0.00781152
-0.00163795
-0.00774346
-0.00144106
-0.00768599
-0.00121893
-0.00763707
-0.000976175
-0.00759532
-0.000715907
-0.00755975
-0.00752907
-0.000441315
-0.000899311
-0.0085599
0.00036419
-0.00129257
-0.00842679
-0.00156692
-0.00831538
-0.00174296
-0.00822123
-0.00183695
-0.00814218
-0.0018621
-0.00807557
-0.00183046
-0.00801896
-0.00175126
-0.00797091
-0.00163273
-0.00793005
-0.00148112
-0.00789507
-0.00130192
-0.00786519
-0.00110031
-0.00783868
-0.000879503
-0.00781612
-0.000642903
-0.00779635
-0.00777876
-0.000393213
-0.000813247
0.000326716
-0.00807337
-0.00117021
-0.00806982
-0.00141934
-0.00806625
-0.00157917
-0.0080614
-0.00166392
-0.00805743
-0.0016871
-0.00805239
-0.00165817
-0.00804788
-0.00158613
-0.00804295
-0.00147831
-0.00803787
-0.00134058
-0.00803279
-0.00117765
-0.00802813
-0.000993992
-0.00802234
-0.000793255
-0.00801686
-0.000578218
-0.00801139
-0.000351355
-0.00800562
-0.00326644
-0.00241826
0.00152477
-0.00243005
-0.0026829
0.00184652
-0.001633
-0.00300422
0.00220717
-0.000874515
-0.00339355
0.00263506
-0.000158928
-0.00386512
0.00314954
0.0005043
-0.00443567
0.00377244
0.00109949
-0.00512522
0.00453003
0.00160373
-0.00595826
0.00545402
0.00198496
-0.00696283
0.0065816
0.00220181
-0.00817306
0.00795621
0.00220482
-0.00962985
0.00962684
0.00193723
-0.0113817
0.0116492
0.00133907
-0.0134892
0.0140873
0.000345887
-0.0160248
0.017018
-0.0190775
0.0205347
-0.00111128
-0.00177821
-0.00314411
-0.00107343
-0.00338769
-0.000397382
-0.00368026
0.000240345
-0.00403128
0.000827986
-0.00445276
0.00135112
-0.00495881
0.00179221
-0.0055663
0.00212949
-0.00629554
0.00233862
-0.00717197
0.00239059
-0.00822503
0.00225261
-0.00949187
0.00188701
-0.0110161
0.00124884
-0.012851
0.000283985
-0.0150599
-0.0177191
-0.00107437
-0.00110016
-0.00379243
-0.0004833
-0.00400454
9.58284e-05
-0.00425939
0.000630093
-0.00456554
0.00111056
-0.00493323
0.00152683
-0.00537508
0.00186607
-0.00590554
0.00211316
-0.00654264
0.0022491
-0.0073079
0.00225078
-0.00822671
0.00208974
-0.00933082
0.00173062
-0.0106569
0.0011302
-0.0122506
0.000236471
-0.0141662
-0.0164686
-0.0010141
-0.000816685
-0.00438237
-0.000256294
-0.00456493
0.000268913
-0.0047846
0.000752132
-0.00504876
0.00118497
-0.00536607
0.00155747
-0.00574758
0.00185754
-0.00620561
0.00207048
-0.00675557
0.00217897
-0.0074164
0.00216173
-0.00820947
0.00199273
-0.00916183
0.00164137
-0.0103056
0.00107011
-0.0116793
0.00023322
-0.0133293
-0.0153118
-0.000923555
-0.000620709
-0.00491778
-0.000112737
-0.00507291
0.000362513
-0.00525985
0.000798504
-0.00548475
0.00118781
-0.00575537
0.00152078
-0.00608055
0.00178671
-0.00647154
0.00197257
-0.00694143
0.00206159
-0.00750542
0.00203513
-0.00818301
0.00187004
-0.00899674
0.00153778
-0.00997332
0.00100498
-0.0111465
0.000230601
-0.0125549
-0.0142464
-0.000834808
-0.000491155
-0.00540451
-2.95735e-05
-0.00553449
0.000401916
-0.00569133
0.000797545
-0.00588038
0.00114998
-0.00610781
0.00145101
-0.00638157
0.00169049
-0.00671103
0.0018557
-0.00710664
0.00193251
-0.00758223
0.00190312
-0.00815363
0.00174614
-0.00883976
0.00143653
-0.00966371
0.000943123
-0.0106531
0.000228954
-0.0118407
-0.0132671
-0.000750323
-0.000397039
-0.00584687
2.24228e-05
-0.00595395
0.000414381
-0.00608329
0.000773362
-0.00623936
0.00109309
-0.00642753
0.00136562
-0.0066541
0.00158152
-0.00692692
0.00173006
-0.00725518
0.00179721
-0.00764939
0.00176741
-0.00812382
0.00162092
-0.00869327
0.00133455
-0.00937734
0.00088041
-0.010199
0.00022524
-0.0111856
-0.0123701
-0.000671745
-0.000326554
-0.00624897
5.46519e-05
-0.00633516
0.0004108
-0.00643944
0.000736906
-0.00656547
0.00102713
-0.00671776
0.00127439
-0.00690137
0.00146976
-0.00712229
0.00160348
-0.0073889
0.00166347
-0.00770937
0.0016342
-0.00809455
0.00149864
-0.00855771
0.00123541
-0.00911412
0.000819114
-0.00978266
0.000219003
-0.0105855
-0.0115493
-0.00060182
-0.000272121
-0.00661453
7.43587e-05
-0.00668164
0.000397982
-0.00676306
0.000694333
-0.00686182
0.000957828
-0.00698125
0.00118204
-0.00712558
0.00135958
-0.00729983
0.00148038
-0.0075097
0.0015337
-0.00776269
0.00150595
-0.00806681
0.00138119
-0.00843295
0.00114006
-0.00887299
0.000759117
-0.00940171
0.000210719
-0.0100371
-0.0107998
-0.000538806
-0.0002292
-0.0069469
8.57191e-05
-0.00699656
0.000379856
-0.0070572
0.00064907
-0.00713103
0.000888559
-0.00722074
0.0010923
-0.00732932
0.001253
-0.00746053
0.00136257
-0.00761927
0.00141021
-0.00781033
0.00138441
-0.008041
0.00127004
-0.00831859
0.00104933
-0.00865227
0.000701314
-0.0090537
0.000200727
-0.00953648
-0.0101159
-0.000483127
-0.000194794
-0.00724894
9.14493e-05
-0.0072828
0.00035885
-0.0073246
0.000603627
-0.00737581
0.000821095
-0.00743821
0.00100608
-0.00751431
0.00115206
-0.00760651
0.00125123
-0.00771844
0.00129454
-0.00785364
0.00127037
-0.00801683
0.0011655
-0.00821372
0.000964006
-0.00845078
0.000646581
-0.00873627
0.000189895
-0.0090798
-0.00949249
-0.000433539
-0.000166714
-0.00752354
9.34935e-05
-0.00754301
0.00033651
-0.00756762
0.00055894
-0.00759824
0.000756631
-0.0076359
0.000924787
-0.00768246
0.00105727
-0.007739
0.00114719
-0.00780835
0.00118612
-0.00789257
0.00116374
-0.00799445
0.0010679
-0.00811788
0.000884205
-0.00826708
0.000594906
-0.00844697
0.000178598
-0.00866349
-0.00892458
-0.000389307
-0.000143542
-0.00777321
9.29356e-05
-0.00777948
0.000313784
-0.00778847
0.000515995
-0.00780045
0.000695831
-0.00781574
0.000848353
-0.00783498
0.000968762
-0.00785941
0.00105035
-0.00788994
0.00108545
-0.00792767
0.00106488
-0.00797389
0.000977652
-0.00803065
0.00080999
-0.00809942
0.000546289
-0.00818327
0.00016727
-0.00828447
-0.00840708
-0.000350231
-0.00012422
-0.00800035
9.05715e-05
-0.00799427
0.000291348
-0.00798924
0.000475185
-0.00798429
0.0006384
-0.00797895
0.000777052
-0.00797363
0.000886493
-0.00796885
0.000960685
-0.00796413
0.000992601
-0.00795958
0.000973783
-0.00795507
0.000894009
-0.00795088
0.000741342
-0.00794675
0.000501184
-0.00794312
0.000156077
-0.00793936
-0.000314593
-0.00793641
0.00158107
0.0197005
-0.0213556
7.40094e-05
0.00278053
0.0165051
-0.0177045
0.00359522
0.0138272
-0.0146419
0.0040858
0.0115786
-0.0120692
0.00430563
0.00969096
-0.00991079
0.00430379
0.00810852
-0.00810669
0.00412445
0.00678499
-0.00660564
0.00380654
0.00568014
-0.00536223
0.00338362
0.00475881
-0.00433589
0.0028843
0.00398979
-0.00349047
0.00233309
0.00334512
-0.00279391
0.001752
0.00279871
-0.00221762
0.00116114
0.00232593
-0.00173508
0.000571223
0.00190956
-0.00131964
0.00158028
-4.69201e-05
-0.000962138
0.00143227
0.0181982
6.99924e-05
0.00252293
0.0154144
0.00326831
0.0130818
0.00372323
0.0111237
0.00393579
0.00947841
0.00394862
0.00809569
0.00379912
0.00693448
0.00352057
0.00595869
0.00314178
0.0051376
0.00268782
0.00444375
0.00218102
0.00385192
0.0016414
0.00333834
0.0010865
0.00288083
0.000524762
0.0024713
0.00216003
-5.49864e-05
0.00130267
0.0168308
6.47434e-05
0.0022971
0.01442
0.00297912
0.0123998
0.0033988
0.010704
0.00359898
0.00927823
0.00361731
0.00807736
0.00348708
0.00706471
0.00323744
0.00620834
0.00289405
0.00548099
0.00247952
0.00485828
0.00201373
0.00431772
0.00151502
0.00383704
0.000999137
0.00339672
0.000475444
0.00299499
0.00269547
-5.99969e-05
0.00118339
0.0155883
5.912e-05
0.00208804
0.0135153
0.00270925
0.0117786
0.0030931
0.0103202
0.00327862
0.00909271
0.00329936
0.00805662
0.00318518
0.00717889
0.00296162
0.00643189
0.00265132
0.00579129
0.00227415
0.00523544
0.00184822
0.00474366
0.00138988
0.00429538
0.000913903
0.00387269
0.000430315
0.00347858
0.0031875
-6.17185e-05
0.00107378
0.01446
5.4479e-05
0.00189566
0.0126934
0.00246126
0.011213
0.00281225
0.00996919
0.00298375
0.00892121
0.00300631
0.00803406
0.00290595
0.00727924
0.00270548
0.00663236
0.00242489
0.00607189
0.00208193
0.00557839
0.00169279
0.0051328
0.00127246
0.00471571
0.000834811
0.00431034
0.000390127
0.00392327
0.00363926
-6.16262e-05
0.000974255
0.0134345
5.12905e-05
0.00172184
0.0119459
0.00223677
0.0106981
0.00255717
0.0096488
0.00271549
0.00876289
0.00273853
0.00801102
0.00264976
0.00736801
0.00246953
0.00681259
0.00221553
0.00632589
0.00190369
0.00589024
0.00154848
0.00548801
0.00116374
0.00510045
0.000762209
0.00471187
0.000354078
0.0043314
0.00405359
-6.02596e-05
0.000884149
0.0125025
4.78404e-05
0.00156358
0.0112664
0.00203247
0.0102292
0.00232524
0.00935603
0.00247073
0.0086174
0.00249357
0.00798817
0.0024149
0.00744668
0.0022525
0.006975
0.00202252
0.00655586
0.00173902
0.00617374
0.00141515
0.00581187
0.0010633
0.0054523
0.000695519
0.00507965
0.000321641
0.00470528
0.00443315
-5.79113e-05
0.000802813
0.0116561
4.35726e-05
0.00142057
0.0106487
0.00184706
0.0098027
0.00211404
0.00908906
0.00224766
0.00848378
0.00227003
0.00796579
0.0021998
0.00751691
0.00205358
0.00712122
0.00184521
0.00676424
0.00158763
0.00643132
0.00129244
0.00610706
0.000971072
0.00577367
0.000634542
0.00541618
0.000292032
0.00504778
0.00478053
-5.53479e-05
0.000728486
0.0108859
4.17177e-05
0.00129026
0.0100869
0.00167873
0.00941423
0.00192199
0.0088458
0.0020444
0.00836137
0.00206604
0.00794415
0.00200352
0.00757943
0.00187154
0.00725319
0.00168291
0.00695287
0.00144882
0.00666541
0.00117998
0.0063759
0.000886608
0.00606705
0.000578835
0.00572396
0.000265537
0.00536108
0.00509852
-5.24548e-05
0.000661245
0.0101865
3.82122e-05
0.00117212
0.00957603
0.00152554
0.0090608
0.00174759
0.00862375
0.00185958
0.00824939
0.00187995
0.00792378
0.00182433
0.00763505
0.00170522
0.0073723
0.00153438
0.00712371
0.00132194
0.00687785
0.00107729
0.00662054
0.000809737
0.0063346
0.00052853
0.00600516
0.00024172
0.00564789
0.00538957
-4.93349e-05
0.0006004
0.00955064
3.54157e-05
0.00106497
0.00911146
0.00138647
0.0087393
0.00158864
0.00842159
0.00169134
0.00814669
0.0017106
0.00790451
0.00166075
0.0076849
0.00155339
0.00747967
0.0013987
0.0072784
0.00120598
0.00707057
0.000983726
0.0068428
0.000739932
0.0065784
0.000482653
0.00626244
0.000220041
0.00591051
0.00565656
-4.69457e-05
0.000545116
0.00897247
3.30621e-05
0.000967664
0.00868891
0.00126003
0.00844694
0.00144405
0.00823757
0.00153786
0.00805287
0.00155618
0.0078862
0.00151151
0.00772957
0.0014146
0.00757658
0.00127451
0.00741849
0.00109979
0.00724529
0.000898491
0.0070441
0.000677285
0.0067996
0.000443339
0.00649639
0.000202267
0.00615158
0.005902
-4.31762e-05
0.000495081
0.0084471
3.02899e-05
0.000879178
0.00830481
0.00114521
0.0081809
0.00131294
0.00806985
0.00139828
0.00796753
0.0014155
0.00786898
0.0013754
0.00776967
0.00128787
0.00766411
0.00116086
0.0075455
0.00100252
0.00740362
0.0008208
0.00722582
0.00062143
0.00699897
0.000404758
0.00671306
0.000183888
0.00637245
0.00612957
-4.36804e-05
0.000449573
2.81569e-05
0.00796937
0.000798949
0.00795544
0.00104101
0.00793884
0.00119345
0.00791741
0.00127144
0.00788954
0.00128717
0.00785325
0.0012514
0.00780544
0.00117292
0.00774259
0.0010573
0.00766112
0.000911701
0.00754922
0.000749584
0.00738794
0.000572781
0.00717578
0.000382211
0.00690363
0.00017661
0.00657805
-3.99302e-05
0.00634611
-0.000663535
0.00163418
-0.00101756
-0.00128356
0.00202497
-0.00140495
-0.00191323
0.00247707
-0.0018474
-0.0025328
0.00297854
-0.00235898
-0.00311866
0.00355471
-0.00296885
-0.00364635
0.00423153
-0.00370384
-0.0040881
0.00503369
-0.00459195
-0.00441316
0.00598664
-0.00566158
-0.00458569
0.00711735
-0.00694483
-0.0045674
0.0084563
-0.00847459
-0.00431793
0.0100392
-0.0102886
-0.00379521
0.0119106
-0.0124333
-0.00295211
0.0141296
-0.0149727
-0.00173289
0.0167711
-0.0179903
0.0199234
-0.0215876
-6.86583e-05
-0.000641521
0.00222071
-0.00123122
0.00261467
-0.00182207
0.00306792
-0.00239717
0.00355364
-0.00293438
0.00409193
-0.00341133
0.00470848
-0.00380354
0.0054259
-0.00408417
0.00626727
-0.00422392
0.0072571
-0.00419082
0.0084232
-0.0039511
0.00979943
-0.00346752
0.011427
-0.00269724
0.0133593
-0.00158708
0.0156609
0.0184095
-7.31243e-05
-0.000605405
0.00276612
-0.0011557
0.00316496
-0.00170461
0.00361682
-0.00223504
0.00408408
-0.00272721
0.0045841
-0.00316039
0.00514166
-0.00351311
0.00577862
-0.00376168
0.00651584
-0.00388085
0.00737627
-0.00384309
0.00838545
-0.00361836
0.0095747
-0.00317334
0.010982
-0.00246864
0.0126546
-0.00145608
0.0146483
0.0170303
-7.68866e-05
-0.000564926
0.00326933
-0.00107421
0.00367425
-0.00158047
0.00412308
-0.00206702
0.00457063
-0.00251553
0.00503261
-0.0029076
0.00553373
-0.00322421
0.00609523
-0.0034448
0.00673643
-0.00354774
0.00747921
-0.00350904
0.00834675
-0.00330199
0.00936765
-0.00289609
0.0105761
-0.00225452
0.012013
-0.00133338
0.0137272
0.0157759
-7.89682e-05
-0.000524371
0.00373207
-0.000993489
0.00414336
-0.00145886
0.00458845
-0.00190417
0.00501594
-0.00231255
0.00544099
-0.00266723
0.00588841
-0.00295146
0.00637945
-0.00314818
0.00693315
-0.00323754
0.00756858
-0.00319915
0.00830835
-0.00300911
0.00917762
-0.00263912
0.0102061
-0.00205599
0.0114299
-0.0012187
0.0128899
0.0146352
-7.80723e-05
-0.000485064
0.00415688
-0.000915934
0.00457423
-0.00134279
0.00501531
-0.00174968
0.00542283
-0.00212103
0.00581235
-0.0024422
0.00620958
-0.00269846
0.00663571
-0.00287391
0.0071086
-0.0029526
0.00764727
-0.0029156
0.00827135
-0.0027413
0.00900333
-0.0024045
0.00986933
-0.0018738
0.0108992
-0.00111249
0.0121286
0.0135984
-7.57086e-05
-0.000447535
0.0045465
-0.000842859
0.00496956
-0.00123371
0.00540615
-0.00160486
0.00579398
-0.00194245
0.00614994
-0.00223325
0.00650039
-0.00246393
0.00686639
-0.00262136
0.00726603
-0.00269092
0.00771682
-0.00265564
0.00823607
-0.00249633
0.00884401
-0.00218961
0.00956262
-0.00170721
0.0104168
-0.00101511
0.0114365
0.0126557
-7.23875e-05
-0.000412244
0.0049034
-0.000774426
0.00533174
-0.00113169
0.00576342
-0.00147032
0.00613261
-0.00177701
0.00645663
-0.0020401
0.00676348
-0.00224833
0.00707462
-0.00238974
0.00740744
-0.00245135
0.00777843
-0.00241837
0.00820308
-0.00227279
0.00869843
-0.00199346
0.00928329
-0.00155465
0.00997796
-0.000925455
0.0108073
0.0117989
-6.86071e-05
-0.000379456
0.0052304
-0.000710801
0.00566308
-0.00103728
0.00608989
-0.00134565
0.00644098
-0.00162416
0.00673514
-0.00186251
0.00700184
-0.00205023
0.00726234
-0.00217766
0.00753487
-0.00223229
0.00783306
-0.00220135
0.00817215
-0.0020685
0.00856557
-0.00181427
0.00902906
-0.00141537
0.00957906
-0.000843271
0.0102352
0.0110199
-6.43045e-05
-0.000348636
0.0055297
-0.000652294
0.00596674
-0.000950453
0.00638805
-0.00123131
0.00672183
-0.00148429
0.00698812
-0.00169977
0.00721733
-0.00186937
0.00743193
-0.00198343
0.00764893
-0.00203243
0.00788206
-0.00200345
0.00814317
-0.00188212
0.00844424
-0.00165085
0.00879779
-0.00128807
0.00921628
-0.000768175
0.00971532
0.0103119
-6.01183e-05
-0.000321172
0.00580392
-0.000598759
0.00624433
-0.000871037
0.00666033
-0.0011263
0.0069771
-0.0013555
0.00721732
-0.0015504
0.00741223
-0.00170338
0.0075849
-0.0018064
0.00775195
-0.00184988
0.00792554
-0.00182294
0.00811623
-0.00171244
0.00833374
-0.0015018
0.00858715
-0.00117201
0.00888649
-0.000699513
0.00924282
0.00966809
-5.57538e-05
-0.000294947
0.0060557
-0.000549475
0.00649886
-0.000798135
0.00690899
-0.00103077
0.00720973
-0.00123848
0.00742503
-0.0014143
0.00758805
-0.00155201
0.00772262
-0.00164416
0.0078441
-0.00168297
0.00796435
-0.00165807
0.00809133
-0.00155736
0.00823303
-0.00136604
0.00839583
-0.00106615
0.0085866
-0.000636578
0.00881326
0.00908299
-5.14694e-05
-0.000274269
0.00628629
-0.000506526
0.00673111
-0.000732853
0.00713532
-0.000943271
0.00742014
-0.00113094
0.0076127
-0.00128863
0.00774574
-0.00141249
0.00784647
-0.00149585
0.00792747
-0.00153068
0.00799918
-0.00150812
0.00806877
-0.0014162
0.0081411
-0.00124195
0.00822159
-0.000969627
0.00831427
-0.000578934
0.00842256
0.00855141
-4.73618e-05
-0.000250165
0.00649652
-0.000464308
0.00694526
-0.000671899
0.00734291
-0.000864148
0.00761239
-0.00103308
0.00778164
-0.00117517
0.00788783
-0.00128563
0.00795694
-0.00136037
0.0080022
-0.0013918
0.00803062
-0.00137096
0.00804793
-0.0012877
0.00805785
-0.00112946
0.00806335
-0.000881628
0.00806644
-0.000526808
0.00806774
-4.32636e-05
0.00806787
0.000271862
0.00142808
0.00039438
0.00196229
0.000503796
0.00241656
0.000615386
0.00294656
0.000732774
0.00357918
0.00085423
0.00433704
0.00097456
0.00524452
0.00108605
0.00632654
0.00117902
0.0076139
0.00124371
0.00914101
0.00127325
0.0109506
0.00126602
0.0130964
0.0012268
0.0156465
0.00116525
0.0186866
0.0223199
0.00109179
0.000123632
0.00130445
0.000147907
0.00193802
0.000191539
0.00237292
0.000254414
0.00288369
0.000330603
0.00350299
0.000416228
0.00425141
0.00050782
0.00515293
0.000601339
0.00623303
0.000692096
0.00752314
0.000774989
0.00905812
0.000844796
0.0108808
0.00089679
0.0130444
0.000927621
0.0156157
0.0009361
0.0186781
0.0223343
0.000921675
0.000184756
0.00111972
0.000235
0.00188778
0.000264818
0.00234311
0.000297085
0.00285142
0.000335595
0.00346448
0.000381393
0.00420562
0.000434547
0.00509978
0.000493533
0.00617404
0.000555438
0.00746124
0.000616309
0.00899725
0.000671952
0.0108251
0.000718916
0.0129975
0.000755038
0.0155795
0.00077949
0.0186537
0.022321
0.000792796
7.27856e-05
0.00104715
0.000131542
0.00182902
0.000162355
0.00231224
0.000186224
0.00282753
0.000212693
0.00343798
0.000245367
0.00417294
0.000285825
0.0050593
0.000334173
0.00612569
0.000389962
0.00740544
0.000449936
0.00893727
0.000510209
0.0107649
0.000566163
0.0129415
0.000613824
0.0155319
0.000650741
0.0186167
0.0222971
0.000674677
-4.45908e-05
0.00109198
2.68148e-05
0.00175761
6.96644e-05
0.00226931
9.64705e-05
0.00280069
0.000120761
0.00341364
0.000148526
0.00414516
0.000182164
0.00502564
0.000222846
0.00608501
0.000270593
0.00735768
0.000324372
0.00888349
0.000381866
0.0107074
0.000439712
0.0128837
0.000494094
0.0154775
0.000541843
0.018569
0.022256
0.000582981
-5.94241e-05
0.00115134
1.319e-06
0.00169687
4.83586e-05
0.0022223
7.84436e-05
0.00277061
0.000101341
0.00339076
0.000123861
0.00412265
0.000150233
0.00499928
0.000181686
0.00605356
0.000219107
0.00732026
0.000262232
0.00884037
0.000309959
0.0106596
0.000360328
0.0128333
0.000410771
0.015427
0.000458454
0.0185213
0.0222134
0.000500995
-2.5253e-05
0.00117643
9.13542e-06
0.00166248
4.88665e-05
0.00218261
7.8836e-05
0.00274066
0.000100711
0.00336891
0.000119987
0.00410338
0.000140602
0.00497868
0.000164877
0.00602929
0.000194029
0.00729112
0.000228372
0.00880603
0.000267402
0.0106206
0.000309925
0.0127908
0.000354176
0.0153828
0.000398099
0.0184774
0.0221717
0.000439769
-1.08971e-06
0.00117746
1.89412e-05
0.00164243
4.90066e-05
0.00215255
7.62721e-05
0.0027134
9.72592e-05
0.00334793
0.00011478
0.00408586
0.00013219
0.00496127
0.000151877
0.0060096
0.00017538
0.00726762
0.000203457
0.00877795
0.000236084
0.010588
0.000272518
0.0127543
0.000311523
0.0153438
0.000351473
0.0184374
0.0221327
0.00039049
9.52946e-06
0.0011679
2.45354e-05
0.00162742
4.77611e-05
0.00212934
7.18555e-05
0.00268931
9.21112e-05
0.00332768
0.000108835
0.00406913
0.00012454
0.00494557
0.00014144
0.0059927
0.000161233
0.00724782
0.000184791
0.00875439
0.000212456
0.0105603
0.000243949
0.0127228
0.000278479
0.0153093
0.000314959
0.018401
0.0220956
0.00035204
1.18951e-05
0.00115598
2.62607e-05
0.00161305
4.57957e-05
0.0021098
6.73171e-05
0.00266779
8.66244e-05
0.00330838
0.000102876
0.00405288
0.000117675
0.00493077
0.00013298
0.00597739
0.000150275
0.00723053
0.000170635
0.00873403
0.000194571
0.0105364
0.000222081
0.0126953
0.000252729
0.0152786
0.000285745
0.018368
0.0220613
0.000320121
1.14837e-05
0.00114449
2.57029e-05
0.00159883
4.32904e-05
0.00209222
6.28303e-05
0.00264825
8.11359e-05
0.00329008
9.69405e-05
0.00403708
0.000111206
0.00491651
0.000125405
0.00596319
0.000140965
0.00721497
0.000159006
0.00871599
0.00018012
0.0105153
0.000204469
0.012671
0.000231831
0.0152512
0.000261616
0.0183382
0.0220299
0.000292973
1.05205e-05
0.00113396
2.42387e-05
0.00158511
4.05864e-05
0.00207587
5.85966e-05
0.00263024
7.60519e-05
0.00327262
9.15367e-05
0.00402159
0.000105216
0.00490283
0.000118617
0.00594979
0.000132742
0.00720085
0.00014921
0.00869952
0.000168108
0.0104964
0.000189915
0.0126492
0.000214522
0.0152266
0.000241572
0.0183111
0.0220011
0.000270385
9.63841e-06
0.00112432
2.25831e-05
0.00157216
3.78918e-05
0.00206056
5.47128e-05
0.00261342
7.14527e-05
0.00325588
8.65167e-05
0.00400653
9.99159e-05
0.00488943
0.00011271
0.005937
0.000126047
0.00718751
0.000140922
0.00868465
0.000158043
0.0104793
0.000177767
0.0126294
0.000200097
0.0152043
0.000224744
0.0182865
0.0219747
0.000251177
8.88564e-06
0.00111543
2.09524e-05
0.00156009
3.53162e-05
0.0020462
5.11958e-05
0.00259754
6.73401e-05
0.00323974
8.21226e-05
0.00399175
9.52348e-05
0.00487632
0.000107565
0.00592467
0.000120152
0.00717492
0.000133943
0.00867086
0.000149661
0.0104635
0.000167738
0.0126114
0.000188316
0.0151837
0.000211338
0.0182634
0.0219492
0.000236812
8.23383e-06
0.0011072
1.94689e-05
0.00154886
3.29764e-05
0.00203269
4.80645e-05
0.00258245
6.36527e-05
0.00322415
7.81573e-05
0.00397724
9.10468e-05
0.00486343
0.000103011
0.00591271
0.000115001
0.00716293
0.000127913
0.00865795
0.000142471
0.010449
0.000159151
0.0125947
0.000178175
0.0151647
0.000199556
0.0182421
0.0219257
0.000223084
7.6756e-06
0.00109952
1.81611e-05
0.00153837
3.08684e-05
0.00201999
4.52543e-05
0.00256807
6.02671e-05
0.00320914
7.45135e-05
0.003963
8.72416e-05
0.0048507
9.8909e-05
0.00590104
0.0001104
0.00715144
0.000122565
0.00864578
0.000136113
0.0104354
0.000151538
0.0125793
0.000169089
0.0151472
0.000188803
0.0182224
0.021904
0.000210467
7.18887e-06
0.00109233
1.70094e-05
0.00152856
2.90175e-05
0.00200798
4.26679e-05
0.00255442
5.71285e-05
0.00319468
7.11331e-05
0.00394899
8.37569e-05
0.00483808
9.51962e-05
0.0058896
0.000106274
0.00714036
0.000117809
0.00863425
0.000130494
0.0104227
0.000144833
0.0125649
0.000161106
0.0151309
0.000179388
0.0182041
0.0218839
0.000199506
6.7322e-06
0.0010856
1.59565e-05
0.00151933
2.73082e-05
0.00199663
4.03196e-05
0.00254141
5.42313e-05
0.00318077
6.79866e-05
0.00393524
8.0555e-05
0.00482551
9.18309e-05
0.00587832
0.000102582
0.00712961
0.000113598
0.00862323
0.000125562
0.0104108
0.000138987
0.0125515
0.000154185
0.0151157
0.000171277
0.018187
0.0218649
0.000190276
6.34672e-06
0.00107926
1.5019e-05
0.00151066
2.57423e-05
0.0019859
3.8156e-05
0.002529
5.15943e-05
0.00316733
6.51291e-05
0.0039217
7.76038e-05
0.00481303
8.87647e-05
0.00586716
9.9262e-05
0.00711911
0.000109855
0.00861264
0.000121217
0.0103994
0.000133872
0.0125388
0.000148167
0.0151014
0.000164297
0.0181708
0.0218469
0.000182288
5.97411e-06
0.00107328
1.41596e-05
0.00150248
2.4331e-05
0.00197573
3.62039e-05
0.00251712
4.91828e-05
0.00315435
6.24708e-05
0.00390841
7.48586e-05
0.00480065
8.59389e-05
0.00585608
9.62329e-05
0.00710882
0.000106468
0.0086024
0.000117304
0.0103886
0.000129261
0.0125269
0.000142687
0.015088
0.000157748
0.0181558
0.0218301
0.000174505
5.65138e-06
0.00106763
1.33955e-05
0.00149473
2.30697e-05
0.00196606
3.44435e-05
0.00250575
4.70212e-05
0.00314177
5.99965e-05
0.00389544
7.22938e-05
0.00478835
8.33328e-05
0.00584504
9.34733e-05
0.00709868
0.000103414
0.00859246
0.000113805
0.0103782
0.000125174
0.0125155
0.000137897
0.0150752
0.000152223
0.0181415
0.0218141
0.000168242
5.37242e-06
0.00106226
1.27215e-05
0.00148738
2.19456e-05
0.00195683
3.28604e-05
0.00249484
4.50143e-05
0.00312962
5.76842e-05
0.00388277
6.98906e-05
0.00477614
8.09245e-05
0.00583401
9.09584e-05
0.00708865
0.000100664
0.00858275
0.000110685
0.0103682
0.000121559
0.0125046
0.000133676
0.0150631
0.000147304
0.0181278
0.0217984
0.000163042
5.11786e-06
0.00105714
1.21161e-05
0.00148038
2.09275e-05
0.00194802
3.13989e-05
0.00248436
4.31486e-05
0.00311787
5.55151e-05
0.0038704
6.76331e-05
0.00476402
7.86704e-05
0.00582297
8.86332e-05
0.00707868
9.81475e-05
0.00857324
0.000107853
0.0103585
0.000118288
0.0124942
0.000129864
0.0150515
0.000142855
0.0181148
0.0217838
0.000157453
4.87445e-06
0.00105227
1.15516e-05
0.00147371
1.99583e-05
0.00193962
3.00298e-05
0.00247429
4.13978e-05
0.0031065
5.348e-05
0.00385832
6.54988e-05
0.00475201
7.65355e-05
0.00581194
8.64512e-05
0.00706877
9.58099e-05
0.00856388
0.000105245
0.010349
0.000115291
0.0124842
0.000126378
0.0150405
0.000138826
0.0181024
0.0217696
0.000152986
4.65408e-06
0.00104761
1.10225e-05
0.00146734
1.90847e-05
0.00193155
2.87413e-05
0.00246463
3.97635e-05
0.00309548
5.15846e-05
0.0038465
6.34808e-05
0.00474011
7.45113e-05
0.00580091
8.43989e-05
0.00705888
9.36352e-05
0.00855464
0.000102838
0.0103398
0.000112556
0.0124744
0.000123236
0.0150298
0.000135252
0.0180904
0.021756
0.000148838
4.44653e-06
0.00104316
1.05384e-05
0.00146124
1.82675e-05
0.00192382
2.75786e-05
0.00245532
3.82549e-05
0.0030848
4.98175e-05
0.00383493
6.15691e-05
0.00472836
7.25752e-05
0.0057899
8.24461e-05
0.00704901
9.15793e-05
0.00854551
0.000100576
0.0103308
0.000109985
0.012465
0.000120257
0.0150195
0.00013174
0.0180789
0.0217433
0.000144511
4.25034e-06
0.00103891
1.00922e-05
0.0014554
1.75119e-05
0.0019164
2.64988e-05
0.00244633
3.68566e-05