/*--------------------------------*- C++ -*----------------------------------*\
| =========                 |                                                 |
| \\      /  F ield         | OpenFOAM: The Open Source CFD Toolbox           |
|  \\    /   O peration     | Version:  2.3.0                                 |
|   \\  /    A nd           | Web:      www.OpenFOAM.org                      |
|    \\/     M anipulation  |                                                 |
\*---------------------------------------------------------------------------*/
FoamFile
{
    version     2.0;
    format      ascii;
    class       volScalarField;
    location    "2000";
    object      nuTilda;
}
// * * * * * * * * * * * * * * * * * * * * * * * * * * * * * * * * * * * * * //

dimensions      [0 2 -1 0 0 0 0];

internalField   nonuniform List<scalar> 
38323
(
0.0725668
0.0709711
0.0693711
0.0677659
0.0661565
0.0645435
0.0629278
0.0613102
0.0596915
0.0580729
0.056455
0.054839
0.0532255
0.0516154
0.0500092
0.0484076
0.0468111
0.0452206
0.0436364
0.0420588
0.0404884
0.0389256
0.0373706
0.0358242
0.0342868
0.0327591
0.0312418
0.029736
0.0282427
0.0267633
0.0253
0.0238544
0.0224306
0.0210321
0.019664
0.0183316
0.0170405
0.0157966
0.0145988
0.0134255
0.0122062
0.0107714
0.00900595
0.0736577
0.0722487
0.0708329
0.0694128
0.0679889
0.0665618
0.0651323
0.0637006
0.062267
0.0608325
0.0593975
0.0579626
0.0565284
0.0550954
0.0536639
0.0522345
0.0508076
0.049384
0.0479643
0.0465487
0.0451377
0.0437319
0.0423316
0.0409385
0.039553
0.0381761
0.0368092
0.0354547
0.0341149
0.0327921
0.031491
0.0302153
0.0289716
0.0277682
0.0266139
0.0255206
0.0245027
0.0235769
0.0227627
0.0220784
0.02154
0.0211599
0.0209455
0.0746798
0.073424
0.0721643
0.070901
0.0696343
0.0683642
0.0670911
0.065815
0.0645364
0.0632554
0.0619723
0.0606875
0.0594018
0.0581149
0.0568276
0.0555402
0.0542529
0.0529664
0.0516812
0.0503984
0.049118
0.0478407
0.0465672
0.045299
0.0440369
0.0427825
0.0415377
0.040305
0.039087
0.0378875
0.036711
0.0355625
0.0344489
0.0333781
0.0323586
0.0314017
0.0305197
0.0297258
0.0290339
0.0284571
0.0280072
0.0276931
0.0275199
0.0756235
0.0745004
0.0733752
0.0722467
0.0711143
0.0699779
0.0688375
0.0676931
0.0665449
0.0653928
0.0642368
0.0630776
0.0619155
0.0607503
0.0595829
0.0584132
0.0572413
0.0560677
0.0548934
0.0537192
0.0525458
0.0513736
0.0502038
0.0490374
0.0478758
0.0467201
0.0455732
0.0444373
0.0433153
0.0422118
0.0411304
0.0400761
0.039057
0.0380797
0.037152
0.0362846
0.0354884
0.0347741
0.0341531
0.0336359
0.0332319
0.0329478
0.0327876
0.0764867
0.0754824
0.0744747
0.0734623
0.072445
0.0714229
0.0703955
0.0693628
0.0683247
0.0672812
0.066232
0.0651779
0.064119
0.0630555
0.0619875
0.0609155
0.0598394
0.0587593
0.057676
0.056591
0.0555046
0.0544183
0.0533326
0.0522489
0.0511684
0.0500926
0.0490239
0.0479647
0.0469184
0.0458891
0.0448806
0.0438977
0.0429478
0.0420374
0.0411743
0.040368
0.0396287
0.0389659
0.0383892
0.0379086
0.0375317
0.0372643
0.0371099
0.0772768
0.076377
0.0754713
0.0745594
0.0736411
0.0727164
0.0717855
0.0708478
0.0699032
0.0689515
0.0679926
0.0670267
0.0660542
0.0650754
0.0640905
0.0631
0.0621038
0.0611015
0.0600938
0.0590817
0.0580665
0.05705
0.0560333
0.0550171
0.0540029
0.052992
0.0519859
0.0509881
0.0500022
0.0490314
0.0480801
0.0471531
0.0462562
0.0453955
0.0445797
0.0438173
0.0431179
0.0424907
0.0419444
0.0414879
0.0411284
0.0408713
0.04072
0.0780026
0.0771915
0.0763737
0.0755492
0.0747156
0.0738744
0.0730261
0.0721696
0.0713045
0.0704308
0.0695486
0.0686572
0.0677573
0.0668493
0.0659336
0.0650113
0.0640825
0.0631461
0.0622017
0.0612504
0.0602933
0.059333
0.0583725
0.0574124
0.0564529
0.0554952
0.0545407
0.0535924
0.0526544
0.0517312
0.0508263
0.0499439
0.0490893
0.0482676
0.0474868
0.0467573
0.0460872
0.0454855
0.0449609
0.0445212
0.0441737
0.0439242
0.0437743
0.0786656
0.0779323
0.0771892
0.0764429
0.0756812
0.0749111
0.0741333
0.0733471
0.0725503
0.0717422
0.0709253
0.0700977
0.0692592
0.0684108
0.0675531
0.0666863
0.0658141
0.064935
0.0640455
0.0631454
0.0622373
0.061321
0.0604055
0.0594913
0.058578
0.0576655
0.0567553
0.0558479
0.0549468
0.0540618
0.0531956
0.0523494
0.0515312
0.0507434
0.0499858
0.0492825
0.0486355
0.0480524
0.0475437
0.0471164
0.0467773
0.046535
0.0463856
0.0792763
0.07861
0.0779234
0.0772534
0.076551
0.0758406
0.0751203
0.0743934
0.073657
0.0729021
0.07214
0.0713688
0.0705833
0.069782
0.0689755
0.0681514
0.0673217
0.0664912
0.0656536
0.0647948
0.0639381
0.0630541
0.0621712
0.0612925
0.0604175
0.0595435
0.0586737
0.0578077
0.0569316
0.0560758
0.0552456
0.0544284
0.0536388
0.0528983
0.0521458
0.0514651
0.0508392
0.0502681
0.04977
0.0493541
0.0490196
0.0487896
0.0486361
0.00934254
0.0114262
0.0125754
0.0136036
0.014678
0.0158235
0.0170301
0.0182838
0.0195716
0.0208841
0.0222157
0.0235616
0.0249192
0.026286
0.0276607
0.0290419
0.0304292
0.0318221
0.0332199
0.0346223
0.0360295
0.0374408
0.0388562
0.0402761
0.0416996
0.0431272
0.0445587
0.0459938
0.0474322
0.0488742
0.0503192
0.0517669
0.0532171
0.0546695
0.0561237
0.0575792
0.0590357
0.0604926
0.0619495
0.0634057
0.0648606
0.0663132
0.0677621
0.0208995
0.0210354
0.0213588
0.0218574
0.0225092
0.0232905
0.024179
0.0251528
0.0261924
0.0272841
0.0284165
0.0295804
0.0307691
0.0319772
0.0331995
0.0344337
0.0356776
0.0369282
0.0381851
0.0394467
0.0407123
0.0419813
0.0432531
0.0445277
0.0458047
0.0470836
0.0483645
0.0496471
0.0509314
0.0522171
0.0535041
0.0547921
0.0560809
0.0573705
0.0586608
0.0599513
0.0612421
0.0625329
0.0638233
0.0651132
0.0664021
0.0676895
0.068975
0.0274855
0.0275914
0.0278426
0.0282317
0.0287482
0.0293795
0.0301101
0.0309238
0.0318063
0.0327471
0.0337336
0.0347576
0.035811
0.036888
0.0379831
0.0390932
0.0402145
0.0413442
0.0424809
0.0436225
0.0447679
0.0459162
0.047067
0.0482192
0.0493724
0.0505269
0.0516818
0.0528368
0.0539921
0.055147
0.0563013
0.0574551
0.0586083
0.059761
0.0609129
0.0620643
0.0632148
0.0643645
0.0655134
0.0666611
0.0678076
0.0689528
0.0700965
0.0327503
0.032836
0.0330454
0.0333749
0.0338171
0.0343617
0.0349972
0.0357113
0.036493
0.0373308
0.0382155
0.0391379
0.0400914
0.041069
0.0420662
0.0430789
0.044103
0.045136
0.0461754
0.0472198
0.0482672
0.049317
0.0503682
0.0514201
0.0524721
0.0535236
0.0545742
0.0556238
0.0566717
0.0577175
0.058761
0.0598025
0.060842
0.0618794
0.0629149
0.0639485
0.0649802
0.0660098
0.0670376
0.0680633
0.0690871
0.0701091
0.0711292
0.0370687
0.0371395
0.0373228
0.0376152
0.0380102
0.0384994
0.0390728
0.0397208
0.0404323
0.0411977
0.0420081
0.0428561
0.0437338
0.0446356
0.0455565
0.0464924
0.0474391
0.0483943
0.0493554
0.0503208
0.051289
0.0522587
0.0532289
0.0541987
0.0551674
0.0561344
0.0570994
0.0580614
0.0590201
0.0599747
0.0609256
0.0618729
0.0628167
0.0637574
0.0646947
0.0656287
0.0665593
0.0674867
0.0684108
0.0693316
0.0702497
0.0711652
0.0720781
0.0406743
0.0407342
0.040899
0.0411653
0.0415277
0.0419784
0.0425089
0.0431094
0.0437698
0.0444815
0.0452367
0.0460272
0.046847
0.0476897
0.0485504
0.0494245
0.0503094
0.0512015
0.0520993
0.053001
0.0539047
0.054809
0.0557129
0.0566156
0.057516
0.0584139
0.0593082
0.0601975
0.0610812
0.0619592
0.0628319
0.0637001
0.064564
0.0654232
0.0662775
0.0671268
0.0679715
0.0688116
0.0696468
0.0704774
0.0713042
0.0721277
0.0729478
0.0437255
0.0437771
0.0439271
0.0441736
0.0445119
0.0449351
0.0454341
0.0459992
0.0466205
0.0472909
0.048003
0.0487495
0.0495235
0.0503185
0.05113
0.0519548
0.0527887
0.0536295
0.0544756
0.0553253
0.0561766
0.0570276
0.057877
0.0587239
0.0595681
0.0604095
0.0612453
0.0620734
0.062893
0.0637055
0.0645126
0.065315
0.0661119
0.0669023
0.067686
0.0684632
0.0692345
0.0700001
0.0707589
0.0715111
0.0722587
0.0730026
0.0737427
0.0463342
0.0463792
0.0465164
0.0467464
0.0470661
0.0474691
0.0479459
0.0484828
0.0490714
0.049709
0.050388
0.0511002
0.0518362
0.0525917
0.053363
0.0541466
0.0549385
0.0557367
0.0565406
0.0573485
0.0581568
0.0589636
0.0597673
0.0605681
0.0613667
0.0621635
0.0629487
0.0637243
0.0644865
0.0652442
0.0659963
0.0667458
0.0674854
0.0682167
0.0689402
0.0696557
0.070364
0.0710671
0.0717589
0.0724426
0.0731215
0.0737967
0.0744677
0.0485824
0.0486237
0.0487457
0.0489607
0.0492641
0.0496517
0.0501107
0.0506201
0.0511778
0.0517904
0.0524422
0.0531263
0.0538268
0.0545495
0.055287
0.0560375
0.0567944
0.0575579
0.0583301
0.0591054
0.0598788
0.0606501
0.0614158
0.0621809
0.0629469
0.0637132
0.064442
0.0651719
0.0658785
0.0666017
0.0673053
0.0680154
0.0687006
0.0693831
0.0700543
0.0707175
0.071373
0.0720278
0.0726564
0.0732806
0.0739017
0.07452
0.0751382
0.0155073
0.0148222
0.0141794
0.0135752
0.0130062
0.012469
0.0119611
0.0114797
0.0110225
0.0105875
0.0101725
0.00977581
0.00939556
0.00903009
0.00867785
0.00833736
0.00800725
0.00768617
0.00737291
0.00706632
0.00676532
0.0064689
0.00617613
0.00588612
0.00559805
0.00531118
0.00502475
0.00473812
0.00445069
0.00416186
0.00387111
0.00357799
0.00328208
0.0029831
0.00268102
0.00237607
0.00206886
0.00176065
0.00145348
0.00115012
0.000851538
0.000539321
0.000325998
0.0154593
0.0148279
0.0142318
0.0136685
0.0131353
0.0126297
0.0121496
0.0116926
0.0112569
0.0108407
0.0104423
0.0100601
0.00969266
0.00933849
0.00899626
0.00866468
0.00834254
0.00802862
0.00772181
0.00742106
0.00712533
0.00683362
0.00654498
0.00625854
0.0059734
0.00568878
0.00540389
0.00511795
0.00483024
0.00454011
0.00424692
0.00395013
0.00364925
0.003344
0.0030343
0.00272031
0.00240254
0.00208196
0.00175975
0.00143591
0.00110556
0.000767797
0.000519856
0.0154171
0.0148371
0.0142858
0.0137617
0.013263
0.0127877
0.0123341
0.0119004
0.0114851
0.0110867
0.0107038
0.010335
0.0099792
0.00963515
0.00930164
0.00897763
0.00866201
0.00835378
0.00805187
0.00775531
0.00746317
0.00717449
0.00688836
0.00660389
0.00632017
0.00603637
0.00575164
0.00546517
0.00517615
0.00488387
0.0045875
0.00428648
0.00398018
0.00366816
0.00335021
0.0030263
0.00269665
0.00236174
0.00202146
0.0016728
0.00130804
0.000954353
0.000671861
0.0153792
0.0148461
0.0143359
0.0138479
0.013381
0.0129336
0.0125044
0.0120921
0.0116955
0.0113133
0.0109444
0.0105878
0.0102423
0.00990707
0.00958103
0.00926331
0.00895295
0.00864907
0.00835074
0.00805705
0.00776718
0.00748023
0.00719531
0.00691156
0.00662808
0.00634404
0.00605851
0.00577066
0.00547965
0.00518458
0.00488465
0.00457913
0.00426727
0.00394848
0.00362235
0.0032886
0.00294726
0.00259802
0.00223919
0.00186475
0.00146469
0.0010985
0.000792663
0.015348
0.0148549
0.0143816
0.0139265
0.0134884
0.0130665
0.0126598
0.012267
0.0118874
0.01152
0.0111637
0.0108179
0.0104817
0.0101541
0.00983453
0.00952209
0.00921598
0.00891548
0.00861971
0.00832796
0.0080394
0.0077532
0.00746857
0.00718465
0.00690057
0.00661552
0.00632853
0.00603873
0.00574525
0.00544707
0.00514339
0.00483333
0.00451598
0.00419066
0.00385671
0.00351374
0.00316137
0.00279844
0.00242176
0.0020227
0.0015923
0.00121239
0.000890946
0.0153186
0.0148631
0.0144232
0.0139978
0.0135861
0.0131875
0.0128011
0.0124262
0.0120621
0.011708
0.0113633
0.0110272
0.0106992
0.0103785
0.0100644
0.00975648
0.00945385
0.00915592
0.00886202
0.00857145
0.0082835
0.00799742
0.00771242
0.00742773
0.00714251
0.00685592
0.00656703
0.00627491
0.00597863
0.00567724
0.00536974
0.00505515
0.00473255
0.00440103
0.00405983
0.00370835
0.00334566
0.00297009
0.00257679
0.00215541
0.00170341
0.00130593
0.000972689
0.0152924
0.0148704
0.0144608
0.0140625
0.0136748
0.0132974
0.0129297
0.0125711
0.0122212
0.0118793
0.011545
0.0112178
0.0108971
0.0105824
0.0102732
0.00996902
0.00966932
0.00937347
0.00908084
0.00879085
0.00850298
0.00821654
0.00793076
0.00764494
0.0073582
0.00706976
0.00677869
0.00648402
0.0061848
0.00588008
0.00556879
0.0052499
0.00492231
0.00458504
0.00423719
0.00387782
0.0035058
0.00311864
0.00271025
0.00226915
0.00180008
0.00138544
0.00104219
0.0152644
0.0148756
0.0144943
0.0141211
0.0137554
0.0133973
0.0130466
0.0127033
0.0123667
0.0120362
0.0117114
0.0113923
0.0110783
0.0107689
0.0104636
0.0101626
0.00986558
0.00957174
0.00928014
0.00898999
0.00870129
0.00841399
0.00812723
0.00784015
0.0075519
0.00726172
0.00696869
0.00667167
0.00636936
0.00606072
0.00574537
0.00542224
0.00508998
0.0047472
0.00439281
0.00402615
0.00364561
0.00324791
0.00282518
0.00236506
0.00188074
0.00144941
0.00110009
0.0152401
0.0148767
0.0145218
0.0141738
0.0138293
0.0134879
0.0131525
0.0128237
0.0125011
0.012183
0.0118674
0.0115561
0.0112497
0.010946
0.0106432
0.0103433
0.0100484
0.00975808
0.00947036
0.00918001
0.00888728
0.00859698
0.0083085
0.00802036
0.00773141
0.0074413
0.0071492
0.00685402
0.0065542
0.006241
0.00591915
0.00559192
0.00525481
0.00491023
0.00454709
0.00417137
0.00378201
0.00337851
0.0029518
0.00248227
0.00198216
0.00152995
0.00115846
0.00035516
0.000478802
0.000674387
0.000862757
0.00104483
0.00122154
0.00139376
0.00156254
0.00172936
0.00189619
0.00206625
0.00224423
0.00243671
0.00265125
0.00289301
0.00316401
0.00346438
0.00379221
0.00414609
0.00452524
0.00492915
0.00535798
0.00581205
0.00629173
0.00679769
0.00733044
0.00789092
0.00847961
0.00909709
0.00974399
0.0104212
0.0111292
0.011869
0.0126414
0.0134474
0.0142879
0.015164
0.0160767
0.0170273
0.0180168
0.0190464
0.0201175
0.0212328
0.000486496
0.000629133
0.000833298
0.00103379
0.00122709
0.00141384
0.00159559
0.0017746
0.00195403
0.00213811
0.00233206
0.00254198
0.00277443
0.00303539
0.00332626
0.00364359
0.0039852
0.00434985
0.00473649
0.0051447
0.00557441
0.00602579
0.00649901
0.00699454
0.00751277
0.00805414
0.00861912
0.00920815
0.00982152
0.0104598
0.0111237
0.0118137
0.0125307
0.0132752
0.0140481
0.0148503
0.0156825
0.0165458
0.017441
0.018369
0.0193305
0.0203257
0.0213515
0.000611592
0.000765551
0.000979243
0.00119134
0.00139568
0.00159331
0.00178711
0.00198112
0.0021804
0.00239064
0.00261756
0.00286636
0.00314161
0.00344746
0.00378108
0.00413728
0.00451419
0.00491056
0.00532595
0.00576002
0.00621269
0.0066841
0.0071743
0.00768355
0.00821214
0.00876041
0.00932837
0.00991637
0.0105247
0.0111538
0.0118042
0.0124762
0.0131704
0.0138875
0.0146281
0.0153928
0.0161824
0.0169974
0.0178387
0.0187067
0.0196017
0.0205235
0.0214715
0.000722979
0.000885836
0.00110902
0.00133189
0.0015472
0.00175703
0.00196595
0.00217979
0.00240478
0.0026466
0.00290983
0.00319778
0.00351359
0.00385965
0.00422928
0.00461828
0.00502507
0.00544873
0.00588897
0.00634535
0.00681781
0.00730635
0.00781093
0.00833169
0.00886867
0.00942193
0.00999148
0.0105775
0.0111802
0.0117998
0.0124367
0.0130913
0.0137641
0.0144553
0.0151656
0.0158953
0.0166451
0.0174152
0.0182064
0.0190186
0.0198522
0.020707
0.0215828
0.000820292
0.000991566
0.00122407
0.00145725
0.00168394
0.00190776
0.00213495
0.00237239
0.00262633
0.00290143
0.00320045
0.00352516
0.00387819
0.00425874
0.00465903
0.00507612
0.00550877
0.00595624
0.00641813
0.00689393
0.00738353
0.00788688
0.00840368
0.00893404
0.00947775
0.0100346
0.0106046
0.011188
0.0117847
0.0123951
0.0130192
0.0136574
0.0143099
0.0149771
0.0156592
0.0163566
0.0170696
0.0177984
0.0185434
0.0193045
0.0200821
0.0208762
0.0216872
0.000905238
0.00108495
0.00132655
0.00156995
0.00180884
0.00204844
0.00229622
0.00255938
0.0028433
0.0031509
0.00348326
0.00384126
0.00422787
0.0046379
0.00506492
0.00550668
0.00596211
0.00643049
0.00691137
0.00740429
0.00790893
0.00842509
0.00895247
0.00949073
0.0100397
0.0105992
0.0111691
0.0117495
0.0123404
0.0129417
0.0135538
0.0141765
0.0148103
0.0154551
0.0161113
0.0167788
0.017458
0.0181489
0.0188516
0.0195663
0.0202929
0.0210317
0.0217831
0.000979439
0.00116752
0.00141806
0.00167179
0.00192373
0.00218065
0.00245066
0.00274033
0.00305349
0.00339141
0.00375404
0.00414228
0.00455856
0.00499429
0.00544489
0.00590849
0.00638417
0.00687113
0.0073689
0.00787698
0.00839489
0.00892229
0.00945866
0.0100037
0.0105572
0.0111186
0.011688
0.0122653
0.0128505
0.0134434
0.014044
0.0146524
0.0152686
0.0158928
0.0165251
0.0171653
0.0178134
0.0184694
0.0191335
0.0198056
0.0204859
0.0211743
0.0218709
0.00104656
0.00124343
0.00150228
0.00176636
0.0020322
0.00230723
0.00259913
0.0029136
0.00325377
0.00361969
0.00401015
0.00442624
0.00486833
0.00532707
0.00579848
0.00628113
0.00677479
0.00727861
0.007792
0.00831441
0.00884456
0.00938189
0.00992643
0.0104778
0.0110349
0.0115978
0.0121666
0.012741
0.0133205
0.013905
0.0144944
0.015089
0.0156889
0.016294
0.0169042
0.0175196
0.0181391
0.0187625
0.0193908
0.0200242
0.0206626
0.0213054
0.0219533
0.00109683
0.00129913
0.00156861
0.00184433
0.00212353
0.00241511
0.00272967
0.00307523
0.00344981
0.00384462
0.00425612
0.00469767
0.00516389
0.00564044
0.00612376
0.00662244
0.00713806
0.00766027
0.00819253
0.00873344
0.00927223
0.00981699
0.0103708
0.0109286
0.011487
0.0120493
0.0126175
0.013189
0.0137608
0.0143353
0.0149119
0.0154918
0.0160766
0.0166641
0.0172534
0.017848
0.0184398
0.01903
0.0196244
0.0202235
0.0208246
0.021426
0.0220296
0.000880311
0.00278432
0.00464207
0.00640351
0.00808364
0.00970997
0.0113054
0.0128854
0.0144588
0.0160332
0.0176126
0.0191985
0.0207924
0.0223948
0.0240055
0.0256253
0.0272537
0.02889
0.030535
0.0321881
0.033849
0.0355174
0.0371932
0.0388763
0.0405666
0.0422628
0.0439656
0.0456745
0.0473886
0.0491073
0.0508302
0.0525564
0.0542854
0.0560158
0.0577469
0.0594778
0.0612073
0.0629344
0.064658
0.0663772
0.0680908
0.0697982
0.0714979
0.000313965
0.00142367
0.00250548
0.0038212
0.00529761
0.00682015
0.00836288
0.00992029
0.0114921
0.0130789
0.0146812
0.0162982
0.0179302
0.0195765
0.0212369
0.0229105
0.0245965
0.026294
0.0280023
0.0297203
0.0314477
0.0331841
0.0349282
0.0366804
0.0384395
0.0402047
0.041976
0.0437528
0.0455341
0.0473195
0.049108
0.050899
0.0526915
0.0544848
0.0562775
0.0580691
0.0598581
0.0616436
0.0634245
0.0651996
0.0669682
0.0687294
0.0704818
0.000343134
0.00131464
0.00216757
0.00312993
0.00420574
0.00543352
0.00679019
0.00821469
0.00968542
0.011194
0.0127362
0.014309
0.0159097
0.0175362
0.0191867
0.0208591
0.0225517
0.0242628
0.0259905
0.0277335
0.0294904
0.0312601
0.0330409
0.0348322
0.0366328
0.0384416
0.0402576
0.0420799
0.0439079
0.0457404
0.0475763
0.0494149
0.0512552
0.0530959
0.054936
0.0567743
0.0586099
0.0604414
0.0622678
0.0640881
0.0659014
0.0677069
0.0695051
0.000379542
0.00119555
0.00206099
0.00292544
0.00383237
0.00482183
0.00593421
0.00718773
0.00852998
0.00993374
0.0113878
0.012886
0.0144244
0.0159994
0.0176083
0.0192484
0.0209172
0.0226123
0.0243316
0.0260723
0.0278329
0.0296117
0.0314066
0.0332158
0.0350381
0.0368719
0.0387154
0.0405679
0.042428
0.0442942
0.0461654
0.0480404
0.0499178
0.0517964
0.0536749
0.0555523
0.057427
0.0592979
0.0611637
0.0630234
0.064876
0.0667211
0.0685587
0.000377056
0.00105822
0.00192893
0.00278653
0.00364326
0.00452806
0.00548037
0.00655188
0.0077572
0.0090524
0.0104138
0.0118308
0.0132974
0.0148095
0.0163634
0.0179565
0.019586
0.0212488
0.0229427
0.0246645
0.0264123
0.0281838
0.0299766
0.0317887
0.033618
0.0354629
0.0373212
0.0391918
0.0410725
0.0429619
0.0448585
0.0467604
0.0486667
0.0505754
0.0524854
0.0543949
0.0563028
0.0582073
0.0601073
0.0620016
0.0638892
0.065769
0.0676408
0.00035119
0.000949375
0.00178835
0.00264052
0.00348359
0.00432747
0.00520152
0.00614751
0.00721709
0.00840656
0.00967972
0.0110185
0.0124144
0.0138625
0.0153586
0.0168999
0.0184833
0.0201062
0.0217657
0.0234592
0.0251843
0.026938
0.0287183
0.0305226
0.0323485
0.0341944
0.0360577
0.0379364
0.0398286
0.0417325
0.0436461
0.0455677
0.0474954
0.0494275
0.0513622
0.0532983
0.0552336
0.0571669
0.0590963
0.0610207
0.0629388
0.0648491
0.0667507
0.00032219
0.000859999
0.00165929
0.0024915
0.00332376
0.00414908
0.00498458
0.00586102
0.00682481
0.00791431
0.00910534
0.0103721
0.0117024
0.0130898
0.0145298
0.0160193
0.0175555
0.0191356
0.0207572
0.0224174
0.0241137
0.0258435
0.0276044
0.0293936
0.0312092
0.0330485
0.034909
0.0367887
0.0386851
0.0405964
0.0425204
0.0444549
0.0463978
0.0483472
0.0503016
0.0522587
0.0542167
0.0561739
0.0581286
0.060079
0.0620234
0.0639601
0.0658862
0.000304191
0.000790673
0.00154999
0.00235319
0.00316895
0.00397984
0.00479284
0.00562947
0.0065252
0.0075272
0.00864265
0.00984363
0.011114
0.0124453
0.0138326
0.0152727
0.0167627
0.0183003
0.0198828
0.0215078
0.0231726
0.024875
0.0266123
0.0283821
0.030182
0.0320093
0.0338615
0.0357365
0.0376317
0.0395447
0.0414733
0.0434153
0.0453684
0.0473305
0.0492992
0.0512729
0.0532493
0.0552264
0.0572023
0.0591749
0.0611423
0.0631025
0.0650529
0.000294249
0.000738763
0.00146023
0.00223159
0.00302593
0.00382104
0.00461679
0.00542734
0.00627932
0.0072136
0.00826068
0.00940188
0.0106177
0.0118975
0.0132362
0.0146301
0.0160765
0.0175726
0.0191166
0.0207059
0.0223384
0.0240117
0.0257233
0.0274706
0.0292513
0.031063
0.0329032
0.0347693
0.0366586
0.038569
0.040498
0.0424432
0.0444021
0.0463722
0.0483514
0.0503377
0.0523286
0.0543217
0.0563152
0.0583067
0.0602942
0.0622751
0.0642467
0.000288943
0.000698955
0.00138593
0.00212605
0.00289681
0.00367437
0.00445407
0.00524457
0.00606588
0.00695121
0.00793842
0.00902534
0.0101915
0.0114247
0.0127186
0.0140696
0.0154747
0.0169317
0.0184386
0.0199931
0.0215933
0.0232367
0.0249213
0.0266445
0.0284044
0.0301981
0.0320232
0.0338772
0.0357578
0.037662
0.0395879
0.0415325
0.0434934
0.0454681
0.0474544
0.0494497
0.0514515
0.0534576
0.0554655
0.0574733
0.0594781
0.0614779
0.0634701
0.000286113
0.000667167
0.00132307
0.00203392
0.0027808
0.00353983
0.00430372
0.00507701
0.00587482
0.00672407
0.00766105
0.00869896
0.00982004
0.0110107
0.0122637
0.013575
0.0149417
0.0163618
0.0178331
0.0193541
0.0209225
0.0225364
0.0241937
0.0258924
0.0276299
0.029404
0.0312122
0.0330521
0.0349212
0.0368169
0.0387366
0.0406778
0.0426378
0.0446143
0.0466043
0.0486056
0.0506156
0.0526317
0.0546516
0.0566728
0.058693
0.0607106
0.0627255
0.000284546
0.000641271
0.00126934
0.00195305
0.0026766
0.00341694
0.00416502
0.00492253
0.00570106
0.00652211
0.00741822
0.00841213
0.00949209
0.0106438
0.0118592
0.0131338
0.0144648
0.0158503
0.0172883
0.018777
0.0203148
0.0218998
0.0235302
0.0252037
0.0269186
0.0286722
0.0304621
0.0322864
0.0341423
0.0360274
0.0379388
0.0398742
0.0418311
0.0438065
0.045798
0.0478028
0.0498184
0.051842
0.0538714
0.0559037
0.0579366
0.0599679
0.0619937
0.000283576
0.000619752
0.00122293
0.00188168
0.00258309
0.00330482
0.00403714
0.00477986
0.00554132
0.0063393
0.00720221
0.0081568
0.00919929
0.0103154
0.0114962
0.012737
0.0140349
0.0153879
0.0167943
0.0182524
0.0197608
0.0213179
0.0229217
0.0245704
0.0262624
0.0279948
0.0297661
0.0315736
0.0334152
0.035288
0.0371896
0.0391176
0.0410691
0.0430416
0.0450322
0.0470383
0.0490573
0.0510864
0.053123
0.0551642
0.0572079
0.0592513
0.0612913
0.000282951
0.000601698
0.00118255
0.00181849
0.00249887
0.00320253
0.00391937
0.00464764
0.0053936
0.00617209
0.00700743
0.00792737
0.00893569
0.010019
0.0111679
0.0123773
0.0136444
0.0149669
0.0163436
0.0177727
0.019253
0.0207831
0.022361
0.0239855
0.0256546
0.0273661
0.0291181
0.0309083
0.0327344
0.0345939
0.0364845
0.0384035
0.0403482
0.0423158
0.0443039
0.0463096
0.0483301
0.0503627
0.0524045
0.0544531
0.0565058
0.0585607
0.0606169
0.000282592
0.000586322
0.00114713
0.00176205
0.00242275
0.00310905
0.0038107
0.00452509
0.00525675
0.00601793
0.00682995
0.00771942
0.00869623
0.00974924
0.0108686
0.012049
0.0132871
0.0145813
0.0159298
0.0173314
0.018785
0.020289
0.0218421
0.023443
0.0250896
0.0267802
0.0285128
0.0302853
0.0320955
0.0339411
0.0358196
0.0377284
0.0396649
0.0416265
0.0436106
0.0456142
0.0476346
0.0496689
0.0517145
0.0537685
0.0558285
0.0578917
0.0599547
0.000282407
0.000573107
0.00111574
0.00171131
0.00235356
0.00302334
0.00371037
0.00441124
0.00512931
0.00587499
0.00666665
0.00752929
0.00847719
0.00950213
0.0105942
0.0117474
0.0129587
0.0142262
0.0155483
0.0169238
0.0183518
0.0198311
0.0213603
0.022938
0.0245626
0.0262324
0.0279457
0.0297005
0.0314945
0.0333255
0.0351911
0.0370889
0.0390164
0.0409708
0.0429495
0.0449497
0.0469686
0.0490034
0.0510512
0.0531091
0.0551748
0.0572454
0.059319
0.000282307
0.000561513
0.00108779
0.00166561
0.00229059
0.00294461
0.0036174
0.0043052
0.00501049
0.0057419
0.00651551
0.00735455
0.00827586
0.00927476
0.0103412
0.0114691
0.0126553
0.0138975
0.0151947
0.0165456
0.0179492
0.0194047
0.0209108
0.0224661
0.0240692
0.0257188
0.0274129
0.0291498
0.0309274
0.0327435
0.0345959
0.0364822
0.0383997
0.040346
0.0423184
0.0443142
0.0463303
0.0483642
0.0504128
0.0524734
0.0545432
0.0566195
0.0586997
0.000282285
0.000551411
0.00106272
0.00162414
0.00223299
0.00287196
0.00353108
0.00420642
0.00489942
0.00561752
0.00637485
0.00719278
0.00808976
0.0090642
0.0101067
0.011211
0.0123734
0.013592
0.0148656
0.0161931
0.0175737
0.0190064
0.0204901
0.0220238
0.0236063
0.0252359
0.0269112
0.0286303
0.0303915
0.0321926
0.0340314
0.0359055
0.0378126
0.0397501
0.0417153
0.0437055
0.0457181
0.0477498
0.0497982
0.0518599
0.0539323
0.0560118
0.0580945
0.000282387
0.000542577
0.0010403
0.00158667
0.00218033
0.00280491
0.00345096
0.00411413
0.0047954
0.00550095
0.00624346
0.00704245
0.00791681
0.00886841
0.00988851
0.0109705
0.0121107
0.013307
0.0145582
0.0158635
0.017222
0.0186329
0.0200953
0.0216082
0.0231704
0.0247806
0.0264375
0.0281391
0.029884
0.0316698
0.0334948
0.0353565
0.0372526
0.0391807
0.0411382
0.0431222
0.04513
0.0471588
0.0492056
0.0512675
0.0533411
0.0554235
0.0575123
0.000282613
0.000534851
0.00102014
0.00155251
0.00213195
0.00274297
0.00337641
0.00402785
0.00469779
0.00539149
0.00612034
0.00690202
0.00775564
0.00868583
0.00968478
0.0107457
0.0118649
0.0130401
0.0142702
0.0155544
0.0168919
0.0182819
0.0197236
0.0212164
0.0227591
0.0243505
0.0259891
0.0276736
0.0294022
0.031173
0.032984
0.034833
0.0367179
0.0386362
0.0405852
0.0425621
0.0445647
0.0465896
0.048634
0.0506947
0.0527685
0.0548517
0.0569394
0.000282847
0.000527895
0.00100195
0.00152139
0.00208744
0.00268558
0.0033069
0.0039471
0.0046061
0.00528853
0.0060046
0.00677043
0.00760486
0.00851493
0.00949389
0.010535
0.0116343
0.0127895
0.0139995
0.0152635
0.0165809
0.017951
0.019373
0.0208463
0.0223701
0.023943
0.025564
0.0272315
0.028944
0.0306998
0.0324968
0.0343331
0.0362065
0.0381144
0.0400545
0.0420243
0.0440207
0.0460408
0.048082
0.0501408
0.0522139
0.0542977
0.0563888
0.000283086
0.000521743
0.000985426
0.00149276
0.00204625
0.00263213
0.00324193
0.00387127
0.00451972
0.00519142
0.00589545
0.00664667
0.00746329
0.0083543
0.00931437
0.0103368
0.0114171
0.0125534
0.0137442
0.014989
0.0162872
0.0176381
0.0190412
0.0204958
0.0220012
0.0235564
0.02516
0.0268109
0.0285076
0.0302485
0.0320316
0.033855
0.0357166
0.0376141
0.039545
0.0415067
0.0434965
0.0455116
0.0475489
0.049605
0.0516767
0.0537596
0.055846
0.0002834
0.000516281
0.000970388
0.00146651
0.00200819
0.00258245
0.0031812
0.00380001
0.00443836
0.00509966
0.00579229
0.00652991
0.00733003
0.00820304
0.00914526
0.0101498
0.0112122
0.0123304
0.0135031
0.0147295
0.0160092
0.0173418
0.0187266
0.0201632
0.0216509
0.0231886
0.0247754
0.02641
0.0280913
0.0298173
0.0315866
0.0333971
0.0352469
0.0371337
0.039055
0.0410085
0.0429912
0.0450006
0.0470335
0.049087
0.0511579
0.0532436
0.0553449
0.000283764
0.000511443
0.000956728
0.00144238
0.00197293
0.00253619
0.00312432
0.00373304
0.00436156
0.00501297
0.00569479
0.00641963
0.00720426
0.00806027
0.00898541
0.00997284
0.0110183
0.0121192
0.0132745
0.0144834
0.0157456
0.0170604
0.0184278
0.0198469
0.0213174
0.0228383
0.0244086
0.0260274
0.0276933
0.0294049
0.0311604
0.0329581
0.0347959
0.0366718
0.0385834
0.0405283
0.0425038
0.044507
0.0465355
0.0485858
0.0506557
0.0527432
0.0548488
0.000284146
0.000507011
0.000944201
0.00142009
0.00194017
0.00249295
0.00307088
0.00366982
0.00428895
0.00493083
0.00560227
0.00631512
0.00708536
0.00792529
0.00883406
0.00980518
0.0108342
0.0119187
0.0130574
0.0142496
0.0154949
0.0167929
0.0181433
0.0195456
0.0209994
0.022504
0.0240583
0.0256615
0.0273125
0.0290096
0.0307516
0.0325364
0.0343624
0.0362274
0.0381291
0.0400652
0.0420331
0.04403
0.0460533
0.0481003
0.0501681
0.0522542
0.0543551
0.000284535
0.000503034
0.000932648
0.00139946
0.00190973
0.00245247
0.00302066
0.00361022
0.00422018
0.00485285
0.00551448
0.00621604
0.00697268
0.00779727
0.0086904
0.00964609
0.0106595
0.0117283
0.0128511
0.0140271
0.0152561
0.0165379
0.017872
0.019258
0.0206957
0.0221843
0.0237231
0.0253112
0.0269474
0.0286305
0.0303589
0.0321311
0.0339452
0.0357993
0.037691
0.0396182
0.0415782
0.0435685
0.0455866
0.0476296
0.0496946
0.0517789
0.0538787
0.000284938
0.000499445
0.000922098
0.00138038
0.0018813
0.00241457
0.00297346
0.00355397
0.00415505
0.00477887
0.00543105
0.00612177
0.00686556
0.00767561
0.00855381
0.00949461
0.0104931
0.0115468
0.0126543
0.0138149
0.0150284
0.0162943
0.0176127
0.0189831
0.0204051
0.0218784
0.023402
0.0249753
0.0265972
0.0282663
0.0299815
0.0317412
0.0335435
0.0353865
0.0372681
0.0391861
0.0411382
0.0431218
0.0451343
0.0471729
0.049235
0.0513183
0.0534211
0.000285327
0.000496209
0.000912437
0.00136275
0.00185481
0.00237897
0.00292893
0.00350074
0.00409334
0.00470858
0.00535164
0.00603213
0.00676376
0.00755991
0.00842374
0.00935023
0.0103344
0.0113737
0.0124665
0.0136123
0.0148106
0.0160615
0.0173647
0.0187199
0.0201269
0.0215851
0.023094
0.0246527
0.0262605
0.0279161
0.0296183
0.0313654
0.0331559
0.034988
0.0368596
0.0387684
0.0407124
0.0426889
0.0446955
0.0467295
0.0487885
0.0508704
0.0529748
0.000285759
0.000493339
0.000903526
0.00134633
0.00183008
0.00234561
0.00288692
0.00345033
0.00403473
0.00464165
0.00527599
0.00594664
0.00666674
0.00744957
0.00829967
0.00921237
0.0101828
0.0112081
0.0122869
0.0134184
0.0146023
0.0158386
0.0171271
0.0184676
0.0198599
0.0213035
0.0227981
0.0243427
0.0259367
0.0275789
0.0292681
0.031003
0.0327819
0.0346031
0.0364645
0.0383644
0.0403
0.0422693
0.0442696
0.0462986
0.0483537
0.0504319
0.0525295
0.000286211
0.000490722
0.000895316
0.00133106
0.00180689
0.00231421
0.0028473
0.00340264
0.00397901
0.0045779
0.0052038
0.00586505
0.0065741
0.00734434
0.00818118
0.00908068
0.0100379
0.0110498
0.012115
0.0132327
0.0144026
0.0156248
0.0168991
0.0182253
0.0196034
0.021033
0.0225134
0.0240444
0.0256248
0.0272539
0.0289305
0.0306532
0.0324206
0.034231
0.0360824
0.0379728
0.0399001
0.041862
0.0438559
0.0458797
0.0479301
0.0500045
0.0520995
0.000286644
0.000488281
0.000887686
0.00131688
0.00178521
0.00228466