/*--------------------------------*- C++ -*----------------------------------*\
| =========                 |                                                 |
| \\      /  F ield         | OpenFOAM: The Open Source CFD Toolbox           |
|  \\    /   O peration     | Version:  2.3.0                                 |
|   \\  /    A nd           | Web:      www.OpenFOAM.org                      |
|    \\/     M anipulation  |                                                 |
\*---------------------------------------------------------------------------*/
FoamFile
{
    version     2.0;
    format      ascii;
    class       surfaceScalarField;
    location    "2000";
    object      phi;
}
// * * * * * * * * * * * * * * * * * * * * * * * * * * * * * * * * * * * * * //

dimensions      [0 3 -1 0 0 0 0];

internalField   nonuniform List<scalar> 
76306
(
-0.000745848
-0.00695958
0.00760023
0.000105199
-0.001341
-0.00672176
0.00731691
-0.00189303
-0.00649219
0.00704422
-0.00240507
-0.00627063
0.00678267
-0.00287681
-0.00605848
0.00653021
-0.00331115
-0.00585348
0.00628782
-0.00370903
-0.00565646
0.00605434
-0.00407152
-0.00546766
0.00583015
-0.00440056
-0.00528503
0.00561407
-0.00469706
-0.00511003
0.00540653
-0.00496385
-0.00494056
0.00520734
-0.00519923
-0.004779
0.00501438
-0.00540809
-0.0046221
0.00483096
-0.00558799
-0.00447275
0.00465266
-0.00574214
-0.00432804
0.00448219
-0.00587149
-0.00418961
0.00431895
-0.00597707
-0.00405578
0.00416135
-0.00605963
-0.00392685
0.00400941
-0.00612078
-0.00380373
0.00386488
-0.00616209
-0.00368435
0.00372566
-0.0061841
-0.00356956
0.00359156
-0.00618768
-0.00345981
0.00346339
-0.00617532
-0.00335341
0.00334105
-0.00614799
-0.00325065
0.00322332
-0.00610595
-0.0031525
0.00311046
-0.00604998
-0.00305778
0.00300181
-0.00598366
-0.00296619
0.00289985
-0.00590869
-0.00287651
0.00280153
-0.0058243
-0.0027921
0.0027077
-0.00573382
-0.00270826
0.00261779
-0.00563813
-0.00262861
0.00253291
-0.00553661
-0.00255084
0.00244932
-0.00543365
-0.00247332
0.00237035
-0.00532965
-0.00239741
0.00229339
-0.00522255
-0.0023228
0.00221569
-0.00511701
-0.0022463
0.00214074
-0.00500911
-0.00216947
0.00206155
-0.00490197
-0.00208601
0.00197885
-0.00479344
-0.0019979
0.00188935
-0.00468738
-0.00189757
0.00179149
-0.00458451
-0.001785
0.00168212
-0.00449506
-0.00164793
0.00155845
-0.00147795
-0.00438763
0.0013705
-0.000683398
-0.00638291
0.000106724
-0.00122006
-0.0061851
-0.00171808
-0.00599416
-0.00217802
-0.00581069
-0.00260171
-0.00563479
-0.00299101
-0.00546417
-0.00334725
-0.00530023
-0.00367151
-0.00514339
-0.0039647
-0.00499184
-0.00422896
-0.00484577
-0.00446346
-0.00470606
-0.00467254
-0.00456992
-0.00485382
-0.00444082
-0.00501107
-0.0043155
-0.00514428
-0.00419483
-0.00525416
-0.00407972
-0.00534178
-0.00396816
-0.00540809
-0.00386054
-0.00545522
-0.00375661
-0.00548197
-0.0036576
-0.00549046
-0.00356107
-0.00548081
-0.00346946
-0.00545548
-0.00337875
-0.00541326
-0.00329287
-0.00535646
-0.00320931
-0.00528627
-0.00312796
-0.00520267
-0.00304979
-0.00510666
-0.00297251
-0.00500018
-0.00289858
-0.00488349
-0.00282496
-0.00475963
-0.00275247
-0.00462815
-0.00268232
-0.00449089
-0.00261058
-0.00434804
-0.00254026
-0.00420267
-0.00246817
-0.00405343
-0.00239555
-0.00390212
-0.00232078
-0.00374514
-0.00224299
-0.00358151
-0.00216154
-0.00340176
-0.00207732
-0.00319958
-0.00198718
-0.00295255
-0.00189497
-0.00179728
-0.00263322
-0.000624991
-0.00586229
0.000104378
-0.00110878
-0.00570131
-0.00155688
-0.00554607
-0.00197131
-0.00539625
-0.00235325
-0.00525285
-0.00270234
-0.00511508
-0.00302126
-0.0049813
-0.00331173
-0.00485293
-0.00357462
-0.00472894
-0.00380981
-0.00461058
-0.00401943
-0.00449644
-0.00420373
-0.00438563
-0.0043647
-0.00427985
-0.00450257
-0.00417762
-0.00461826
-0.00407914
-0.00471403
-0.00398395
-0.00478921
-0.00389298
-0.00484473
-0.00380502
-0.00488122
-0.00372012
-0.00490157
-0.00363725
-0.00490388
-0.00355877
-0.00489154
-0.00348179
-0.00486178
-0.00340851
-0.00481884
-0.00333581
-0.00476168
-0.00326647
-0.00469037
-0.00319927
-0.00460796
-0.0031322
-0.00451225
-0.00306822
-0.00440615
-0.00300469
-0.00428952
-0.00294159
-0.0041613
-0.00288069
-0.0040254
-0.00281822
-0.00387947
-0.00275651
-0.00372485
-0.00269488
-0.00356053
-0.00263249
-0.00338875
-0.00256733
-0.00320816
-0.00250136
-0.00301825
-0.0024329
-0.00281787
-0.00236192
-0.00260574
-0.00228945
-0.0023795
-0.00221342
-0.00213758
-0.00213688
-0.00205961
-0.00187525
-0.00056929
-0.00539269
9.96889e-05
-0.00100589
-0.00526471
-0.0014105
-0.00514145
-0.00178315
-0.0050236
-0.00212658
-0.00490942
-0.00244189
-0.00479976
-0.00272856
-0.00469464
-0.00298907
-0.00459242
-0.0032233
-0.00449471
-0.00343374
-0.00440014
-0.00362029
-0.0043099
-0.00378442
-0.0042215
-0.0039264
-0.00413787
-0.0040482
-0.00405582
-0.00415008
-0.00397727
-0.00423203
-0.003902
-0.00429609
-0.00382892
-0.004342
-0.00375911
-0.00437187
-0.00369025
-0.00438472
-0.0036244
-0.00438247
-0.00356102
-0.00436456
-0.0034997
-0.00433425
-0.00343883
-0.00428921
-0.00338084
-0.00423127
-0.00332441
-0.00416176
-0.00326878
-0.00407974
-0.00321422
-0.00398676
-0.0031612
-0.0038833
-0.00310815
-0.00376985
-0.00305504
-0.00364695
-0.00300359
-0.00351409
-0.00295108
-0.00337323
-0.00289737
-0.00322386
-0.00284425
-0.00306641
-0.00278994
-0.0029003
-0.00273344
-0.00272588
-0.00267578
-0.00254225
-0.00261652
-0.00234891
-0.00255526
-0.00214645
-0.00249191
-0.00193239
-0.00242749
-0.00170587
-0.0023634
-0.00229903
-0.00146645
-0.000517915
-0.00496751
9.27342e-05
-0.000912554
-0.00487007
-0.00127704
-0.00477697
-0.00161382
-0.00468682
-0.00192316
-0.00460009
-0.00220592
-0.00451701
-0.00246421
-0.00443634
-0.00269767
-0.00435897
-0.0029088
-0.00428358
-0.00309668
-0.00421226
-0.00326379
-0.00414278
-0.00340956
-0.00407573
-0.003537
-0.00401043
-0.00364401
-0.0039488
-0.00373298
-0.0038883
-0.00380482
-0.00383017
-0.00386043
-0.00377331
-0.00389962
-0.00371993
-0.00392345
-0.00366642
-0.00393196
-0.00361589
-0.00392695
-0.00356602
-0.00390902
-0.00351764
-0.00387656
-0.00347128
-0.00383253
-0.00342487
-0.00377688
-0.00338007
-0.00371005
-0.0033356
-0.00363172
-0.00329255
-0.00354372
-0.0032492
-0.00344534
-0.00320653
-0.0033374
-0.00316298
-0.00322036
-0.00312063
-0.00309525
-0.00307619
-0.00296114
-0.00303148
-0.00281866
-0.00298673
-0.00266897
-0.00293962
-0.0025107
-0.0028917
-0.00234605
-0.00284044
-0.00217275
-0.00278982
-0.00199194
-0.00273606
-0.00180245
-0.00268139
-0.00160417
-0.00262577
-0.00139783
-0.00256974
-0.0025143
-0.00118257
-0.000470805
-0.00458438
8.76722e-05
-0.000826639
-0.00451424
-0.00115633
-0.00444727
-0.00145999
-0.00438317
-0.00173881
-0.00432127
-0.00199401
-0.0042618
-0.00222648
-0.00420387
-0.00243672
-0.00414873
-0.00262551
-0.00409478
-0.00279503
-0.00404275
-0.0029449
-0.00399291
-0.00307558
-0.00394505
-0.00318791
-0.00389809
-0.00328344
-0.00385328
-0.00336284
-0.0038089
-0.00342572
-0.00376729
-0.00347294
-0.00372608
-0.00350675
-0.00368612
-0.00352582
-0.00364735
-0.00353193
-0.00360978
-0.00352533
-0.00357262
-0.00350547
-0.00353749
-0.00347507
-0.00350169
-0.00343234
-0.0034676
-0.00337969
-0.00343271
-0.00331588
-0.00339942
-0.00324206
-0.00336637
-0.00315962
-0.00333164
-0.00306709
-0.00329905
-0.0029659
-0.00326418
-0.00285707
-0.00322946
-0.00274017
-0.00319309
-0.00261457
-0.00315708
-0.00248295
-0.00311835
-0.00234333
-0.00307924
-0.00219714
-0.0030379
-0.00204277
-0.00299481
-0.00188287
-0.00294972
-0.00171492
-0.00290401
-0.00154062
-0.0028557
-0.00135888
-0.00280751
-0.00117071
-0.00275792
-0.00270951
-0.00097549
-0.000427168
-0.00423687
7.9662e-05
-0.000749025
-0.00419238
-0.00104627
-0.00415003
-0.00132103
-0.00410841
-0.00157291
-0.00406939
-0.00180333
-0.00403138
-0.00201219
-0.00399502
-0.00220194
-0.00395898
-0.00237243
-0.00392429
-0.00252409
-0.00389108
-0.00265767
-0.00385933
-0.00277519
-0.00382753
-0.0028761
-0.00379718
-0.0029613
-0.00376808
-0.003031
-0.0037392
-0.00308737
-0.00371092
-0.00312939
-0.00368405
-0.00315774
-0.00365777
-0.00317392
-0.00363117
-0.00317777
-0.00360593
-0.00316928
-0.00358112
-0.00315062
-0.00355614
-0.0031205
-0.00353181
-0.00308079
-0.00350732
-0.00303001
-0.00348349
-0.00297054
-0.00345889
-0.0029026
-0.00343431
-0.00282507
-0.00340917
-0.00274009
-0.00338403
-0.00264703
-0.00335725
-0.00254608
-0.0033304
-0.00243677
-0.0033024
-0.0023217
-0.00327214
-0.00219891
-0.00324115
-0.00206994
-0.00320821
-0.00193471
-0.00317312
-0.00179291
-0.00313662
-0.00164522
-0.00309741
-0.00149237
-0.00305686
-0.00133201
-0.00301605
-0.00116707
-0.00297245
-0.000995128
-0.00292986
-0.00288652
-0.000818116
-0.000387744
-0.00392246
7.33331e-05
-0.000678791
-0.00390133
-0.000947679
-0.00388114
-0.00119523
-0.00386086
-0.00142258
-0.00384204
-0.00163061
-0.00382334
-0.00181984
-0.00380579
-0.00199109
-0.00378773
-0.00214385
-0.00377153
-0.00228089
-0.00375405
-0.00240134
-0.00373888
-0.00250684
-0.00372203
-0.00259685
-0.00370717
-0.00267324
-0.00369169
-0.00273569
-0.00367675
-0.00278519
-0.00366142
-0.00282181
-0.00364743
-0.00284712
-0.00363246
-0.00286026
-0.00361803
-0.00286187
-0.00360432
-0.00285384
-0.00358914
-0.00283535
-0.00357463
-0.00280731
-0.00355985
-0.00276905
-0.00354558
-0.00272318
-0.00352937
-0.00266804
-0.00351402
-0.0026047
-0.00349765
-0.00253339
-0.00348048
-0.00245411
-0.00346332
-0.00236731
-0.00344404
-0.00227423
-0.00342348
-0.00217493
-0.00340171
-0.00206817
-0.0033789
-0.00195567
-0.00335365
-0.00183695
-0.00332693
-0.00171307
-0.003297
-0.00158353
-0.00326615
-0.00144799
-0.00323295
-0.00130778
-0.00319706
-0.00116253
-0.0031613
-0.0010108
-0.00312418
-0.000855338
-0.00308533
-0.00304701
-0.00069485
-0.000350945
-0.00363751
6.59953e-05
-0.000614191
-0.00363809
-0.000857431
-0.0036379
-0.00108162
-0.00363667
-0.00128785
-0.00363581
-0.00147561
-0.00363559
-0.0016461
-0.0036353
-0.00180018
-0.00363365
-0.00193925
-0.00363246
-0.00206207
-0.00363123
-0.00217166
-0.00362929
-0.0022653
-0.00362838
-0.00234682
-0.00362565
-0.00241519
-0.00362332
-0.00247138
-0.00362056
-0.00251513
-0.00361767
-0.00254762
-0.00361494
-0.00256913
-0.00361095
-0.00258017
-0.00360699
-0.00258174
-0.00360275
-0.00257336
-0.00359752
-0.00255502
-0.00359298
-0.00252862
-0.00358625
-0.00249417
-0.00358002
-0.00245076
-0.00357278
-0.00240005
-0.00356474
-0.00234094
-0.00355676
-0.00227543
-0.00354599
-0.00220339
-0.00353535
-0.0021243
-0.00352313
-0.00203895
-0.00350884
-0.00194631
-0.00349435
-0.00184844
-0.00347677
-0.001745
-0.00345708
-0.00163636
-0.00343557
-0.00152325
-0.00341011
-0.00140442
-0.00338498
-0.00128117
-0.0033562
-0.00115281
-0.00332542
-0.00102045
-0.00329366
-0.00088263
-0.003262
-0.000740397
-0.00322756
-0.000595113
-0.0031923
-0.00359317
-0.00135906
0.000564597
-0.00296424
-0.00132335
0.000694415
-0.00240833
-0.00132212
0.00076621
-0.00190293
-0.00133767
0.000832266
-0.00143853
-0.00136424
0.000899835
-0.00100888
-0.00139775
0.000968099
-0.000611449
-0.00143571
0.00103828
-0.000241992
-0.00147892
0.00110947
0.000102162
-0.00152647
0.00118232
0.000422169
-0.00157622
0.00125621
0.000721278
-0.00163028
0.00133117
0.000999382
-0.00168541
0.00140731
0.00125843
-0.00174445
0.0014854
0.00149859
-0.00180512
0.00156496
0.00172125
-0.00186945
0.00164679
0.00192619
-0.00193536
0.00173043
0.00211376
-0.00200368
0.00181611
0.00228479
-0.0020756
0.00190457
0.00243885
-0.00214946
0.0019954
0.0025758
-0.00222634
0.0020894
0.00269616
-0.00230595
0.00218559
0.00279852
-0.00238827
0.0022859
0.00288352
-0.00247488
0.00238988
0.00295111
-0.00256379
0.0024962
0.00299925
-0.00265576
0.00260762
0.00302873
-0.00275235
0.00272287
0.00303886
-0.00285217
0.00284204
0.00302977
-0.00295623
0.00296533
0.0029987
-0.0030637
0.00309476
0.0029471
-0.00317597
0.00322757
0.00287321
-0.00329235
0.00336625
0.00277576
-0.0034132
0.00351064
0.00265479
-0.00353933
0.00366031
0.00250867
-0.00366963
0.00381575
0.00233707
-0.00380603
0.00397762
0.00213884
-0.0039477
0.00414593
0.00191208
-0.00409425
0.00432101
0.00165728
-0.00424762
0.00450242
0.00137238
-0.00440637
0.00469127
0.00105579
-0.00457138
0.00488796
0.000706605
-0.00474282
0.005092
0.000324135
-0.00492192
0.00530439
-0.00510746
0.00552485
-9.32519e-05
-0.00225468
-0.00173761
-0.00186303
-0.001715
-0.00148203
-0.00170312
-0.00111795
-0.00170175
-0.000773583
-0.0017086
-0.000449644
-0.00172169
-0.000144328
-0.00174103
0.000144178
-0.00176743
0.000416044
-0.00179834
0.000671488
-0.00183166
0.000911983
-0.00187078
0.00113809
-0.00191152
0.00134951
-0.00195586
0.00154794
-0.00200354
0.00173218
-0.0020537
0.00190243
-0.00210561
0.00205988
-0.00216114
0.0022026
-0.00221832
0.00233172
-0.00227858
0.00244651
-0.00234112
0.00254718
-0.00240663
0.00263284
-0.00247392
0.00270257
-0.00254461
0.00275697
-0.00261819
0.00279576
-0.00269455
0.00281713
-0.00277372
0.00282082
-0.00285586
0.00280662
-0.00294203
0.00277391
-0.00303099
0.00272156
-0.00312362
0.00264961
-0.0032204
0.00255708
-0.00332067
0.00244237
-0.00342461
0.00230577
-0.00353303
0.00214566
-0.00364592
0.00196093
-0.00376297
0.00175164
-0.00388496
0.00151563
-0.00401161
0.00125229
-0.00414303
0.000961099
-0.00428018
0.000640608
-0.00442233
0.000289159
-0.00457048
-0.00472426
-9.40421e-05
-0.00159937
-0.00201349
-0.00131885
-0.00199552
-0.00103745
-0.00198452
-0.000760152
-0.00197904
-0.000490407
-0.00197835
-0.000228087
-0.00198401
2.55781e-05
-0.00199469
0.000268896
-0.00201074
0.000499866
-0.00202931
0.000721403
-0.0020532
0.000930273
-0.00207965
0.00112933
-0.00211057
0.00131629
-0.00214283
0.00149179
-0.00217904
0.00165504
-0.00221694
0.00180649
-0.00225706
0.00194628
-0.00230092
0.00207326
-0.0023453
0.00218792
-0.00239325
0.00228932
-0.00244252
0.00237786
-0.00249517
0.00245257
-0.00254863
0.00251364
-0.00260569
0.00256027
-0.00266482
0.00259136
-0.00272564
0.0026076
-0.00278995
0.00260854
-0.0028568
0.00259202
-0.00292552
0.00255918
-0.00299815
0.00250888
-0.00307332
0.00244
-0.00315152
0.00235241
-0.00323308
0.00224497
-0.00331718
0.00211737
-0.00340543
0.00196863
-0.00349718
0.00179778
-0.00359212
0.00160399
-0.00369117
0.00138628
-0.00379389
0.00114429
-0.00390104
0.000876115
-0.00401201
0.000581948
-0.00412816
0.000259529
-0.00424806
-0.00437348
-9.12531e-05
-0.00122257
-0.00225737
-0.000976712
-0.00224138
-0.000734594
-0.00222663
-0.000496968
-0.00221667
-0.000264355
-0.00221096
-3.87813e-05
-0.00220958
0.000178988
-0.00221246
0.000387612
-0.00221937
0.000589041
-0.00223074
0.000780573
-0.00224473
0.000963459
-0.00226253
0.00113537
-0.00228248
0.00129889
-0.00230636
0.0014518
-0.00233195
0.00159454
-0.00235968
0.0017272
-0.00238973
0.00184839
-0.00242212
0.00195964
-0.00245655
0.00205916
-0.00249276
0.00214764
-0.00253101
0.0022238
-0.00257132
0.00228813
-0.00261296
0.00233949
-0.00265704
0.00237779
-0.00270312
0.00240354
-0.00275139
0.00241498
-0.0028014
0.00241177
-0.00285359
0.00239446
-0.00290821
0.00236109
-0.00296477
0.00231236
-0.00302459
0.00224663
-0.00308579
0.00216344
-0.00314989
0.00206359
-0.00321732
0.00194449
-0.00328634
0.00180614
-0.00335883
0.00164789
-0.00343387
0.00146922
-0.0035125
0.00126883
-0.0035935
0.00104591
-0.00367812
0.000800211
-0.00376631
0.000529883
-0.00385783
0.000234111
-0.00395228
-0.00405155
-8.78224e-05
-0.000963359
-0.00247657
-0.00074799
-0.00245675
-0.000535393
-0.00243923
-0.000327343
-0.00242472
-0.000124626
-0.00241368
7.28753e-05
-0.00240708
0.000263774
-0.00240336
0.000447613
-0.00240321
0.000624003
-0.00240713
0.000793308
-0.00241403
0.000953822
-0.00242305
0.00110743
-0.00243608
0.00125102
-0.00244995
0.00138658
-0.0024675
0.00151258
-0.00248568
0.00163056
-0.0025077
0.00173787
-0.00252943
0.00183613
-0.00255481
0.00192403
-0.00258067
0.00200144
-0.00260842
0.00206783
-0.00263772
0.00212408
-0.00266921
0.00216877
-0.00270174
0.00220117
-0.00273551
0.00222185
-0.00277207
0.00222969
-0.00280924
0.00222495
-0.00284884
0.00220647
-0.00288974
0.00217464
-0.00293293
0.00212729
-0.00297724
0.00206578
-0.00302429
0.00198863
-0.00307274
0.00189488
-0.00312358
0.00178454
-0.003176
0.00165678
-0.00323107
0.00151094
-0.00328803
0.00134606
-0.00334762
0.00116134
-0.00340878
0.000957163
-0.00347394
0.000731035
-0.00354019
0.000482484
-0.00360928
0.000212238
-0.00368204
-0.003757
-8.23123e-05
-0.000778629
-0.00267343
-0.000585416
-0.00264996
-0.000395403
-0.00262924
-0.000210003
-0.00261012
-2.89392e-05
-0.00259474
0.000145705
-0.00258173
0.000315207
-0.00257286
0.000479212
-0.00256721
0.000636526
-0.00256444
0.000786157
-0.00256366
0.000929895
-0.00256678
0.00106548
-0.00257166
0.00119351
-0.00257798
0.00131368
-0.00258767
0.00142714
-0.00259915
0.00153026
-0.00261082
0.00162683
-0.00262599
0.00171332
-0.0026413
0.00179072
-0.00265807
0.00185948
-0.00267718
0.00191832
-0.00269655
0.0019672
-0.00271809
0.00200528
-0.00273982
0.00203353
-0.00276377
0.00205006
-0.00278859
0.00205572
-0.0028149
0.00204948
-0.0028426
0.00203139
-0.00287164
0.00199977
-0.00290132
0.00195599
-0.00293346
0.00189789
-0.00296618
0.00182599
-0.00300083
0.00173884
-0.00303643
0.00163676
-0.00307392
0.00151892
-0.00311323
0.00138421
-0.00315331
0.00123227
-0.00319568
0.00106339
-0.0032399
0.000874909
-0.00328546
0.000667703
-0.00333298
0.000440613
-0.00338219
0.000192312
-0.00343374
-0.00348783
-7.68549e-05
-0.000640971
-0.00285058
-0.000466067
-0.00282487
-0.000295232
-0.00280008
-0.000128958
-0.00277639
3.24011e-05
-0.0027561
0.000190039
-0.00273936
0.000342212
-0.00272503
0.000488039
-0.00271304
0.000628553
-0.00270496
0.000763425
-0.00269854
0.000891752
-0.00269511
0.00101262
-0.00269253
0.00112791
-0.00269328
0.00123598
-0.00269574
0.00133546
-0.00269862
0.00142943
-0.0027048
0.00151437
-0.00271093
0.00159185
-0.00271878
0.00166115
-0.00272737
0.0017216
-0.00273762
0.00177384
-0.0027488
0.0018166
-0.00276085
0.00185054
-0.00277375
0.00187443
-0.00278766
0.00188874
-0.0028029
0.00189217
-0.00281834
0.00188508
-0.00283552
0.00186697
-0.00285353
0.00183765
-0.00287199
0.00179552
-0.00289133
0.00174186
-0.00291252
0.00167462
-0.00293359
0.00159427
-0.00295609
0.0015
-0.00297965
0.00139129
-0.00300452
0.0012678
-0.00302983
0.00112845
-0.00305632
0.000972737
-0.00308419
0.00080031
-0.00311303
0.000610487
-0.00314316
0.000402618
-0.00317432
0.000175629
-0.00320675
-0.00324078
-7.14214e-05
-0.00053301
-0.00301242
-0.000375809
-0.00298207
-0.000221691
-0.0029542
-7.1381e-05
-0.0029267
7.42298e-05
-0.00290171
0.000214979
-0.00288011
0.000351506
-0.00286156
0.000483742
-0.00284527
0.000610325
-0.00283154
0.000731009
-0.00281922
0.000845839
-0.00280994
0.000955131
-0.00280182
0.00105797
-0.00279612
0.00115458
-0.00279235
0.0012452
-0.00278925
0.00132861
-0.00278821
0.00140499
-0.0027873
0.00147368
-0.00278748
0.00153598
-0.00278967
0.00159015
-0.00279179
0.00163676
-0.00279541
0.00167458
-0.00279867
0.00170404
-0.00280322
0.00172472
-0.00280833
0.00173651
-0.00281469
0.00173907
-0.00282089
0.00173154
-0.00282799
0.00171395
-0.00283594
0.00168595
-0.00284399
0.0016472
-0.00285258
0.00159642
-0.00286175
0.00153473
-0.0028719
0.00146061
-0.00288197
0.00137401
-0.00289306
0.0012738
-0.00290431
0.00116016
-0.00291618
0.00103256
-0.00292872
0.000890002
-0.00294164
0.000732041
-0.00295507
0.000558196
-0.00296931
0.000367667
-0.00298379
0.000160284
-0.00299936
-0.00301557
-6.49251e-05
-0.000449578
-0.00315795
-0.000306936
-0.00312471
-0.000167788
-0.00309335
-3.15048e-05
-0.00306299
9.99993e-05
-0.00303321
0.000226725
-0.00300684
0.000349334
-0.00298417
0.000468115
-0.00296405
0.00058238
-0.0029458
0.000691454
-0.0029283
0.000794603
-0.00291309
0.000892984
-0.0029002
0.000985846
-0.00288898
0.00107347
-0.00287997
0.00115487
-0.00287064
0.00122919
-0.00286253
0.00129763
-0.00285574
0.00136031
-0.00285016
0.00141638
-0.00284574
0.00146524
-0.00284065
0.00150617
-0.00283634
0.0015401
-0.00283261
0.00156622
-0.00282933
0.00158479
-0.0028269
0.00159437
-0.00282428
0.00159605
-0.00282257
0.00158855
-0.00282048
0.00157142
-0.00281882
0.00154547
-0.00281804
0.00150944
-0.00281655
0.00146277
-0.00281508
0.00140551
-0.00281463
0.00133739
-0.00281384
0.00125794
-0.00281361
0.00116594
-0.0028123
0.00106143
-0.00281167
0.000944035
-0.00281133
0.000813415
-0.00281102
0.000669272
-0.00281093
0.000510043
-0.00281008
0.000336017
-0.00280977
0.000146087
-0.00280943
-5.93711e-05
-0.00281011
-0.000305187
0.00598324
-0.00652168
0.000843629
0.000189424
0.00574824
-0.00624285
0.000641365
0.00552129
-0.00597323
0.00105285
0.00530211
-0.00571359
0.00142421
0.00509107
-0.00546243
0.00175854
0.00488648
-0.0052208
0.00205566
0.00468924
-0.00498636
0.0023178
0.0044984
-0.00476055
0.00254635
0.00431413
-0.00454268
0.0027425
0.00413609
-0.00433223
0.00290785
0.00396353
-0.00412888
0.00304331
0.00379754
-0.003933
0.00315061
0.00363633
-0.00374362
0.00323101
0.00348094
-0.00356134
0.00328615
0.00333051
-0.00338565
0.00331743
0.00318521
-0.00321649
0.00332585
0.00304452
-0.00305293
0.00331307
0.00290908
-0.0028963
0.0032805
0.00277796
-0.00274538
0.00322982
0.00265109
-0.00260042
0.00316204
0.00252865
-0.00246087
0.00307846
0.00241057
-0.00232698
0.00298008
0.00229665
-0.00219827
0.00286925
0.00218608
-0.00207525
0.00274663
0.00207977
-0.00195715
0.00261352
0.00197663
-0.00184353
0.00247201
0.00187692
-0.00173541
0.00232208
0.00178115
-0.00163123
0.0021659
0.00168763
-0.00153144
0.00200437
0.00159761
-0.00143608
0.00183863
0.00151015
-0.00134442
0.00166997
0.00142499
-0.00125632
0.00149922
0.00134268
-0.00117194
0.00132863
0.00126151
-0.00109092
0.0011591
0.00118212
-0.00101258
0.000991366
0.00110424
-0.000936511
0.000826767
0.00102698
-0.00086238
0.000667264
0.000949238
-0.000789735
0.000514707
0.000870144
-0.000717588
0.000369932
0.000788396
-0.000643621
0.00023087
0.000704803
-0.000565741
7.65873e-05
0.000635797
-0.000481515
0.000713436
-0.00023564
-0.000401209
-0.000283814
0.00549616
0.000770894
0.000163396
0.00530103
0.000572856
0.00511183
0.000944899
0.00493007
0.00128261
0.00475335
0.00158581
0.00458328
0.00185636
0.0044187
0.00209553
0.00425923
0.00230427
0.00410538
0.00248467
0.00395569
0.00263645
0.00381174
0.00276245
0.00367154
0.00286289
0.00353589
0.00293964
0.00340419
0.00299283
0.00327733
0.00302464
0.0031534
0.00303553
0.00303363
0.00302769
0.00291691
0.0030012
0.00280445
0.00295756
0.00269474
0.00289825
0.00258796
0.00282406
0.00248476
0.00273681
0.0023839
0.00263691
0.00228598
0.00252582
0.00219086
0.00240438
0.00209807
0.00227405
0.00200725
0.00213639
0.00191881
0.0019914
0.00183262
0.00184146
0.00174755
0.00168666
0.00166495
0.00152876
0.00158289
0.001369
0.00150245
0.00120779
0.00142271
0.00104686
0.00134305
0.000887857
0.00126325
0.000731712
0.00118312
0.000579884
0.00110107
0.000434214
0.00101581
0.000294412
0.000928199
0.000155788
0.000843427
-1.29995e-05
0.000804584
0.000989571
-0.000289134
-0.000263685
0.00505588
0.000703969
0.000141621
0.00489572
0.000512042
0.00474141
0.000850069
0.00459204
0.00115554
0.00444788
0.00143079
0.00430802
0.00167688
0.0041726
0.00189421
0.00404191
0.0020853
0.00391429
0.00224965
0.00379134
0.00238929
0.0036721
0.00250501
0.00355583
0.00259806
0.00344284
0.0026691
0.00333314
0.00271968
0.00322675
0.00275049
0.00312259
0.0027625
0.00302162
0.00275671
0.0029227
0.0027348
0.00282636
0.00269671
0.00273282
0.0026441
0.00264057
0.00257831
0.00255055
0.00249961
0.0024626
0.00240934
0.00237625
0.00230848
0.00229172
0.00219835
0.0022082
0.00207909
0.00212651
0.00195234
0.00204556
0.0018196
0.00196537
0.00168053
0.00188662
0.00153746
0.00180802
0.00139078
0.00172957
0.00124189
0.00165133
0.00109192
0.00157269
0.000941746
0.00149322
0.000792438
0.00141256
0.000646073
0.00132949
0.000503924
0.00124321
0.000366536
0.0011532
0.00023384
0.00106089
9.77208e-05
0.000979546
-7.46237e-05
0.000976929
0.00124087
-0.000325921
-0.00024356
0.00465687
0.000642567
0.000122775
0.00452939
0.000458522
0.00440566
0.000764436
0.00428613
0.00104153
0.00417079
0.00129123
0.00405833
0.00151444
0.00394939
0.00171258
0.00384376
0.00188601
0.00374086
0.00203598
0.00364137
0.00216358
0.00354449
0.00226992
0.00344949
0.00235538
0.00335737
0.00242116
0.00326737
0.00246843
0.00317948
0.00249772
0.0030933
0.00251019
0.00300915
0.00250674
0.00292616
0.0024875
0.0028456
0.00245473
0.0027656
0.00240823
0.00268708
0.00234887
0.00260991
0.00227819
0.00253327
0.00219669
0.00245776
0.00210522
0.00238318
0.00200501
0.00230841
0.00189655
0.00223497
0.00178068
0.00216143
0.00165868
0.00208737
0.00153117
0.00201413
0.00139955
0.00193964
0.00126453
0.00186459
0.0011267
0.00178916
0.000987738
0.00171165
0.000848248
0.00163271
0.000710188
0.00155062
0.000574359
0.00146532
0.000441774
0.0013758
0.000313737
0.00128124
0.000189062
0.00118557
5.77122e-05
0.0011109
-0.000110132
0.00114477
0.00146963
-0.000338899
-0.000225492
0.00429567
0.000586689
0.000106525
0.00419737
0.000410782
0.00410141
0.000687759
0.00400915
0.000939415
0.00391913
0.00116641
0.00383133
0.00136895
0.00374686
0.00154892
0.00366379
0.00170686
0.00358293
0.00184365
0.00350458
0.00196065
0.00342749
0.00205772
0.00335242
0.00213663
0.00327847
0.00219738
0.00320661
0.0022415
0.00313536
0.00226946
0.00306533
0.00228178
0.00299683
0.00227919
0.00292875
0.00226346
0.00286132
0.0022343
0.00279476
0.00219283
0.00272855
0.00214013
0.00266261
0.00207626
0.00259714
0.00200269
0.00253134
0.00192011
0.00246576
0.00182864
0.00239988
0.00173004
0.00233357
0.00162447
0.002267
0.00151241
0.00219942
0.00139592
0.00213062
0.00127481
0.00206075
0.00115031
0.00198909
0.00102372
0.00191575
0.000895338
0.00184003
0.000766746
0.00176131
0.000639062
0.0016783
0.000513028
0.00159135
0.000390511
0.00149832
0.000271825
0.00139992
0.000155339
0.00130206
3.09387e-05
0.0012353
-0.000129106
0.00130482
0.00167914
-0.000338615
-0.000208311
0.00396864
0.000535342
9.27227e-05
0.00389634
0.00036799
0.00382614
0.000619744
0.0037574
0.000848277
0.0036906
0.00105355
0.00362605
0.00123821
0.0035622
0.00140188
0.00350012
0.00154556
0.00343925
0.00167079
0.00337936
0.00177737
0.0033209
0.0018665
0.00326329
0.0019385
0.00320647
0.00199458
0.00315054
0.00203566
0.00309428
0.0020615
0.00303949
0.00207375
0.00298457
0.00207269
0.00292981
0.00205891
0.0028751
0.0020331
0.00282057
0.00199628
0.00276537
0.00194881
0.00271008
0.00189134
0.00265461
0.0018249
0.00259777
0.00174982
0.00254085
0.00166706
0.00248265
0.00157699
0.00242364
0.00148062
0.00236337
0.00137895
0.00230109
0.00127204
0.00223752
0.00116087
0.00217192
0.00104655
0.00210341
0.000929934
0.00203237
0.000812109
0.00195785
0.000693777
0.00187964
0.000575541
0.00179654
0.000459764
0.00170713
0.00034693
0.00161115
0.000237335
0.00150952
0.000128541
0.00141085
1.13769e-05
0.00135246
-0.000138808
0.001455
0.00187166
-0.000331329
-0.000192179
0.00367262
0.000488203
8.05272e-05
0.00362363
0.00033077
0.0035759
0.000558725
0.00352944
0.000765685
0.00348364
0.00095296
0.00343878
0.00112023
0.00339493
0.00126902
0.00335133
0.00140017
0.0033081
0.00151362
0.0032659
0.00161103
0.0032235
0.00169253
0.00318179
0.00175881
0.00314018
0.00181081
0.00309854
0.00184804
0.00305704
0.00187269
0.00301485
0.00188465
0.00297261
0.00188449
0.00292998
0.0018727
0.00288689
0.00185015
0.00284311
0.00181675
0.00279877
0.00177386
0.00275298
0.00172239
0.00270608
0.00166199
0.00265817
0.00159397
0.00260886
0.00151893
0.00255769
0.0014374
0.00250517
0.00134974
0.00245102
0.00125664
0.00239419
0.00115892
0.00233524
0.00105761
0.00227323
0.000953023
0.002208
0.000846259
0.00213914
0.000737928
0.00206618
0.000628978
0.00198859
0.000520529
0.00190499
0.000413665
0.00181399
0.000310029
0.00171479
0.000209698
0.00160985
0.000109819
0.00151073
4.2286e-08
0.00146224
-0.000142575
0.00159762
0.0020503
-0.000321211
-0.000176401
0.0034039
0.000445115
7.04807e-05
0.00337675
0.000297135
0.00334924
0.000503941
0.00332263
0.000692265
0.00329531
0.000861504
0.00326954
0.00101391
0.00324252
0.00114928
0.00321597
0.00126842
0.00318896
0.00137205
0.00316227
0.00146065
0.00313491
0.00153504
0.0031074
0.00159608
0.00307914
0.0016434
0.00305122
0.00167828
0.00302217
0.00170091
0.00299222
0.00171208
0.00296144
0.00171256
0.00292949
0.0017024
0.00289705
0.00168196
0.00286355
0.0016525
0.00282822
0.00161383
0.00279165
0.00156716
0.00275275
0.0015125
0.00271284
0.00145081
0.00267055
0.00138259
0.0026259
0.00130801
0.00257975
0.00122837
0.00253067
0.00114373
0.00247883
0.00105416
0.00242481
0.000960617
0.00236678
0.000865596
0.00230302
0.000768432
0.0022363
0.000668825
0.00216579
0.000569518
0.00208789
0.000469357
0.00200515
0.000371283
0.00191207
0.000276145
0.00180993
0.000184183
0.00170181
9.18853e-05
0.00160303
-1.11604e-05
0.00156528
-0.000145414
0.00173187
0.00221301
-0.000308126
-0.000162896
0.000406584
0.00316021
6.14195e-05
0.00315243
0.000266777
0.00314389
0.000455324
0.00313409
0.00062586
0.00312478
0.000780285
0.00311511
0.000918331
0.00310448
0.00104142
0.00309287
0.00114984
0.00308055
0.00124476
0.00306734
0.00132559
0.00305408
0.00139342
0.00303956
0.00144894
0.00302362
0.00149311
0.00300705
0.00152508
0.0029902
0.00154563
0.00297167
0.00155632
0.00295076
0.00155724
0.00292857
0.00154898
0.00290531
0.00153109
0.00288145
0.00150373
0.00285557
0.00146913
0.00282625
0.00142631
0.00279557
0.00137701
0.00276214
0.00132144
0.00272612
0.00126006
0.00268728
0.00119318
0.00264662
0.00112171
0.00260214
0.00104584
0.0025547
0.000964181
0.00250647
0.000877619
0.00245334
0.000789807
0.00239083
0.000701573
0.00232453
0.000610332
0.00225703
0.000519663
0.00217856
0.000427293
0.00209752
0.000336031
0.00200333
0.000249666
0.00189629
0.000170163
0.00178132
9.0976e-05
0.00168221
-2.90062e-06
0.00165916
-0.000140823
0.0018698
-0.000300606
0.0023728
-0.000493982
0.00116078
-0.000902438
-0.000789217
0.00136496
-0.00106972
-0.00108943
0.00148224
-0.00118203
-0.00138946
0.0015716
-0.00127156
-0.00168421
0.00164825
-0.0013535
-0.00197211
0.00172014
-0.00143224
-0.00225215
0.00178865
-0.00150861
-0.00252214
0.0018558
-0.00158582
-0.00278248
0.00192341
-0.00166306
-0.00303161
0.00199032
-0.00174119
-0.0032682
0.00205838
-0.0018218
-0.00349211
0.00212715
-0.00190324
-0.0037024
0.00219741
-0.00198712
-0.00389849
0.00226918
-0.00207309
-0.0040803
0.0023428
-0.00216099
-0.00424609
0.00241724
-0.00225145
-0.00439617
0.00249447
-0.00234439
-0.00452888