/*--------------------------------*- C++ -*----------------------------------*\
| =========                 |                                                 |
| \\      /  F ield         | OpenFOAM: The Open Source CFD Toolbox           |
|  \\    /   O peration     | Version:  2.3.0                                 |
|   \\  /    A nd           | Web:      www.OpenFOAM.org                      |
|    \\/     M anipulation  |                                                 |
\*---------------------------------------------------------------------------*/
FoamFile
{
    version     2.0;
    format      ascii;
    class       volVectorField;
    location    "2000";
    object      U;
}
// * * * * * * * * * * * * * * * * * * * * * * * * * * * * * * * * * * * * * //

dimensions      [0 1 -1 0 0 0 0];

internalField   nonuniform List<vector> 
38323
(
(22.2867 5.49674 4.19376e-21)
(22.289 5.59853 -3.66679e-21)
(22.2936 5.69474 -5.48833e-21)
(22.298 5.79284 5.90365e-22)
(22.3025 5.89247 -5.00159e-21)
(22.3069 5.99384 0)
(22.3112 6.09711 -9.32131e-21)
(22.3156 6.20252 9.21625e-21)
(22.32 6.31026 8.09582e-21)
(22.3246 6.42055 -1.41102e-20)
(22.3293 6.53363 1.87432e-20)
(22.3344 6.64971 0)
(22.3397 6.76914 3.43533e-21)
(22.3452 6.89217 -4.54641e-20)
(22.351 7.01923 -4.1106e-21)
(22.3571 7.15074 4.65866e-20)
(22.3634 7.28722 0)
(22.3697 7.42927 -5.71148e-21)
(22.3761 7.57766 0)
(22.3826 7.73322 0)
(22.389 7.89694 7.50964e-21)
(22.3953 8.07004 8.35886e-20)
(22.4013 8.25389 -8.84808e-20)
(22.4071 8.45 4.90023e-21)
(22.4124 8.66023 1.05998e-19)
(22.4171 8.88668 -1.19546e-19)
(22.4209 9.13172 -1.18347e-19)
(22.4233 9.39776 1.27936e-19)
(22.4238 9.68763 0)
(22.4211 10.0045 0)
(22.4134 10.3515 8.83395e-21)
(22.3982 10.7317 0)
(22.3704 11.1485 -1.02057e-20)
(22.3231 11.604 0)
(22.2453 12.0999 -4.06614e-20)
(22.1194 12.6363 8.20762e-20)
(21.9197 13.2094 6.03737e-21)
(21.6051 13.8122 5.93754e-21)
(21.1152 14.4233 -3.83572e-20)
(20.362 15.011 4.05577e-20)
(19.2166 15.5734 3.23974e-21)
(17.4864 16.1389 1.23685e-19)
(14.9726 16.3153 -1.66086e-19)
(22.1818 5.50593 0)
(22.1804 5.59681 8.33575e-22)
(22.1794 5.68535 -6.79279e-22)
(22.1777 5.77539 0)
(22.1756 5.8668 -1.45887e-22)
(22.1729 5.95971 9.00919e-22)
(22.1695 6.05427 -1.3214e-21)
(22.1656 6.1507 -3.96532e-21)
(22.1611 6.24916 3.91898e-21)
(22.156 6.34985 -9.80204e-22)
(22.1503 6.45294 5.38572e-21)
(22.1439 6.55864 1.00277e-20)
(22.137 6.66713 -1.11438e-20)
(22.1292 6.77866 -2.31834e-21)
(22.1206 6.89344 0)
(22.111 7.01173 2.95431e-20)
(22.1003 7.1338 3.2365e-21)
(22.088 7.25994 -2.72837e-20)
(22.0739 7.39051 0)
(22.0577 7.52592 0)
(22.0388 7.66661 -7.49855e-21)
(22.0168 7.81315 -5.38281e-20)
(21.9909 7.96613 5.02911e-20)
(21.9603 8.12624 6.02226e-20)
(21.924 8.29438 -6.39061e-20)
(21.8809 8.47154 -3.91814e-20)
(21.8296 8.65888 4.65289e-20)
(21.7683 8.85754 4.67238e-20)
(21.695 9.0691 -4.46789e-20)
(21.6073 9.29505 3.70452e-21)
(21.5021 9.5369 -8.61111e-21)
(21.3759 9.7965 3.9212e-21)
(21.2242 10.0749 9.83397e-21)
(21.0417 10.3731 0)
(20.8225 10.691 3.15642e-20)
(20.5593 11.0266 -3.27995e-20)
(20.2443 11.3757 -5.59236e-21)
(19.8692 11.729 -7.5804e-21)
(19.4258 12.0706 3.4618e-21)
(18.9095 12.3756 -1.47557e-21)
(18.3216 12.6074 -2.71138e-21)
(17.6683 12.7016 0)
(16.9593 12.5499 2.50515e-19)
(22.0911 5.50931 -4.47732e-21)
(22.0852 5.59103 -9.68508e-22)
(22.0798 5.67219 4.5267e-22)
(22.0738 5.75483 -1.24087e-21)
(22.0673 5.83874 -3.40995e-21)
(22.0599 5.92399 3.79353e-21)
(22.0517 6.01074 -1.01116e-21)
(22.0425 6.09915 -4.80518e-21)
(22.0324 6.18938 0)
(22.0213 6.28161 9.83472e-22)
(22.0092 6.37603 0)
(21.9961 6.47279 -1.01164e-21)
(21.9818 6.5721 -1.90145e-21)
(21.9664 6.6742 -3.71195e-21)
(21.9496 6.77926 2.164e-21)
(21.9314 6.88754 -1.65029e-22)
(21.9116 6.99929 -2.21658e-23)
(21.8898 7.11477 0)
(21.8658 7.23427 -2.41593e-22)
(21.8393 7.35809 -3.59671e-22)
(21.8099 7.48656 0)
(21.7771 7.62006 -5.55687e-22)
(21.7403 7.7589 -6.25301e-22)
(21.6987 7.90344 0)
(21.6514 8.05405 -2.65115e-21)
(21.5975 8.21113 0)
(21.5354 8.37499 0)
(21.4638 8.5459 0)
(21.3809 8.72416 -3.47701e-21)
(21.2844 8.90967 -1.01347e-20)
(21.1718 9.10227 1.11537e-20)
(21.0401 9.30149 -8.54547e-21)
(20.8857 9.50604 0)
(20.7046 9.71428 0)
(20.4924 9.92344 3.75002e-21)
(20.2441 10.1293 -3.88405e-21)
(19.9548 10.3261 0)
(19.6198 10.5059 -7.62065e-21)
(19.2357 10.6582 0)
(18.8014 10.7704 0)
(18.3203 10.8271 1.65249e-20)
(17.8027 10.8104 0)
(17.2729 10.7023 0)
(22.0083 5.50494 -6.52418e-21)
(21.9995 5.58038 1.18579e-20)
(21.9908 5.65504 0)
(21.9816 5.73089 6.77445e-21)
(21.9718 5.80782 4.2096e-21)
(21.961 5.8859 -9.96047e-21)
(21.9491 5.9653 4.87864e-22)
(21.936 6.04616 3.02596e-21)
(21.9218 6.12863 -3.84909e-21)
(21.9063 6.21286 -7.68235e-22)
(21.8896 6.29903 5.15619e-22)
(21.8715 6.38723 5.01282e-22)
(21.8519 6.47765 6.55943e-21)
(21.8308 6.57047 -2.08961e-21)
(21.8079 6.66584 0)
(21.7832 6.76394 1.66522e-22)
(21.7563 6.86497 5.61683e-21)
(21.7271 6.96912 -8.93261e-21)
(21.6952 7.07657 3.626e-21)
(21.6601 7.18751 3.63783e-22)
(21.6216 7.30222 0)
(21.579 7.42095 5.62556e-22)
(21.5319 7.54389 3.27412e-21)
(21.4795 7.67123 -7.66922e-21)
(21.4209 7.80317 2.90466e-21)
(21.3553 7.9399 0)
(21.2815 8.08144 0)
(21.198 8.22793 0)
(21.1035 8.3793 -1.98389e-21)
(20.9963 8.53516 7.73116e-21)
(20.8745 8.69514 -1.27623e-20)
(20.7361 8.85839 7.40355e-21)
(20.5786 9.02334 -1.24386e-20)
(20.3998 9.18821 9.73402e-21)
(20.1972 9.35039 2.26921e-21)
(19.9685 9.50594 -6.77289e-21)
(19.712 9.64994 2.1042e-21)
(19.4264 9.77622 3.33268e-21)
(19.1123 9.87712 -1.36096e-20)
(18.772 9.944 0)
(18.411 9.96744 -1.63871e-20)
(18.0381 9.93875 -1.18828e-19)
(17.6674 9.85191 -1.4305e-20)
(21.933 5.49729 -8.9324e-21)
(21.9224 5.5671 2.04929e-21)
(21.9117 5.63572 -2.03629e-21)
(21.9004 5.70542 -5.8395e-21)
(21.8884 5.77605 -5.18836e-21)
(21.8754 5.84764 2.05649e-21)
(21.8611 5.92044 9.80453e-21)
(21.8456 5.99456 -1.7306e-20)
(21.8288 6.07015 6.55282e-21)
(21.8106 6.14733 -2.52472e-21)
(21.791 6.2263 -3.62335e-21)
(21.7699 6.30709 0)
(21.7472 6.3899 1.14459e-20)
(21.7228 6.47486 -9.30692e-21)
(21.6964 6.56214 7.64628e-21)
(21.6681 6.65189 -2.21804e-20)
(21.6376 6.74424 9.17289e-21)
(21.6047 6.83937 1.88236e-21)
(21.569 6.93736 -1.13548e-20)
(21.5301 7.03835 2.31394e-20)
(21.4877 7.14254 -1.18149e-20)
(21.4412 7.25004 0)
(21.3903 7.36103 -1.3476e-20)
(21.3342 7.47557 2.0442e-20)
(21.2724 7.59369 0)
(21.2038 7.71535 0)
(21.1274 7.84045 0)
(21.0419 7.96886 0)
(20.9461 8.10031 -1.41277e-20)
(20.8384 8.23431 1.05082e-20)
(20.7175 8.37023 0)
(20.5817 8.50704 -5.37798e-21)
(20.429 8.64311 6.22181e-21)
(20.2577 8.77669 -5.03601e-21)
(20.0664 8.90535 1.46118e-20)
(19.8536 9.02582 9.62102e-21)
(19.6187 9.13396 -6.76252e-22)
(19.3619 9.22502 -3.38122e-21)
(19.0842 9.29362 3.30481e-20)
(18.7888 9.33377 -1.63412e-20)
(18.4806 9.33983 0)
(18.1668 9.30732 2.28181e-20)
(17.8571 9.234 -1.11962e-19)
(21.8662 5.49109 3.72658e-22)
(21.8538 5.55352 4.96109e-21)
(21.8416 5.61577 5.92097e-21)
(21.8287 5.67955 -6.03414e-22)
(21.8154 5.74445 4.25393e-21)
(21.801 5.81018 4.1341e-21)
(21.7852 5.87705 0)
(21.7681 5.94518 1.26583e-20)
(21.7496 6.01466 -8.66342e-21)
(21.7296 6.0856 0)
(21.7082 6.15818 1.19908e-20)
(21.6852 6.23247 -4.69063e-21)
(21.6604 6.30857 -1.64666e-20)
(21.6338 6.38665 8.21324e-21)
(21.6052 6.46685 -1.30085e-20)
(21.5744 6.54928 -1.13055e-22)
(21.5413 6.63408 2.88423e-20)
(21.5057 6.72142 -1.70392e-20)
(21.4673 6.81129 0)
(21.4258 6.90384 0)
(21.3807 6.99916 1.37056e-20)
(21.3316 7.09727 6.61794e-22)
(21.2779 7.19833 8.24605e-22)
(21.2193 7.30242 -1.49493e-20)
(21.1551 7.40944 -2.38704e-20)
(21.0848 7.51927 -7.7599e-22)
(21.0072 7.63174 7.09126e-21)
(20.9212 7.74644 -1.15982e-21)
(20.8256 7.86307 2.02539e-20)
(20.719 7.98123 2.0214e-20)
(20.6006 8.1002 -8.71885e-21)
(20.4689 8.21873 5.42984e-21)
(20.3224 8.33544 9.37841e-22)
(20.1597 8.44869 -1.53958e-20)
(19.9799 8.55621 -8.4887e-21)
(19.782 8.65547 -1.5493e-23)
(19.5666 8.74292 -1.50912e-20)
(19.3338 8.81451 -1.16138e-20)
(19.0852 8.86629 0)
(18.8239 8.89385 0)
(18.5541 8.89318 -4.54837e-20)
(18.2811 8.86133 -4.80628e-21)
(18.0119 8.79723 1.65583e-19)
(21.8058 5.47918 -5.09661e-21)
(21.7929 5.53758 0)
(21.7797 5.59491 -5.3257e-21)
(21.7655 5.65354 0)
(21.7514 5.71364 2.76449e-21)
(21.7362 5.7742 -2.73455e-21)
(21.7196 5.83585 0)
(21.7015 5.89877 0)
(21.6821 5.96295 0)
(21.6611 6.02842 0)
(21.6385 6.09545 1.03721e-20)
(21.6144 6.16416 -1.59959e-20)
(21.5885 6.2345 -6.23249e-23)
(21.5606 6.30671 1.03902e-20)
(21.5307 6.38091 1.0595e-20)
(21.4986 6.45717 -1.0629e-20)
(21.4639 6.53558 -1.20749e-20)
(21.4268 6.61638 1.10738e-20)
(21.387 6.69955 0)
(21.344 6.78515 0)
(21.2977 6.87335 5.53215e-21)
(21.2475 6.96403 0)
(21.1925 7.05708 -6.48807e-21)
(21.1327 7.1528 -6.21196e-22)
(21.0677 7.25102 1.52188e-20)
(20.9968 7.35165 1.72183e-20)
(20.9195 7.45435 -7.05903e-21)
(20.8346 7.55861 -1.9179e-20)
(20.7406 7.66391 0)
(20.6361 7.76996 -1.28594e-20)
(20.5207 7.87635 -2.60382e-20)
(20.3935 7.98152 1.42761e-20)
(20.2529 8.08405 2.54244e-20)
(20.098 8.18265 -3.96322e-20)
(19.9276 8.27524 9.17422e-21)
(19.7408 8.35988 -7.33264e-23)
(19.5396 8.43394 -2.83968e-20)
(19.3239 8.49298 1.49471e-20)
(19.0953 8.53423 -3.59887e-20)
(18.8571 8.55459 4.03331e-20)
(18.6132 8.55054 0)
(18.3666 8.52 -1.61999e-21)
(18.1231 8.46248 5.22278e-20)
(21.7511 5.46779 1.26847e-20)
(21.7384 5.52157 -1.32675e-20)
(21.7254 5.57444 0)
(21.71 5.62773 0)
(21.6953 5.68406 0)
(21.6797 5.74007 0)
(21.6626 5.79717 -6.16174e-21)
(21.6439 5.85556 -3.5275e-22)
(21.6241 5.91523 0)
(21.6027 5.97603 -6.39046e-21)
(21.5794 6.03816 0)
(21.5548 6.10206 1.21481e-20)
(21.5282 6.16737 -1.21201e-20)
(21.4996 6.23454 0)
(21.4689 6.30362 -1.25651e-20)
(21.4361 6.37484 1.26136e-20)
(21.4006 6.44775 1.90897e-20)
(21.3625 6.52292 2.82386e-22)
(21.3218 6.60037 -1.35951e-20)
(21.2778 6.68013 7.54558e-21)
(21.2303 6.76238 0)
(21.1799 6.8474 -7.5805e-21)
(21.1246 6.93389 8.55186e-21)
(21.0646 7.02289 0)
(20.9991 7.11401 9.68838e-21)
(20.9281 7.20731 -2.02052e-20)
(20.8513 7.30223 9.58634e-21)
(20.7676 7.3985 -3.57371e-20)
(20.6763 7.49534 3.7263e-20)
(20.5741 7.59171 -4.03638e-22)
(20.4617 7.68873 -1.56285e-20)
(20.339 7.78428 -1.21214e-21)
(20.204 7.87602 -3.67559e-20)
(20.0551 7.96342 1.97566e-20)
(19.8934 8.04525 2.22036e-20)
(19.7146 8.11894 3.34026e-20)
(19.5247 8.18445 4.71161e-20)
(19.3225 8.23534 3.91524e-20)
(19.1084 8.27016 3.33026e-20)
(18.8865 8.28697 -3.96859e-20)
(18.6626 8.28054 0)
(18.4339 8.25079 -9.91786e-20)
(18.2089 8.19804 5.47365e-20)
(21.6995 5.45154 0)
(21.6877 5.50526 6.73084e-21)
(21.6766 5.55555 -7.85511e-21)
(21.6604 5.6015 0)
(21.6453 5.65539 -7.23588e-21)
(21.6302 5.70764 -3.487e-21)
(21.6129 5.76121 -3.48836e-21)
(21.5939 5.816 1.3467e-20)
(21.5741 5.87185 -7.1342e-21)
(21.5534 5.92916 -3.2496e-22)
(21.5298 5.98682 6.8156e-21)
(21.505 6.04667 0)
(21.4784 6.10731 -2.10971e-20)
(21.4499 6.17076 -1.5682e-22)
(21.4184 6.23493 -7.66656e-21)
(21.3854 6.30282 -2.20512e-22)
(21.3501 6.37155 1.47863e-20)
(21.3118 6.44199 1.54143e-20)
(21.2706 6.51405 -2.36483e-20)
(21.2271 6.58923 8.68496e-21)
(21.1774 6.66489 -1.64505e-20)
(21.1268 6.74669 9.52391e-21)
(21.072 6.82819 -2.81557e-20)
(21.0127 6.91217 0)
(20.9478 6.9977 1.41481e-22)
(20.8774 7.08517 -2.14019e-20)
(20.8022 7.17345 1.12403e-20)
(20.7185 7.26234 1.21718e-20)
(20.6307 7.35428 -1.45233e-20)
(20.5312 7.4422 0)
(20.4204 7.53159 0)
(20.302 7.62052 -1.25119e-21)
(20.174 7.70315 7.34803e-21)
(20.0258 7.77899 -9.33863e-22)
(19.8721 7.85476 -1.32221e-20)
(19.6972 7.91858 -2.66613e-20)
(19.5153 7.97887 -2.97302e-20)
(19.3259 8.02478 -3.28147e-20)
(19.1238 8.05428 -3.69115e-20)
(18.9086 8.0706 0)
(18.6948 8.05877 2.14046e-20)
(18.4753 8.02869 5.12866e-20)
(18.2643 7.98139 2.97594e-20)
(11.9939 14.8907 0)
(11.3665 13.2383 -4.23684e-19)
(11.3269 12.0411 4.10151e-19)
(11.5062 11.0978 2.89818e-20)
(11.7705 10.3245 0)
(12.0672 9.67304 5.20919e-20)
(12.3687 9.11891 -8.41142e-20)
(12.6616 8.64508 -1.04843e-18)
(12.9389 8.23739 1.0494e-18)
(13.1974 7.88451 -3.95588e-20)
(13.4362 7.57743 9.63276e-19)
(13.6553 7.30826 -9.06741e-19)
(13.856 7.07046 8.64631e-19)
(14.0394 6.85867 -5.04064e-20)
(14.2071 6.66854 -7.36137e-19)
(14.3604 6.49649 4.66884e-20)
(14.501 6.33973 -4.47433e-20)
(14.6301 6.19582 1.34111e-18)
(14.7491 6.06274 -1.29998e-18)
(14.859 5.93884 4.01767e-20)
(14.961 5.82285 0)
(15.0559 5.71351 -1.1883e-18)
(15.1446 5.60985 -6.89141e-20)
(15.2278 5.51116 1.18214e-18)
(15.3061 5.4167 7.15849e-20)
(15.3801 5.3259 -9.96666e-19)
(15.4502 5.23831 2.26041e-18)
(15.517 5.15356 -2.16917e-18)
(15.5806 5.07123 4.89576e-21)
(15.6416 4.99111 1.11144e-18)
(15.7 4.91293 0)
(15.7563 4.83644 -6.8548e-20)
(15.8105 4.76147 0)
(15.8628 4.68785 0)
(15.9133 4.61542 -1.41563e-19)
(15.9622 4.54402 -7.03997e-19)
(16.0095 4.47355 -1.40838e-19)
(16.0552 4.40392 5.70057e-19)
(16.0995 4.33503 1.41866e-19)
(16.1424 4.26681 7.16381e-19)
(16.1838 4.19925 -5.74018e-19)
(16.224 4.13241 0)
(16.2639 4.06439 8.3028e-22)
(16.2389 12.1149 -2.5625e-19)
(15.6901 11.5208 0)
(15.2969 10.8973 4.46565e-19)
(15.0271 10.3082 4.08346e-21)
(14.8495 9.77001 4.94641e-19)
(14.7418 9.28502 -2.0126e-18)
(14.6864 8.85136 1.0362e-18)
(14.6693 8.46515 -2.02067e-18)
(14.6797 8.12151 9.04844e-19)
(14.7099 7.81528 -5.68135e-20)
(14.7542 7.54153 -8.88469e-19)
(14.8078 7.29613 2.59249e-18)
(14.8675 7.07511 -7.62935e-19)
(14.9308 6.87511 4.8451e-20)
(14.9959 6.69306 -9.05931e-20)
(15.0615 6.52643 -4.47431e-20)
(15.1269 6.373 7.2633e-19)
(15.1915 6.23085 -6.62835e-19)
(15.2547 6.09842 0)
(15.3165 5.97433 -3.92098e-20)
(15.3766 5.85747 -3.67374e-20)
(15.4349 5.7469 -5.88618e-19)
(15.4915 5.6418 6.52169e-19)
(15.5462 5.54152 0)
(15.5993 5.44551 -7.06479e-20)
(15.6506 5.35329 -6.977e-20)
(15.7004 5.26446 6.72421e-20)
(15.7486 5.17868 5.42079e-19)
(15.7955 5.09566 -5.41731e-19)
(15.841 5.01511 6.05359e-19)
(15.8853 4.93679 -1.07983e-18)
(15.9284 4.86049 6.77256e-19)
(15.9704 4.78599 5.42629e-19)
(16.0113 4.71314 -9.57964e-19)
(16.0512 4.64175 1.101e-18)
(16.09 4.57166 -6.9315e-19)
(16.1278 4.50276 0)
(16.1647 4.43492 5.63019e-19)
(16.2005 4.36805 -7.11416e-19)
(16.2353 4.30209 -1.41759e-19)
(16.2692 4.23699 0)
(16.3021 4.17287 2.85995e-19)
(16.3342 4.10832 -1.3977e-19)
(16.7752 10.501 0)
(16.3539 10.2267 -3.3822e-20)
(16.0165 9.90633 0)
(15.7564 9.56522 2.40045e-20)
(15.5628 9.22074 6.97013e-20)
(15.4251 8.88427 -4.75067e-19)
(15.3327 8.56277 4.25012e-19)
(15.2762 8.26011 8.35651e-19)
(15.2475 7.97808 1.18724e-19)
(15.2404 7.71699 -7.39379e-19)
(15.2495 7.476 0)
(15.2705 7.25398 -4.78655e-20)
(15.3003 7.0493 6.95909e-19)
(15.3362 6.86036 -6.74158e-19)
(15.3763 6.68557 4.31863e-20)
(15.4191 6.52344 3.9445e-20)
(15.4635 6.37253 0)
(15.5086 6.2316 0)
(15.5538 6.09951 3.65608e-20)
(15.5987 5.97527 0)
(15.6429 5.858 1.06567e-19)
(15.6863 5.74698 6.88746e-20)
(15.7288 5.64153 4.80999e-19)
(15.7702 5.54106 -5.41717e-19)
(15.8106 5.44509 0)
(15.8499 5.35319 5.30111e-19)
(15.8883 5.26499 -5.94062e-19)
(15.9259 5.1801 0)
(15.9626 5.09822 0)
(15.9985 5.01905 -6.61905e-20)
(16.0337 4.9423 4.58912e-19)
(16.0681 4.86774 -1.18441e-18)
(16.1019 4.79517 6.65773e-20)
(16.1349 4.72439 3.99089e-19)
(16.1673 4.65522 5.36999e-19)
(16.199 4.58749 -5.40863e-19)
(16.2299 4.52107 -1.3593e-19)
(16.2602 4.45583 -1.37243e-19)
(16.2897 4.39167 0)
(16.3184 4.32851 -1.39206e-19)
(16.3465 4.26629 5.37037e-22)
(16.3739 4.20499 1.42238e-19)
(16.4009 4.14327 -2.76624e-19)
(17.315 9.70769 1.13446e-19)
(16.994 9.5144 3.18815e-19)
(16.7129 9.285 2.47957e-20)
(16.475 9.03339 2.19958e-20)
(16.2796 8.77117 -3.35899e-19)
(16.1235 8.50723 9.07292e-20)
(16.0022 8.24804 -9.09716e-20)
(15.9107 7.99786 3.2531e-19)
(15.8445 7.75927 -4.04688e-19)
(15.799 7.53364 4.53488e-20)
(15.7702 7.32155 6.64091e-19)
(15.7548 7.12291 -1.41408e-18)
(15.7501 6.93723 6.24056e-19)
(15.7537 6.76377 0)
(15.7638 6.60164 -3.89893e-20)
(15.779 6.44991 -3.92897e-20)
(15.7979 6.30764 0)
(15.8196 6.17399 0)
(15.8433 6.04809 -3.65616e-20)
(15.8685 5.92924 -5.66221e-19)
(15.8946 5.81672 4.16256e-19)
(15.9214 5.70996 -6.89758e-20)
(15.9486 5.6084 1.60118e-21)
(15.976 5.51155 0)
(16.0035 5.41903 0)
(16.0311 5.33042 0)
(16.0586 5.24539 0)
(16.086 5.16361 -5.13972e-19)
(16.1134 5.08475 5.13341e-19)
(16.1407 5.00853 -6.35913e-20)
(16.1677 4.9347 5.78888e-19)
(16.1945 4.86304 -4.51595e-19)
(16.221 4.79337 -6.54242e-20)
(16.2471 4.7255 6.49353e-20)
(16.2729 4.65926 0)
(16.2983 4.5945 1.34088e-19)
(16.3233 4.53109 3.37455e-19)
(16.3477 4.46891 -1.35244e-19)
(16.3717 4.40786 2.74133e-19)
(16.3952 4.34788 -2.76702e-19)
(16.4182 4.28892 2.77971e-19)
(16.4407 4.231 -5.56551e-19)
(16.4632 4.17308 5.51591e-19)
(17.5611 9.12091 2.3822e-19)
(17.2863 8.97238 -1.25991e-19)
(17.0389 8.79519 0)
(16.8226 8.59761 0)
(16.6381 8.38769 2.4991e-19)
(16.4845 8.17227 -2.86209e-19)
(16.3596 7.95672 4.38235e-20)
(16.2603 7.74486 4.21299e-20)
(16.1831 7.53944 0)
(16.1246 7.3423 0)
(16.0818 7.1545 4.24862e-20)
(16.052 6.97653 4.17008e-20)
(16.0329 6.80842 3.94459e-20)
(16.0225 6.64991 -3.53164e-19)
(16.0192 6.50051 3.0619e-19)
(16.0215 6.35964 0)
(16.0281 6.22671 -2.9411e-19)
(16.0382 6.10112 3.57597e-19)
(16.0508 5.9823 0)
(16.0656 5.86967 6.83816e-20)
(16.0819 5.76272 6.88179e-20)
(16.0995 5.66099 6.62064e-20)
(16.1179 5.56401 6.66994e-20)
(16.137 5.47144 6.4538e-20)
(16.1566 5.38291 0)
(16.1767 5.29815 5.11674e-19)
(16.1973 5.21679 1.98829e-22)
(16.2182 5.13853 -5.06361e-19)
(16.2393 5.06307 6.2711e-20)
(16.2605 4.99014 6.32009e-19)
(16.2817 4.91953 -2.53417e-19)
(16.3029 4.85107 -2.54421e-19)
(16.324 4.78459 -2.55821e-19)
(16.3449 4.71989 2.56983e-19)
(16.3656 4.65682 0)
(16.3862 4.59524 0)
(16.4064 4.53503 1.32606e-19)
(16.4262 4.47609 -6.66222e-20)
(16.4457 4.41829 -3.37743e-19)
(16.4648 4.36158 3.40916e-19)
(16.4836 4.30598 0)
(16.5021 4.25147 1.38493e-19)
(16.5207 4.19715 0)
(17.753 8.70193 -2.39939e-19)
(17.5099 8.57815 1.25885e-19)
(17.2872 8.43033 0)
(17.0878 8.26432 0)
(16.9135 8.0863 7.85023e-20)
(16.7642 7.90175 2.88865e-19)
(16.6393 7.71518 1.16302e-20)
(16.5367 7.52966 -3.65026e-19)
(16.4536 7.34759 -4.04721e-20)
(16.387 7.171 0)
(16.335 7.00129 -3.96949e-20)
(16.2951 6.83921 3.91252e-20)
(16.2658 6.68503 3.75395e-20)
(16.2453 6.53868 3.45978e-19)
(16.2319 6.39987 -2.60541e-19)
(16.2243 6.26821 0)
(16.2213 6.14343 0)
(16.2221 6.02511 -2.84995e-19)
(16.2259 5.91278 5.55164e-19)
(16.2323 5.80601 -2.73527e-19)
(16.2407 5.70435 -2.68767e-19)
(16.2506 5.60744 1.31791e-19)
(16.2619 5.51496 6.46774e-20)
(16.2742 5.42662 -6.49859e-20)
(16.2874 5.34215 0)
(16.3016 5.26131 0)
(16.3166 5.18367 -6.2474e-20)
(16.3322 5.10894 0)
(16.3483 5.03688 -1.25076e-19)
(16.3647 4.96728 -8.08901e-22)
(16.3811 4.89991 0)
(16.3977 4.8347 6.25075e-20)
(16.4143 4.77145 0)
(16.4311 4.70994 -6.40274e-20)
(16.4477 4.65003 0)
(16.4642 4.59164 -2.59216e-19)
(16.4805 4.53464 5.23064e-19)
(16.4966 4.47895 -1.9817e-19)
(16.5125 4.42436 6.71263e-20)
(16.5279 4.37091 -6.77143e-20)
(16.5432 4.31864 6.76069e-20)
(16.5583 4.26754 0)
(16.5738 4.21673 -1.36805e-19)
(17.8882 8.37868 -9.34408e-20)
(17.6662 8.27086 1.88332e-19)
(17.4608 8.14189 -6.85477e-20)
(17.2739 7.99627 -1.48842e-19)
(17.108 7.83956 1.09637e-19)
(16.9636 7.67646 1.58388e-19)
(16.8412 7.51069 -1.54495e-19)
(16.739 7.34444 0)
(16.6535 7.17949 3.99864e-20)
(16.5828 7.01838 0)
(16.5254 6.86268 1.16654e-19)
(16.4797 6.71327 2.7117e-19)
(16.4442 6.57046 -4.53176e-19)
(16.4174 6.43419 0)
(16.3976 6.30422 2.9503e-19)
(16.3834 6.18043 -6.48581e-19)
(16.3738 6.06282 2.12098e-19)
(16.3683 5.95102 -2.8055e-19)
(16.3662 5.84459 2.73119e-19)
(16.3669 5.74309 -3.37941e-19)
(16.3698 5.64619 6.48693e-20)
(16.3744 5.55369 6.54092e-19)
(16.3805 5.46539 -6.43532e-20)
(16.3879 5.38101 -2.55112e-19)
(16.3964 5.30046 3.16072e-19)
(16.4066 5.22336 -2.50773e-19)
(16.4177 5.14916 -2.48914e-19)
(16.4295 5.07764 2.48333e-19)
(16.4416 5.00882 6.23602e-20)
(16.4543 4.94238 -1.23977e-19)
(16.4669 4.87809 2.48364e-19)
(16.4799 4.81603 -3.11656e-19)
(16.4933 4.75588 -2.5042e-19)
(16.5068 4.69738 1.89288e-19)
(16.5201 4.64048 -6.32243e-20)
(16.5334 4.58518 -6.38175e-20)
(16.5465 4.53132 -6.50323e-20)
(16.5596 4.47875 6.51322e-20)
(16.5725 4.42725 1.32137e-19)
(16.5849 4.37692 -1.33381e-19)
(16.5971 4.32783 -6.74574e-20)
(16.6095 4.28006 -2.02414e-19)
(16.6228 4.2325 1.36319e-19)
(17.9909 8.12199 2.99707e-20)
(17.7843 8.02537 -1.26349e-19)
(17.5929 7.90936 2.04441e-19)
(17.4153 7.77765 -1.37217e-19)
(17.256 7.6362 0)
(17.1153 7.4891 7.76945e-20)
(16.9969 7.33834 -1.48992e-19)
(16.8966 7.18687 1.54865e-19)
(16.8101 7.03432 3.73143e-21)
(16.7369 6.88507 -1.50698e-19)
(16.6764 6.7401 -6.96885e-22)
(16.6267 6.60088 0)
(16.5873 6.46716 7.46172e-20)
(16.5563 6.33927 0)
(16.5322 6.21649 0)
(16.5131 6.09933 -2.132e-19)
(16.4986 5.98813 -1.34167e-21)
(16.4887 5.88206 2.0446e-19)
(16.4824 5.78079 -3.38148e-19)
(16.4792 5.68368 3.31696e-19)
(16.4779 5.59081 -6.60193e-20)
(16.4784 5.50218 -6.51402e-20)
(16.4804 5.4176 2.5619e-19)
(16.484 5.33683 -5.69103e-19)
(16.4891 5.26002 1.87398e-19)
(16.4966 5.18616 6.19158e-20)
(16.5046 5.11481 3.09898e-19)
(16.5131 5.04592 -4.93043e-19)
(16.5218 4.98049 2.45802e-19)
(16.5318 4.91688 5.72676e-22)
(16.5411 4.85548 6.1211e-20)
(16.5518 4.79646 0)
(16.5626 4.73924 0)
(16.5735 4.68337 5.23634e-22)
(16.5839 4.62929 6.31513e-20)
(16.5946 4.57694 6.37104e-20)
(16.6051 4.52612 0)
(16.6159 4.47641 -6.49801e-20)
(16.6263 4.42786 -6.51548e-20)
(16.6362 4.38046 -1.97745e-19)
(16.6461 4.33426 1.99321e-19)
(16.6562 4.28953 5.03834e-22)
(16.6682 4.24447 0)
(18.0582 7.90977 -1.73126e-19)
(17.8613 7.8224 1.89855e-19)
(17.6849 7.71753 3.27353e-21)
(17.5162 7.59542 1.44791e-19)
(17.363 7.46498 -1.42276e-19)
(17.2217 7.33117 1.43179e-19)
(17.1045 7.18985 0)
(17.0047 7.05185 -8.1259e-20)
(16.9199 6.90861 2.27491e-19)
(16.8461 6.7688 -7.4503e-20)
(16.7841 6.63143 7.6816e-20)
(16.7314 6.50138 -7.09973e-20)
(16.6913 6.37502 -1.46812e-19)
(16.6586 6.25528 0)
(16.6337 6.13817 0)
(16.6115 6.02678 -7.08497e-20)
(16.5948 5.92155 2.12495e-19)
(16.5832 5.82037 -2.06281e-19)
(16.575 5.72348 2.02423e-19)
(16.5701 5.62948 -2.64414e-19)
(16.5659 5.53997 0)
(16.5637 5.45454 -6.51369e-20)
(16.5629 5.37317 -1.30162e-19)
(16.5642 5.29554 3.18903e-19)
(16.5673 5.22219 3.20501e-22)
(16.5743 5.1499 -2.43882e-19)
(16.578 5.08138 -1.20005e-19)
(16.584 5.01534 6.15451e-20)
(16.59 4.95445 -1.24858e-19)
(16.5994 4.89183 1.24977e-19)
(16.6053 4.83377 -6.11606e-20)
(16.6151 4.77742 -1.78497e-19)
(16.623 4.72274 1.2176e-19)
(16.6319 4.66874 6.1922e-20)
(16.6397 4.61752 0)
(16.6485 4.5678 -1.92442e-19)
(16.6567 4.51995 1.29159e-19)
(16.6663 4.47251 -6.49601e-20)
(16.6743 4.42717 2.01359e-19)
(16.6823 4.3824 -2.03033e-19)
(16.6907 4.3387 1.35384e-19)
(16.6997 4.2965 -6.70982e-20)
(16.7134 4.25148 0)
(19.5486 -3.47794 -2.49563e-19)
(19.4508 -3.49872 -1.2999e-19)
(19.3461 -3.52201 -1.36976e-19)
(19.2349 -3.54279 -5.60254e-21)
(19.1168 -3.56184 0)
(18.9912 -3.57895 4.82966e-19)
(18.858 -3.59406 6.77162e-20)
(18.7166 -3.60706 -1.40729e-19)
(18.5668 -3.61792 -1.38669e-19)
(18.4083 -3.62656 1.47507e-19)
(18.2409 -3.63293 -4.28797e-19)
(18.0645 -3.63697 1.51736e-19)
(17.8788 -3.63867 -2.96123e-19)
(17.6838 -3.63799 1.46666e-19)
(17.4794 -3.63489 -3.01831e-19)
(17.2657 -3.62937 -7.60791e-20)
(17.0425 -3.62141 -7.28986e-19)
(16.81 -3.61097 6.61329e-19)
(16.5682 -3.59806 -8.39008e-20)
(16.3172 -3.58264 0)
(16.057 -3.56472 0)
(15.7877 -3.54426 0)
(15.5092 -3.52124 9.34138e-20)
(15.2217 -3.49557 -1.0038e-19)
(14.9249 -3.46727 -5.08077e-20)
(14.6189 -3.43628 1.87127e-21)
(14.3033 -3.40246 -4.75841e-19)
(13.9777 -3.36584 4.42058e-19)
(13.6418 -3.3262 5.33787e-19)
(13.2948 -3.2834 -6.85521e-20)
(12.9357 -3.23726 -8.38747e-19)
(12.5634 -3.18751 3.24665e-19)
(12.1762 -3.13372 0)
(11.7717 -3.07529 0)
(11.347 -3.01152 0)
(10.8978 -2.94132 5.66916e-20)
(10.4179 -2.86298 2.72022e-19)
(9.89828 -2.77376 -2.39678e-19)
(9.32442 -2.66922 -7.33337e-19)
(8.67388 -2.54135 7.93962e-19)
(7.92173 -2.37277 0)
(7.14481 -2.1361 2.02865e-19)
(7.72612 -1.9636 -3.78421e-18)
(19.5045 -3.44906 5.31481e-19)
(19.4141 -3.4677 -2.87397e-19)
(19.3174 -3.4888 0)
(19.2155 -3.50773 2.90702e-19)
(19.1077 -3.52527 1.8341e-20)
(18.9937 -3.54123 -1.63939e-19)
(18.8732 -3.55558 1.47281e-19)
(18.7458 -3.56823 1.46606e-19)
(18.6112 -3.5791 0)
(18.4692 -3.58813 1.4829e-19)
(18.3194 -3.59525 -2.97458e-19)
(18.1616 -3.60039 -1.50694e-19)
(17.9955 -3.60349 3.03518e-19)
(17.8209 -3.6045 0)
(17.6375 -3.60334 2.36842e-19)
(17.4453 -3.59997 0)
(17.2439 -3.59433 1.64189e-19)
(17.0332 -3.58635 4.17429e-19)
(16.8131 -3.57596 -3.39678e-19)
(16.5833 -3.56311 -3.52388e-19)
(16.3438 -3.54772 7.25529e-19)
(16.0942 -3.52973 9.62288e-20)
(15.8344 -3.50906 -3.88947e-19)
(15.5642 -3.48557 1.03728e-19)
(15.2831 -3.45918 1.06771e-19)
(14.9909 -3.42976 -1.69002e-19)
(14.6871 -3.39718 -5.89374e-19)
(14.3709 -3.36128 4.96045e-19)
(14.0418 -3.32182 0)
(13.6988 -3.27855 -2.11456e-19)
(13.3407 -3.23114 3.01955e-19)
(12.9661 -3.17918 4.94654e-19)
(12.5728 -3.12214 -2.66226e-19)
(12.1586 -3.05925 -1.96334e-19)
(11.7201 -2.98955 2.16061e-19)
(11.2525 -2.9117 1.21881e-19)
(10.7495 -2.82381 2.75189e-19)
(10.2017 -2.72297 -3.14733e-19)
(9.59639 -2.60424 -8.35114e-19)
(8.92238 -2.45946 8.91911e-19)
(8.21299 -2.28085 -1.97849e-18)
(7.808 -2.12004 1.69904e-19)
(9.69486 -2.22919 3.26321e-18)
(19.4647 -3.42306 -1.37849e-19)
(19.3808 -3.44009 4.49974e-19)
(19.2914 -3.45903 -7.62959e-20)
(19.1973 -3.47614 -1.15176e-19)
(19.0981 -3.49206 3.8259e-20)
(18.9934 -3.50667 1.54484e-19)
(18.8828 -3.5199 -1.52563e-19)
(18.7662 -3.53168 1.5394e-19)
(18.6432 -3.54192 -1.53498e-19)
(18.5134 -3.55053 1.53955e-19)
(18.3765 -3.55745 -1.56857e-19)
(18.2322 -3.56261 -4.70956e-19)
(18.0802 -3.5659 -1.61648e-19)
(17.9202 -3.56728 7.237e-19)
(17.7519 -3.56667 -4.06669e-19)
(17.5749 -3.56401 2.49238e-19)
(17.3891 -3.55921 -4.22541e-19)
(17.1941 -3.55219 1.18455e-21)
(16.9896 -3.54288 -2.68337e-19)
(16.7752 -3.53118 7.32696e-19)
(16.5508 -3.51701 -3.77155e-19)
(16.3159 -3.50025 -9.74155e-20)
(16.0703 -3.48078 0)
(15.8134 -3.45845 -3.17656e-19)
(15.5447 -3.43311 4.43223e-19)
(15.2639 -3.40457 1.15536e-19)
(14.9701 -3.37263 1.21671e-19)
(14.6627 -3.33706 -1.30687e-19)
(14.3407 -3.29759 0)
(14.0032 -3.25389 0)
(13.6485 -3.20556 1.21039e-21)
(13.2753 -3.1521 -8.44215e-20)
(12.8812 -3.09287 -9.167e-20)
(12.4636 -3.02706 0)
(12.019 -2.95362 0)
(11.5424 -2.87109 -3.10233e-19)
(11.027 -2.7775 -7.11702e-20)
(10.4639 -2.66988 1.60827e-19)
(9.84367 -2.54331 0)
(9.17166 -2.39039 -6.67146e-19)
(8.54847 -2.20998 1.92711e-18)
(8.51795 -2.0927 -1.98304e-18)
(10.9921 -2.35994 -6.00943e-19)
(19.4288 -3.39918 -1.47499e-19)
(19.3505 -3.41426 -1.58903e-19)
(19.2671 -3.43092 1.61276e-19)
(19.1794 -3.44606 4.04649e-20)
(19.0871 -3.46019 1.21876e-19)
(18.9899 -3.47322 4.23434e-20)
(18.8874 -3.48506 -4.00764e-20)
(18.7793 -3.49567 0)
(18.6654 -3.50497 0)
(18.5453 -3.51285 0)
(18.4187 -3.51925 3.26072e-19)
(18.2853 -3.52408 1.65497e-19)
(18.1445 -3.52725 8.15312e-20)
(17.9962 -3.52869 -4.22059e-19)
(17.84 -3.52833 3.41773e-19)
(17.6754 -3.52609 8.65476e-20)
(17.5021 -3.52188 0)
(17.3198 -3.5156 -9.0422e-20)
(17.128 -3.50714 3.75511e-19)
(16.9262 -3.49642 -3.84315e-19)
(16.7141 -3.48333 3.98861e-19)
(16.4912 -3.46773 2.27213e-21)
(16.2571 -3.44948 2.34247e-21)
(16.0112 -3.4284 -5.54271e-19)
(15.7528 -3.40428 -2.32026e-19)
(15.4814 -3.3769 0)
(15.1961 -3.34597 0)
(14.896 -3.31122 1.34224e-19)
(14.5801 -3.27231 0)
(14.247 -3.22885 -1.53854e-19)
(13.8953 -3.18043 2.47501e-19)
(13.5232 -3.12647 -3.52342e-19)
(13.1283 -3.06627 1.48112e-21)
(12.7078 -2.99897 1.04404e-19)
(12.2578 -2.92346 8.92917e-22)
(11.773 -2.83823 1.25817e-19)
(11.2467 -2.74121 1.41048e-19)
(10.6703 -2.62922 -1.60287e-19)
(10.0388 -2.49737 3.74429e-19)
(9.376 -2.34003 -1.54895e-18)
(8.84362 -2.16488 2.1579e-18)
(9.12848 -2.08348 -9.14469e-19)
(11.8964 -2.4418 2.40677e-18)
(19.3971 -3.37731 0)
(19.3238 -3.39041 -1.66962e-19)
(19.246 -3.40507 8.52548e-20)
(19.1644 -3.41854 2.53615e-19)
(19.0785 -3.4312 1.74084e-21)
(18.9882 -3.44291 -4.03896e-20)
(18.893 -3.45363 -1.26649e-19)
(18.7928 -3.46336 8.41384e-20)
(18.6872 -3.47199 -8.38621e-20)
(18.5759 -3.47941 0)
(18.4585 -3.48554 -2.54478e-19)
(18.3347 -3.49028 -1.7061e-19)
(18.2041 -3.49352 3.46952e-19)
(18.0662 -3.49517 -1.75062e-19)
(17.9206 -3.49517 0)
(17.7669 -3.49344 0)
(17.6047 -3.48989 -3.71646e-19)
(17.4336 -3.48438 3.78321e-19)
(17.2529 -3.47676 -9.7629e-20)
(17.0622 -3.46694 -4.01633e-19)
(16.8609 -3.45483 -2.30533e-21)
(16.6485 -3.44033 8.55171e-19)
(16.4243 -3.42326 -4.42477e-19)
(16.1879 -3.40342 0)
(15.9384 -3.38055 1.20021e-19)
(15.6752 -3.35439 -1.26685e-19)
(15.3973 -3.32459 0)
(15.1038 -3.2908 -1.40427e-19)
(14.7933 -3.25265 0)
(14.4643 -3.20972 6.3138e-19)
(14.1153 -3.16158 -3.36023e-19)
(13.7442 -3.10765 1.80101e-19)
(13.3485 -3.0471 -3.90407e-19)
(12.9252 -2.97899 2.11799e-19)
(12.47 -2.90215 -1.15705e-19)
(11.9775 -2.81508 2.57602e-19)
(11.4406 -2.71563 0)
(10.8518 -2.60058 3.24653e-19)
(10.211 -2.46503 -7.44657e-19)
(9.55915 -2.30509 8.75718e-19)
(9.10873 -2.13762 3.51179e-21)
(9.64149 -2.08845 -1.42178e-18)
(12.5695 -2.50084 -9.74979e-19)
(19.3691 -3.35673 -3.33045e-19)
(19.3006 -3.36853 3.4525e-19)
(19.228 -3.3816 -1.3122e-19)
(19.1518 -3.3937 -2.18474e-19)
(19.0718 -3.40517 -1.74077e-19)
(18.9878 -3.41576 -1.29918e-19)
(18.8991 -3.4255 1.2999e-19)
(18.8057 -3.43447 8.73026e-20)
(18.7073 -3.44256 -8.70106e-20)
(18.6035 -3.44964 0)
(18.4941 -3.45556 8.77766e-20)
(18.3785 -3.46024 0)
(18.2565 -3.46359 -8.94565e-20)
(18.1275 -3.46543 0)
(17.991 -3.46566 -1.85157e-19)
(17.8465 -3.4643 1.87465e-19)
(17.6936 -3.46133 0)
(17.5319 -3.45656 0)
(17.3608 -3.4497 3.02231e-19)
(17.1795 -3.44058 1.1437e-21)
(16.9873 -3.42916 -2.12942e-19)
(16.7838 -3.41545 1.10667e-19)
(16.5682 -3.39933 -2.2834e-19)
(16.3399 -3.3806 0)
(16.098 -3.35901 0)
(15.8418 -3.33421 1.29556e-19)
(15.5702 -3.30576 0)
(15.2821 -3.2732 1.43211e-19)
(14.9762 -3.23598 4.56872e-19)
(14.6508 -3.19354 -4.82045e-19)
(14.3039 -3.14558 -1.72404e-19)
(13.9335 -3.09182 0)
(13.5376 -3.03145 1.98899e-19)
(13.1121 -2.96299 -2.15454e-19)