/*--------------------------------*- C++ -*----------------------------------*\
| =========                 |                                                 |
| \\      /  F ield         | OpenFOAM: The Open Source CFD Toolbox           |
|  \\    /   O peration     | Version:  2.3.0                                 |
|   \\  /    A nd           | Web:      www.OpenFOAM.org                      |
|    \\/     M anipulation  |                                                 |
\*---------------------------------------------------------------------------*/
FoamFile
{
    version     2.0;
    format      ascii;
    class       volScalarField;
    location    "5000";
    object      nut;
}
// * * * * * * * * * * * * * * * * * * * * * * * * * * * * * * * * * * * * * //

dimensions      [0 2 -1 0 0 0 0];

internalField   nonuniform List<scalar> 
38111
(
0.0691581
0.0674655
0.0657699
0.0640719
0.0623718
0.0606698
0.0589662
0.057262
0.0555585
0.0538566
0.0521574
0.0504619
0.0487715
0.0470865
0.0454083
0.0437379
0.042076
0.040424
0.0387829
0.0371544
0.0355393
0.0339391
0.0323557
0.0307913
0.0292487
0.0277311
0.0262438
0.0247929
0.0233877
0.022037
0.0207503
0.0195382
0.0184142
0.0173819
0.0163937
0.0153937
0.0143635
0.0132967
0.0121815
0.010995
0.00970599
0.00831442
0.00708992
0.0704076
0.0689104
0.0674147
0.0659187
0.0644218
0.0629238
0.0614245
0.0599244
0.0584242
0.0569248
0.0554268
0.0539312
0.0524388
0.0509501
0.0494657
0.0479862
0.0465126
0.0450456
0.0435858
0.0421346
0.0406931
0.0392621
0.0378428
0.0364367
0.0350456
0.033671
0.0323154
0.0309825
0.0296744
0.0283958
0.0271514
0.025948
0.0247913
0.0236905
0.0226538
0.021689
0.0208077
0.0200242
0.0193553
0.0188185
0.018432
0.0182127
0.0181774
0.071555
0.0702282
0.0689032
0.0675779
0.0662516
0.0649239
0.0635944
0.0622633
0.0609306
0.0595972
0.0582635
0.0569303
0.0555983
0.0542681
0.0529399
0.051614
0.0502915
0.0489727
0.0476586
0.0463497
0.0450473
0.0437527
0.0424673
0.0411922
0.0399296
0.0386814
0.0374498
0.0362388
0.0350514
0.0338916
0.032765
0.0316773
0.0306349
0.0296463
0.0287207
0.027868
0.0270999
0.0264289
0.0258674
0.0254275
0.0251215
0.0249556
0.0249349
0.0726044
0.0714291
0.0702511
0.0690716
0.06789
0.0667061
0.0655195
0.0643301
0.0631378
0.0619426
0.0607451
0.0595457
0.0583455
0.0571451
0.0559447
0.0547447
0.0535457
0.0523478
0.0511517
0.0499583
0.0487683
0.0475837
0.0464056
0.0452355
0.0440756
0.0429273
0.0417935
0.0406778
0.0395835
0.0385153
0.0374782
0.0364778
0.0355207
0.0346154
0.0337703
0.0329939
0.032297
0.0316907
0.0311852
0.0307894
0.030513
0.0303612
0.0303368
0.0735755
0.0725237
0.0714709
0.0704158
0.0693576
0.0682956
0.0672299
0.0661602
0.0650862
0.0640072
0.0629232
0.0618351
0.060744
0.0596503
0.0585545
0.0574576
0.0563599
0.0552613
0.0541621
0.0530629
0.0519648
0.050869
0.0497777
0.0486921
0.0476145
0.0465469
0.0454908
0.0444503
0.043429
0.0424312
0.0414622
0.0405276
0.0396339
0.0387889
0.0379999
0.0372762
0.036627
0.0360618
0.0355902
0.0352204
0.0349599
0.0348138
0.0347838
0.074459
0.0735171
0.0725729
0.0716248
0.0706718
0.0697137
0.0687505
0.067782
0.0668081
0.0658278
0.0648397
0.0638446
0.0628442
0.0618389
0.0608296
0.0598172
0.0588022
0.0577853
0.0567663
0.0557454
0.0547227
0.0536993
0.0526778
0.0516608
0.0506502
0.0496481
0.0486557
0.0476756
0.0467122
0.0457698
0.0448539
0.04397
0.0431245
0.0423246
0.0415775
0.0408918
0.040276
0.0397389
0.0392896
0.0389357
0.0386842
0.0385397
0.038504
0.0752586
0.0744167
0.0735681
0.0727117
0.0718495
0.07098
0.0701034
0.06922
0.0683312
0.0674354
0.06653
0.0656134
0.0646881
0.0637571
0.0628195
0.0618766
0.0609293
0.059979
0.0590266
0.0580717
0.0571129
0.0561504
0.0551854
0.0542223
0.0532659
0.0523175
0.0513779
0.050449
0.0495333
0.0486346
0.04776
0.0469163
0.0461088
0.0453443
0.04463
0.0439727
0.043381
0.042864
0.0424306
0.0420876
0.0418408
0.0416962
0.0416556
0.0759892
0.0752331
0.0744677
0.0736887
0.0729057
0.0721118
0.0713092
0.0704966
0.0696787
0.0688551
0.0680235
0.0671764
0.0663107
0.0654439
0.0645663
0.0636808
0.0627894
0.0618918
0.0609938
0.060094
0.0591903
0.0582822
0.0573659
0.056443
0.0555289
0.0546237
0.0537287
0.0528448
0.0519717
0.0511095
0.0502652
0.049453
0.0486765
0.047941
0.0472525
0.0466191
0.0460458
0.0455431
0.0451195
0.0447877
0.0445419
0.044397
0.0443525
0.0766581
0.0759759
0.0752868
0.0745675
0.0738569
0.0731226
0.072386
0.071629
0.0708689
0.0701036
0.0693378
0.0685696
0.0677383
0.0669282
0.0660999
0.065258
0.0644177
0.0635582
0.0627014
0.0618459
0.0609868
0.0601279
0.0592709
0.0583735
0.0574892
0.0566161
0.0557558
0.0549107
0.0540808
0.0532603
0.0524323
0.0516446
0.050893
0.0501839
0.049516
0.0489098
0.0483494
0.0478609
0.0474331
0.0471211
0.0468715
0.0467272
0.0466773
0.00782106
0.00978241
0.0109642
0.0120989
0.0132913
0.0145496
0.0158608
0.0172092
0.018584
0.0199792
0.0213873
0.0228064
0.0242335
0.0256665
0.0271044
0.0285469
0.0299931
0.0314435
0.0328969
0.0343539
0.0358138
0.0372767
0.0387432
0.0402126
0.0416856
0.0431614
0.0446405
0.0461225
0.0476077
0.0490953
0.0505854
0.0520776
0.0535716
0.0550668
0.0565628
0.058059
0.0595549
0.06105
0.0625439
0.064036
0.0655258
0.0670124
0.0684957
0.0183333
0.0186815
0.0192076
0.0198937
0.0207168
0.0216545
0.0226833
0.0237844
0.0249418
0.0261416
0.0273744
0.0286325
0.0299091
0.0311992
0.0324999
0.0338086
0.0351229
0.0364415
0.0377635
0.0390874
0.0404131
0.0417406
0.0430692
0.0443985
0.0457289
0.0470601
0.0483921
0.0497249
0.051058
0.0523916
0.0537252
0.055059
0.0563922
0.0577251
0.0590573
0.0603883
0.061718
0.0630462
0.0643728
0.0656975
0.0670202
0.068341
0.0696609
0.0250567
0.0253218
0.0257315
0.026276
0.026942
0.0277136
0.0285755
0.0295132
0.0305121
0.0315609
0.0326493
0.0337686
0.034912
0.0360735
0.0372495
0.0384355
0.0396293
0.0408286
0.0420314
0.0432365
0.0444432
0.0456508
0.0468584
0.0480662
0.0492736
0.0504805
0.0516866
0.0528915
0.0540953
0.0552976
0.0564981
0.0576968
0.0588934
0.0600881
0.0612806
0.0624707
0.0636583
0.0648435
0.0660265
0.0672072
0.0683858
0.0695623
0.0707383
0.0304372
0.0306614
0.0310105
0.0314785
0.0320552
0.0327286
0.0334872
0.0343189
0.0352113
0.0361542
0.0371379
0.0381545
0.039196
0.0402574
0.0413338
0.0424218
0.0435175
0.0446188
0.0457236
0.0468304
0.0479384
0.0490465
0.0501543
0.051261
0.0523661
0.0534693
0.0545703
0.0556685
0.0567638
0.0578558
0.058944
0.0600289
0.0611103
0.0621879
0.0632618
0.0643318
0.0653981
0.066461
0.0675207
0.0685774
0.0696312
0.0706823
0.0717317
0.0348681
0.035066
0.0353774
0.035797
0.036316
0.0369249
0.037614
0.0383726
0.0391898
0.0400555
0.0409616
0.0418998
0.0428629
0.0438457
0.0448438
0.0458526
0.0468689
0.0478901
0.0489144
0.0499408
0.0509674
0.0519937
0.053019
0.0540425
0.0550633
0.0560809
0.0570947
0.0581039
0.0591082
0.0601075
0.0611016
0.0620908
0.0630748
0.0640533
0.0650265
0.0659941
0.066957
0.0679153
0.0688691
0.069819
0.070765
0.0717072
0.0726467
0.0385761
0.0387556
0.0390408
0.0394261
0.0399046
0.0404679
0.0411071
0.0418127
0.0425745
0.0433828
0.0442295
0.0451068
0.0460084
0.0469295
0.0478644
0.0488091
0.0497608
0.0507165
0.0516749
0.0526347
0.0535948
0.054554
0.055512
0.0564674
0.0574189
0.0583658
0.0593071
0.0602417
0.0611694
0.0620907
0.0630058
0.0639147
0.0648165
0.065711
0.0665981
0.0674784
0.0683529
0.0692215
0.0700844
0.0709423
0.0717951
0.0726429
0.073487
0.0417189
0.0418845
0.0421496
0.0425095
0.0429573
0.043486
0.0440878
0.044754
0.0454744
0.0462387
0.0470382
0.0478673
0.0487201
0.0495912
0.0504748
0.0513664
0.052264
0.0531655
0.0540693
0.0549743
0.0558795
0.0567845
0.0576877
0.0585871
0.0594813
0.0603699
0.06125
0.0621209
0.0629837
0.0638394
0.0646886
0.0655304
0.0663622
0.0671845
0.0679976
0.068803
0.0696024
0.0703938
0.0711786
0.0719573
0.0727297
0.0734956
0.0742564
0.0444087
0.0445627
0.0448127
0.0451529
0.0455754
0.046076
0.0466486
0.047286
0.047976
0.0487044
0.0494637
0.0502536
0.0510677
0.0518992
0.0527398
0.0535859
0.0544373
0.0552938
0.0561523
0.0570115
0.0578722
0.0587341
0.059593
0.0604453
0.0612924
0.0621333
0.0629598
0.063775
0.0645826
0.0653842
0.0661787
0.0669653
0.0677346
0.0684956
0.0692434
0.0699852
0.0707225
0.0714451
0.0721634
0.072874
0.073577
0.0742721
0.0749592
0.0467274
0.0468717
0.0471086
0.0474331
0.0478303
0.048307
0.0488562
0.049472
0.0501368
0.0508301
0.0515517
0.0523119
0.0530949
0.053895
0.0546948
0.0554998
0.0563138
0.0571347
0.0579556
0.0587789
0.0596081
0.060441
0.0612635
0.0620747
0.0628846
0.0636869
0.0644583
0.0652283
0.0659925
0.0667527
0.0675009
0.0682426
0.0689473
0.069664
0.0703486
0.0710418
0.0717316
0.0723831
0.0730491
0.0737002
0.0743471
0.0749838
0.0756048
0.0322786
0.0312503
0.0302273
0.0292102
0.0282004
0.027199
0.0262067
0.0252245
0.0242529
0.0232922
0.0223426
0.0214043
0.0204773
0.0195613
0.0186564
0.017762
0.0168782
0.0160045
0.0151407
0.0142864
0.0134418
0.0126068
0.0117816
0.0109671
0.0101641
0.00937418
0.00859933
0.00784221
0.00710596
0.00639391
0.0057096
0.00505658
0.00443799
0.00385636
0.00331361
0.00281101
0.00234927
0.00192979
0.0015537
0.00122702
0.000987076
0.000779891
0.000532696
0.0322787
0.0313292
0.0303856
0.0294474
0.0285151
0.0275891
0.0266701
0.0257586
0.0248549
0.0239593
0.0230718
0.0221926
0.0213215
0.0204584
0.0196031
0.0187555
0.0179152
0.017082
0.0162555
0.0154357
0.0146224
0.0138155
0.0130153
0.0122221
0.0114366
0.0106598
0.00989338
0.00913923
0.0083996
0.00767724
0.00697531
0.00629665
0.00564409
0.00501965
0.00442374
0.00385554
0.00331359
0.00280688
0.00236168
0.00201422
0.00169306
0.00135286
0.000910556
0.0322774
0.0314079
0.0305411
0.0296776
0.0288179
0.0279624
0.0271116
0.0262655
0.0254247
0.0245889
0.0237585
0.0229334
0.0221135
0.0212985
0.0204885
0.0196833
0.0188826
0.0180861
0.0172938
0.0165055
0.0157211
0.0149407
0.0141642
0.0133922
0.0126251
0.0118637
0.0111092
0.010363
0.00962669
0.00890216
0.00819158
0.00749614
0.00681716
0.00615429
0.00550536
0.00486745
0.00424534
0.00368418
0.00321898
0.00278862
0.00234889
0.001844
0.00120732
0.0322753
0.0314805
0.0306843
0.0298887
0.0290946
0.0283023
0.0275123
0.0267246
0.0259394
0.0251568
0.0243769
0.0235997
0.0228248
0.0220523
0.0212822
0.020514
0.0197479
0.0189836
0.0182209
0.0174599
0.0167005
0.0159426
0.0151865
0.0144325
0.0136809
0.0129325
0.0121879
0.0114482
0.0107142
0.00998719
0.00926803
0.00855658
0.00785227
0.00715242
0.0064527
0.00574962
0.0050781
0.00447468
0.00396576
0.00345726
0.00290819
0.00225226
0.00145101
0.0322816
0.0315492
0.0308157
0.030081
0.0293455
0.0286097
0.0278738
0.0271378
0.0264021
0.0256664
0.0249311
0.0241958
0.0234606
0.0227254
0.02199
0.0212543
0.0205181
0.0197814
0.0190441
0.0183062
0.0175677
0.0168287
0.0160892
0.0153495
0.0146101
0.0138712
0.0131335
0.0123973
0.0116633
0.0109318
0.0102027
0.00947501
0.00874631
0.00801258
0.00726828
0.00651371
0.00581398
0.00520716
0.00462871
0.00403719
0.00338446
0.0025942
0.00165348
0.032284
0.0316124
0.0309359
0.0302559
0.029573
0.0288875
0.0281997
0.0275098
0.0268177
0.0261236
0.0254275
0.0247293
0.0240289
0.0233265
0.0226216
0.0219141
0.0212039
0.0204909
0.0197753
0.0190571
0.0183362
0.0176127
0.0168866
0.0161583
0.0154279
0.0146958
0.013962
0.0132271
0.012491
0.0117535
0.0110137
0.0102699
0.00951839
0.00875466
0.00797306
0.00718512
0.00645862
0.00582607
0.00519677
0.00453486
0.00379033
0.00288256
0.00182168
0.0322931
0.0316723
0.0310464
0.0304154
0.0297794
0.0291387
0.0284938
0.0278446
0.0271913
0.0265339
0.0258723
0.0252066
0.0245371
0.0238634
0.0231856
0.0225032
0.0218159
0.0211233
0.020426
0.0197246
0.0190187
0.0183081
0.0175929
0.0168733
0.0161499
0.0154223
0.0146906
0.013955
0.0132152
0.0124705
0.0117196
0.0109599
0.0101875
0.00939654
0.00858283
0.00777471
0.0070332
0.00636493
0.00568862
0.00496461
0.00413847
0.0031263
0.00196149
0.0323017
0.0317281
0.0311478
0.0305609
0.0299669
0.0293661
0.0287596
0.0281463
0.0275274
0.0269023
0.0262713
0.0256338
0.0249912
0.024343
0.0236893
0.0230301
0.0223641
0.0216895
0.0210067
0.0203188
0.0196262
0.0189276
0.0182209
0.0175076
0.0167894
0.0160654
0.0153345
0.0145965
0.0138515
0.0130986
0.012336
0.0115608
0.0107689
0.00995368
0.00911109
0.00829455
0.0075539
0.00684429
0.00612213
0.00534257
0.00444282
0.00333377
0.00207397
0.0323114
0.0317799
0.0312404
0.0306941
0.0301385
0.029572
0.0290007
0.028418
0.0278306
0.0272329
0.0266312
0.0260156
0.0253968
0.0247705
0.0241382
0.0235002
0.0228573
0.0222017
0.0215275
0.0208485
0.0201665
0.0194829
0.0187836
0.0180725
0.0173573
0.0166376
0.0159078
0.0151658
0.0144142
0.0136511
0.0128758
0.0120848
0.011274
0.01044
0.0095782
0.00876081
0.00801307
0.00726593
0.0065042
0.00568104
0.00472888
0.00355307
0.00220459
0.000399825
0.0004858
0.000675703
0.000854887
0.00102549
0.00118967
0.00135034
0.00151147
0.00167892
0.00186114
0.00206811
0.00230553
0.00257358
0.00287035
0.00319372
0.00354206
0.00391471
0.0043117
0.00473276
0.00517834
0.00564903
0.00614538
0.00666779
0.00721676
0.00779302
0.0083967
0.00902895
0.00969019
0.0103812
0.011103
0.0118561
0.0126417
0.0134606
0.0143138
0.0152024
0.0161272
0.0170891
0.0180893
0.0191285
0.0202077
0.0213275
0.0224895
0.0236984
0.000578589
0.000643166
0.000834738
0.00102282
0.00120336
0.00138011
0.00155865
0.00174628
0.00195074
0.0021795
0.00243903
0.00273206
0.00305237
0.00339683
0.00376383
0.00415268
0.00456292
0.00499437
0.0054473
0.00592176
0.00641803
0.00693661
0.00747754
0.00804133
0.00862804
0.00923821
0.00987267
0.0105316
0.0112159
0.0119261
0.012663
0.0134273
0.0142196
0.0150409
0.0158919
0.0167734
0.0176861
0.0186308
0.0196085
0.0206196
0.0216648
0.0227443
0.0238536
0.000745758
0.000785681
0.000981796
0.0011805
0.00137518
0.00157195
0.0017789
0.00200401
0.00225352
0.00253164
0.00284149
0.00318336
0.00354855
0.00393483
0.00434093
0.00476625
0.00521043
0.0056734
0.00615505
0.00665534
0.0071746
0.00771278
0.00826979
0.00884589
0.00944151
0.0100566
0.0106918
0.0113478
0.0120246
0.012723
0.0134432
0.0141862
0.0149523
0.0157421
0.0165565
0.0173957
0.0182605
0.0191516
0.0200693
0.0210142
0.0219867
0.0229868
0.0240134
0.000890807
0.000911153
0.0011144
0.00132635
0.00153997
0.0017635
0.00200552
0.00227244
0.00256722
0.00289122
0.00324697
0.00363066
0.00403487
0.0044577
0.00489804
0.00535552
0.00582968
0.00632027
0.00682721
0.00735003
0.00788888
0.00844359
0.00901417
0.00960059
0.0102028
0.0108213
0.0114565
0.0121085
0.0127775
0.0134641
0.0141682
0.0148907
0.015632
0.0163924
0.0171721
0.0179719
0.0187921
0.0196332
0.0204954
0.0213791
0.0222848
0.0232128
0.0241648
0.00101401
0.00102171
0.00123498
0.00146331
0.00170025
0.00195495
0.00223469
0.0025427
0.00287919
0.00324445
0.00364156
0.00406168
0.00449994
0.00495512
0.00542587
0.00591189
0.00641251
0.00692743
0.00745645
0.00799892
0.00855452
0.00912345
0.00970529
0.0103
0.0109077
0.0115286
0.0121627
0.0128103
0.0134714
0.0141465
0.0148355
0.0155387
0.0162566
0.0169895
0.0177374
0.0185008
0.01928
0.020075
0.0208864
0.0217142
0.0225589
0.0234205
0.024299
0.00111843
0.00112056
0.00134627
0.00159367
0.00185706
0.00214472
0.00246149
0.00280776
0.00318216
0.00358526
0.00401802
0.00447047
0.00493916
0.00542304
0.00592093
0.00643238
0.00695663
0.0074932
0.00804142
0.00860078
0.00917104
0.00975206
0.0103435
0.0109452
0.0115573
0.0121796
0.0128122
0.0134553
0.0141089
0.0147728
0.0154474
0.0161328
0.0168292
0.0175365
0.018255
0.018985
0.0197265
0.0204796
0.0212444
0.0220213
0.0228105
0.0236119
0.024427
0.00120723
0.00120928
0.00144997
0.00171872
0.00201001
0.00233047
0.00268206
0.00306296
0.00347128
0.00390934
0.00437318
0.00485432
0.00535031
0.00585992
0.00638219
0.00691635
0.00746166
0.00801713
0.00858238
0.00915683
0.00974008
0.0103316
0.0109314
0.011539
0.0121546
0.012778
0.0134089
0.0140475
0.0146936
0.0153473
0.0160084
0.0166771
0.0173534
0.0180373
0.0187288
0.019428
0.0201348
0.0208493
0.0215719
0.0223025
0.0230411
0.0237875
0.0245418
0.00128289
0.0012927
0.0015494
0.00183943
0.00215784
0.00250933
0.00289308
0.00330538
0.00374439
0.00421378
0.00470494
0.00521193
0.00573259
0.00626579
0.00681032
0.00736522
0.00792926
0.00850182
0.00908292
0.00967182
0.0102669
0.0108673
0.0114736
0.0120859
0.0127044
0.0133287
0.0139582
0.0145924
0.015231
0.0158747
0.0165233
0.0171763
0.017834
0.0184963
0.019163
0.0198336
0.0205083
0.0211874
0.0218715
0.0225602
0.0232529
0.0239498
0.0246524
0.00135442
0.00135732
0.00163078
0.00194857
0.00230004
0.00268332
0.00309561
0.00353454
0.00400024
0.00449708
0.00501676
0.00555091
0.00609614
0.00665275
0.00721868
0.00779122
0.00837119
0.00895985
0.00956042
0.010167
0.0107693
0.0113712
0.0119809
0.0125942
0.0132179
0.013843
0.0144713
0.015099
0.0157279
0.016363
0.0169994
0.0176367
0.0182763
0.0189195
0.019563
0.0202054
0.020849
0.0214951
0.022145
0.0227967
0.0234481
0.0240992
0.0247535
0.000428107
0.00170304
0.00344539
0.00515632
0.0067718
0.00828929
0.00971446
0.011054
0.0123158
0.0135164
0.0146809
0.0158343
0.0169867
0.0181318
0.0192844
0.020571
0.0219895
0.0235036
0.0250849
0.0267155
0.0283835
0.0300807
0.031801
0.0335405
0.035296
0.0370652
0.0388463
0.040638
0.0424383
0.0442461
0.0460605
0.04788
0.0497038
0.0515308
0.0533597
0.0551894
0.0570191
0.0588471
0.0606725
0.0624949
0.064314
0.0661302
0.067946
0.000331626
0.00136918
0.00301666
0.00444198
0.00574393
0.00699287
0.00821
0.00940206
0.0105714
0.0117193
0.0128491
0.0139666
0.0150781
0.0161912
0.0173239
0.0185144
0.0197755
0.0210888
0.0224579
0.0239803
0.0256192
0.027335
0.0291028
0.0309074
0.0327385
0.034589
0.0364547
0.0383323
0.0402187
0.042112
0.0440108
0.0459134
0.0478187
0.0497253
0.0516318
0.0535376
0.0554412
0.0573413
0.0592373
0.0611287
0.0630151
0.0648968
0.0667754
0.000260466
0.00106639
0.00240213
0.00403352
0.00555236
0.00689578
0.00810756
0.00922556
0.0102799
0.0112941
0.0122864
0.0132713
0.0142611
0.0152678
0.0163051
0.0173868
0.0185239
0.0197205
0.020983
0.0223283
0.0237439
0.0252787
0.0269588
0.0287363
0.0305776
0.0324612
0.0343732
0.0363049
0.0382509
0.0402063
0.0421683
0.0441346
0.0461036
0.048073
0.0500418
0.0520087
0.0539721
0.055931
0.057885
0.059833
0.0617745
0.06371
0.0656399
0.000317715
0.000998352
0.0022141
0.0037372
0.00536478
0.00686833
0.00821807
0.00942909
0.0105229
0.0115231
0.0124548
0.0133429
0.014212
0.0150846
0.0159813
0.0169194
0.0179136
0.0189752
0.0201113
0.021325
0.022616
0.0239922
0.0254533
0.0270464
0.0287903
0.0306344
0.0325422
0.0344918
0.0364688
0.038464
0.0404707
0.0424851
0.0445037
0.046524
0.0485443
0.0505625
0.052577
0.054587
0.0565913
0.058589
0.0605797
0.0625628
0.0645377
0.000312809
0.000946747
0.00208812
0.00351209
0.00514835
0.00676321
0.00824607
0.00958531
0.0107906
0.0118743
0.0128522
0.013744
0.0145735
0.0153675
0.0161535
0.0169582
0.0178056
0.0187157
0.0197028
0.0207746
0.0219347
0.0231827
0.0245159
0.0259401
0.0274619
0.0291558
0.0309847
0.0329011
0.0348734
0.0368814
0.0389123
0.0409581
0.0430127
0.0450721
0.0471335
0.0491941
0.051252
0.0533056
0.0553539
0.0573956
0.0594295
0.0614551
0.0634699
0.000313247
0.000917882
0.0020149
0.00337571
0.00497414
0.00664896
0.00823689
0.00968912
0.0110037
0.012188
0.0132514
0.0142057
0.0150668
0.0158554
0.0165971
0.0173207
0.0180561
0.0188317
0.0196716
0.0205937
0.0216088
0.0227209
0.0239291
0.0252296
0.0266209
0.0281171
0.0297577
0.0315644
0.033481
0.0354669
0.0374971
0.0395553
0.0416309
0.0437173
0.0458094
0.0479033
0.0499965
0.0520869
0.0541727
0.0562522
0.0583249
0.0603899
0.0624486
0.000305597
0.000891752
0.00195344
0.00326588
0.00481425
0.00650814
0.00817596
0.00972873
0.0111463
0.0124306
0.0135876
0.0146247
0.0155518
0.0163829
0.0171368
0.0178379
0.0185147
0.0191985
0.01992
0.0207063
0.0215779
0.022548
0.0236218
0.0247985
0.0260742
0.0274461
0.0289204
0.0305274
0.0323188
0.034236
0.0362331
0.0382807
0.0403605
0.0424603
0.044572
0.0466901
0.0488105
0.0509305
0.0530473
0.0551594
0.0572652
0.0593631
0.0614499
0.000298402
0.000871597
0.00190546
0.0031795
0.00468227
0.00636532
0.00808468
0.00972088
0.0112308
0.0126077
0.0138548
0.014977
0.0159811
0.0168759
0.0176746
0.018395
0.0190609
0.0197005
0.0203456
0.0210278
0.0217757
0.0226117
0.0235501
0.0245972
0.0257524
0.0270112
0.0283689
0.029829
0.0314228
0.0332098
0.035132
0.0371408
0.0392041
0.0413021
0.0434218
0.0455543
0.0476939
0.0498362
0.0519779
0.0541167
0.0562506
0.0583779
0.0604977
0.000289319
0.000852863
0.00186196
0.00310285
0.00456465
0.00622012
0.00796543
0.0096677
0.0112597
0.0127224
0.0140547
0.0152599
0.0163425
0.0173087
0.0181673
0.0189312
0.0196184
0.0202523
0.0208614
0.0214774
0.0221323
0.0228553
0.0236693
0.0245889
0.0256207
0.0267637
0.028013
0.0293636
0.0308193
0.0324158
0.0342104
0.0361439
0.0381661
0.0402446
0.0423588
0.0444956
0.0466459
0.0488034
0.0509639
0.0531239
0.055281
0.0574328
0.0595773
0.000279658
0.000835943
0.00182266
0.0030342
0.0044595
0.00608091
0.00783019
0.00957987
0.0112419
0.0127822
0.0141937
0.0154773
0.0166363
0.0176751
0.0185995
0.0194188
0.0201464
0.0208007
0.0214056
0.0219896
0.0225846
0.0232225
0.0239323
0.0247362
0.0256486
0.0266754
0.0278151
0.0290628
0.0304137
0.0318744
0.0334883
0.0353019
0.0372523
0.0392903
0.0413843
0.043514
0.0456659
0.0478316
0.0500046
0.0521803
0.0543556
0.0565272
0.0586921
0.000269135
0.000819894
0.0017857
0.00297017
0.00436211
0.00594813
0.00768496
0.00946415
0.0111833
0.012793
0.0142773
0.0156345
0.0168665
0.0179762
0.0189678
0.0198478
0.0206261
0.0213169
0.0219394
0.0225183
0.0230826
0.0236641
0.0242942
0.0250008
0.0258052
0.0267205
0.0277515
0.0288961
0.0301496
0.0315081
0.0329829
0.0346292
0.036471
0.0384433
0.0404997
0.0426096
0.0447538
0.0469198
0.0490989
0.0512852
0.0534738
0.0556609
0.0578421
0.00025797
0.000804505
0.00175046
0.00290972
0.00427076
0.00582211
0.00753632
0.00932845
0.0110917
0.0127613
0.014312
0.0157376
0.0170384
0.0182161
0.0192737
0.0202159
0.0210499
0.0217865
0.022441
0.023034
0.0235909
0.0241411
0.0247162
0.0253469
0.0260595
0.0268736
0.0278005
0.0288436
0.0300004
0.0312659
0.0326386
0.0341371
0.035831
0.0377084
0.0397066
0.0417826
0.0439089
0.0460674
0.0482464
0.0504377
0.0526354
0.0548352
0.0570355
0.000246175
0.000789427
0.00171637
0.00285173
0.00418375
0.00570174
0.00738764
0.009179
0.0109732
0.0126933
0.0143036
0.0157924
0.0171574
0.0183996
0.0195211
0.0205249
0.0214164
0.0222038
0.0228992
0.0235193
0.0240859
0.0246253
0.0251675
0.0257436
0.0263827
0.0271096
0.0279414
0.0288873
0.0299492
0.0311239
0.0324068
0.0338006
0.035338
0.0370901
0.0390077
0.0410341
0.0431309
0.0452735
0.0474458
0.0496367
0.0518388
0.0540462
0.0562539
0.000233934
0.000774925
0.00168357
0.00279599
0.00410041
0.00558665
0.00724174
0.00902143
0.0108341
0.0125952
0.0142582
0.0158045
0.0172293
0.0185323
0.0197145
0.0207782
0.0217272
0.0225677
0.023309
0.0239648
0.0245534
0.0250977
0.0256253
0.026166
0.0267501
0.0274053
0.0281537
0.0290099
0.0299809
0.0310669
0.0322644
0.0335705
0.0349954
0.0365946
0.0384066
0.0403652
0.04242
0.0445375
0.046696
0.0488812
0.0510833
0.0532964
0.0555175
0.000221222
0.000760932
0.00165173
0.0027422
0.00402021
0.00547595
0.00709959
0.00885989
0.0106802
0.0124726
0.0141808
0.0157792
0.0172594
0.0186191
0.0198589
0.0209801
0.0219855
0.0228794
0.0236693
0.0243662
0.0249851
0.0255461
0.0260734
0.0265952
0.0271414
0.0277407
0.0284189
0.0291952
0.0300815
0.0310823
0.0321969
0.0334216
0.0347574
0.0362271
0.0379068
0.0397777
0.0417765
0.0438588
0.0459964
0.0481701
0.0503679
0.0525802
0.0548005
0.000208008
0.000747155
0.00162061
0.00268984
0.00394253
0.00536902
0.0069614
0.00869756
0.0105158
0.0123301
0.0140762
0.0157213
0.0172522
0.018665
0.0199589
0.021135
0.0221948
0.0231416
0.0239811
0.0247221
0.0253771
0.0259629
0.0265013
0.0270177
0.0275405
0.028099
0.0287206
0.029428
0.0302376
0.0311585
0.0321932
0.0333399
0.0345965
0.0359707
0.0375093
0.039273
0.0412006
0.0432373
0.0453461
0.0475025
0.0496898
0.0518964
0.0541111
0.000194308
0.000733671
0.00159026
0.00263895
0.00386722
0.00526568
0.00682747
0.00853655
0.0103448
0.0121722
0.013949
0.0156352
0.0172125
0.0186744
0.0200193
0.0212472
0.0223592
0.0233575
0.0242466
0.0250332
0.0257277
0.0263444
0.026902
0.0274237
0.0279358
0.0284667
0.0290447
0.0296948
0.0304369
0.0312845
0.0322436
0.0333153
0.0344975
0.0357916
0.0372183
0.0388535
0.0406937
0.0426729
0.0447443
0.0468768
0.0490493
0.0512469
0.0534572
0.000180107
0.000720634
0.00156073
0.00258953
0.00379437
0.00516586
0.00669767
0.00837829
0.0101707
0.0120033
0.0138038
0.0155252
0.0171444
0.0186517
0.0200441
0.021321
0.0224827
0.0235308
0.0244685
0.0253012
0.0260372
0.0266887
0.0272718
0.027807
0.0283185
0.0288335
0.0293798
0.0299839
0.0306683
0.03145
0.032339
0.0333393
0.0344505
0.035672
0.0370126
0.0385185
0.0402557
0.0421653
0.0441905
0.0462926
0.0484461
0.0506334
0.0528452
0.000165356
0.000708024
0.0015321
0.00254165
0.00372369
0.00506901
0.006572
0.00822377
0.00999587
0.0118268
0.013644
0.0153952
0.0170516
0.0186007
0.0200373
0.0213602
0.0225691
0.0236649
0.0246499
0.0255283
0.0263069
0.0269956
0.0276085
0.0281635
0.0286828
0.0291915
0.0297168
0.0302855
0.030922
0.031646
0.0324709
0.0334042
0.0344478
0.0356013
0.0368677
0.0382704
0.039888
0.0417147
0.0436845
0.0457497
0.0478788
0.0500496
0.0522446
0.000149972
0.00069576
0.00150419
0.00249505
0.00365502
0.00497523
0.00645023
0.00807308
0.00982204
0.0116452
0.0134729
0.0152483
0.0169378
0.0185248
0.0200025
0.0213685
0.022622
0.0237634
0.0247941
0.0257173
0.0265385
0.027266
0.0279116
0.0284913
0.0290247
0.0295352
0.0300487
0.0305917
0.0311896
0.0318641
0.0326318
0.0335031
0.0344827
0.0355716
0.036771
0.0380926
0.0395894
0.0413213
0.0432259
0.0452474
0.0473473
0.0495002
0.05169
0.000133945
0.000683815
0.00147693
0.00244967
0.0035884
0.00488425
0.00633218
0.0079264
0.00965044
0.0114613
0.0132936
0.0150879
0.0168058
0.0184271
0.0199428
0.0213492
0.0226448
0.0238294
0.024904
0.0258709
0.0267343
0.0275011
0.0281815
0.0287892
0.0293418
0.0298607
0.0303702
0.0308961
0.0314641
0.0320974
0.0328147
0.0336296
0.0345494
0.0355771
0.0367138
0.0379653
0.0393614
0.0409855
0.0428147
0.0447851
0.046851
0.0489825
0.0511624
0.000117748
0.000672156
0.00145038
0.00240553
0.00352364
0.00479592
0.00621764
0.00778392
0.00948213
0.0112768
0.0131084
0.0149166
0.0166587
0.0183108
0.0198614
0.0213053
0.0226404
0.0238661
0.0249827
0.0259918
0.0268966
0.0277029
0.0284191
0.0290571
0.0296328
0.0301653
0.0306774
0.0311938
0.0317398
0.0323395
0.0330136
0.0337778
0.0346423
0.0356124
0.0366899
0.0378785
0.0391953
0.0407061
0.0424505
0.0443623
0.0463882
0.0484923
0.0506489
0.000103068
0.000660812
0.00142465
0.00236268
0.00346075
0.00471037
0.00610669
0.00764575
0.00931751
0.0110932
0.0129198
0.014737
0.016499
0.0181784
0.0197608
0.0212397
0.0226119
0.0238764
0.025033
0.0260827
0.0270279
0.0278731
0.0286257
0.0292958
0.0298972
0.0304476
0.0309677
0.0314809
0.0320121
0.0325855
0.0332231
0.0339425
0.0347566
0.0356728
0.0366946
0.0378249
0.0390739
0.0404828
0.042133
0.0439784
0.0459587
0.048032
0.050171
9.29225e-05
0.000649527
0.00139955
0.00232106
0.00339978
0.00462728
0.00599917
0.00751177
0.00915699
0.0109119
0.0127293
0.0145511
0.0163291
0.0180322
0.0196436
0.0211547
0.0225618
0.0238629
0.0250575
0.0261461
0.0271304
0.028014
0.0288029
0.029506
0.0301353
0.0307067
0.0312391
0.0317547
0.0322773
0.0328311
0.0334386
0.0341192
0.0348879
0.0357541
0.0367235
0.037799
0.0389875
0.0403147
0.0418619
0.043633
0.0455615
0.047599
0.0497121
8.74032e-05
0.000638324
0.00137521
0.00228068
0.00334055
0.00454673
0.00589494
0.00738175
0.00900086
0.0107334
0.0125385
0.0143611
0.0161511
0.0178747
0.0195121
0.0210529
0.0224923
0.023828
0.0250587
0.0261845
0.0272064
0.0281275
0.0289525
0.0296889
0.0303475
0.0309424
0.0314908
0.0320133
0.0325328
0.0330728
0.0336563
0.0343039
0.035032
0.0358526
0.0367728
0.037797
0.0389303
0.0401898
0.0416355
0.043325
0.0451958
0.0471918
0.0492725
8.35071e-05
0.000627422
0.00135163
0.00224147
0.00328318
0.00446878
0.00579395
0.0072559
0.00884914
0.0105585
0.0123488
0.0141685
0.015967
0.0177077
0.0193682
0.0209363
0.022406
0.023774
0.0250388
0.0262
0.0272583
0.0282156
0.0290761
0.029846
0.0305348
0.0311549
0.0317221
0.0322554
0.0327763
0.0333079
0.033873
0.0344928
0.0351855
0.0359647
0.0368394
0.0378153
0.0388972
0.0400968
0.0414538
0.0430547
0.0448613
0.0468117
0.0488598
7.99476e-05
0.000616819
0.00132875
0.00220347
0.00322759
0.0043932
0.0056962
0.00713385
0.00870192
0.0103877
0.0121612
0.0139747
0.0157782
0.0175329
0.0192139
0.0208069
0.0223045
0.0237029
0.025
0.0261949
0.0272879
0.0282804
0.0291755
0.0299788
0.0306982
0.0313448
0.0319329
0.0324801
0.0330065
0.0335343
0.034086
0.0346833
0.0353453
0.0360873
0.0369201
0.0378508
0.0388846
0.0400302
0.0413151
0.0428214
0.0445581
0.0464586
0.0484725
7.65461e-05
0.000606482
0.00130644
0.00216654
0.00317361
0.00431985
0.00560135
0.00701563
0.00855891
0.010221
0.0119761
0.0137809
0.0155864
0.017352
0.0190507
0.0206663
0.0221898
0.0236165
0.024944
0.026171
0.0272973
0.0283236
0.0292525
0.0300886
0.0308387
0.0315127
0.0321235
0.0326871
0.0332224
0.0337504
0.0342933
0.0348728
0.0355087
0.0362176
0.0370121
0.0379007
0.0388895
0.0399858
0.0412094
0.0426237
0.0442855
0.0461319
0.0481075
7.32388e-05
0.000596417
0.00128481
0.00213073
0.00312119
0.00424873
0.00550946
0.00690093
0.00842024
0.0100586
0.0117943
0.0135881
0.0153927
0.0171664
0.0188803
0.0205161
0.0220634
0.0235167
0.0248729
0.0261302
0.0272881
0.028347
0.0293087
0.030177
0.0309578
0.0316596
0.0322942
0.0328762
0.0334232
0.033955
0.0344931
0.0350591
0.0356733
0.0363534
0.0371132
0.0379628
0.0389094
0.0399599
0.0411289
0.0424615
0.0440433
0.0458322
0.0477698
7.0103e-05
0.000586719
0.00126387
0.00209598
0.00307043
0.00417987
0.00542036
0.00678987
0.00828577
0.00990074
0.0116163
0.0133971
0.0151981
0.0169776
0.0187041
0.0203578
0.0219269
0.0234049
0.024788
0.0260741
0.0272621
0.0283523
0.0293457
0.0302454
0.0310565
0.0317865
0.0324458
0.0330477
0.0336086
0.0341472
0.0346842
0.0352407
0.0358373
0.0364923
0.037221
0.0380348
0.0389421
0.0399497
0.0410697
0.0423345
0.0438312
0.0455578
0.0474498
6.71047e-05
0.000577259
0.00124354
0.00206231
0.00302125
0.00411303
0.00533404
0.00668227
0.00815527
0.00974729
0.0114421
0.0132085
0.0150038
0.0167863
0.0185231
0.0201927
0.0217817
0.0232826
0.0246909
0.0260042
0.027221
0.028341
0.0293649
0.0302953
0.0311362
0.0318943
0.0325789
0.033202
0.0337787
0.0343266
0.0348655
0.035416
0.0359987
0.0366325
0.0373336
0.0381147
0.0389854
0.0399532
0.0410283
0.0422357
0.0436478