/*--------------------------------*- C++ -*----------------------------------*\
| =========                 |                                                 |
| \\      /  F ield         | OpenFOAM: The Open Source CFD Toolbox           |
|  \\    /   O peration     | Version:  2.3.0                                 |
|   \\  /    A nd           | Web:      www.OpenFOAM.org                      |
|    \\/     M anipulation  |                                                 |
\*---------------------------------------------------------------------------*/
FoamFile
{
    version     2.0;
    format      ascii;
    class       surfaceScalarField;
    location    "5000";
    object      phi;
}
// * * * * * * * * * * * * * * * * * * * * * * * * * * * * * * * * * * * * * //

dimensions      [0 3 -1 0 0 0 0];

internalField   nonuniform List<scalar> 
75882
(
-0.00285066
-0.00794422
0.00872813
0.00206676
-0.00358728
-0.00767768
0.00841431
-0.00427647
-0.00742259
0.00811178
-0.00492195
-0.00717486
0.00782034
-0.00552452
-0.00693495
0.00753752
-0.00608607
-0.00670312
0.00726467
-0.00660749
-0.00648001
0.00700143
-0.00708995
-0.00626222
0.00674468
-0.00753491
-0.0060522
0.00649715
-0.00794479
-0.00584836
0.00625824
-0.0083183
-0.00565262
0.00602613
-0.00865894
-0.00546048
0.00580112
-0.00896799
-0.00527605
0.00558509
-0.00924595
-0.00509671
0.00537467
-0.00949359
-0.00492246
0.0051701
-0.00971369
-0.00475441
0.00497451
-0.00990777
-0.00458934
0.00478342
-0.0100755
-0.00443144
0.00459916
-0.0102182
-0.00427622
0.00441888
-0.0103408
-0.0041245
0.00424714
-0.0104431
-0.00397802
0.00408028
-0.0105266
-0.00383499
0.0039185
-0.010593
-0.00369455
0.00376092
-0.0106418
-0.00355876
0.00360759
-0.0106759
-0.00342538
0.00345946
-0.0106963
-0.00329393
0.00331437
-0.0107068
-0.00316272
0.00317326
-0.0107
-0.00303575
0.00302895
-0.0106833
-0.00290747
0.0028908
-0.0106464
-0.00278337
0.00274643
-0.0105956
-0.00265156
0.00260074
-0.0105214
-0.0025245
0.00245035
-0.0104258
-0.00239179
0.00229619
-0.0103027
-0.00225521
0.00213211
-0.0101494
-0.00211502
0.00196176
-0.009968
-0.00196578
0.00178441
-0.00974994
-0.0018108
0.00159275
-0.0094975
-0.00164588
0.00139348
-0.00921358
-0.00147022
0.00118633
-0.00889858
-0.0012824
0.000967421
-0.00855446
-0.00108473
0.000740639
-0.00818924
-0.000880962
0.00051573
-0.000670033
-0.00792931
0.000410137
-0.00260449
-0.00724537
0.00190564
-0.00325703
-0.00702515
-0.00386924
-0.00681037
-0.0044408
-0.00660331
-0.00497237
-0.00640338
-0.0054654
-0.00621009
-0.00592246
-0.00602295
-0.00634238
-0.0058423
-0.00672833
-0.00566624
-0.00707932
-0.00549737
-0.00739962
-0.00533231
-0.0076885
-0.00517161
-0.00794657
-0.00501798
-0.00817726
-0.00486602
-0.00837821
-0.00472151
-0.00855403
-0.00457859
-0.0087033
-0.00444007
-0.00882984
-0.00430489
-0.00893144
-0.00417461
-0.0090108
-0.00404514
-0.00906888
-0.00391994
-0.00910689
-0.00379698
-0.00912399
-0.00367744
-0.00912471
-0.00355804
-0.00911004
-0.00344005
-0.00907786
-0.00332611
-0.00903127
-0.00320931
-0.00897248
-0.00309454
-0.00889926
-0.0029807
-0.00881792
-0.0028647
-0.00872234
-0.00274714
-0.00861755
-0.00262928
-0.00850051
-0.00250882
-0.00837023
-0.00238548
-0.0082266
-0.00225865
-0.00806448
-0.00212789
-0.00788017
-0.00199511
-0.00767145
-0.00185459
-0.00742404
-0.00171762
-0.00713326
-0.00157318
-0.00678207
-0.00143591
-0.00636483
-0.00129819
-0.00116953
-0.00586533
-0.0023685
-0.00662183
0.00174495
-0.0029531
-0.00644055
-0.00349812
-0.00626535
-0.00400506
-0.00609637
-0.00447536
-0.00593308
-0.00491026
-0.00577519
-0.0053116
-0.0056216
-0.00567966
-0.00547424
-0.0060157
-0.00533021
-0.00632255
-0.00519053
-0.00659905
-0.0050558
-0.00684509
-0.00492557
-0.00706657
-0.00479649
-0.00725938
-0.00467322
-0.00742797
-0.00455292
-0.00757128
-0.00443528
-0.0076911
-0.00432025
-0.00778846
-0.00420754
-0.00786603
-0.00409704
-0.00791993
-0.00399124
-0.00795513
-0.00388474
-0.00797149
-0.00378062
-0.00797088
-0.00367805
-0.00795275
-0.00357617
-0.00791625
-0.00347655
-0.0078649
-0.00337746
-0.00779767
-0.00327654
-0.00771531
-0.00317689
-0.0076198
-0.00307621
-0.00751016
-0.00297435
-0.00738654
-0.00287076
-0.00724875
-0.00276708
-0.00709871
-0.00265886
-0.00693644
-0.00254775
-0.00675947
-0.00243562
-0.0065671
-0.00232026
-0.00636204
-0.00220017
-0.00613735
-0.00207928
-0.00589618
-0.00195878
-0.00563477
-0.00183459
-0.00535639
-0.00171429
-0.00505366
-0.00160092
-0.00149274
-0.00473045
-0.00215554
-0.00606406
0.00159778
-0.00267566
-0.00592043
-0.00316154
-0.00577947
-0.00361243
-0.00564548
-0.00403005
-0.00551546
-0.00441546
-0.00538978
-0.00476843
-0.00526863
-0.00509381
-0.00514886
-0.0053885
-0.00503552
-0.00565594
-0.00492309
-0.0058954
-0.00481634
-0.00611052
-0.00471046
-0.00629915
-0.00460785
-0.00646414
-0.00450823
-0.00660596
-0.0044111
-0.00672663
-0.0043146
-0.00682491
-0.00422197
-0.00690232
-0.00413012
-0.00695878
-0.00404059
-0.00699865
-0.00395137
-0.00701934
-0.00386405
-0.0070235
-0.00377646
-0.00700959
-0.00369197
-0.00697928
-0.00360648
-0.00693655
-0.00351927
-0.00687748
-0.00343653
-0.00680523
-0.0033488
-0.00671923
-0.00326289
-0.0066197
-0.00317574
-0.00650864
-0.00308541
-0.00638455
-0.00299485
-0.00624998
-0.00290164
-0.00610248
-0.00280637
-0.00594406
-0.00270617
-0.00577259
-0.00260709
-0.00558984
-0.00250301
-0.00539123
-0.00239878
-0.00518174
-0.00228877
-0.00495905
-0.00218147
-0.00471904
-0.0020746
-0.00446491
-0.00196842
-0.00419942
-0.00186641
-0.00177308
-0.00391908
-0.0019553
-0.00556252
0.00145375
-0.00242197
-0.00545375
-0.00285484
-0.0053466
-0.00325783
-0.00524248
-0.00362839
-0.0051449
-0.00397127
-0.00504691
-0.00428538
-0.00495451
-0.00457136
-0.00486287
-0.00483255
-0.00477434
-0.00506719
-0.00468844
-0.00527822
-0.00460531
-0.00546529
-0.00452339
-0.00562982
-0.00444333
-0.00577132
-0.00436673
-0.00589304
-0.00428938
-0.00599333
-0.00421432
-0.00607517
-0.00414012
-0.00613813
-0.00406716
-0.00618298
-0.00399573
-0.00621175
-0.0039226
-0.0062226
-0.0038532
-0.00621707
-0.00378198
-0.00619905
-0.00370999
-0.00616495
-0.00364057
-0.00611638
-0.00356785
-0.00605704
-0.00349586
-0.0059816
-0.00342424
-0.00589598
-0.00334851
-0.00579941
-0.0032723
-0.00568922
-0.00319561
-0.00556875
-0.00311532
-0.0054368
-0.00303359
-0.00529681
-0.00294636
-0.00514223
-0.00286075
-0.0049798
-0.00276952
-0.00480754
-0.00267526
-0.00462613
-0.00258019
-0.00443127
-0.00248362
-0.00422675
-0.00238599
-0.00401439
-0.00228697
-0.0037911
-0.00219171
-0.00355757
-0.00209993
-0.00201368
-0.00331698
-0.00177435
-0.00511411
0.00132595
-0.00219178
-0.00503632
-0.00258055
-0.00495783
-0.00293795
-0.00488509
-0.00327024
-0.0048126
-0.00357526
-0.0047419
-0.00385447
-0.0046753
-0.00410825
-0.0046091
-0.00433944
-0.00454314
-0.00454691
-0.00448097
-0.00473236
-0.00441987
-0.00489745
-0.0043583
-0.00504002
-0.00430075
-0.00516469
-0.00424206
-0.00527042
-0.00418365
-0.0053563
-0.00412844
-0.00542544
-0.00407098
-0.00547644
-0.00401617
-0.00551313
-0.00395904
-0.00553188
-0.00390385
-0.00553741
-0.00384767
-0.00552875
-0.00379064
-0.00550574
-0.003733
-0.00547041
-0.0036759
-0.00542242
-0.00361584
-0.00536183
-0.00355645
-0.00529051
-0.00349556
-0.0052075
-0.00343152
-0.00511295
-0.00336685
-0.00501028
-0.00329828
-0.00489702
-0.00322858
-0.00477333
-0.00315728
-0.00463955
-0.00308014
-0.00449884
-0.00300146
-0.00434997
-0.0029184
-0.00418964
-0.00283559
-0.0040209
-0.00274894
-0.00384457
-0.00265994
-0.00366049
-0.00257008
-0.00346564
-0.00248182
-0.00326532
-0.00239203
-0.00305713
-0.00230812
-0.00222718
-0.00284362
-0.00160772
-0.00471188
0.00120549
-0.00198388
-0.00466016
-0.00233004
-0.00461167
-0.00265229
-0.00456284
-0.00294907
-0.00451582
-0.00322027
-0.0044707
-0.00346961
-0.00442596
-0.00369652
-0.00438219
-0.00390075
-0.00433891
-0.00408566
-0.00429605
-0.00425048
-0.00425506
-0.00439476
-0.00421402
-0.00452159
-0.00417392
-0.00463069
-0.00413296
-0.00472078
-0.00409356
-0.00479651
-0.0040527
-0.00485468
-0.00401281
-0.00489856
-0.00397229
-0.00492737
-0.00393023
-0.0049429
-0.00388832
-0.00494465
-0.00384593
-0.00493306
-0.00380222
-0.00490834
-0.00375773
-0.00487246
-0.00371178
-0.00482453
-0.00366377
-0.00476706
-0.00361392
-0.00469884
-0.00356378
-0.0046213
-0.00350907
-0.00453474
-0.00345341
-0.00443617
-0.00339685
-0.00432949
-0.00333526
-0.00421627
-0.0032705
-0.00409257
-0.00320384
-0.00396302
-0.00313101
-0.00382187
-0.00305954
-0.00367653
-0.00298093
-0.00352312
-0.00290235
-0.00336256
-0.0028205
-0.00319426
-0.00273838
-0.00302158
-0.0026545
-0.00284005
-0.00257356
-0.00265493
-0.00249324
-0.00241797
-0.00246414
-0.00145916
-0.0043486
0.00109588
-0.00179389
-0.00432543
-0.00210684
-0.00429873
-0.0023942
-0.00427548
-0.00266016
-0.00424986
-0.00290424
-0.00422662
-0.00312704
-0.00420316
-0.00332962
-0.00417961
-0.00351174
-0.00415678
-0.00367471
-0.00413309
-0.00382206
-0.0041077
-0.00395078
-0.00408531
-0.00406194
-0.00406275
-0.0041585
-0.0040364
-0.00423914
-0.00401293
-0.00430438
-0.00398746
-0.00435509
-0.0039621
-0.00439215
-0.00393524
-0.00441579
-0.00390659
-0.00442615
-0.00387795
-0.00442397
-0.00384812
-0.00441187
-0.00381432
-0.00438705
-0.00378255
-0.0043519
-0.00374693
-0.00430716
-0.00370851
-0.00425178
-0.0036693
-0.00418948
-0.00362608
-0.00411656
-0.00358199
-0.0040339
-0.00353606
-0.00394513
-0.00348562
-0.00384673
-0.00343366
-0.00374005
-0.00337717
-0.00362804
-0.00331586
-0.00350675
-0.0032523
-0.00338029
-0.00318601
-0.00324674
-0.00311448
-0.00310689
-0.00304221
-0.00296009
-0.00296729
-0.00280912
-0.00288935
-0.00265216
-0.00281145
-0.00248991
-0.00273581
-0.00232179
-0.00266135
-0.00258791
-0.00215185
-0.00132042
0.000994122
-0.0040223
-0.00162311
-0.00402275
-0.00190356
-0.00401827
-0.00216311
-0.00401593
-0.00240109
-0.00401188
-0.00262003
-0.00400768
-0.00281887
-0.00400432
-0.00300027
-0.00399821
-0.00316453
-0.00399253
-0.00331069
-0.00398692
-0.00344027
-0.00397813
-0.00355622
-0.00396936
-0.00365443
-0.00396454
-0.00373937
-0.00395146
-0.00381056
-0.00394174
-0.00386823
-0.00392979
-0.00391386
-0.00391647
-0.0039452
-0.0039039
-0.00396507
-0.00388672
-0.00397262
-0.0038704
-0.0039708
-0.00384993
-0.00395658
-0.00382854
-0.00393396
-0.00380517
-0.00390119
-0.0037797
-0.00385725
-0.00375246
-0.00380646
-0.0037201
-0.00374648
-0.00368606
-0.00367777
-0.0036507
-0.00360347
-0.00361035
-0.00351983
-0.00356926
-0.00342969
-0.0035238
-0.00333329
-0.00347357
-0.00322845
-0.0034207
-0.0031188
-0.00336195
-0.00300351
-0.00330129
-0.00288036
-0.00323763
-0.00275364
-0.00316893
-0.0026206
-0.00310033
-0.00248239
-0.00302756
-0.00234231
-0.00295154
-0.00219325
-0.00288487
-0.00204288
-0.00281172
-0.00188768
-0.00274311
-0.00679471
-0.000538458
-0.000596141
-0.00599887
-0.0005294
-0.000266431
-0.00535097
-0.000546557
-0.000101338
-0.0047936
-0.000574653
1.72866e-05
-0.00430254
-0.00060937
0.000118305
-0.00386213
-0.000648134
0.000207729
-0.00345966
-0.000694072
0.000291603
-0.00308795
-0.000743083
0.000371383
-0.00274484
-0.000792532
0.000449418
-0.00242133
-0.0008477
0.000524187
-0.00211876
-0.000902376
0.000599806
-0.00183418
-0.000958959
0.000674381
-0.0015651
-0.00101891
0.000749827
-0.00131138
-0.00107957
0.000825865
-0.00107235
-0.00114247
0.000903433
-0.000846807
-0.00120615
0.00098061
-0.000636764
-0.0012715
0.00106145
-0.000438727
-0.00134037
0.00114234
-0.000255218
-0.00140936
0.00122585
-8.45362e-05
-0.00148206
0.00131138
7.22337e-05
-0.00155686
0.00140009
0.000214232
-0.00163331
0.00149131
0.000342555
-0.00171283
0.0015845
0.00045485
-0.00179517
0.00168288
0.000553464
-0.00188103
0.00178241
0.000635163
-0.00196917
0.00188747
0.000701471
-0.00206188
0.00199557
0.000749755
-0.00215659
0.00210831
0.000781997
-0.00225686
0.00222462
0.000794218
-0.00235886
0.00234664
0.000788247
-0.00246737
0.00247334
0.000761914
-0.00257803
0.00260436
0.000714997
-0.00269483
0.00274174
0.000645317
-0.00281483
0.00288451
0.000553157
-0.00294073
0.00303288
0.000436712
-0.00307137
0.00318781
0.000295197
-0.00320768
0.00334919
0.000127129
-0.00334846
0.00351652
-6.84551e-05
-0.00349554
0.00369112
-0.000292659
-0.00364874
0.00387294
-0.000547519
-0.00380747
0.00406233
-0.000833149
-0.00397422
0.00425985
-0.00414655
0.00446588
-0.00115248
-0.00532425
-0.00107954
-0.00482115
-0.0010325
-0.00436214
-0.00100557
-0.00394042
-0.00099637
-0.00355193
-0.000997857
-0.00318952
-0.00101054
-0.00285392
-0.00102967
-0.00254059
-0.00105641
-0.00224504
-0.00108809
-0.00196887
-0.00112386
-0.00170812
-0.00116313
-0.00146166
-0.00120542
-0.00122932
-0.00125125
-0.00101064
-0.00129825
-0.00080565
-0.00134746
-0.000611373
-0.00140043
-0.000429345
-0.00145352
-0.000260246
-0.00150947
-0.00010147
-0.00156813
4.4273e-05
-0.0016278
0.000177043
-0.00168963
0.000297995
-0.00175426
0.000407014
-0.00182185
0.000502033
-0.00189019
0.00058345
-0.00196244
0.000650784
-0.0020365
0.000702858
-0.00211396
0.00074044
-0.00219417
0.000760923
-0.00227734
0.000766273
-0.00236421
0.000752524
-0.00245362
0.000722178
-0.00254768
0.000671887
-0.00264454
0.000602114
-0.00274506
0.000511343
-0.00284995
0.000399215
-0.00295924
0.000263686
-0.00307215
0.00010501
-0.00318978
-7.85338e-05
-0.003312
-0.000287978
-0.00343929
-0.000524005
-0.00357145
-0.000789282
-0.00370894
-0.00385282
-0.00108301
-0.00439034
-0.00141965
-0.00404637
-0.00137647
-0.00370854
-0.0013434
-0.00338208
-0.00132283
-0.00306758
-0.00131236
-0.00276621
-0.00131191
-0.00247959
-0.00131629
-0.00220636
-0.00132964
-0.0019472
-0.00134725
-0.00170148
-0.00136958
-0.00146769
-0.00139692
-0.00124661
-0.0014265
-0.0010367
-0.00146116
-0.000838613
-0.00149633
-0.000651239
-0.00153483
-0.000476171
-0.0015755
-0.000311638
-0.00161806
-0.000158506
-0.0016626
-1.67502e-05
-0.00170989
0.000114265
-0.00175882
0.000233556
-0.00180892
0.000340978
-0.00186168
0.000435498
-0.00191637
0.000518361
-0.00197305
0.00058846
-0.00203254
0.000645406
-0.00209345
0.000688761
-0.00215731
0.000718053
-0.00222347
0.000732071
-0.00229136
0.000730966
-0.00236311
0.000714772
-0.00243742
0.000680914
-0.00251382
0.000630578
-0.0025942
0.000561858
-0.00267634
0.000474611
-0.00276271
0.000366818
-0.00285145
0.000239308
-0.00294464
9.03188e-05
-0.00304079
-8.13601e-05
-0.00314032
-0.000276421
-0.00324423
-0.000495695
-0.00335217
-0.000739881
-0.00346476
-0.00358131
-0.00101139
-0.00363495
-0.00170378
-0.0033519
-0.00165951
-0.00307295
-0.00162235
-0.00280198
-0.0015938
-0.0025391
-0.00157524
-0.00228659
-0.00156442
-0.00204357
-0.00155931
-0.0018114
-0.00156181
-0.00158899
-0.00156966
-0.00137624
-0.00158233
-0.00117519
-0.00159797
-0.000982555
-0.00161914
-0.000801322
-0.0016424
-0.000628217
-0.00166944
-0.000466392
-0.00169666
-0.000313742
-0.00172815
-0.000170338
-0.00176146
-3.7024e-05
-0.00179592
8.58297e-05
-0.00183274
0.000197606
-0.0018706
0.000300432
-0.00191175
0.00039169
-0.00195294
0.000472737
-0.00199742
0.000542494
-0.00204281
0.000600665
-0.00209071
0.000646876
-0.00213966
0.000680748
-0.00219118
0.000701831
-0.00224455
0.000709641
-0.00229917
0.000703656
-0.00235712
0.000683324
-0.00241709
0.000647445
-0.00247794
0.000596145
-0.0025429
0.000528707
-0.0026089
0.000444205
-0.00267821
0.000342338
-0.00274958
0.00022103
-0.00282333
8.05522e-05
-0.00290031
-7.9654e-05
-0.00298011
-0.000261088
-0.0030628
-0.000464686
-0.00314857
-0.000690587
-0.00323885
-0.00333127
-0.000940621
-0.00307241
-0.00194835
-0.00283263
-0.00189929
-0.00259643
-0.00185855
-0.00236493
-0.0018253
-0.00213927
-0.0018009
-0.00192162
-0.00178206
-0.00171126
-0.00176968
-0.00150959
-0.00176348
-0.00131551
-0.00176373
-0.00112944
-0.0017684
-0.000952264
-0.00177514
-0.000783051
-0.00178835
-0.000622776
-0.00180267
-0.000472741
-0.00181947
-0.000328658
-0.00184074
-0.000194581
-0.00186223
-6.95718e-05
-0.00188647
4.78382e-05
-0.00191333
0.000155144
-0.00194005
0.000253785
-0.00196924
0.000342786
-0.00200075
0.000422727
-0.00203288
0.000491816
-0.00206651
0.000551367
-0.00210236
0.000600295
-0.00213964
0.000638296
-0.00217766
0.000664964
-0.00221785
0.000679915
-0.0022595
0.000683348
-0.0023026
0.000673437
-0.00234721
0.000650618
-0.00239427
0.000614702
-0.00244203
0.000563982
-0.00249218
0.000498465
-0.00254339
0.000417273
-0.00259701
0.00031989
-0.0026522
0.000205842
-0.00270928
7.46089e-05
-0.00276908
-7.51651e-05
-0.00283034
-0.000243796
-0.00289417
-0.000431816
-0.00296055
-0.000641241
-0.00302943
-0.00310085
-0.000871667
-0.00263047
-0.0021615
-0.00242005
-0.00210971
-0.00221163
-0.00206697
-0.00200879
-0.00202813
-0.00181245
-0.00199725
-0.00162163
-0.00197289
-0.00143687
-0.00195443
-0.00125858
-0.00194177
-0.00108801
-0.0019343
-0.000925005
-0.00193141
-0.000767818
-0.00193233
-0.000619648
-0.00193652
-0.000477601
-0.00194472
-0.000343454
-0.00195362
-0.000217514
-0.00196668
-9.89187e-05
-0.00198082
1.14313e-05
-0.00199682
0.000113406
-0.0020153
0.000208602
-0.00203525
0.000294318
-0.00205495
0.000372053
-0.00207848
0.00044082
-0.00210165
0.000501192
-0.00212688
0.000551352
-0.00215252
0.000592567
-0.00218086
0.000623759
-0.00220885
0.000645271
-0.00223936
0.000655282
-0.00226951
0.00065486
-0.00230218
0.000642846
-0.0023352
0.000618074
-0.0023695
0.000581748
-0.0024057
0.000531792
-0.00244222
0.000469112
-0.00248071
0.000392147
-0.00252005
0.000300733
-0.00256078
0.000193739
-0.00260229
7.09696e-05
-0.00264631
-6.8327e-05
-0.00269104
-0.000224913
-0.00273758
-0.000399247
-0.00278622
-0.000592095
-0.00283658
-0.00288841
-0.000804531
-0.00227439
-0.00235124
-0.0020846
-0.0022995
-0.00190243
-0.00224914
-0.00172148
-0.00220908
-0.00154748
-0.00217125
-0.00137756
-0.00214281
-0.00121522
-0.00211677
-0.00105734
-0.00209965
-0.000906115
-0.00208552
-0.000760511
-0.00207701
-0.000622199
-0.00207064
-0.000489936
-0.00206879
-0.000365003
-0.00206965
-0.000245516
-0.0020731
-0.000133363
-0.00207883
-2.85767e-05
-0.00208561
6.94668e-05
-0.00209487
0.000159826
-0.00210566
0.000242482
-0.0021179
0.000318909
-0.00213138
0.00038652
-0.00214609
0.000446743
-0.00216187
0.00049858
-0.00217871
0.000543236
-0.00219718
0.000577495
-0.00221512
0.000604008
-0.00223536
0.000620176
-0.00225553
0.00062703
-0.00227637
0.000623661
-0.00229881
0.000609802
-0.00232134
0.000585084
-0.00234478
0.000548917
-0.00236953
0.000501618
-0.00239493
0.000441942
-0.00242103
0.000368599
-0.0024467
0.000282096
-0.00247428
0.000182524
-0.00250272
6.79995e-05
-0.00253179
-6.13768e-05
-0.00256166
-0.000206167
-0.00259279
-0.000367579
-0.00262481
-0.000545625
-0.00265853
-0.00269311
-0.000740922
-0.00197889
-0.00252421
-0.00181188
-0.00246651
-0.00164666
-0.00241436
-0.00148764
-0.00236809
-0.0013312
-0.00232769
-0.0011808
-0.00229321
-0.00103427
-0.00226331
-0.00089476
-0.00223916
-0.00075905
-0.00222123
-0.000629278
-0.00220678
-0.000504968
-0.00219495
-0.000386583
-0.00218717
-0.000274752
-0.00218148
-0.00016953
-0.00217833
-7.09468e-05
-0.00217742
2.35228e-05
-0.00218008
0.000110085
-0.00218143
0.000190534
-0.00218611
0.000263955
-0.00219132
0.000331043
-0.00219847
0.000390851
-0.0022059
0.000443954
-0.00221497
0.000490079
-0.00222484
0.00052662
-0.00223372
0.000557336
-0.00224583
0.000578768
-0.0022568
0.000591151
-0.00226792
0.000595902
-0.00228112
0.000590432
-0.00229334
0.000575557
-0.00230646
0.000551269
-0.00232049
0.000516711
-0.00233498
0.000470967
-0.00234918
0.000413906
-0.00236397
0.000344979
-0.00237778
0.000264778
-0.00239408
0.000171669
-0.00240961
6.5083e-05
-0.0024252
-5.48986e-05
-0.00244168
-0.000188889
-0.0024588
-0.000336954
-0.00247674
-0.000501091
-0.0024944
-0.00251315
-0.000681051
-0.00173528
-0.00267661
-0.00158544
-0.00261635
-0.00143783
-0.00256197
-0.0012942
-0.00251172
-0.00115253
-0.00246936
-0.00101798
-0.00242776
-0.000888281
-0.00239301
-0.0007621
-0.00236534
-0.000642795
-0.00234054
-0.000525156
-0.00232442
-0.000414268
-0.00230584
-0.000309047
-0.00229239
-0.000208719
-0.00228181
-0.000114067
-0.00227298
-2.39082e-05
-0.00226758
5.84927e-05
-0.00226248
0.000136183
-0.00225912
0.000208324
-0.00225825
0.000274065
-0.00225706
0.000333306
-0.00225771
0.000387696
-0.00226029
0.000434236
-0.00226151
0.000474191
-0.00226479
0.000507436
-0.00226696
0.000532729
-0.00227113
0.000550824
-0.00227489
0.000560707
-0.0022778
0.000562692
-0.0022831
0.000556263
-0.00228691
0.000541582
-0.00229178
0.00051841
-0.00229732
0.00048455
-0.00230112
0.000441425
-0.00230606
0.000387221
-0.00230976
0.000322611
-0.00231317
0.000247887
-0.00231935
0.00016129
-0.00232301
6.28573e-05
-0.00232677
-4.81772e-05
-0.00233065
-0.000171769
-0.00233521
-0.000308397
-0.00234012
-0.000459004
-0.00234379
-0.000623815
-0.00234834
-0.000256835
0.00366368
-0.00401452
0.000607673
5.22911e-05
0.00344615
-0.00375527
0.000324033
0.00324032
-0.00351206
0.000561019
0.00304629
-0.00328328
0.000765915
0.00286319
-0.00306809
0.000941482
0.00269117
-0.00286674
0.00109032
0.00252897
-0.00267781
0.0012144
0.00237618
-0.00250026
0.00131617
0.0022321
-0.00233387
0.00139783
0.00209638
-0.00217803
0.0014609
0.00196883
-0.0020319
0.00150766
0.00184836
-0.00189511
0.00153886
0.00173557
-0.00176677
0.00155712
0.00162869
-0.00164695
0.00156269
0.00152869
-0.00153426
0.00155789
0.00143396
-0.00142916
0.00154376
0.00134471
-0.00133058
0.00152092
0.00126134
-0.0012385
0.00149079
0.00118227
-0.00115214
0.00145419
0.00110812
-0.00107151
0.00141231
0.00103776
-0.000995885
0.00136555
0.000972058
-0.000925296
0.0013151
0.000909617
-0.000859169
0.00126128
0.000850806
-0.000796982
0.00120493
0.000795662
-0.000739312
0.0011466
0.000743174
-0.000684843
0.00108688
0.000693828
-0.000634107
0.00102652
0.000646761
-0.000586405
0.000965531
0.000602548
-0.00054156
0.000904748
0.000560475
-0.000499692
0.000844552
0.000520536
-0.00046034
0.000785413
0.0004825
-0.00042336
0.000727858
0.00044612
-0.000388565
0.000672265
0.000411498
-0.000355906
0.000618747
0.000378538
-0.00032502
0.000567618
0.0003471
-0.000295971
0.000519341
0.00031698
-0.000268702
0.00047231
0.000289387
-0.000242356
0.000424795
0.000265822
-0.000218307
0.000367928
0.000252341
-0.000195474
0.000279673
0.000266868
-0.000178613
9.82177e-05
0.000361407
-0.000179952
0.000687103
-0.000360053
-0.000228832
-0.000228732
0.00335086
0.000541549
4.96658e-05
0.00316775
0.000295101
0.00299488
0.000510461
0.00283093
0.000697263
0.00267639
0.000858461
0.00252997
0.000996005
0.00239143
0.00111146
0.00226072
0.00120727
0.0021363
0.00128423
0.00201942
0.00134478
0.00190827
0.00139005
0.0018031
0.00142179
0.00170383
0.00144062
0.00160986
0.00144882
0.00152049
0.0014465
0.00143629
0.00143503
0.00135618
0.00141589
0.00128048
0.00138954
0.00120862
0.00135737
0.00114028
0.00131921
0.00107592
0.00127698
0.00101429
0.00123035
0.00095624
0.00118073
0.00090043
0.00112846
0.000847934
0.00107417
0.000797463
0.00101848
0.000749521
0.000961617
0.00070362
0.000904183
0.000659982
0.000846815
0.000617842
0.000790037
0.000577314
0.000733602
0.000538934
0.000678524
0.000501199
0.000624568
0.000465454
0.000572014
0.000431092
0.000520812
0.000398302
0.000469756
0.000368036
0.00041588
0.000343264
0.000353143
0.000328559
0.000267125
0.000338359
0.000130255
0.000403738
-0.000103536
0.000595198
0.00103762
-0.000454055
-0.000204749
0.00306907
0.000486547
4.58396e-05
0.00291716
0.000267615
0.00277311
0.000462129
0.00263641
0.000632272
0.00250625
0.000779118
0.00238313
0.000904767
0.00226578
0.00101124
0.00215425
0.00109903
0.00204851
0.00117079
0.00194766
0.00122743
0.00185163
0.00127011
0.00176042
0.00130028
0.00167365
0.00131891
0.00159123
0.00132731
0.0015121
0.00132652
0.00143707
0.00131725
0.00136545
0.00130069
0.00129704
0.00127737
0.00123195
0.00124804
0.00116961
0.00121406
0.0011099
0.00117528
0.00105307
0.00113316
0.000998359
0.00108762
0.000945966
0.00103973
0.000895826
0.000989565
0.00084763
0.000938045
0.00080104
0.000885364
0.0007563
0.000832108
0.000713238
0.000778606
0.000671344
0.000725243
0.000630677
0.00067234
0.000591837
0.000620014
0.000553524
0.000568346
0.000517122
0.000517215
0.000482223
0.000465442
0.000450075
0.00041142
0.000422057
0.000350984
0.0004037
0.000275955
0.000403587
0.000171303
0.000443011
1.54391e-05
0.000559602
-0.000218689
0.000829327
0.00133167
-0.000512732
-0.000184486
0.00281527
0.000438284
4.14931e-05
0.00269118
0.000241647
0.00257295
0.000418279
0.00245978
0.000572606
0.00235192
0.000706602
0.00224913
0.000821389
0.00215099
0.000918713
0.00205692
0.000999873
0.00196735
0.00106629
0.00188124
0.00111896
0.00179896
0.00115919
0.0017202
0.00118783
0.00164501
0.00120662
0.00157245
0.00121515
0.00150357
0.00121537
0.00143684
0.0012078
0.00137302
0.00119318
0.00131167
0.00117239
0.00125273
0.0011464
0.00119561
0.00111527
0.00114103
0.00108017
0.00108817
0.00104138
0.00103715
0.000999436
0.00098791
0.000955368
0.000939895
0.000909147
0.000893851
0.000861459
0.000848728
0.000812479
0.00080528
0.000762995
0.000762722
0.000713196
0.000721143
0.000663041
0.000680832
0.000613398
0.00064148
0.000563488
0.000603435
0.000514017
0.000566593
0.000464268
0.000531971
0.000412795
0.000501548
0.000357129
0.000477724
0.00029316
0.000467669
0.000211971
0.000484776
0.000102355
0.000552628
-5.35442e-05
0.000715501
-0.00027272
0.0010485
0.00159323
-0.000534286
-0.000165995
0.00258803
0.000393228
3.74047e-05
0.00248778
0.000218492
0.00239186
0.00037836
0.00229991
0.000518521
0.00221176
0.000640643
0.00212701
0.000745575
0.00204606
0.000835185
0.00196731
0.000909867
0.00189266
0.00097139
0.00181972
0.00102027
0.00175007
0.00105791
0.00168256
0.00108506
0.00161785
0.00110271
0.0015548
0.00111163
0.00149464
0.00111259
0.00143589
0.00110606
0.00137955
0.00109333
0.0013244
0.00107501
0.00127105
0.00105098
0.00121964
0.00102281
0.00116921
0.000990759
0.00112022
0.000955186
0.00107272
0.000917086
0.00102601
0.000876105
0.000980876
0.000833597
0.000936358
0.000789278
0.000893047
0.000744086
0.000850473
0.00069818
0.000808627
0.000651741
0.000767582
0.000605072
0.000727502
0.000558414
0.000688138
0.000511495
0.000650354
0.000464293
0.000613794
0.000415869
0.000580395
0.000365342
0.000552076
0.000310299
0.000532766
0.000245395
0.000532573
0.000163784
0.000566386
5.50511e-05
0.000661361
-9.50964e-05
0.000865648
-0.000296696
0.0012501
0.0018311
-0.000534563
-0.00015076
0.00238258
0.000356213
3.33355e-05
0.00230368
0.000197239
0.00222796
0.000342386
0.00215477
0.00047009
0.00208406
0.000581057
0.00201604
0.000677124
0.00194999
0.000758615
0.00188582
0.000827608
0.00182367
0.00088396
0.00176337
0.000929514
0.00170452
0.000964314
0.00164776
0.000990257
0.00159191
0.00100687
0.00153818
0.00101576
0.00148576
0.00101695
0.0014347
0.00101185
0.00138464
0.0010003
0.00133595
0.000983614
0.00128774
0.000962535
0.00124072
0.000936788
0.00119495
0.000907375
0.00114963
0.000874748
0.00110535
0.000839257
0.0010615
0.000801964
0.00101817
0.000762297
0.000976026
0.000721645
0.000933699
0.000679987
0.000892131
0.00063754
0.000851074
0.000594652
0.00081047
0.000551533
0.00077062
0.000507776
0.000731896
0.000464206
0.000693923
0.000419209
0.000658792
0.000372842
0.000626762
0.00032423
0.000600689
0.000269672
0.000587324
0.000206096
0.00059615
0.00012677
0.000645712
2.14052e-05
0.000766726
-0.000119125
0.00100618
-0.000304875
0.00143585
0.00204959
-0.000523363
-0.000136523
0.00219731
0.000321796
2.93798e-05
0.00213778
0.000177905
0.00207944
0.000309755
0.00202292
0.000425591
0.00196822
0.00052696
0.00191467
0.000614918
0.00186204
0.000689803
0.00181093
0.000752748
0.00176073
0.000804615
0.0017115
0.000846172
0.00166296
0.000878809
0.00161512
0.000902672
0.00156804
0.000918644
0.00152221
0.000927314
0.00147709
0.000929134
0.00143288
0.000924708
0.00138907
0.000914848
0.00134581
0.000899715
0.00130287
0.000880094
0.00126034
0.000856839
0.00121821
0.000829936
0.00117654
0.000800045
0.00113524
0.000767655
0.00109389
0.000733166
0.00105266
0.000696982
0.00101221
0.000659139
0.000971542
0.000620367
0.000930903
0.000581256
0.000890185
0.000541673
0.000850052
0.000501965
0.000810329
0.000462089
0.000771772
0.000421489
0.000734523
0.000379822
0.000700459
0.000336238
0.000670346
0.000289268
0.000647658
0.000237365
0.000639227
0.000176931
0.000656584
0.000101038
0.000721605
9.75049e-07
0.000866789
-0.000132558
0.00113971
-0.000304908
0.0016082
0.00225087
-0.000506195
-0.000123692
0.00203095
0.000290052
2.65215e-05
0.00198757
0.000160375
0.00194558
0.000279985
0.00190331
0.000385575
0.00186263
0.000478136
0.00182211
0.000557988
0.00178218
0.000626431
0.00174249
0.000684422
0.00170274
0.000731921
0.001664
0.00077063
0.00162425
0.000800178
0.00158558
0.000822143
0.00154608
0.00083741
0.00150694
0.00084579
0.00146871
0.000847982
0.00143069
0.000844132
0.00139292
0.000834888
0.00135506
0.000820851
0.00131691
0.000803648
0.00127754
0.000782691
0.00123917
0.000758165
0.00120106
0.000730273
0.00116313
0.000700666
0.0011235
0.000669018
0.00108431
0.000635707
0.00104552
0.000601142
0.00100611
0.000565089
0.000966956
0.000529041
0.000926233
0.000492759
0.000886334
0.000456184
0.000846904
0.00041959
0.000808366
0.000382169
0.000771945
0.000343948
0.000738679
0.000302638
0.000711656
0.000258263
0.000692033
0.00020858
0.00068891
0.000151498
0.000713666
8.11032e-05
0.000791999
-1.26892e-05
0.000960581
-0.000138858
0.00126588
-0.000298233
0.00176758
0.00243287
-0.000480233
-0.000112283
0.000262781
0.00188045
2.3183e-05
0.0018521
0.00014515
0.00182362
0.000253709
0.00179475
0.000349902
0.00176644
0.000433555
0.00173846
0.00050698
0.00170876
0.000568771
0.0016807
0.000622419
0.00164909
0.000666078
0.00162034
0.00070195
0.00158838
0.000728984
0.00155854
0.000749918
0.00152514
0.000764254
0.00149261
0.000772619
0.00146034
0.000775458
0.00142785
0.000772849
0.00139553
0.000764683
0.00136322
0.000751458
0.00133013
0.000735008
0.00129399
0.000715751
0.00125842
0.000693852
0.00122296
0.000668067
0.00118891
0.000640665
0.0011509
0.000611754
0.00111322
0.000581234
0.00107604
0.000549037
0.0010383
0.000515755
0.00100024
0.000481646
0.000960342
0.000448353
0.000919628
0.000415348
0.000879908
0.000381841
0.000841873
0.000348631
0.000805154
0.000314199
0.000773111
0.000275521
0.000750335
0.000234059
0.000733495
0.000186404
0.000736564
0.000132591
0.00076748
7.08801e-05
0.00085371
-1.92865e-05
0.00105075
-0.000142326
0.00138892
-0.000297338
0.00192259
-0.000463525
0.00259906
-0.000637825