/*--------------------------------*- C++ -*----------------------------------*\
| =========                 |                                                 |
| \\      /  F ield         | OpenFOAM: The Open Source CFD Toolbox           |
|  \\    /   O peration     | Version:  2.3.0                                 |
|   \\  /    A nd           | Web:      www.OpenFOAM.org                      |
|    \\/     M anipulation  |                                                 |
\*---------------------------------------------------------------------------*/
FoamFile
{
    version     2.0;
    format      ascii;
    class       volVectorField;
    location    "5000";
    object      U;
}
// * * * * * * * * * * * * * * * * * * * * * * * * * * * * * * * * * * * * * //

dimensions      [0 1 -1 0 0 0 0];

internalField   nonuniform List<vector> 
38111
(
(25.3417 9.2168 -2.44135e-21)
(25.374 9.46102 -9.3191e-22)
(25.3994 9.72669 -8.36364e-21)
(25.4211 9.99803 -2.37991e-20)
(25.4384 10.2766 1.17238e-20)
(25.4507 10.5626 -5.6869e-21)
(25.4578 10.8562 4.31235e-20)
(25.4591 11.1579 -3.64186e-20)
(25.454 11.4678 6.73822e-21)
(25.4421 11.7864 -1.25355e-19)
(25.4228 12.1141 1.24417e-19)
(25.3955 12.4514 0)
(25.3597 12.7989 -1.50823e-19)
(25.3149 13.1573 3.24991e-19)
(25.2603 13.5272 -1.71613e-19)
(25.1955 13.9097 -1.56949e-20)
(25.1196 14.3056 0)
(25.0318 14.7161 -2.33856e-19)
(24.9312 15.1425 2.47941e-19)
(24.8166 15.586 1.35152e-20)
(24.6871 16.0482 2.31763e-20)
(24.5413 16.5307 3.10311e-19)
(24.3775 17.035 -3.322e-19)
(24.1939 17.5625 0)
(23.9881 18.1146 6.57265e-21)
(23.7571 18.6917 0)
(23.4964 19.2932 4.58923e-19)
(23.2007 19.9173 -5.05351e-19)
(22.862 20.5613 1.20831e-20)
(22.4707 21.2191 5.85491e-19)
(22.0134 21.8833 -5.521e-19)
(21.4749 22.5426 0)
(20.8366 23.1844 -3.1224e-20)
(20.0755 23.7916 1.45846e-20)
(19.1634 24.3453 -3.68532e-19)
(18.0663 24.8234 7.58195e-19)
(16.7455 25.2019 -3.74426e-19)
(15.1568 25.4551 -2.22226e-19)
(13.2506 25.5329 7.84526e-20)
(10.9771 25.3713 6.73568e-20)
(8.29971 25.001 0)
(5.20561 24.5676 2.02803e-20)
(1.81962 23.6611 7.81388e-21)
(25.0729 9.24535 -2.12323e-21)
(25.0844 9.46956 2.75501e-22)
(25.0909 9.71022 -3.10483e-21)
(25.0937 9.95547 -2.88352e-21)
(25.0921 10.2063 0)
(25.0854 10.4629 -1.05706e-20)
(25.0734 10.7256 1.61635e-20)
(25.0557 10.9945 8.62269e-21)
(25.0316 11.2698 1.00268e-20)
(25.0008 11.5518 0)
(24.9626 11.8406 8.05265e-20)
(24.9163 12.1365 -7.26592e-20)
(24.8613 12.4399 -1.14616e-19)
(24.797 12.7509 2.20018e-19)
(24.7227 13.07 -1.17397e-19)
(24.6376 13.3975 -5.59735e-21)
(24.5408 13.7336 1.36703e-19)
(24.4312 14.0787 -1.49261e-19)
(24.3077 14.4333 0)
(24.1687 14.7976 -1.35486e-20)
(24.0126 15.1721 8.02216e-21)
(23.8376 15.5574 1.5524e-20)
(23.6416 15.954 0)
(23.4222 16.3624 0)
(23.1765 16.7832 9.43397e-21)
(22.9015 17.2172 0)
(22.5933 17.6642 -2.40638e-19)
(22.2476 18.1242 9.11568e-21)
(21.8603 18.5969 5.08246e-19)
(21.4257 19.0803 -1.37706e-19)
(20.9378 19.571 -2.71289e-19)
(20.3897 20.064 1.43144e-19)
(19.775 20.5525 1.41138e-20)
(19.0863 21.0257 -1.43657e-20)
(18.3172 21.4695 9.07917e-20)
(17.4628 21.8645 -5.74109e-20)
(16.5212 22.1866 -3.21481e-20)
(15.4943 22.4049 0)
(14.3905 22.481 1.15733e-20)
(13.23 22.3692 0)
(12.049 22.0212 0)
(10.8809 21.3811 -1.14427e-19)
(9.73391 20.3836 1.11242e-19)
(24.8321 9.25837 -2.10138e-21)
(24.8304 9.46251 -9.60873e-21)
(24.8239 9.68027 3.57215e-21)
(24.8137 9.90199 -3.76325e-21)
(24.799 10.1282 8.04413e-21)
(24.7794 10.359 3.53674e-23)
(24.7543 10.5946 1.80893e-21)
(24.7235 10.8353 -3.10435e-21)
(24.6865 11.0812 0)
(24.6429 11.3323 0)
(24.592 11.5888 0)
(24.5333 11.8509 -7.39446e-21)
(24.4659 12.1188 -4.5242e-20)
(24.3893 12.3926 4.04307e-20)
(24.3028 12.6727 5.93301e-20)
(24.2057 12.9594 -5.40536e-20)
(24.0973 13.2528 -7.14012e-20)
(23.9767 13.5531 1.46484e-19)
(23.8428 13.8603 -1.54599e-19)
(23.6946 14.1746 1.64877e-19)
(23.5306 14.496 -9.03276e-20)
(23.3494 14.8241 -9.30463e-20)
(23.1493 15.159 9.46606e-20)
(22.928 15.5001 -9.92632e-20)
(22.6832 15.8467 -3.31781e-21)
(22.4121 16.1983 1.0354e-19)
(22.1116 16.5535 -3.69842e-21)
(21.7779 16.9106 -1.48741e-21)
(21.4075 17.2678 6.78721e-21)
(20.9962 17.6222 -4.29967e-20)
(20.5391 17.9698 7.92748e-20)
(20.0319 18.3056 -1.54901e-20)
(19.4699 18.6234 -4.244e-20)
(18.8487 18.9145 1.51612e-20)
(18.1648 19.1692 1.14215e-20)
(17.4162 19.3753 -5.30015e-21)
(16.6034 19.5183 -7.34726e-21)
(15.7306 19.5821 4.14102e-20)
(14.8073 19.5499 -3.9289e-20)
(13.85 19.4054 0)
(12.8853 19.1344 -3.79821e-20)
(11.9495 18.7264 3.8693e-20)
(11.0943 18.1747 2.88751e-20)
(24.617 9.25661 0)
(24.6055 9.44255 1.64445e-20)
(24.589 9.63954 -1.58191e-20)
(24.5692 9.84019 1.42343e-20)
(24.5455 10.0446 -1.21063e-20)
(24.5172 10.2527 -9.68063e-21)
(24.4837 10.4648 1.49198e-20)
(24.4446 10.6811 -1.86763e-20)
(24.3997 10.9018 -6.87029e-21)
(24.3487 11.1269 7.08325e-21)
(24.291 11.3565 -4.03537e-21)
(24.226 11.5906 4.00995e-21)
(24.1529 11.8292 -4.8599e-22)
(24.071 12.0726 4.84785e-22)
(23.9795 12.3209 -2.69637e-21)
(23.8777 12.5742 2.16424e-21)
(23.765 12.8328 -5.11467e-21)
(23.6404 13.0968 1.37466e-20)
(23.5032 13.366 -9.2597e-21)
(23.3523 13.6407 -2.95033e-22)
(23.1864 13.9205 -3.36545e-21)
(23.0043 14.2053 3.56065e-22)
(22.8045 14.495 0)
(22.5857 14.7889 0)
(22.3459 15.0862 -4.09248e-21)
(22.0832 15.386 7.93868e-21)
(21.7949 15.6869 -2.8573e-21)
(21.4785 15.9871 5.25474e-21)
(21.1314 16.2846 4.55101e-22)
(20.7507 16.5764 3.14718e-21)
(20.3339 16.8591 3.13268e-20)
(19.8784 17.1282 -3.20749e-20)
(19.382 17.378 3.18439e-20)
(18.8427 17.6012 1.00113e-20)
(18.2599 17.7898 -4.43276e-20)
(17.6344 17.9345 -6.82809e-20)
(16.9689 18.0244 8.22168e-20)
(16.2692 18.0476 -6.69152e-20)
(15.5447 17.9929 2.37739e-20)
(14.8086 17.8499 4.10376e-20)
(14.0788 17.6108 1.94482e-20)
(13.3768 17.2731 8.98456e-20)
(12.7278 16.8423 -1.45608e-19)
(24.4273 9.24196 -1.08749e-21)
(24.4067 9.41324 -1.07612e-22)
(24.383 9.5922 2.32425e-20)
(24.3568 9.77431 0)
(24.3272 9.95955 0)
(24.2934 10.1478 2.26513e-20)
(24.2546 10.3394 -1.57856e-20)
(24.2104 10.5345 9.6671e-22)
(24.1605 10.7336 -6.41045e-21)
(24.105 10.9367 5.87759e-21)
(24.0437 11.1437 -3.63531e-21)
(23.9756 11.3545 0)
(23.9 11.5691 0)
(23.8163 11.7877 0)
(23.7237 12.0104 8.43183e-22)
(23.6211 12.2371 1.47412e-20)
(23.5081 12.4681 -6.15009e-22)
(23.3838 12.7033 -3.56454e-22)
(23.2477 12.9429 -2.47604e-20)
(23.0987 13.1867 1.4466e-20)
(22.9358 13.4343 1.21396e-20)
(22.7575 13.6856 -1.59344e-20)
(22.5626 13.9401 3.67122e-21)
(22.35 14.1976 -2.1336e-20)
(22.1184 14.4571 2.62914e-20)
(21.8661 14.7175 0)
(21.5912 14.9774 -3.49278e-20)
(21.2912 15.2346 2.66116e-20)
(20.9637 15.487 6.02392e-21)
(20.6065 15.7321 -2.29233e-21)
(20.2176 15.9668 0)
(19.7956 16.1873 3.25257e-20)
(19.3392 16.3884 -5.39206e-20)
(18.8477 16.5642 0)
(18.3212 16.7083 0)
(17.7611 16.813 8.50566e-20)
(17.1709 16.8703 -8.33181e-20)
(16.5562 16.872 0)
(15.9255 16.8104 0)
(15.2902 16.6792 1.65101e-20)
(14.6647 16.4742 -1.94617e-20)
(14.0649 16.1955 -5.84606e-20)
(13.5081 15.8484 5.9352e-20)
(24.2567 9.22499 -2.0891e-21)
(24.2302 9.37999 -1.40521e-20)
(24.2019 9.54228 -1.6432e-20)
(24.1715 9.70759 6.29201e-21)
(24.1381 9.87597 0)
(24.1014 10.047 2.2075e-20)
(24.0596 10.2207 -2.18313e-20)
(24.0126 10.3977 4.37269e-21)
(23.9599 10.5783 -1.50296e-21)
(23.9019 10.7627 -4.0725e-20)
(23.8388 10.9508 4.02682e-20)
(23.7697 11.1422 -3.4343e-20)
(23.6935 11.3369 2.9193e-20)
(23.6098 11.5355 0)
(23.5183 11.7374 0)
(23.4173 11.9425 4.92962e-21)
(23.3061 12.1514 -4.96136e-21)
(23.1841 12.3637 0)
(23.0506 12.5798 -3.01319e-21)
(22.9052 12.7994 0)
(22.7469 13.0221 3.24492e-21)
(22.5743 13.2477 3.89801e-20)
(22.3858 13.4755 -4.34075e-20)
(22.1804 13.7053 0)
(21.9572 13.9366 4.59349e-20)
(21.7156 14.1682 -9.98506e-20)
(21.4541 14.3988 -1.45035e-20)
(21.1709 14.6262 7.16541e-20)
(20.8635 14.8479 3.2862e-21)
(20.5296 15.0615 0)
(20.1674 15.2642 -5.42097e-20)
(19.7763 15.4532 6.85471e-20)
(19.3559 15.624 7.49373e-21)
(18.9063 15.7713 -8.43601e-20)
(18.4279 15.8895 1.84772e-19)
(17.9224 15.9723 -1.00783e-19)
(17.393 16.0132 5.10329e-20)
(16.8444 16.0058 -6.72015e-20)
(16.2843 15.9446 4.18989e-20)
(15.7221 15.8252 -2.2222e-20)
(15.1694 15.6448 5.17803e-20)
(14.6378 15.4039 -2.93832e-20)
(14.1399 15.1072 0)
(24.1009 9.20238 2.55305e-21)
(24.0737 9.34395 5.94869e-21)
(24.0428 9.49143 5.61448e-21)
(24.01 9.64194 -7.48026e-21)
(23.9738 9.7954 2.18611e-20)
(23.9357 9.95172 5.92055e-21)
(23.8927 10.1101 -3.44766e-20)
(23.8446 10.2715 -7.14195e-21)
(23.7905 10.4361 1.26396e-20)
(23.7312 10.6046 -2.44387e-20)
(23.6673 10.7769 2.42875e-20)
(23.5988 10.9523 6.59509e-21)
(23.5232 11.1303 -1.43587e-21)
(23.4396 11.3122 -6.49455e-21)
(23.3502 11.4977 -6.53622e-21)
(23.2518 11.6854 -4.99422e-21)
(23.1438 11.8765 5.0285e-21)
(23.0254 12.0705 0)
(22.8953 12.2675 0)
(22.7539 12.4678 4.45937e-20)
(22.6004 12.6708 -5.25368e-20)
(22.4339 12.8762 -7.95033e-21)
(22.2529 13.0834 0)
(22.0552 13.2915 0)
(21.8393 13.5004 0)
(21.6064 13.7097 -5.75053e-20)
(21.3553 13.9179 4.88403e-20)
(21.0855 14.123 4.74288e-20)
(20.7949 14.3223 -5.99617e-20)
(20.4808 14.513 -5.93186e-20)
(20.1401 14.6923 6.10135e-20)
(19.7717 14.8583 -7.55112e-20)
(19.378 15.0078 -2.94706e-20)
(18.9588 15.1353 8.81086e-20)
(18.5153 15.2363 0)
(18.0488 15.3056 0)
(17.5625 15.3373 -7.09722e-20)
(17.0596 15.3259 1.1295e-19)
(16.5473 15.267 -8.29329e-20)
(16.0335 15.1583 -4.90267e-20)
(15.5311 14.9973 -5.42932e-20)
(15.0451 14.7833 -2.02686e-21)
(14.5868 14.5216 0)
(23.9636 9.17759 1.32071e-20)
(23.9356 9.30715 1.39248e-20)
(23.903 9.44126 -5.6789e-22)
(23.8699 9.57866 8.251e-21)
(23.8309 9.71826 -2.43571e-20)
(23.7924 9.86258 3.21862e-20)
(23.7489 10.0074 -8.53706e-21)
(23.7009 10.156 7.187e-21)
(23.6465 10.3071 -1.51523e-20)
(23.5867 10.462 0)
(23.5218 10.621 7.9119e-21)
(23.4548 10.7831 -6.64996e-21)
(23.3834 10.9468 6.59339e-21)
(23.2986 11.1135 6.55699e-21)
(23.2111 11.2866 1.44158e-20)
(23.1156 11.4605 3.74695e-20)
(23.0107 11.6373 -2.97372e-20)
(22.8971 11.8171 -3.07942e-20)
(22.7709 11.9983 3.95254e-20)
(22.6337 12.1829 7.31379e-21)
(22.4849 12.3699 0)
(22.3232 12.5592 8.03605e-21)
(22.1488 12.7508 1.00491e-20)
(21.9609 12.9426 -5.16741e-20)
(21.7524 13.1329 9.24253e-21)
(21.5274 13.3246 4.32125e-20)
(21.2843 13.5151 -5.15717e-20)
(21.0247 13.7031 5.28191e-20)
(20.7473 13.8857 7.79291e-20)
(20.4503 14.06 -6.38912e-20)
(20.1302 14.2221 0)
(19.7806 14.3705 0)
(19.4078 14.5051 2.16152e-20)
(19.0124 14.6187 5.32829e-20)
(18.5957 14.7074 -5.47496e-20)
(18.1583 14.7678 3.28981e-20)
(17.7057 14.7941 0)
(17.2378 14.7812 0)
(16.7619 14.726 0)
(16.2795 14.627 4.84732e-20)
(15.8171 14.4814 -5.52901e-20)
(15.3636 14.2852 5.88642e-20)
(14.9341 14.0481 0)
(23.8354 9.14783 0)
(23.8121 9.27073 3.18365e-21)
(23.7773 9.39319 1.14332e-20)
(23.7468 9.51927 4.67819e-21)
(23.7055 9.6433 3.08817e-22)
(23.6689 9.78021 -8.8091e-21)
(23.6255 9.9122 9.48261e-21)
(23.5784 10.0511 0)
(23.5243 10.1908 8.26483e-21)
(23.4647 10.3349 9.15545e-21)
(23.3977 10.4826 2.57824e-20)
(23.3274 10.6333 -3.32286e-20)
(23.2656 10.7874 9.51931e-21)
(23.1816 10.9364 0)
(23.0971 11.1005 -1.70913e-20)
(23.0073 11.2651 -8.0921e-21)
(22.9045 11.4294 0)
(22.7972 11.6007 9.71805e-21)
(22.6767 11.7695 -8.66178e-21)
(22.545 11.9419 1.02878e-20)
(22.403 12.1155 3.98002e-20)
(22.2473 12.2895 -8.22612e-20)
(22.0725 12.4668 2.0606e-20)
(21.8956 12.6514 5.77819e-20)
(21.6966 12.8253 -4.64015e-20)
(21.4815 13.0026 -4.10743e-20)
(21.2464 13.1788 -2.93527e-21)
(20.9955 13.3527 7.55238e-20)
(20.727 13.521 -8.48565e-20)
(20.4389 13.6823 7.06112e-20)
(20.1404 13.8349 0)
(19.8068 13.9664 -4.5871e-20)
(19.4504 14.0904 7.25293e-20)
(19.0719 14.1938 0)
(18.675 14.2714 6.33525e-20)
(18.2509 14.3237 -6.38201e-20)
(17.8213 14.3478 0)
(17.3762 14.3343 4.22288e-20)
(16.9365 14.2819 0)
(16.4641 14.1932 0)
(16.0221 14.0611 -5.38318e-22)
(15.5838 13.8731 0)
(15.1779 13.655 0)
(-1.01402 20.9421 0)
(-0.218717 18.5343 7.98692e-19)
(0.701492 16.7199 -1.71027e-18)
(1.55592 15.3017 9.11818e-19)
(2.33965 14.1552 0)
(3.07359 13.2131 0)
(3.76214 12.425 -2.10391e-18)
(4.40448 11.7573 -5.82005e-20)
(5.00158 11.1852 2.00371e-18)
(5.55574 10.6916 -3.72913e-20)
(6.06813 10.2598 -3.55527e-20)
(6.54203 9.87911 -1.9255e-18)
(6.98022 9.53995 1.92242e-18)
(7.38554 9.23482 1.18936e-19)
(7.76099 8.95788 0)
(8.10953 8.70504 -1.5991e-18)
(8.43375 8.47205 5.04313e-18)
(8.73634 8.25632 -6.47848e-18)
(9.01934 8.05513 3.11048e-18)
(9.28501 7.86661 3.03816e-18)
(9.53502 7.68883 -2.92752e-18)
(9.77115 7.52045 9.52208e-20)
(9.99494 7.3605 -1.81405e-19)
(10.2077 7.20767 0)
(10.4106 7.06133 -8.81597e-20)
(10.6046 6.92054 2.69952e-18)
(10.7908 6.78473 -2.58515e-18)
(10.9698 6.65327 2.71383e-18)
(11.1424 6.52579 -2.53942e-18)
(11.3089 6.40172 -2.43268e-18)
(11.47 6.28071 5.18488e-18)
(11.626 6.16246 -1.46614e-18)
(11.7772 6.04665 -1.29768e-18)
(11.9238 5.93298 -2.91675e-21)
(12.066 5.82129 1.61728e-19)
(12.2039 5.71135 -3.27217e-19)
(12.3377 5.60301 0)
(12.4674 5.49627 -1.64169e-18)
(12.5934 5.39109 2.96009e-18)
(12.7159 5.28744 -1.14268e-18)
(12.8351 5.18536 -6.38097e-19)
(12.9514 5.08503 3.14834e-19)
(13.0663 4.98355 -3.00138e-19)
(8.66362 19.0868 3.71223e-19)
(7.98151 17.7494 -1.21985e-18)
(7.6055 16.5495 -6.38516e-20)
(7.43832 15.4891 9.18156e-19)
(7.40827 14.5521 -1.00065e-18)
(7.47062 13.7231 9.87632e-19)
(7.59483 12.9898 -5.8174e-20)
(7.75999 12.3404 0)
(7.95138 11.7645 -5.78654e-20)
(8.15827 11.2522 0)
(8.37341 10.7946 0)
(8.59168 10.3841 -1.90447e-18)
(8.80924 10.0139 1.74268e-18)
(9.02367 9.67821 -1.06663e-19)
(9.23363 9.37208 5.09921e-20)
(9.43814 9.09135 -5.1527e-20)
(9.63659 8.83252 -1.55348e-18)
(9.82886 8.59253 1.56502e-18)
(10.0149 8.36893 0)
(10.1948 8.15952 4.67331e-20)
(10.3687 7.96253 1.44427e-18)
(10.5372 7.77648 -1.41306e-18)
(10.7003 7.60004 -1.28845e-18)
(10.8584 7.43217 1.35165e-18)
(11.0118 7.27196 -8.15126e-20)
(11.1607 7.11861 1.62576e-19)
(11.3056 6.97138 -1.3681e-18)
(11.4465 6.82973 2.47791e-18)
(11.5837 6.693 -2.62179e-18)
(11.7174 6.56082 3.15611e-21)
(11.8476 6.43264 1.18794e-18)
(11.9745 6.30816 0)
(12.0983 6.18696 -1.57004e-19)
(12.2189 6.06878 -1.42982e-18)
(12.3365 5.95332 1.12016e-18)
(12.4509 5.84035 1.44544e-18)
(12.5624 5.7297 -1.65142e-19)
(12.6709 5.6213 1.58914e-19)
(12.7767 5.51506 -1.30607e-18)
(12.8799 5.41091 -1.62627e-19)
(12.9807 5.30886 7.96492e-19)
(13.0794 5.20918 -3.13113e-19)
(13.1765 5.10898 -1.49193e-19)
(10.3824 17.4985 2.70064e-19)
(9.85212 16.7451 -5.81713e-19)
(9.47873 15.9658 2.69058e-19)
(9.23498 15.1982 7.3563e-19)
(9.09473 14.4641 9.1444e-20)
(9.03576 13.7749 -7.69898e-19)
(9.03971 13.1356 8.30006e-19)
(9.09146 12.5471 7.55683e-20)
(9.17837 12.008 -7.62584e-19)
(9.29089 11.5151 1.61695e-18)
(9.4212 11.0648 -1.62747e-18)
(9.5633 10.6532 5.32947e-20)
(9.71272 10.2761 -1.55155e-18)
(9.86598 9.92985 3.14006e-18)
(10.0209 9.6111 -1.58521e-18)
(10.1753 9.31658 1.51373e-18)
(10.3281 9.04365 -1.57203e-18)
(10.4786 8.78978 8.99033e-20)
(10.626 8.55279 0)
(10.7699 8.33087 0)
(10.9104 8.12241 1.27634e-18)
(11.0474 7.92599 -1.33345e-18)
(11.1808 7.74031 -1.30735e-18)
(11.3109 7.56436 8.06138e-20)
(11.4379 7.3971 2.61449e-18)
(11.5618 7.2377 -1.33213e-18)
(11.6829 7.08535 7.85147e-20)
(11.8012 6.93936 -1.23056e-18)
(11.9169 6.79909 7.82841e-20)
(12.0299 6.66401 1.14712e-18)
(12.1404 6.53361 1.53046e-19)
(12.2484 6.40742 0)
(12.354 6.28505 7.86474e-20)
(12.4572 6.16614 1.23484e-18)
(12.5579 6.05035 1.51568e-19)
(12.6561 5.93746 -2.66193e-18)
(12.7518 5.82731 1.42283e-18)
(12.8452 5.71974 -6.35005e-19)
(12.9364 5.61464 7.97701e-19)
(13.0255 5.51189 6.34567e-19)
(13.1129 5.41136 -7.86943e-19)
(13.1987 5.31298 4.62796e-19)
(13.2836 5.21292 -1.48915e-19)
(12.1548 16.3337 0)
(11.671 15.7697 -3.21347e-19)
(11.2797 15.1752 3.64815e-19)
(10.9772 14.5728 0)
(10.7543 13.9795 -4.67885e-20)
(10.6002 13.4069 4.75357e-20)
(10.504 12.8619 -7.07777e-19)
(10.4557 12.3485 1.55644e-18)
(10.4456 11.8684 -7.48935e-19)
(10.466 11.4214 5.07745e-20)
(10.51 11.0064 -4.90394e-20)
(10.572 10.6215 0)
(10.6474 10.2647 4.7862e-20)
(10.7326 9.93382 1.23879e-21)
(10.8249 9.62647 -4.63051e-20)
(10.9222 9.34054 0)
(11.0226 9.07397 4.57221e-20)
(11.125 8.82489 -8.97312e-20)
(11.2283 8.5916 0)
(11.3318 8.37257 -1.35986e-18)
(11.4352 8.16646 1.32726e-18)
(11.538 7.97201 -1.21991e-18)
(11.64 7.78812 1.276e-18)
(11.7411 7.61378 2.35336e-18)
(11.8411 7.44806 -1.31573e-18)
(11.9401 7.29015 -1.14835e-18)
(12.0378 7.13928 1.13678e-18)
(12.1342 6.99477 -1.13036e-18)
(12.2291 6.85606 -1.4984e-19)
(12.3226 6.72261 -1.12135e-18)
(12.4145 6.59395 1.1222e-18)
(12.5048 6.46964 0)
(12.5935 6.34923 -1.05213e-18)
(12.6805 6.23235 1.28629e-18)
(12.7656 6.11871 -1.53135e-19)
(12.8487 6.00816 7.6749e-19)
(12.9299 5.90053 -1.20274e-21)
(13.0093 5.79566 -6.24236e-19)
(13.0871 5.69344 6.2443e-19)
(13.1634 5.59375 -6.25507e-19)
(13.2386 5.49648 0)
(13.3127 5.40157 -1.53332e-19)
(13.3863 5.30584 0)
(13.0076 15.4433 0)
(12.571 14.992 0)
(12.2026 14.5097 -4.03951e-20)
(11.9022 14.0121 4.26891e-20)
(11.6656 13.5126 0)
(11.4866 13.0215 -4.73242e-20)
(11.3583 12.5461 7.68391e-19)
(11.2734 12.0912 -7.57644e-19)
(11.2249 11.6599 7.32337e-19)
(11.2061 11.2531 -7.17875e-19)
(11.2115 10.8708 4.89904e-20)
(11.2358 10.5127 9.44174e-20)
(11.2749 10.1779 6.16464e-19)
(11.3258 9.86488 -6.00335e-19)
(11.3857 9.57237 -4.41693e-20)
(11.4525 9.29865 8.90802e-20)
(11.5242 9.04222 0)
(11.5995 8.8017 6.08961e-19)
(11.6775 8.57573 -6.77124e-19)
(11.7573 8.3631 -1.32689e-18)
(11.8383 8.16261 2.59459e-18)
(11.9201 7.97322 -1.35159e-18)
(12.0024 7.79391 -1.25064e-18)
(12.085 7.62379 2.53952e-18)
(12.1674 7.462 -1.06266e-18)
(12.2497 7.30778 -7.57036e-20)
(12.3314 7.16039 1.07493e-21)
(12.4125 7.01922 -1.02106e-21)
(12.4925 6.88381 1.4731e-19)
(12.5716 6.75366 -7.39659e-20)
(12.6496 6.62835 0)
(12.7267 6.5074 7.32131e-20)
(12.8025 6.39028 -1.47845e-19)
(12.8768 6.27668 -1.48641e-19)
(12.9494 6.16637 0)
(13.0203 6.05933 -6.02647e-19)
(13.0898 5.95533 6.84137e-19)
(13.1578 5.85414 -1.5262e-19)
(13.2244 5.75572 -1.27446e-21)
(13.29 5.65995 -1.53296e-19)
(13.3548 5.56666 -3.05447e-19)
(13.4188 5.4758 4.53156e-19)
(13.4827 5.3843 2.96994e-19)
(13.6854 14.7622 3.51116e-20)
(13.2805 14.3775 0)
(12.9293 13.9639 4.0319e-20)
(12.633 13.5334 3.04516e-19)
(12.39 13.0964 -2.57581e-19)
(12.196 12.6619 -9.02391e-20)
(12.0468 12.2371 -4.23584e-19)
(11.9371 11.8268 3.71023e-19)
(11.8618 11.434 -6.71205e-19)
(11.8155 11.06 7.02075e-19)
(11.7924 10.7054 0)
(11.7882 10.3708 6.58467e-19)
(11.7994 10.0562 1.01652e-19)
(11.8237 9.76053 -1.55253e-18)
(11.8581 9.48283 8.96652e-19)
(11.9006 9.22189 -8.93189e-20)
(11.9493 8.97653 0)
(12.0027 8.74573 1.7063e-19)
(12.06 8.52846 -6.67819e-19)
(12.1204 8.32357 7.32122e-19)
(12.1833 8.13008 0)
(12.248 7.94706 -1.1777e-18)
(12.3143 7.77358 1.15584e-18)
(12.3817 7.60883 -6.07779e-19)
(12.4499 7.45209 5.23948e-19)
(12.5185 7.30258 7.36933e-20)
(12.5872 7.15959 7.39465e-20)
(12.6553 7.02269 4.38015e-19)
(12.7229 6.89151 -6.54551e-19)
(12.79 6.76566 5.07839e-19)
(12.8567 6.64462 -6.52116e-19)
(12.9229 6.52775 5.07714e-19)
(12.9881 6.41457 7.28402e-20)
(13.0518 6.30484 -5.12455e-19)
(13.1137 6.1985 0)
(13.1743 6.09571 7.39587e-20)
(13.234 5.99593 -6.73931e-19)
(13.2923 5.89888 7.56052e-19)
(13.3495 5.80476 -1.52482e-19)
(13.406 5.71335 1.5243e-19)
(13.4619 5.62443 7.52744e-20)
(13.5173 5.53803 -1.50162e-19)
(13.5727 5.45106 -2.97568e-19)
(14.1645 14.2173 -3.49029e-20)
(13.784 13.8776 0)
(13.4488 13.5113 3.25295e-19)
(13.1604 13.1277 -3.24746e-19)
(12.9177 12.7348 -8.69317e-20)
(12.7174 12.3413 -2.71654e-19)
(12.5577 11.9543 -1.07596e-20)
(12.4345 11.5784 3.62124e-19)
(12.3442 11.2162 -9.31606e-20)
(12.2822 10.8689 0)
(12.2409 10.5368 7.42912e-19)
(12.2179 10.2221 -7.27109e-19)
(12.2106 9.92493 7.29159e-19)
(12.2168 9.6449 7.02922e-21)
(12.2338 9.3808 -7.93131e-19)
(12.2593 9.13179 0)
(12.2915 8.89699 0)
(12.3293 8.67578 5.04012e-19)
(12.3719 8.46718 -1.39301e-18)
(12.4185 8.27018 -3.17472e-21)
(12.4683 8.08382 6.29398e-19)
(12.5208 7.90724 -1.54847e-19)
(12.5756 7.73959 7.62027e-19)
(12.6318 7.58033 -6.74592e-19)
(12.6893 7.42878 0)
(12.7477 7.2839 -6.60603e-19)
(12.8059 7.14541 6.53692e-19)
(12.8639 7.01317 7.25831e-20)
(12.9216 6.88669 -6.46593e-19)
(12.9795 6.76553 1.14759e-18)
(13.0375 6.64902 -5.01103e-19)
(13.0952 6.53621 0)
(13.1516 6.42708 0)
(13.2064 6.32134 -5.7838e-19)
(13.2592 6.21934 5.82272e-19)
(13.3113 6.12133 -6.59685e-19)
(13.3633 6.02578 5.91267e-19)
(13.4133 5.93297 7.4256e-20)
(13.4626 5.84334 -7.47243e-20)
(13.5115 5.75641 -7.47877e-20)
(13.56 5.67191 1.49332e-19)
(13.6084 5.58996 -2.96783e-19)
(13.6569 5.50682 1.48206e-19)
(14.5355 13.7734 0)
(14.1736 13.4661 -7.43123e-20)
(13.8515 13.1338 -1.59432e-19)
(13.5709 12.7845 2.40842e-19)
(13.3313 12.4234 8.44438e-20)
(13.1272 12.0601 0)
(12.9607 11.7024 3.57833e-19)
(12.8283 11.3541 -2.63679e-19)
(12.7291 11.0158 3.63741e-19)
(12.6583 10.691 -6.31172e-19)
(12.6033 10.3763 3.57008e-19)
(12.5667 10.0782 -3.60129e-19)
(12.5456 9.79571 3.52681e-19)
(12.5386 9.52955 0)
(12.5426 9.27725 0)
(12.5555 9.03918 6.86109e-19)
(12.5748 8.81386 -6.69367e-19)
(12.601 8.60175 8.64378e-22)
(12.6328 8.40144 8.10594e-20)
(12.6691 8.21183 4.75483e-19)
(12.7093 8.03209 -6.20309e-19)
(12.7526 7.86106 -5.34857e-19)
(12.7985 7.69862 1.12755e-18)
(12.8456 7.5445 -4.44387e-19)
(12.8949 7.39775 -7.2937e-20)
(12.9448 7.25673 5.08449e-19)
(12.9945 7.12328 -6.47313e-19)
(13.0441 6.99614 0)
(13.094 6.87445 -5.68337e-19)
(13.1448 6.75774 5.67623e-19)
(13.1959 6.64537 -7.05723e-20)
(13.2466 6.53585 5.67553e-19)
(13.2952 6.43127 -1.13841e-18)
(13.3425 6.32933 5.71796e-19)
(13.3874 6.23229 0)
(13.433 6.13941 -7.21383e-20)
(13.479 6.0471 0)
(13.5215 5.95889 -7.38024e-20)
(13.5644 5.87381 7.42726e-20)
(13.6076 5.79146 7.43805e-20)
(13.6502 5.71102 7.41695e-20)
(13.6927 5.63308 0)
(13.7356 5.55293 0)
(14.7984 13.4045 -7.15335e-20)
(14.4504 13.1215 1.45486e-19)
(14.1364 12.8136 7.65695e-20)
(13.8637 12.4948 -8.13883e-20)
(13.6375 12.1578 -1.6803e-19)
(13.4353 11.8159 -1.76435e-19)
(13.267 11.48 -1.8328e-19)
(13.1255 11.1568 3.42064e-19)
(13.0198 10.8376 3.61539e-19)
(12.9452 10.5376 -3.646e-19)
(12.8822 10.2327 0)
(12.8381 9.94834 3.59191e-19)
(12.8077 9.67692 -8.3505e-20)
(12.7925 9.425 -3.47455e-19)
(12.7887 9.18221 -2.59526e-19)
(12.7939 8.95589 -8.63756e-20)
(12.8063 8.73747 2.50824e-19)
(12.8256 8.53389 8.28117e-20)
(12.8504 8.34056 3.24029e-19)
(12.8796 8.15664 -5.53786e-19)
(12.9137 7.98156 2.31306e-19)
(12.9507 7.8132 7.51415e-20)
(12.9902 7.65545 0)
(13.0296 7.50581 -1.46906e-19)
(13.0736 7.36301 6.3514e-22)
(13.1164 7.22576 1.42759e-19)
(13.1574 7.09997 0)
(13.2004 6.97667 7.25008e-20)
(13.2444 6.85819 7.24442e-20)
(13.2899 6.74426 -2.83665e-19)
(13.3358 6.63577 2.75625e-19)
(13.381 6.52897 0)
(13.4221 6.43175 0)
(13.4634 6.33155 0)
(13.5001 6.24079 0)
(13.5419 6.15195 -1.42164e-19)
(13.5836 6.06058 2.89511e-19)
(13.6177 5.97982 0)
(13.6568 5.89886 0)
(13.6952 5.82128 -1.49329e-19)
(13.7321 5.74315 2.24539e-19)
(13.77 5.66807 0)
(13.8095 5.59046 0)
(11.7986 -3.17004 -2.7076e-18)
(11.467 -3.1352 0)
(11.1389 -3.10059 -5.96259e-19)
(10.8164 -3.06503 0)
(10.4995 -3.02944 -6.06541e-19)
(10.1884 -2.99392 -4.56352e-19)
(9.88306 -2.95851 -1.47711e-19)
(9.58344 -2.92325 -5.28564e-21)
(9.28954 -2.88815 0)
(9.00132 -2.85322 3.08993e-19)
(8.71876 -2.81845 -6.19858e-19)
(8.44177 -2.78382 1.12607e-21)
(8.17032 -2.74936 6.35989e-19)
(7.90428 -2.71502 -7.43129e-22)
(7.64359 -2.68082 -9.82237e-19)
(7.38813 -2.64672 -6.71224e-19)
(7.1378 -2.61276 3.43236e-19)
(6.89247 -2.57889 -6.99785e-19)
(6.65197 -2.54511 1.44195e-18)
(6.41615 -2.51139 -7.45663e-19)
(6.18479 -2.47771 0)
(5.95769 -2.44405 0)
(5.73458 -2.41037 2.07544e-19)
(5.51521 -2.37668 0)
(5.29925 -2.34289 9.36492e-19)
(5.08636 -2.30899 -9.94667e-19)
(4.87616 -2.27494 -4.46233e-21)
(4.66826 -2.24068 4.281e-19)
(4.46221 -2.2062 7.73233e-19)
(4.25754 -2.1714 -1.01551e-18)
(4.05375 -2.13622 3.44502e-22)
(3.85034 -2.1006 2.60806e-21)
(3.64674 -2.06446 9.99308e-22)
(3.44238 -2.02763 2.57114e-19)
(3.23665 -1.98988 8.69584e-19)
(3.02898 -1.95074 -1.33058e-18)
(2.81929 -1.90915 0)
(2.60931 -1.86344 0)
(2.40743 -1.81003 -2.61469e-19)
(2.24938 -1.74459 -3.10645e-19)
(2.28173 -1.67137 0)
(3.06547 -1.68576 0)
(6.77811 -2.28341 1.48317e-17)
(11.708 -3.16308 1.13348e-18)
(11.4044 -3.12812 6.03704e-19)
(11.1037 -3.09582 -6.16759e-19)
(10.8074 -3.06426 -3.09068e-19)
(10.5157 -3.03304 1.55133e-18)
(10.2284 -3.00196 6.20845e-19)
(9.94553 -2.97095 -6.41111e-19)
(9.66713 -2.94001 6.42238e-19)
(9.39308 -2.90912 -1.56982e-19)
(9.12337 -2.87826 -4.6995e-19)
(8.85788 -2.84741 1.41141e-21)
(8.59658 -2.81655 6.34661e-19)
(8.33934 -2.78563 0)
(8.08608 -2.75463 6.46918e-19)
(7.83665 -2.72353 -9.84608e-19)
(7.59096 -2.69233 6.69081e-19)
(7.34887 -2.66102 3.42951e-19)
(7.11022 -2.62959 -6.99999e-19)
(6.87489 -2.59803 1.0832e-18)
(6.64269 -2.56632 0)
(6.41346 -2.53444 0)
(6.18695 -2.50238 -1.00371e-18)
(5.96296 -2.47009 1.05028e-18)
(5.74121 -2.43758 6.58967e-19)
(5.52139 -2.40476 -6.96375e-19)
(5.30317 -2.3716 9.8689e-19)
(5.08617 -2.33802 -7.88267e-19)
(4.87 -2.30394 1.56602e-21)
(4.65416 -2.26921 0)
(4.43819 -2.2337 3.30492e-19)
(4.22162 -2.1972 5.3918e-19)
(4.00397 -2.15938 1.22773e-20)
(3.78487 -2.11987 -2.30035e-19)
(3.56426 -2.07807 -7.25074e-19)
(3.34264 -2.03305 -2.7065e-19)
(3.12203 -1.98348 1.2237e-18)
(2.90842 -1.92724 0)
(2.71805 -1.86134 3.21986e-18)
(2.59641 -1.78232 9.07439e-22)
(2.66605 -1.69619 -4.32024e-18)
(3.23546 -1.65692 0)
(5.06271 -1.89449 5.78131e-18)
(9.85637 -2.93169 -5.01792e-18)
(11.628 -3.1483 2.28272e-21)
(11.3448 -3.11731 6.16881e-19)
(11.0651 -3.08656 -3.14665e-19)
(10.789 -3.05676 -3.15142e-19)
(10.5165 -3.02727 -7.86713e-19)
(10.2475 -2.99786 -1.5863e-19)
(9.98172 -2.96847 3.16677e-19)
(9.71919 -2.93907 0)
(9.45985 -2.90969 6.33406e-19)
(9.2036 -2.88031 -3.18883e-19)
(8.95043 -2.85093 8.88401e-22)
(8.7003 -2.82153 -6.43737e-19)
(8.45313 -2.79206 3.25231e-19)
(8.20883 -2.76248 0)
(7.96728 -2.73278 3.34063e-19)
(7.72834 -2.70292 -1.64489e-21)
(7.49191 -2.67294 -3.4909e-19)
(7.25784 -2.64281 0)
(7.02603 -2.61253 -3.64768e-19)
(6.79634 -2.58208 0)
(6.56856 -2.55141 1.96757e-19)
(6.34252 -2.52051 2.02771e-19)
(6.11799 -2.48933 -2.11698e-19)
(5.89476 -2.45782 -2.23918e-19)
(5.67255 -2.4259 4.72182e-19)
(5.45105 -2.39348 -7.43556e-19)
(5.22995 -2.36044 1.05562e-18)
(5.00889 -2.32665 -8.44133e-19)
(4.78751 -2.29186 -1.51664e-21)
(4.56549 -2.25582 -9.77692e-19)
(4.34256 -2.21816 -3.51552e-19)
(4.11863 -2.17834 0)
(3.89409 -2.13573 4.2428e-19)
(3.67015 -2.08929 2.34446e-19)
(3.44981 -2.03767 5.19412e-19)
(3.23994 -1.97896 5.86164e-19)
(3.05626 -1.91063 -6.58408e-19)
(2.93541 -1.83015 3.53581e-23)
(2.9607 -1.73946 4.3006e-19)
(3.30857 -1.65977 6.40939e-18)
(4.34413 -1.67781 -4.56107e-18)
(6.78694 -2.0387 -5.42182e-18)
(11.5916 -3.20613 4.08164e-18)
(11.5528 -3.13089 8.23366e-22)
(11.29 -3.10298 -6.29963e-19)
(11.0294 -3.07484 -3.19812e-19)
(10.7716 -3.04703 3.20686e-19)
(10.5165 -3.01931 0)
(10.264 -2.99157 3.19893e-19)
(10.0139 -2.96377 -6.31585e-19)
(9.76604 -2.93591 -5.01729e-20)
(9.52036 -2.90802 -1.19751e-19)
(9.27676 -2.88014 1.60431e-19)
(9.03519 -2.85227 -1.62358e-19)
(8.79568 -2.82442 4.92035e-19)
(8.55815 -2.79651 0)
(8.32253 -2.76844 3.35834e-19)
(8.08869 -2.74014 0)
(7.85643 -2.71157 0)
(7.62561 -2.68277 -1.05893e-21)
(7.39609 -2.65374 3.63077e-19)
(7.16778 -2.62448 0)
(6.94055 -2.59496 -1.9319e-19)
(6.71427 -2.56512 -3.97284e-19)
(6.4887 -2.53491 4.14825e-19)
(6.26369 -2.50431 -4.32318e-19)
(6.03904 -2.47326 4.53364e-19)
(5.81453 -2.44165 -1.91576e-22)
(5.58992 -2.40937 -6.13096e-22)
(5.36494 -2.37627 -5.33649e-19)
(5.1394 -2.34214 0)
(4.91309 -2.3067 -2.29191e-21)
(4.68595 -2.26954 4.8957e-19)
(4.4581 -2.23013 -2.65525e-19)
(4.22998 -2.1877 9.57475e-20)
(4.00298 -2.14135 -4.16366e-19)
(3.7799 -2.08976 -2.28148e-19)
(3.56675 -2.03132 -2.53023e-19)
(3.37572 -1.96401 2.74724e-21)
(3.23287 -1.88569 -1.28267e-18)
(3.19248 -1.79606 1.45485e-18)
(3.3618 -1.70385 -2.05289e-18)
(3.94213 -1.64449 1.39578e-18)
(5.30229 -1.72356 0)
(8.08362 -2.17995 1.56138e-18)
(12.7487 -3.3755 9.14933e-19)
(11.4848 -3.11834 3.14333e-19)
(11.2408 -3.09092 -3.2088e-19)
(10.9983 -3.06397 0)
(10.7574 -3.03793 0)
(10.5185 -3.01205 1.62781e-19)
(10.2813 -2.98601 -1.62875e-19)
(10.0456 -2.95976 3.14718e-19)
(9.81128 -2.93331 1.01891e-20)
(9.57805 -2.90669 -8.16016e-20)
(9.3459 -2.88001 -2.46608e-19)
(9.11469 -2.85329 3.30518e-19)
(8.88454 -2.82666 -1.65456e-19)
(8.65545 -2.80001 -1.68006e-19)
(8.42751 -2.77323 1.75598e-21)
(8.2005 -2.74607 0)
(7.97418 -2.71849 -3.52183e-19)
(7.74833 -2.69049 3.60276e-19)
(7.52277 -2.66214 -3.69103e-19)
(7.29743 -2.63352 7.60864e-19)
(7.07231 -2.60462 1.95439e-19)
(6.84727 -2.5753 -2.02414e-19)
(6.62207 -2.54545 0)
(6.39651 -2.5151 4.39694e-19)
(6.17046 -2.48422 -4.60651e-19)
(5.94387 -2.4527 7.24438e-19)
(5.71646 -2.42032 -7.65159e-19)
(5.48808 -2.38696 2.7012e-19)
(5.25862 -2.35241 0)
(5.02816 -2.31635 6.12533e-19)
(4.79702 -2.27826 -1.63203e-19)
(4.56578 -2.23738 -1.79297e-19)
(4.33561 -2.19274 -5.98132e-21)
(4.10884 -2.14308 -9.7709e-20)
(3.88999 -2.0869 1.14461e-19)
(3.68779 -2.02242 -5.04448e-19)
(3.51932 -1.94785 5.64878e-19)
(3.41946 -1.86209 -6.30115e-19)
(3.45507 -1.76801 1.41932e-18)
(3.74666 -1.68013 -1.5833e-18)
(4.50608 -1.64353 0)
(6.09049 -1.77305 -1.93606e-18)
(9.06131 -2.30031 9.34919e-19)
(13.5922 -3.49459 -4.20073e-18)
(11.4272 -3.10239 3.13354e-19)
(11.1979 -3.07727 -3.2603e-19)
(10.9706 -3.05268 1.65642e-19)
(10.7448 -3.02863 -3.30749e-19)
(10.5204 -3.00467 1.65111e-19)
(10.2972 -2.98029 0)
(10.0746 -2.95548 0)
(9.85257 -2.93027 -3.30953e-19)
(9.63054 -2.90467 -8.27236e-20)
(9.4088 -2.87889 5.80982e-19)
(9.18671 -2.8529 -5.01004e-19)
(8.96477 -2.82711 0)
(8.74281 -2.80144 -5.1218e-19)
(8.52153 -2.77589 -5.18327e-19)
(8.30055 -2.74983 -3.51069e-19)
(8.07961 -2.72315 3.58204e-19)
(7.85826 -2.69573 0)
(7.6362 -2.66774 -3.75218e-19)
(7.4133 -2.63942 -1.92494e-19)
(7.1898 -2.61091 0)
(6.96591 -2.58201 0)
(6.74116 -2.55236 2.14896e-19)
(6.51511 -2.522 0)
(6.28766 -2.49109 -2.34342e-19)
(6.05915 -2.45959 2.4596e-19)
(5.82934 -2.42702 2.58193e-19)