/*--------------------------------*- C++ -*----------------------------------*\
| =========                 |                                                 |
| \\      /  F ield         | OpenFOAM: The Open Source CFD Toolbox           |
|  \\    /   O peration     | Version:  2.3.0                                 |
|   \\  /    A nd           | Web:      www.OpenFOAM.org                      |
|    \\/     M anipulation  |                                                 |
\*---------------------------------------------------------------------------*/
FoamFile
{
    version     2.0;
    format      ascii;
    class       surfaceScalarField;
    location    "2000";
    object      phi;
}
// * * * * * * * * * * * * * * * * * * * * * * * * * * * * * * * * * * * * * //

dimensions      [0 3 -1 0 0 0 0];

internalField   nonuniform List<scalar> 
13319
(
-0.00908618
-0.0271113
0.0303001
0.00589763
-0.0117184
-0.0230063
0.0256385
-0.0139289
-0.0195435
0.0217541
-0.0157893
-0.0166298
0.0184902
-0.0173058
-0.0141726
0.015689
-0.0184468
-0.0120847
0.0132258
-0.0191838
-0.010291
0.011028
-0.0195173
-0.00873575
0.00906925
-0.019485
-0.00737986
0.00734757
-0.0191491
-0.00620077
0.0058649
-0.0185681
-0.00517782
0.00459679
-0.00428647
-0.0177082
0.00342658
-0.00818678
-0.0244313
0.00550681
-0.0102418
-0.0209513
-0.0117755
-0.0180099
-0.0128803
-0.015525
-0.0136268
-0.0134261
-0.0140577
-0.0116538
-0.0141925
-0.0101563
-0.0140342
-0.008894
-0.0135857
-0.00782836
-0.0128544
-0.00693211
-0.0118546
-0.00617755
-0.00554902
-0.0105921
-0.00736897
-0.022109
0.00504664
-0.00910678
-0.0192135
-0.0103378
-0.0167788
-0.0111321
-0.0147307
-0.0115519
-0.0130064
-0.0116515
-0.0115542
-0.0114795
-0.0103283
-0.0110785
-0.00929501
-0.0104829
-0.00842397
-0.00972567
-0.0076893
-0.00883127
-0.00707195
-0.00655576
-0.00782454
-0.0065528
-0.0200908
0.00453454
-0.00802631
-0.01774
-0.00903979
-0.0157653
-0.00966473
-0.0141057
-0.00996055
-0.0127106
-0.00997889
-0.0115358
-0.00976179
-0.0105454
-0.00934676
-0.00971005
-0.008767
-0.00900373
-0.00804871
-0.00840759
-0.00721605
-0.00790461
-0.00747978
-0.00629203
-0.00582673
-0.0183319
0.00406792
-0.0070948
-0.0164719
-0.00794928
-0.0149108
-0.00845545
-0.0135995
-0.00866984
-0.0124962
-0.0086402
-0.0115655
-0.00840698
-0.0107786
-0.00800438
-0.0101126
-0.0074605
-0.00954761
-0.00680141
-0.00906668
-0.00604821
-0.00865781
-0.00830996
-0.00521803
-0.00517933
-0.016777
0.00362441
-0.00628876
-0.0153625
-0.0070261
-0.0141735
-0.00745322
-0.0131724
-0.00762127
-0.0123281
-0.00757358
-0.0116131
-0.00734555
-0.0110066
-0.00696867
-0.0104895
-0.00646868
-0.0100476
-0.00586665
-0.00966871
-0.00518136
-0.0093431
-0.00906361
-0.00442771
-0.00461404
-0.0154009
0.0032379
-0.00559234
-0.0143842
-0.00623811
-0.0135277
-0.00660612
-0.0128044
-0.00674336
-0.0121909
-0.00668776
-0.0116688
-0.00647227
-0.0112221
-0.00612381
-0.010838
-0.00566619
-0.0105052
-0.00511788
-0.010217
-0.0044956
-0.00996539
-0.00974683
-0.00381238
-0.00411645
-0.0141684
0.00288398
-0.00498729
-0.0135134
-0.00555872
-0.0129563
-0.00588061
-0.0124825
-0.00599581
-0.0120757
-0.00593891
-0.0117257
-0.00573814
-0.0114229
-0.00541898
-0.0111571
-0.00500114
-0.0109231
-0.00450213
-0.010716
-0.00393618
-0.0105313
-0.0103672
-0.00331585
-0.00368254
-0.0130682
0.00258234
-0.00445969
-0.0127362
-0.00496799
-0.012448
-0.00525329
-0.0121972
-0.00535159
-0.0119774
-0.00529604
-0.0117812
-0.00511105
-0.0116079
-0.00481916
-0.011449
-0.00443799
-0.0113042
-0.00398455
-0.0111695
-0.00347054
-0.0110453
-0.0109308
-0.00290691
-0.00330053
0.00230881
-0.0120765
-0.00399666
-0.0120401
-0.00445322
-0.0119914
-0.00470707
-0.0119434
-0.00479271
-0.0118917
-0.00473918
-0.0118347
-0.00456928
-0.0117778
-0.00430226
-0.011716
-0.00395569
-0.0116508
-0.00354232
-0.0115829
-0.00307527
-0.0115124
-0.00256316
-0.0114429
-0.0152706
-0.00402711
0.00158944
-0.0130809
-0.00436601
0.00217639
-0.0109756
-0.00485778
0.00275246
-0.00895344
-0.00550285
0.00348067
-0.00706006
-0.00631709
0.00442372
-0.00537024
-0.007327
0.00563718
-0.00397336
-0.00856998
0.0071731
-0.002964
-0.0100925
0.00908311
-0.00243066
-0.0119541
0.0114207
-0.00245087
-0.0142273
0.0142475
-0.00309342
-0.0170001
0.0176427
-0.0203779
0.0217211
-0.00443659
-0.00919777
-0.00542142
-0.00780133
-0.00576244
-0.00646706
-0.00619206
-0.00524158
-0.00672833
-0.00416197
-0.00739671
-0.0032643
-0.00822467
-0.0025847
-0.00924958
-0.00216505
-0.0105121
-0.00205598
-0.0120631
-0.00232143
-0.0139619
-0.00304434
-0.0162772
-0.0190953
-0.00432694
-0.00678991
-0.00645605
-0.00579733
-0.00675502
-0.0048616
-0.00712779
-0.00400031
-0.00758963
-0.00323576
-0.00816125
-0.00259543
-0.008865
-0.00211706
-0.00972796
-0.00184521
-0.010784
-0.00183528
-0.0120731
-0.00215395
-0.0136432
-0.00287768
-0.0155535
-0.0178752
-0.00409783
-0.00535337
-0.0073947
-0.00447309
-0.0076353
-0.0036637
-0.00793719
-0.00294022
-0.0083131
-0.00232284
-0.00877864
-0.00183473
-0.00935311
-0.00150525
-0.0100574
-0.00136908
-0.0109201
-0.00146989
-0.0119723
-0.00186138
-0.0132517
-0.00260881
-0.014806
-0.0166916
-0.00379239
-0.0043813
-0.00823143
-0.00360357
-0.00841303
-0.0028964
-0.00864437
-0.00227354
-0.00893596
-0.0017524
-0.00929978
-0.00135436
-0.00975114
-0.00110405
-0.0103077
-0.00103444
-0.0109898
-0.00118356
-0.0118231
-0.00159818
-0.0128371
-0.00233595
-0.0140683
-0.01556
-0.00346753
-0.00367086
-0.00898828
-0.00297108
-0.00911281
-0.00233928
-0.00927617
-0.00178895
-0.00948628
-0.0013351
-0.00975364
-0.000997333
-0.0100889
-0.00079917
-0.0105059
-0.000769379
-0.0110195
-0.000942735
-0.0116498
-0.001361
-0.0124188
-0.00207525
-0.013354
-0.0144879
-0.00314736
-0.00312672
-0.00967394
-0.00249504
-0.00974448
-0.00192735
-0.00984386
-0.00143524
-0.00997839
-0.00103367
-0.0101552
-0.000740603
-0.010382
-0.000578171
-0.0106683
-0.0005718
-0.0110259
-0.000752859
-0.0114687
-0.0011599
-0.0120118
-0.001839
-0.0126749
-0.0134806
-0.00284631
-0.00269397
-0.0102958
-0.00212262
-0.0103158
-0.00161022
-0.0103563
-0.00116778
-0.0104208
-0.000809784
-0.0105132
-0.000552071
-0.0106397
-0.000414899
-0.0108055
-0.000421721
-0.0110191
-0.000601743
-0.0112887
-0.000990261
-0.0116233
-0.00162857
-0.0120366
-0.0125421
-0.00256707
-0.00234225
-0.0108605
-0.00182415
-0.0108339
-0.00136041
-0.01082
-0.000961944
-0.0108193
-0.000640688
-0.0108345
-0.000411718
-0.0108687
-0.000293557
-0.0109237
-0.000308416
-0.0110042
-0.000482786
-0.0111143
-0.000847977
-0.0112581
-0.00144295
-0.0114416
-0.0116713
-0.00231377
-0.00204979
-0.0113739
-0.00157935
-0.0113044
-0.00115921
-0.0112401
-0.000798131
-0.0111804
-0.000511537
-0.0111211
-0.000306117
-0.0110741
-0.000203513
-0.0110263
-0.000223111
-0.0109846
-0.000388495
-0.0109489
-0.000729401
-0.0109172
-0.00127982
-0.0108912
-0.0108683
-0.00208275
0.00169594
0.0218044
-0.0237766
0.000276169
0.00297537
0.017859
-0.0191384
0.00371155
0.0146476
-0.0153838
0.00402736
0.0120391
-0.0123549
0.00402136
0.0099194
-0.00991339
0.00377127
0.00819376
-0.00794367
0.00333894
0.00678346
-0.00635113
0.00277464
0.00562293
-0.00505863
0.00211998
0.00465765
-0.00400299
0.00141039
0.00383947
-0.00312989
0.000658303
0.00313899
-0.0023869
0.00272124
-0.000275494
-0.00178744
0.00151828
0.0200161
0.000270093
0.00268702
0.0166903
0.00336719
0.0139675
0.00366577
0.0117405
0.00366885
0.00991631
0.00344573
0.00841687
0.00305165
0.00717754
0.00253218
0.0061424
0.00192512
0.00526471
0.00126065
0.00450394
0.000541581
0.00385806
0.00357481
-0.000311991
0.00136557
0.0183909
0.000259577
0.00243365
0.0156222
0.00305968
0.0133414
0.00333862
0.0114616
0.00334626
0.00990868
0.00314468
0.00861846
0.0027842
0.00753802
0.0023056
0.006621
0.00174401
0.0058263
0.00112488
0.00512307
0.000449232
0.0045337
0.00435846
-0.000334416
0.00122756
0.016916
0.000247341
0.00220187
0.0146479
0.00277688
0.0127664
0.00303599
0.0112025
0.00304716
0.00989751
0.00286541
0.00880021
0.00253628
0.00786715
0.00209741
0.00705987
0.00157971
0.006344
0.00100616
0.00569662
0.000378576
0.00516129
0.00507826
-0.000341231
0.00110448
0.0155788
0.000232697
0.00199292
0.0137594
0.00252067
0.0122387
0.00276116
0.010962
0.00277493
0.00988374
0.00261146
0.00896368
0.00231137
0.00816724
0.00190897
0.00746226
0.00143285
0.00682012
0.000903368
0.0062261
0.000323963
0.00574069
0.00573991
-0.000337684
0.000993625
0.0143619
0.000223329
0.0018045
0.0129486
0.0022889
0.0117542
0.00251204
0.0107389
0.00252777
0.00986801
0.00238062
0.00911083
0.00210727
0.00844059
0.00173894
0.00783059
0.00130154
0.00725752
0.0008143
0.00671334
0.000280856
0.00627414
0.00634882
-0.000328052
0.000895798
0.0132583
0.00020779
0.00163542
0.0122089
0.00207959
0.0113101
0.00228616
0.0105323
0.00230344
0.00985072
0.00217078
0.0092435
0.00192171
0.00868966
0.00158445
0.00816785
0.00118301
0.00765895
0.000734778
0.00716158
0.00024354
0.00676538
0.00690913
-0.000316771
0.000808522
0.0122552
0.000194626
0.00148276
0.0115347
0.00188932
0.0109035
0.00207992
0.0103417
0.00209816
0.00983247
0.00197986
0.0093618
0.00175356
0.00891596
0.00144576
0.00847565
0.00107885
0.00802586
0.000669319
0.00757112
0.000218718
0.00721598
0.00743032
-0.000302473
0.000730262
0.0113422
0.000182655
0.0013459
0.0109191
0.00171841
0.010531
0.00189403
0.0101661
0.00191177
0.00981473
0.00180692
0.00946665
0.00159863
0.00912426
0.00131547
0.0087588
0.000979089
0.00836224
0.000603613
0.00794659
0.000188682
0.00763091
0.00791485
-0.000295847
0.000659367
0.0105139
0.000169001
0.00122003
0.0103584
0.00155973
0.0101913
0.00171978
0.010006
0.00173839
0.00979612
0.00165125
0.00955379
0.00146544
0.00931007
0.00120616
0.00901809
0.000899903
0.0086685
0.000568664
0.00827783
0.000206775
0.0079928
-0.000279787
0.00840141
-0.00122767
0.00352913
-0.00257695
-0.00227779
0.00456222
-0.0035121
-0.0032928
0.00556696
-0.00455195
-0.00419829
0.00663998
-0.00573449
-0.00493307
0.00784944
-0.00711466
-0.00543884
0.00923537
-0.0087296
-0.0056604
0.0108375
-0.010616
-0.00554474
0.0127051
-0.0128208
-0.00503558
0.0149043
-0.0154134
-0.00406619
0.0175121
-0.0184815
-0.00255397
0.0206151
-0.0221273
0.0243195
-0.0264755
-0.000397987
-0.00123387
0.00445101
-0.00222001
0.00554836
-0.00315502
0.00650197
-0.0039737
0.00745867
-0.00462445
0.00850019
-0.00506138
0.0096723
-0.00524018
0.0110163
-0.00511783
0.0125828
-0.0046428
0.0144292
-0.00375164
0.0166209
-0.00237034
0.0192338
0.0223533
-0.000404154
-0.00120217
0.00531877
-0.00211395
0.00646013
-0.00297018
0.0073582
-0.0037113
0.00819979
-0.00429432
0.00908321
-0.0046799
0.0100579
-0.00483233
0.0111687
-0.00471209
0.0124625
-0.00427278
0.0139899
-0.00345605
0.0158042
-0.00219392
0.0179717
0.0205607
-0.000401364
-0.0011511
0.00612864
-0.00199021
0.00729924
-0.00277006
0.00813804
-0.00343899
0.00886872
-0.00396076
0.00960498
-0.00430357
0.0104007
-0.00443628
0.0113015
-0.00432329
0.0123496
-0.00392086
0.0135875
-0.00317769
0.015061
-0.00202555
0.0168195
0.0189246
-0.000389394
-0.00108825
0.00687921
-0.00185821
0.0080692
-0.00256754
0.00884737
-0.00317152
0.00947271
-0.00363964
0.0100731
-0.00394603
0.0107071
-0.00406286
0.0114183
-0.00395763
0.0122443
-0.0035913
0.0132211
-0.00291311
0.0143829
-0.00186477
0.0157712
0.0174359
-0.000376053
-0.00102169
0.00757284
-0.00172647
0.00877398
-0.00237047
0.00949137
-0.0029158
0.010018
-0.00333685
0.0104941
-0.00361129
0.0109815
-0.0037152
0.0115222
-0.00361816
0.0121473
-0.00328366
0.0128866
-0.0026662
0.0137654
-0.00171505
0.01482
0.0160794
-0.000358596
-0.000954803
0.00821087
-0.00159845
0.00941763
-0.00218228
0.0100752
-0.00267443
0.0105102
-0.00305336
0.0108731
-0.00330042
0.0112286
-0.00339304
0.0116148
-0.00330501
0.0120593
-0.00299999
0.0125816
-0.00243982
0.0132052
-0.00157156
0.0139518
0.0148479
-0.00034006
-0.000894131
0.00880253
-0.00147987
0.0100034
-0.00200646
0.0106018
-0.0024489
0.0109526
-0.0027904
0.0112146
-0.00301289
0.0114511
-0.00309603
0.011698
-0.00301328
0.0119765
-0.00273683
0.0123052
-0.00222773
0.0126961
-0.0014408
0.0131648
0.0137265
-0.00031942
-0.000835369
0.00934205
-0.00136395
0.0105319
-0.00183671
0.0110746
-0.00223716
0.0113531
-0.00254628
0.0115237
-0.00274761
0.0116524
-0.00282299
0.0117733
-0.00274955
0.0119031
-0.00249821
0.0120538
-0.0020343
0.0122322
-0.00131847
0.012449
0.0127073
-0.00029927
-0.000799306
0.00986157
-0.00126452
0.0109972
-0.0016831
0.0114931
-0.00204215
0.0117121
-0.00232139
0.011803
-0.00250426
0.0118352
-0.0025724
0.0118415
-0.00250399
0.0118347
-0.00227775
0.0118276
-0.00185721
0.0118117
-0.00120451
0.0117963
-0.000279076
0.0117819
0.00315376
0.000272835
0.00467368
0.00307688
0.00570422
0.00483436
0.00648403
0.00656778
0.00705672
0.00849657
0.00739455
0.0106901
0.00746861
0.0131517
0.00728507
0.0158726
0.00689594
0.0188794
0.00638569
0.0222644
0.00584194
0.0261823
0.0308228
0.00531921
-4.75428e-05
0.000320536
0.000947613
0.00208182
0.00195612
0.00382587
0.0028595
0.00566444
0.00364856
0.00770751
0.0043124
0.0100263
0.00482002
0.0126441
0.00513747
0.0155552
0.00525376
0.0187631
0.00519242
0.0223257
0.00500487
0.0263698
0.0310896
0.00473809
-0.000331272
0.000652099
-5.31599e-06
0.00175605
0.000629822
0.00319066
0.00136999
0.00492431
0.00210527
0.00697219
0.00278062
0.00935098
0.00335708
0.0120677
0.00379986
0.0151124
0.00408773
0.0184753
0.00422321
0.0221903
0.00422952
0.0263635
0.031179
0.00414015
-0.000200023
0.000853202
-0.00020068
0.00175706
4.75335e-05
0.00294221
0.000499741
0.00447209
0.00107355
0.00639825
0.00168892
0.00873559
0.00227957
0.011477
0.00279045
0.0146015
0.00318165
0.0180841
0.00343935
0.0219326
0.00357348
0.0262294
0.0311407
0.00361177
-0.000126626
0.00098099
-0.00017037
0.00180125
-9.00929e-05
0.0028616
0.000145646
0.00423631
0.000526297
0.0060174
0.0010072
0.00825466
0.00152708
0.010957
0.00202671
0.0141018
0.00245535
0.0176554
0.00278321
0.0216047
0.00300472
0.0260079
0.0310106
0.00313478
-8.85468e-05
0.00107022
-0.000128929
0.0018419
-0.00010218
0.00283465
2.49052e-05
0.00410921
0.000272464
0.00576971
0.000630419
0.0078967
0.00105955
0.0105279
0.00150703
0.0136544
0.00192172
0.0172407
0.0022675
0.0212589
0.00253121
0.0257441
0.0308257
0.00271618
-6.96456e-05
0.00114037
-0.000108676
0.00188113
-0.000104399
0.00283031
-3.28773e-05
0.00403769
0.000131205
0.00560557
0.000397392
0.00763052
0.000747781
0.0101774
0.00114095
0.0132612
0.00152828
0.0168534
0.00186964
0.0209175
0.00214604
0.0254677
0.0306151
0.00235662
-6.01885e-05
0.00120056
-9.8893e-05
0.00191984
-0.000105786
0.00283713
-6.40988e-05
0.00399598
4.72638e-05
0.00549417
0.000245578
0.00743221
0.000528898
0.00989411
0.000870381
0.0129197
0.00122726
0.0164965
0.0015577
0.0205871
0.00184006
0.0251854
0.0303772
0.00207792
-5.279e-05
0.00125322
-9.00208e-05
0.00195704
-0.00010251
0.00284973
-7.82169e-05
0.00397169
3.27488e-08
0.00541596
0.000149873
0.00728238
0.000378316
0.00966567
0.000671242
0.0126268
0.000994742
0.016173
0.00130914
0.0202727
0.0015871
0.0249074
0.0301397
0.00182464
-4.61921e-05
0.00129876
-8.15574e-05
0.00199225
-9.71835e-05
0.00286549
-8.36799e-05
0.00395819
-2.71679e-05
0.00535952
8.83732e-05
0.00716685
0.000273844
0.00948022
0.000524195
0.0123764
0.000814472
0.0158827
0.00110853
0.0199786
0.00137642
0.0246395
0.0299089
0.00160716
-4.06661e-05
0.00133859
-7.39155e-05
0.00202534
-9.11101e-05
0.00288292
-8.48739e-05
0.003952
-4.32957e-05
0.00531805
4.73755e-05
0.00707619
0.000199348
0.00932827
0.000413687
0.0121621
0.00067306
0.0156233
0.00094635
0.0197053
0.00120264
0.0243832
0.0296873
0.00142426
-3.63425e-05
0.00137404
-6.72201e-05
0.00205603
-8.5193e-05
0.0029011
-8.35489e-05
0.0039504
-5.29918e-05
0.0052876
1.94597e-05
0.00700376
0.000145578
0.00920218
0.000329786
0.0119779
0.000561271
0.0153919
0.000813988
0.0194526
0.00105775
0.0241395
0.0294733
0.00127177
-3.27897e-05
0.00140609
-6.12727e-05
0.00208433
-7.90796e-05
0.00291907
-8.06548e-05
0.003952
-5.75582e-05
0.0052646
8.17359e-07
0.00694539
0.000106493
0.00909653
0.00026609
0.0118183
0.00047335
0.0151846
0.000707578
0.0192184
0.000941779
0.0239053
0.0292531
0.00116195
-2.96569e-05
0.00143524
-5.58185e-05
0.00211034
-7.32269e-05
0.00293662
-7.68813e-05
0.00395567
-5.94683e-05
0.00524726
-1.14395e-05
0.00689736
7.81327e-05
0.00900697
0.000216882
0.0116796
0.000402425
0.014999
0.000618995
0.0190018
0.000840978
0.0236833
0.0290445
0.00104966
-2.69624e-05
0.00146182
-5.10517e-05
0.00213429
-6.79218e-05
0.00295356
-7.3048e-05
0.0039608
-5.97662e-05
0.00523403
-1.99952e-05
0.00685758
5.65237e-05
0.00893046
0.000177682
0.0115584
0.000344333
0.0148324
0.000543162
0.0188029
0.000752302
0.0234741
0.0288448
0.000951974
-2.45381e-05
0.00148617
-4.67847e-05
0.00215645
-6.29228e-05
0.00296977
-6.89039e-05
0.00396678
-5.90781e-05
0.00522424
-2.58655e-05
0.00682436
4.00031e-05
0.0088646
0.000146684
0.0114517
0.000296253
0.0146828
0.000479464
0.0186197
0.000676657
0.0232769
0.028654
0.00086743
-2.24019e-05
0.00150841
-4.29881e-05
0.00217696
-5.84076e-05
0.00298521
-6.49755e-05
0.00397333
-5.76515e-05
0.00521694
-2.96801e-05
0.00679638
2.74673e-05
0.00880746
0.000121828
0.0113573
0.000256687
0.0145479
0.000425553
0.0184509
0.000611325
0.0230912
0.0284719
0.000793463
-2.04651e-05
0.00152882
-3.95275e-05
0.00219598
-5.41745e-05
0.00299989
-6.10818e-05
0.00398023
-5.57194e-05
0.00521159
-3.1958e-05
0.00677261
1.79916e-05
0.00875751
0.000101903
0.0112734
0.000223966
0.0144259
0.000379802
0.018295
0.000554781
0.0229162
0.0282976
0.000729001
-1.87401e-05
0.00154751
-3.64092e-05
0.00221361
-5.03148e-05
0.0030138
-5.73808e-05
0.00398729
-5.36314e-05
0.00520786
-3.31417e-05
0.00675211
1.08214e-05
0.00871355
8.58865e-05
0.0111984
0.000196775
0.014315
0.000340897
0.0181509
0.000505773
0.0227513
0.0281305
0.000672942
-1.71613e-05
0.00156466
-3.35868e-05
0.00223002
-4.67021e-05
0.00302693
-5.37943e-05
0.00399438
-5.10519e-05
0.00520512
-3.36605e-05
0.00673471
5.46608e-06
0.00867442
7.29923e-05
0.0111308
0.000174131
0.0142138
0.000307714
0.0180173
0.000463231
0.0225958
0.02797
0.000623727
-1.57781e-05
0.00158041
-3.09986e-05
0.00224523
-4.33926e-05
0.00303933
-5.03689e-05
0.00400135
-4.85165e-05
0.00520327
-3.32424e-05
0.00671944
1.38505e-06
0.00863979
6.2612e-05
0.0110696
0.00015505
0.0141214
0.000279316
0.017893
0.000426165
0.0224489
0.0278158
0.000580325
-1.4494e-05
0.00159491
-2.86435e-05
0.00225937
-4.03008e-05
0.003051
-4.71071e-05
0.00400816
-4.59195e-05
0.00520209
-3.25195e-05
0.00670603
-1.27689e-06
0.00860855
5.40529e-05
0.0110143
0.000139324
0.0140361
0.000254615
0.0177778
0.000393259
0.0223103
0.027668
0.000541135
-1.33532e-05
0.00160826
-2.6492e-05
0.0022725
-3.74474e-05
0.00306195
-4.40134e-05
0.00401472
-4.332e-05
0.0052014
-3.14633e-05
0.00669417
-3.23357e-06
0.00858032
4.74808e-05
0.0109636
0.000125978
0.0139576
0.00023374
0.01767
0.000365047
0.022179
0.0275257
0.000507281
-1.22957e-05
0.00162056
-2.4517e-05
0.00228472
-3.48006e-05
0.00307224
-4.11312e-05
0.00402105
-4.08034e-05
0.00520108
-3.02149e-05
0.00668358
-4.53931e-06
0.00855465
4.1982e-05
0.010917
0.000114632
0.013885
0.000215456
0.0175692
0.000339916
0.0220545
0.027389
0.000476593
-1.13685e-05
0.00163192
-2.27323e-05
0.00229608
-3.23771e-05
0.00308189
-3.83971e-05
0.00402706
-3.83742e-05
0.00520105
-2.88349e-05
0.00667404
-5.37553e-06
0.00853119
3.74631e-05
0.0108742
0.000104902
0.0138175
0.000199344
0.0174747
0.000317382
0.0219365
0.0272574
0.000449024
-1.0493e-05
0.00164242
-2.10779e-05
0.00230666
-3.01172e-05
0.00309093
-3.58728e-05
0.00403282
-3.60151e-05
0.0052012
-2.74303e-05
0.00666546
-5.90443e-06
0.00850966
3.37088e-05
0.0108346
9.64355e-05
0.0137548
0.000185098
0.0173861
0.000297193
0.0218244
0.0271312
0.000423408
-9.71725e-06
0.00165213
-1.95603e-05
0.00231651
-2.80671e-05
0.00309944
-3.35187e-05
0.00403827
-3.3819e-05
0.0052015
-2.60804e-05
0.00665772
-6.12298e-06
0.00848971
3.05948e-05
0.0107979
8.90616e-05
0.0136963
0.000172466
0.0173027
0.000278816
0.0217181
0.0270089
0.000401103
-9.02279e-06
0.00166116
-1.82146e-05
0.0023257
-2.61726e-05
0.0031074
-3.13564e-05
0.00404345
-3.17676e-05
0.00520191
-2.46261e-05
0.00665058
-6.26936e-06
0.00847135
2.78797e-05
0.0107637
8.26197e-05
0.0136416
0.000161144
0.0172241
0.000262427
0.0216168
0.0268916
0.00037974
-8.38264e-06
0.00166954
-1.69523e-05
0.00233426
-2.44338e-05
0.00311488
-2.93344e-05
0.00404835
-2.97947e-05
0.00520237
-2.3251e-05
0.00664403
-6.37985e-06
0.00845448
2.54525e-05
0.0107319
7.6719e-05
0.0135903
0.000150897
0.01715
0.000246885
0.0215208
0.0267789
0.000359612
-7.80024e-06
0.00167734
-1.58157e-05
0.00234228
-2.28021e-05
0.00312187
-2.74391e-05
0.00405299
-2.79289e-05
0.00520286
-2.18883e-05
0.00663799
-5.99383e-06
0.00843858
2.38013e-05
0.0107021
7.20021e-05
0.0135421
0.000141814
0.0170801
0.000233841
0.0214288
0.0266695
0.000343195
-7.29639e-06
0.00168464
-1.47535e-05
0.00234974
-2.12967e-05
0.00312841
-2.56513e-05
0.00405734
-2.6148e-05
0.00520336
-2.03841e-05
0.00663223
-5.6398e-06
0.00842384
2.22975e-05
0.0106741
6.77318e-05
0.0134967
0.000133649
0.0170142
0.000220475
0.0213419
0.0265699
0.000320107
-6.67024e-06
0.00169131
-1.36357e-05
0.0023567
-1.96938e-05
0.00313447
-2.38604e-05
0.00406151
-2.42279e-05
0.00520373
-1.90449e-05
0.00662704
-5.08516e-06
0.00840988
2.12064e-05
0.0106479
6.39485e-05
0.0134539
0.000126461
0.0169517
0.000209314
0.0212591
0.0264711
0.000308093
-6.2172e-06
0.00169752
-1.26947e-05
0.00236318
-1.83685e-05
0.00314014
-2.20544e-05
0.0040652
-2.25087e-05
0.00520418
-1.74479e-05
0.00662198
-4.18453e-06
0.00839662
2.08521e-05
0.0106228
6.16376e-05
0.0134132
0.000121731
0.0168916
0.000202441
0.0211784
0.0263724
0.000301152
-5.68815e-06
0.00170321
-1.16686e-05
0.00236916
-1.70284e-05
0.00314551
-2.04869e-05
0.00406865
-2.07363e-05
0.00520443
-1.58314e-05
0.00661708
-3.07341e-06
0.00838386
2.07063e-05
0.010599
5.93106e-05
0.0133746
0.000116462
0.0168345
0.000192375
0.0211025
0.0262838
0.000281008
-5.31391e-06
0.00170853
-1.08524e-05
0.0023747
-1.57389e-05
0.00315039
-1.88842e-05
0.0040718
-1.89968e-05
0.00520455
-1.42397e-05
0.00661232
-2.13028e-06
0.00837175
2.05709e-05
0.0105763
5.75606e-05
0.0133376
0.000112232
0.0167798
0.000186175
0.0210285
0.0261876
0.00028232
-4.89636e-06
0.00171343
-1.00092e-05
0.00237981
-1.44933e-05
0.00315488
-1.73621e-05
0.00407467
-1.73104e-05
0.0052045
-1.26587e-05
0.00660767
-9.95792e-07
0.00836009
2.07764e-05
0.0105546
5.60263e-05
0.0133023
0.000108711
0.0167271
0.000179683
0.0209576
0.0261045
0.000262823
-4.6144e-06
0.00171804
-9.33029e-06
0.00238452
-1.33856e-05
0.00315893
-1.58824e-05
0.00407716
-1.57039e-05
0.00520432
-1.1083e-05
0.00660305
1.90055e-07
0.00834882
2.09297e-05
0.0105338
5.50948e-05
0.0132681
0.00010533
0.0166769
0.000174128
0.0208888
0.0260179
0.00026071
-4.21894e-06
0.00172226
-8.53335e-06
0.00238884
-1.22626e-05
0.00316266
-1.45412e-05
0.00407944
-1.41771e-05
0.00520396
-9.50314e-06
0.00659837
1.33153e-06
0.00833798
2.14865e-05
0.0105137
5.43229e-05
0.0132353
0.000102809
0.0166284
0.000169171
0.0208224
0.0259366
0.000250476
-3.76704e-06
0.00172603
-7.7657e-06
0.00239284
-1.11062e-05
0.003166
-1.32465e-05
0.00408158
-1.26376e-05
0.00520335
-8.23463e-06
0.00659397
2.36839e-06
0.00832738
2.18057e-05
0.0104942
5.32603e-05
0.0132039
9.99776e-05
0.0165817
0.000163802
0.0207586
0.0258545
0.000245917
-3.53004e-06
0.00172956
-7.1877e-06
0.00239649
-1.03027e-05
0.00316912
-1.1989e-05
0.00408327
-1.14674e-05
0.00520283
-6.96722e-06
0.00658947
3.34298e-06
0.00831707
2.20946e-05
0.0104755
5.24112e-05
0.0131735
9.7553e-05
0.0165365
0.000159774
0.0206963
0.025775
0.000239255
-3.20028e-06
0.00173276
-6.56808e-06
0.00239986
-9.49428e-06
0.00317205
-1.10399e-05
0.00408481
-1.02937e-05
0.00520208
-5.85109e-06
0.00658503
4.27046e-06
0.00830695
2.23325e-05
0.0104574
5.13562e-05
0.0131445
9.47489e-05
0.0164931
0.000154079
0.020637
0.0257003
0.000228786
-3.00964e-06
0.00173577
-6.11314e-06
0.00240296
-8.69983e-06
0.00317463
-1.00416e-05
0.00408615
-9.18453e-06
0.00520122
-4.79769e-06
0.00658064
4.93851e-06
0.00829721
2.23946e-05
0.01044
5.05248e-05
0.0131164
9.23196e-05
0.0164513
0.000150155
0.0205792
0.0256263
0.000224123
-2.76324e-06
0.00173853
-5.6048e-06
0.00240581
-7.94081e-06
0.00317697
-9.07652e-06
0.00408729
-8.11212e-06
0.00520026
-3.71077e-06
0.00657624
5.79855e-06
0.0082877
2.27264e-05
0.010423
4.99026e-05
0.0130892
9.02778e-05
0.016411
0.000146204
0.0205233
0.025556
0.000216496
-2.63304e-06
0.00174117
-5.11392e-06
0.00240829
-7.21168e-06
0.00317907
-8.28004e-06
0.00408836
-7.06173e-06
0.00519904
-2.64302e-06
0.00657182
6.66417e-06
0.0082784
2.31095e-05
0.0104066
4.9229e-05
0.0130631
8.83556e-05
0.0163718
0.000141875
0.0204697
0.0254869
0.000211052
-2.36667e-06
0.00174353
-4.80964e-06
0.00241073
-6.65107e-06
0.00318091
-7.22896e-06
0.00408893
-5.9498e-06
0.00519776
-1.44194e-06
0.00656731
7.64438e-06
0.00826931
2.37053e-05
0.0103905
4.94578e-05
0.0130373
8.71698e-05
0.0163341
0.000140107
0.0204168
0.0254204
0.000206585
-2.10011e-06
0.00174563
-4.19207e-06
0.00241282
-5.70424e-06
0.00318243
-6.29213e-06
0.00408952
-4.75856e-06
0.00519623
-3.89221e-07
0.00656294
8.70153e-06
0.00826022
2.44495e-05
0.0103748
4.9438e-05
0.0130123
8.64328e-05
0.0162971
0.000137897
0.0203653
0.0253538
0.000204513
-1.80551e-06
0.00174744
-3.67355e-06
0.00241469
-5.05114e-06
0.0031838
-5.2483e-06
0.00408972
-3.75992e-06
0.00519474
7.85e-07
0.0065584
9.8025e-06
0.0082512
2.53348e-05
0.0103592
4.98997e-05
0.0129878
8.635e-05
0.0162607
0.000137258
0.0203144
0.0252853
0.000205708
-1.60032e-06
0.00174904
-3.23117e-06
0.00241632
-4.46122e-06
0.00318503
-4.54556e-06
0.0040898
-2.80146e-06
0.005193
1.79113e-06
0.0065538
1.08598e-05
0.00824213
2.6035e-05
0.0103441
4.97904e-05
0.012964
8.50012e-05
0.0162255
0.00013354
0.0202659
0.0252278
0.000191004
-1.50114e-06
0.00175054
-2.94301e-06
0.00241776
-3.89107e-06
0.00318598
-3.79785e-06
0.00408971
-1.92433e-06
0.00519113
2.78678e-06
0.00654909
1.15729e-05
0.00823335
2.64577e-05
0.0103292
4.96968e-05
0.0129408
8.40459e-05
0.0161911
0.000131438
0.0202185
0.0251614
0.000197912
-1.32515e-06
0.00175187
-2.57188e-06
0.00241901
-3.32049e-06
0.00318673
-3.04461e-06
0.00408943
-1.17109e-06
0.00518925
3.56536e-06
0.00654436
1.25027e-05
0.00822441
2.72228e-05
0.0103145
5.0164e-05
0.0129178
8.40631e-05
0.0161572
0.000131416
0.0201711
0.0250985
0.000194259
-1.26055e-06
0.00175313
-2.20853e-06
0.00241996
-2.76855e-06
0.00318729
-2.31714e-06
0.00408898
-1.62609e-07
0.0051871
4.64486e-06
0.00653955
1.33857e-05
0.00821567
2.78298e-05
0.0103
5.01828e-05
0.0128955
8.29592e-05
0.0161245
0.000128269
0.0201258
0.025043
0.000183833
-1.06813e-06
0.0017542
-2.0535e-06
0.00242094
-2.42157e-06
0.00318766
-1.79825e-06
0.00408836
6.29725e-07
0.00518467
5.5913e-06
0.00653459
1.41414e-05
0.00820712
2.82828e-05
0.0102859
5.00836e-05
0.0128737
8.13714e-05
0.0160932
0.000124974
0.0200822
0.024985
0.000182925
-8.52138e-07
0.00175505
-1.53503e-06
0.00242162
-1.61208e-06
0.00318774
-8.80583e-07
0.00408763
1.67798e-06
0.00518211
6.55388e-06
0.00652971
1.52395e-05
0.00819843
2.93422e-05
0.0102718
5.09023e-05
0.0128521
8.24184e-05
0.0160616
0.000126276
0.0200384
0.0249256
0.000185719
-5.86012e-07
0.00175564
-1.07108e-06
0.00242211
-1.02748e-06
0.00318769
9.8749e-08
0.0040865
2.64444e-06
0.00517957
7.75849e-06
0.0065246
1.64961e-05
0.0081897
3.04158e-05
0.0102579
5.14675e-05
0.0128311
8.1671e-05
0.0160314
0.000122054
0.019998
0.0248832
0.000164398
-3.78289e-07
0.00175602
-6.1386e-07
0.00242234
-3.92534e-07
0.00318747
9.06354e-07
0.0040852
3.80864e-06
0.00517667
9.15151e-06
0.00651925
1.81921e-05
0.00818066
3.22321e-05
0.0102438
5.32168e-05
0.0128101
8.36317e-05
0.016001
0.000125809
0.0199558
0.0248211
0.000187917
-2.43789e-07
0.00175626
-2.38521e-07
0.00242234
3.39688e-07
0.0031869
1.92583e-06
0.00408362
5.12469e-06
0.00517347
1.07693e-05
0.00651361
2.00079e-05
0.00817142
3.43661e-05
0.0102295
5.59678e-05
0.0127885
8.73766e-05
0.0159696
0.000130706
0.0199125
0.0247618
0.000190031
-3.83393e-08
0.0017563
1.84421e-07
0.00242212
1.01404e-06
0.00318607
2.86528e-06
0.00408176
6.18884e-06
0.00517014
1.22336e-05
0.00650756
2.16971e-05
0.00816195
3.62492e-05
0.0102149
5.79526e-05
0.0127668
8.93314e-05
0.0159382
0.000132843
0.019869
0.0247025
0.000192139
1.27212e-07
0.00175617
5.21083e-07
0.00242172
1.54048e-06
0.00318505
3.58471e-06
0.00407972
7.23036e-06
0.0051665
1.31202e-05
0.00650167
2.26319e-05
0.00815244
3.72323e-05
0.0102003
5.85211e-05
0.0127455
8.89667e-05
0.0159078
0.000131052
0.0198269
0.024656
0.000177518
1.02781e-07
0.00175607
7.39037e-07
0.00242109
1.79408e-06
0.00318399
3.99604e-06
0.00407752
7.91483e-06
0.00516258
1.41282e-05
0.00649546
2.34981e-05
0.00814307
3.76711e-05
0.0101861
5.8427e-05
0.0127247
8.72138e-05
0.015879
0.00012598
0.0197881
0.0246098
0.000172177
4.81746e-07
0.00175559
1.10854e-06
0.00242046
2.56501e-06
0.00318254
4.8004e-06
0.00407528
8.74161e-06
0.00515864
1.48851e-05
0.00648932
2.45509e-05
0.00813341
3.87855e-05
0.0101719
5.92511e-05
0.0127043
8.82702e-05
0.01585
0.000127745
0.0197486
0.0245529
0.000184652
5.81464e-07
0.00175501
1.29272e-06
0.00241975
2.92965e-06
0.0031809
5.5755e-06
0.00407264
9.8564e-06
0.00515436
1.63431e-05
0.00648283
2.60209e-05
0.00812373
4.0359e-05
0.0101576
6.13224e-05
0.0126833
9.04297e-05
0.0158209
0.000130185
0.0197089
0.0245004
0.000182692
9.54059e-07
0.00175405
1.94763e-06
0.00241875
3.60382e-06
0.00317924
6.51798e-06
0.00406972
1.08289e-05
0.00515005
1.75331e-05
0.00647613
2.76099e-05
0.00811365
4.20338e-05
0.0101431
6.27518e-05
0.0126626
9.16781e-05
0.015792
0.000130695
0.0196699
0.0244502
0.000180885
9.64224e-07
0.00175309
2.19319e-06
0.00241752
4.16455e-06
0.00317727
7.22186e-06
0.00406666
1.18729e-05
0.0051454
1.88111e-05
0.00646919
2.8987e-05
0.00810348
4.3784e-05
0.0101283
6.44929e-05
0.0126419
9.36108e-05
0.0157628
0.00013285
0.0196306
0.0243986
0.000184459
1.11131e-06
0.00175198
2.54164e-06
0.00241609
4.74232e-06
0.00317507
8.04798e-06
0.00406336
1.28185e-05
0.00514063
2.01635e-05
0.00646184
3.05856e-05
0.00809305
4.54782e-05
0.0101134
6.64167e-05
0.012621
9.53981e-05
0.0157339
0.000134407
0.0195916
0.0243491
0.000183956
1.28495e-06
0.00175069
2.91587e-06
0.00241446
5.3531e-06
0.00317263
8.9175e-06
0.00405979
1.41012e-05
0.00513544
2.14276e-05
0.00645452
3.22565e-05
0.00808222
4.73538e-05
0.0100984