/*--------------------------------*- C++ -*----------------------------------*\
| =========                 |                                                 |
| \\      /  F ield         | OpenFOAM: The Open Source CFD Toolbox           |
|  \\    /   O peration     | Version:  2.3.0                                 |
|   \\  /    A nd           | Web:      www.OpenFOAM.org                      |
|    \\/     M anipulation  |                                                 |
\*---------------------------------------------------------------------------*/
FoamFile
{
    version     2.0;
    format      ascii;
    class       volVectorField;
    location    "2000";
    object      U;
}
// * * * * * * * * * * * * * * * * * * * * * * * * * * * * * * * * * * * * * //

dimensions      [0 1 -1 0 0 0 0];

internalField   nonuniform List<vector> 
15443
(
(21.0216 11.601 -1.63556e-20)
(20.78 11.998 8.63235e-21)
(20.537 12.3915 -7.26003e-20)
(20.2719 12.7794 -1.07915e-19)
(19.9832 13.1607 7.63843e-20)
(19.6657 13.5289 -2.33948e-19)
(19.3132 13.8773 2.23261e-19)
(18.9183 14.1999 1.24399e-20)
(18.4725 14.4917 9.97924e-21)
(17.9678 14.7515 -1.37707e-19)
(17.3967 14.9807 -8.4475e-20)
(16.7524 15.1845 1.53512e-19)
(16.0293 15.3709 -8.65332e-20)
(15.2235 15.5504 1.47973e-19)
(14.3318 15.7345 0)
(13.3513 15.933 0)
(12.2808 16.1532 -2.994e-20)
(11.1206 16.397 0)
(9.87607 16.6658 -2.61238e-19)
(8.54917 16.9455 2.42085e-19)
(7.14831 17.2192 -5.80657e-19)
(5.72567 17.5358 5.85975e-19)
(4.36797 17.9967 0)
(3.02677 18.3146 1.57475e-20)
(20.6802 11.4768 3.78883e-20)
(20.44 11.7995 -1.23296e-19)
(20.1958 12.1385 1.15762e-19)
(19.9335 12.4772 1.0154e-19)
(19.6525 12.8196 -1.97748e-19)
(19.3509 13.1648 0)
(19.0273 13.5123 -1.11684e-19)
(18.6804 13.8609 0)
(18.3089 14.2081 0)
(17.9115 14.5504 6.20222e-20)
(17.4867 14.8832 0)
(17.0332 15.2009 0)
(16.5495 15.4968 -6.57492e-19)
(16.0345 15.7631 7.02362e-19)
(15.4871 15.9917 -9.71528e-19)
(14.9067 16.1731 2.00975e-18)
(14.2937 16.2978 -1.09807e-18)
(13.6501 16.355 -1.51158e-18)
(12.9792 16.3345 1.55086e-18)
(12.2861 16.2256 -2.07377e-18)
(11.5798 16.018 2.01758e-18)
(10.8739 15.7056 -4.60671e-20)
(10.1739 15.2884 -7.80294e-20)
(9.46671 14.7701 -8.53236e-20)
(20.3895 11.283 -1.51227e-22)
(20.1467 11.5588 -1.30106e-19)
(19.9 11.8414 1.71659e-19)
(19.639 12.1189 -7.13408e-20)
(19.3622 12.3934 0)
(19.0672 12.6633 -3.17454e-19)
(18.7521 12.9272 1.0265e-18)
(18.4147 13.1835 -1.01735e-18)
(18.0533 13.4306 5.32161e-19)
(17.6662 13.6666 5.71775e-19)
(17.2522 13.8892 -6.37802e-19)
(16.8104 14.0957 0)
(16.3406 14.283 0)
(15.8433 14.4475 -4.94165e-20)
(15.3198 14.585 5.6444e-20)
(14.7728 14.6908 -1.24067e-18)
(14.2056 14.7597 2.46107e-18)
(13.6233 14.7864 -1.20279e-18)
(13.0327 14.7658 0)
(12.4424 14.6927 1.16089e-19)
(11.8626 14.5637 6.08185e-20)
(11.306 14.3765 -1.0391e-18)
(10.7854 14.13 1.106e-18)
(10.3135 13.8241 -7.25419e-20)
(20.1437 11.0806 3.89717e-19)
(19.91 11.3141 9.83807e-20)
(19.6733 11.5506 -1.05436e-19)
(19.4254 11.7803 2.70096e-19)
(19.1658 12.0057 -4.2675e-19)
(18.893 12.2253 -2.95972e-19)
(18.6061 12.4381 3.35305e-19)
(18.3041 12.6426 -6.99127e-19)
(17.9863 12.8371 2.61615e-19)
(17.652 13.0195 -1.10641e-19)
(17.3003 13.1875 4.66972e-19)
(16.9309 13.3384 -6.00446e-19)
(16.5437 13.4693 -7.01108e-19)
(16.1388 13.5769 -4.91837e-20)
(15.7172 13.6579 7.88144e-19)
(15.2804 13.7083 7.86125e-20)
(14.8307 13.7248 0)
(14.3715 13.7037 7.92188e-19)
(13.9071 13.6416 7.18675e-20)
(13.4433 13.5363 -2.13733e-18)
(12.9867 13.3863 9.18114e-19)
(12.5448 13.1919 0)
(12.1254 12.9549 0)
(11.7365 12.6795 1.35038e-18)
(19.937 10.8836 -1.30127e-19)
(19.7154 11.0773 1.38491e-19)
(19.4911 11.2746 -2.94165e-19)
(19.2569 11.4643 0)
(19.0126 11.6487 -1.1886e-20)
(18.7569 11.8268 3.2334e-19)
(18.4888 11.9976 3.96626e-19)
(18.2073 12.1601 -8.3704e-20)
(17.912 12.3131 -3.22879e-19)
(17.6023 12.4549 1.10153e-19)
(17.278 12.5838 5.22264e-19)
(16.9388 12.6977 -3.97418e-19)
(16.5851 12.7943 7.48525e-19)
(16.2174 12.871 -6.14584e-19)
(15.8369 12.9252 -1.66954e-19)
(15.4453 12.9538 7.7185e-19)
(15.0449 12.954 -7.81271e-19)
(14.6387 12.9233 0)
(14.2309 12.859 1.20664e-19)
(13.8259 12.7594 1.29448e-19)
(13.4291 12.6238 1.37275e-19)
(13.0464 12.4524 0)
(12.6835 12.247 -1.55516e-19)
(12.3463 12.0107 1.65928e-19)
(19.7665 10.6961 1.54361e-19)
(19.5582 10.8555 -2.12887e-20)
(19.3494 11.0217 0)
(19.1316 11.1797 0)
(18.9055 11.3328 -2.85649e-19)
(18.67 11.4798 1.93795e-19)
(18.4243 11.6198 0)
(18.1675 11.7519 -1.096e-20)
(17.8992 11.875 0)
(17.6189 11.988 0)
(17.3265 12.0892 -1.44099e-19)
(17.0218 12.1767 -7.71096e-19)
(16.705 12.2488 -3.89166e-20)
(16.3765 12.3032 6.70809e-19)
(16.0373 12.3377 -9.56936e-19)
(15.6887 12.3499 7.77923e-19)
(15.3328 12.3376 0)
(14.9719 12.2985 9.57131e-19)
(14.6095 12.2307 -1.09182e-18)
(14.2491 12.133 -1.31369e-19)
(13.8952 12.0048 7.29129e-19)
(13.5523 11.8462 1.82705e-19)
(13.225 11.6588 -3.06458e-19)
(12.9176 11.445 -1.68077e-19)
(19.622 10.5206 -1.75041e-19)
(19.4301 10.6529 1.81808e-19)
(19.237 10.7932 -8.96863e-21)
(19.0348 10.9255 -9.49344e-21)
(18.8247 11.0538 3.12468e-19)
(18.6065 11.1769 0)
(18.3793 11.2937 4.85706e-19)
(18.142 11.4034 -3.66782e-19)
(17.894 11.505 -1.35757e-19)
(17.635 11.5978 5.74936e-19)
(17.3653 11.68 -4.35179e-19)
(17.0846 11.7502 1.54613e-19)
(16.7931 11.8066 1.72622e-19)
(16.4912 11.8474 0)
(16.1798 11.8706 1.909e-19)
(15.8601 11.874 0)
(15.5338 11.8557 0)
(15.2031 11.8137 0)
(14.8709 11.7464 2.57389e-19)
(14.5404 11.6527 -2.86254e-19)
(14.2153 11.532 7.26604e-19)
(13.8996 11.3845 -1.0642e-18)
(13.5971 11.211 -8.27534e-19)
(13.3114 11.0138 8.39798e-19)
(19.5048 10.3698 0)
(19.3303 10.4719 1.19231e-20)
(19.1506 10.5886 -2.08179e-19)
(18.9626 10.6998 0)
(18.7666 10.8083 0)
(18.5636 10.9127 0)
(18.3529 11.0121 0)
(18.1336 11.1049 -2.71384e-19)
(17.9038 11.1901 5.52329e-19)
(17.6629 11.2677 -1.3783e-19)
(17.4126 11.336 0)
(17.152 11.3934 0)
(16.8813 11.4384 -1.73386e-19)
(16.601 11.4695 -1.90239e-19)
(16.312 11.4846 2.02734e-19)
(16.0151 11.482 0)
(15.7119 11.4598 -4.69813e-19)
(15.4047 11.4162 7.22612e-19)
(15.0955 11.3495 -5.20832e-19)
(14.7869 11.2589 -2.76288e-19)
(14.4826 11.1443 2.93678e-19)
(14.1869 11.0054 -3.25475e-19)
(13.9026 10.8425 9.6908e-19)
(13.6326 10.6573 7.0077e-19)
(19.4059 10.2207 -2.107e-19)
(19.2492 10.3049 0)
(19.0817 10.4039 2.31567e-19)
(18.9076 10.4988 -2.30919e-19)
(18.7238 10.5917 0)
(18.5334 10.6814 1.29472e-19)
(18.3358 10.7676 0)
(18.1318 10.8485 4.24076e-19)
(17.9187 10.9206 -2.89616e-19)
(17.6923 10.9865 4.41548e-21)
(17.4575 11.0448 -3.3049e-19)
(17.2127 11.0929 1.564e-19)
(16.9586 11.1296 1.71655e-19)
(16.6949 11.1543 -2.03987e-19)
(16.4231 11.1638 1.9713e-19)
(16.1435 11.1567 0)
(15.8578 11.133 -7.08413e-19)
(15.5687 11.0894 -2.15046e-20)
(15.2776 11.0234 5.11312e-19)
(14.9862 10.9343 0)
(14.697 10.8241 -6.02534e-19)
(14.416 10.6923 6.08576e-19)
(14.1457 10.5383 6.37765e-21)
(13.8876 10.3629 1.3038e-20)
(19.3084 10.0931 1.06381e-19)
(19.1753 10.157 1.16862e-19)
(19.0191 10.2414 0)
(18.8624 10.3225 1.26542e-19)
(18.692 10.402 3.94172e-19)
(18.5147 10.478 -2.58583e-19)
(18.3273 10.5516 0)
(18.1329 10.6272 2.97838e-19)
(17.9391 10.6895 5.77606e-21)
(17.7268 10.7428 4.08143e-21)
(17.507 10.7929 -1.68413e-19)
(17.2762 10.8337 -1.73781e-19)
(17.0357 10.8627 3.74342e-19)
(16.784 10.8841 2.00653e-19)
(16.5247 10.8911 2.11032e-19)
(16.2592 10.8786 -2.25889e-19)
(15.9859 10.8542 2.37446e-19)
(15.7095 10.8136 -2.49461e-19)
(15.4289 10.7528 7.9389e-19)
(15.1496 10.6647 -5.42153e-19)
(14.8701 10.557 2.94408e-19)
(14.5997 10.4292 0)
(14.3393 10.2824 0)
(14.0881 10.1215 0)
(1.63318 17.5401 -1.29827e-19)
(1.76766 16.1126 0)
(2.10738 14.7875 1.84236e-18)
(2.52009 13.638 -3.87048e-18)
(2.96348 12.6184 2.0226e-18)
(3.41889 11.7021 9.98867e-19)
(3.87783 10.8746 -1.13488e-18)
(4.33516 10.1246 2.97677e-19)
(4.78795 9.44033 -2.87644e-19)
(5.23822 8.81541 -6.60812e-19)
(5.68663 8.24446 1.90321e-19)
(6.1303 7.72153 -1.85409e-19)
(6.56601 7.24198 6.61072e-19)
(6.99101 6.80169 5.63232e-19)
(7.40371 6.39704 3.752e-20)
(7.80359 6.02434 -6.60873e-19)
(8.19075 5.67974 7.33667e-20)
(8.56598 5.35948 0)
(8.93057 5.06004 5.61025e-19)
(9.28577 4.778 -5.1071e-19)
(9.63283 4.51029 1.10066e-18)
(9.97352 4.25437 -9.82098e-19)
(10.3117 4.00992 1.89997e-18)
(10.6459 3.78474 1.77716e-18)
(8.76288 14.1676 3.91798e-20)
(8.21088 13.4888 0)
(7.81905 12.7996 2.10619e-18)
(7.55771 12.1236 -1.9053e-18)
(7.40181 11.4722 -1.08537e-18)
(7.33131 10.8514 1.47017e-18)
(7.33044 10.2642 -1.12921e-18)
(7.386 9.71153 2.23245e-18)
(7.48648 9.19262 -8.45188e-19)
(7.62256 8.70599 5.66422e-19)
(7.78702 8.24986 -1.43295e-20)
(7.9742 7.82216 5.38617e-19)
(8.17947 7.42061 5.55723e-19)
(8.39906 7.04268 -4.19909e-20)
(8.62998 6.68581 -5.26369e-19)
(8.86968 6.34746 5.45764e-19)
(9.11607 6.02529 0)
(9.36742 5.71737 -7.80388e-19)
(9.62233 5.42216 7.69502e-19)
(9.87962 5.13843 2.06357e-18)
(10.1385 4.86569 0)
(10.3987 4.60417 1.97361e-18)
(10.6603 4.34987 1.82522e-18)
(10.9181 4.08722 -1.75518e-18)
(9.89983 13.4576 -1.29746e-18)
(9.55024 13.0306 1.13537e-18)
(9.26541 12.5565 6.49955e-19)
(9.04525 12.0537 -2.67869e-19)
(8.88645 11.537 -1.71709e-19)
(8.7838 11.0176 -8.62159e-19)
(8.73137 10.504 4.52447e-19)
(8.72306 10.002 -2.3439e-19)
(8.75281 9.51578 -4.59091e-19)
(8.81506 9.0478 4.56776e-21)
(8.90492 8.59961 -4.94029e-19)
(9.01792 8.1717 -5.10974e-19)
(9.15002 7.76413 -9.89171e-19)
(9.29779 7.37644 -5.19519e-19)
(9.45831 7.00796 5.18919e-19)
(9.62907 6.65766 -4.96697e-19)
(9.80803 6.32448 0)
(9.99365 6.00725 1.98292e-18)
(10.1847 5.70476 -1.96731e-18)
(10.3803 5.41578 -2.86393e-20)
(10.5799 5.13939 0)
(10.7831 4.87535 9.21153e-19)
(10.9896 4.62037 -2.33254e-20)
(11.1976 4.35879 -1.7304e-18)
(11.382 12.369 -2.96281e-18)
(11.0624 12.0244 1.43995e-18)
(10.7813 11.65 0)
(10.542 11.2546 -6.27264e-19)
(10.3457 10.8459 1.68522e-18)
(10.1912 10.4313 -6.30075e-19)
(10.0767 10.0163 -4.37716e-19)
(9.99899 9.60575 0)
(9.95496 9.20297 2.2979e-19)
(9.94111 8.81047 4.51639e-19)
(9.95413 8.42988 0)
(9.99073 8.0622 -4.57849e-19)
(10.048 7.70788 4.74544e-19)
(10.1232 7.36699 0)
(10.2141 7.03925 0)
(10.3185 6.72419 4.76961e-19)
(10.4346 6.42121 0)
(10.5607 6.12961 -1.17806e-18)
(10.6956 5.84874 -2.08503e-19)
(10.838 5.57796 -2.32091e-20)
(10.9869 5.31689 9.03664e-19)
(11.1419 5.06581 -9.07454e-19)
(11.3021 4.82277 -8.74484e-19)
(11.4647 4.57542 8.35168e-19)
(12.0367 11.7461 3.47219e-19)
(11.7547 11.4535 1.84483e-19)
(11.5026 11.1357 1.88369e-19)
(11.2832 10.7985 9.94216e-19)
(11.0977 10.4477 -5.89558e-19)
(10.946 10.0889 4.21874e-19)
(10.8269 9.7269 -2.08678e-19)
(10.7387 9.36568 4.27577e-19)
(10.6791 9.00841 0)
(10.6454 8.65759 -4.50321e-19)
(10.6351 8.31491 -4.38758e-19)
(10.6456 7.98163 4.54389e-19)
(10.6744 7.6585 -4.41911e-19)
(10.7194 7.3459 -4.42805e-19)
(10.7784 7.04395 0)
(10.8498 6.7525 0)
(10.932 6.4712 0)
(11.0236 6.1996 1.10574e-20)
(11.1232 5.93732 9.0546e-19)
(11.2299 5.68393 -8.99844e-19)
(11.3431 5.43921 -1.76351e-18)
(11.4622 5.20342 0)
(11.5869 4.97481 0)
(11.7145 4.74133 8.11913e-19)
(12.6325 11.2069 -3.52338e-19)
(12.3699 10.9456 1.83487e-19)
(12.1319 10.6633 5.88294e-19)
(11.9208 10.3645 -9.78008e-19)
(11.738 10.0539 0)
(11.5837 9.73571 -8.31994e-19)
(11.4574 9.41394 -4.27148e-19)
(11.3578 9.09194 -4.35522e-19)
(11.2835 8.77245 -3.79214e-21)
(11.2323 8.45766 2.14829e-19)
(11.2022 8.14908 3.84763e-19)
(11.191 7.84793 4.04247e-20)
(11.1968 7.55493 4.54181e-19)
(11.2174 7.27063 8.71537e-19)
(11.2513 6.99524 -4.2735e-19)
(11.297 6.72875 -3.38912e-21)
(11.3531 6.47075 0)
(11.4182 6.22093 5.47002e-19)
(11.4909 5.97899 -1.08043e-19)
(11.5702 5.74484 4.30845e-19)
(11.6556 5.51835 8.63334e-19)
(11.7468 5.2998 -1.65693e-22)
(11.843 5.0877 -4.16296e-19)
(11.9418 4.87087 0)
(13.0448 10.7947 1.79302e-19)
(12.7984 10.5547 -1.86729e-19)
(12.5736 10.2963 3.82573e-19)
(12.3722 10.0233 0)
(12.1958 9.73973 7.93074e-21)
(12.0444 9.44926 9.07678e-21)
(11.9179 9.15533 4.21795e-19)
(11.8154 8.86093 0)
(11.7357 8.56847 -1.0696e-19)
(11.677 8.27989 1.0563e-19)
(11.6376 7.99654 -5.36424e-20)
(11.6153 7.71959 3.96025e-20)
(11.6084 7.44971 1.32488e-20)
(11.6147 7.18755 -4.16449e-19)
(11.6332 6.93364 4.15671e-19)
(11.6629 6.6878 0)
(11.7023 6.44944 -4.72295e-19)
(11.7496 6.21833 -3.65799e-19)
(11.8036 5.9944 -2.10666e-19)
(11.8633 5.77768 2.09432e-19)
(11.9283 5.56798 -4.16892e-19)
(11.9985 5.36525 -4.06849e-19)
(12.0734 5.16774 0)
(12.1525 4.96376 0)
(13.3795 10.4523 -7.03036e-19)
(13.1455 10.2283 0)
(12.9307 9.98734 -3.85346e-19)
(12.7366 9.73362 0)
(12.5652 9.47006 8.11494e-19)
(12.4159 9.2003 2.80236e-21)
(12.2896 8.92753 2.08733e-19)
(12.1853 8.65436 -2.06227e-19)
(12.102 8.38298 3.10274e-19)
(12.0386 8.11514 1.04063e-19)
(11.9932 7.85186 3.9021e-19)
(11.9632 7.59474 3.91995e-20)
(11.9476 7.34348 -1.30011e-20)
(11.9435 7.0997 0)
(11.9509 6.86418 4.12607e-19)
(11.9693 6.63623 3.98396e-19)
(11.9972 6.4149 4.29589e-19)
(12.0318 6.20013 5.18805e-19)
(12.072 5.99241 -5.10823e-19)
(12.1169 5.79175 -4.0684e-19)
(12.1666 5.59804 0)
(12.221 5.41114 8.15237e-19)
(12.2795 5.23093 4.01e-19)
(12.3398 5.05405 -3.86327e-19)
(13.6443 10.1679 -3.49492e-19)
(13.4213 9.95642 0)
(13.2151 9.72894 0)
(13.0267 9.4901 0)
(12.8609 9.24169 -3.95711e-19)
(12.7136 8.98699 -6.08104e-19)
(12.5884 8.7307 2.01227e-19)
(12.4836 8.47395 4.07568e-19)
(12.3987 8.21896 -4.13848e-19)
(12.3325 7.9674 -5.18374e-20)
(12.2833 7.71973 -3.89407e-19)
(12.2482 7.47985 1.26368e-20)
(12.228 7.24242 4.20094e-19)
(12.216 7.01399 -6.40814e-21)
(12.2159 6.79416 -4.02131e-19)
(12.2271 6.58132 -4.10253e-19)
(12.2475 6.37408 3.76772e-19)
(12.2727 6.17319 -3.25391e-19)
(12.3027 5.97995 3.54968e-19)
(12.3364 5.79335 4.03981e-19)
(12.3745 5.61382 0)
(12.4163 5.44035 0)
(12.4621 5.27264 0)
(12.5111 5.11345 0)
(13.8477 9.93383 7.1173e-19)
(13.6315 9.73498 -7.57401e-19)
(13.434 9.51896 9.68797e-19)
(13.2516 9.29166 5.19036e-21)
(13.096 9.05495 7.83798e-19)
(12.9522 8.80854 4.13127e-21)
(12.831 8.56502 -4.94384e-19)
(12.7282 8.31982 -2.92991e-21)
(12.6433 8.07599 -1.01223e-19)
(12.5752 7.8352 -4.08604e-19)
(12.5228 7.59696 0)
(12.4874 7.37631 -3.96927e-19)
(12.4673 7.1465 -3.94317e-19)
(12.4466 6.93371 -3.93328e-19)
(12.4413 6.72681 0)
(12.4471 6.52622 -1.26154e-20)
(12.462 6.33031 -8.15335e-19)
(12.4783 6.14143 4.28163e-19)
(12.5016 5.96291 3.00083e-19)
(12.5255 5.78758 1.00264e-19)
(12.5541 5.62115 0)
(12.5852 5.45875 -3.91596e-19)
(12.6197 5.30202 0)
(12.6563 5.15902 -3.91686e-19)
(-3.63319 -2.60752 5.04476e-19)
(-3.24145 -2.63837 -5.65359e-19)
(-2.84556 -2.6667 0)
(-2.44895 -2.69218 3.19444e-19)
(-2.05465 -2.71454 1.67394e-19)
(-1.66501 -2.73354 -3.5184e-19)
(-1.28189 -2.74899 1.84725e-19)
(-0.906826 -2.76073 -3.73434e-19)
(-0.540979 -2.76848 0)
(-0.18496 -2.7721 0)
(0.160836 -2.77144 2.21785e-19)
(0.4963 -2.76637 -2.22996e-19)
(0.82182 -2.75661 0)
(1.13816 -2.74165 0)
(1.44681 -2.7206 0)
(1.75071 -2.69192 0)
(2.05536 -2.65331 7.57682e-19)
(2.37138 -2.60169 -7.43205e-19)
(2.72025 -2.53364 1.02333e-19)
(3.14691 -2.44638 0)
(3.74369 -2.34327 -1.95817e-18)
(4.7112 -2.24477 2.20933e-18)
(6.5165 -2.22936 -8.63347e-20)
(10.3147 -2.69924 0)
(-3.53682 -2.60048 1.02531e-18)
(-3.17238 -2.62704 -5.53569e-19)
(-2.80396 -2.65176 5.81085e-19)
(-2.43391 -2.67448 -3.02971e-19)
(-2.06411 -2.69509 -3.19409e-19)
(-1.69588 -2.71337 8.21893e-20)
(-1.33003 -2.72898 -8.54741e-20)
(-0.966881 -2.74153 -2.21047e-20)
(-0.606297 -2.75054 2.28666e-20)
(-0.248077 -2.75525 0)
(0.108586 -2.75478 -3.93578e-19)
(0.46521 -2.748 -1.27601e-20)
(0.8245 -2.73352 2.29634e-19)
(1.1906 -2.7096 -1.12129e-19)
(1.5701 -2.67415 -1.17242e-19)
(1.97359 -2.62474 1.25837e-19)
(2.41773 -2.55869 5.26574e-19)
(2.9284 -2.47396 -4.23581e-19)
(3.54806 -2.37099 -6.58408e-19)
(4.35046 -2.25612 6.37901e-19)
(5.45917 -2.15187 -8.23109e-20)
(7.07992 -2.11914 -1.31135e-18)
(9.54272 -2.2947 3.05151e-18)
(13.2841 -2.94211 -1.72167e-18)
(-3.42841 -2.56411 5.00259e-19)
(-3.08037 -2.5851 -5.31491e-19)
(-2.72744 -2.60398 2.79179e-19)
(-2.37145 -2.62084 0)
(-2.01333 -2.63537 4.47875e-19)
(-1.65354 -2.64709 -4.65577e-19)
(-1.29206 -2.65541 -3.99392e-20)
(-0.928434 -2.65961 -1.2398e-19)
(-0.56175 -2.6589 1.66763e-19)
(-0.190372 -2.65235 2.71851e-21)
(0.188306 -2.63883 1.77187e-19)
(0.577787 -2.61699 0)
(0.983257 -2.58528 1.50969e-21)
(1.41191 -2.54192 0)
(1.87371 -2.48521 0)
(2.38349 -2.41371 3.16771e-19)
(2.96303 -2.32674 -2.23873e-19)
(3.64507 -2.22569 -5.70122e-19)
(4.47836 -2.11655 3.70847e-19)
(5.53578 -2.01459 0)
(6.92381 -1.95332 -6.16137e-20)
(8.78885 -1.9988 -9.10701e-19)
(11.3095 -2.26937 1.16138e-18)
(14.5966 -2.93691 7.14422e-20)
(-3.30742 -2.50746 -2.34064e-19)
(-2.9757 -2.51472 -5.11663e-19)
(-2.63767 -2.52454 -2.65845e-19)
(-2.2944 -2.53187 5.49184e-19)
(-1.94637 -2.53652 4.24212e-19)
(-1.59317 -2.53804 -1.45896e-19)
(-1.23396 -2.53577 0)
(-0.867462 -2.52888 -9.81637e-21)
(-0.491875 -2.51656 -1.48384e-19)
(-0.10464 -2.49788 1.61809e-19)
(0.297872 -2.47182 0)
(0.720514 -2.43719 1.77698e-19)
(1.16974 -2.39282 -1.83288e-19)
(1.65435 -2.33752 -4.40859e-20)
(2.18656 -2.2704 4.61166e-20)
(2.78335 -2.19129 -9.41363e-20)
(3.46845 -2.10157 9.4717e-20)
(4.2753 -2.0056 -2.07078e-19)
(5.25086 -1.91331 2.9936e-21)
(6.45935 -1.84465 1.08874e-19)
(7.9851 -1.83619 1.17485e-19)
(9.93067 -1.94902 -1.19401e-19)
(12.399 -2.27665 0)
(15.4225 -2.93442 0)
(-3.18282 -2.42631 2.26432e-19)
(-2.86086 -2.42744 3.18413e-22)
(-2.53426 -2.42945 -2.53315e-19)
(-2.20081 -2.42799 -2.60735e-19)
(-1.86012 -2.42346 -3.98483e-22)
(-1.51114 -2.41569 2.05094e-19)
(-1.15225 -2.40403 6.99653e-20)
(-0.781643 -2.38761 1.43004e-19)
(-0.397024 -2.36565 0)
(0.00464254 -2.33743 -1.44202e-19)
(0.427731 -2.30224 -4.76676e-21)
(0.877936 -2.25927 -1.46546e-19)
(1.3628 -2.20768 -1.00613e-20)
(1.89191 -2.14695 0)
(2.47868 -2.07696 8.42612e-20)
(3.14093 -1.99856 -8.71664e-20)
(3.90224 -1.91461 9.22574e-20)
(4.79497 -1.83133 -1.8485e-19)
(5.86169 -1.76106 2.98915e-19)
(7.15841 -1.72536 2.88441e-19)
(8.75462 -1.75998 -3.3361e-20)
(10.7276 -1.91991 -3.32964e-19)
(13.1444 -2.2811 -1.00476e-19)
(16.0134 -2.92777 3.70087e-19)
(-3.04942 -2.34004 -4.42488e-19)
(-2.73947 -2.33565 4.7194e-19)
(-2.42317 -2.3292 -1.20656e-19)
(-2.09837 -2.31997 1.24227e-19)
(-1.76428 -2.3076 -3.17863e-19)
(-1.41921 -2.2922 -6.4441e-20)
(-1.06076 -2.27328 0)
(-0.68677 -2.24969 0)
(-0.294705 -2.22069 0)
(0.118692 -2.1857 0)
(0.558157 -2.14446 0)
(1.03013 -2.09653 4.5892e-21)
(1.54259 -2.04143 1.46277e-19)
(2.10603 -1.97912 1.5551e-19)
(2.73412 -1.91033 0)
(3.44516 -1.8366 8.22357e-20)
(4.26235 -1.76144 -8.74545e-20)
(5.21589 -1.69183 2.44392e-21)
(6.34504 -1.6411 5.50418e-19)
(7.69878 -1.63166 1.75718e-19)
(9.33602 -1.69779 -4.73918e-19)
(11.3195 -1.88939 3.04966e-19)
(13.6989 -2.27146 2.6063e-21)
(16.4671 -2.91053 3.39079e-19)
(-2.90673 -2.24965 -2.21264e-19)
(-2.61404 -2.24109 -4.55328e-19)
(-2.3088 -2.2298 1.17063e-19)
(-1.99197 -2.21477 2.37934e-19)
(-1.66406 -2.19604 -6.07373e-20)
(-1.32351 -2.17467 3.40636e-19)
(-0.966251 -2.15055 9.43798e-20)
(-0.590069 -2.12206 -4.02628e-21)
(-0.192059 -2.08823 1.3625e-19)
(0.230618 -2.04846 -1.05374e-21)
(0.682673 -2.00307 1.07072e-21)
(1.1712 -1.95226 -1.1094e-21)
(1.70499 -1.89563 -1.64078e-19)
(2.29414 -1.83349 -2.80603e-19)
(2.953 -1.76754 3.81783e-20)
(3.70031 -1.70023 -4.03697e-20)
(4.55988 -1.63505 8.09562e-20)
(5.55956 -1.57857 -2.58423e-19)
(6.73402 -1.54406 -3.51301e-19)
(8.12694 -1.55416 -8.33233e-21)
(9.79036 -1.64186 -2.80751e-19)
(11.7755 -1.85401 0)
(14.1241 -2.24952 8.90125e-20)
(16.8199 -2.88236 -1.68018e-19)
(-2.77311 -2.16042 2.11555e-19)
(-2.49234 -2.15202 1.10661e-19)
(-2.19563 -2.13661 1.12469e-19)
(-1.88536 -2.117 -1.15093e-19)
(-1.56306 -2.09269 -1.16563e-19)
(-1.22834 -2.06601 -1.19447e-19)
(-0.873343 -2.03837 -2.42963e-19)
(-0.496089 -2.00687 -1.23383e-19)
(-0.0932965 -1.97023 -2.52901e-19)
(0.336791 -1.92695 -2.01183e-21)
(0.798025 -1.87834 1.33887e-19)
(1.29877 -1.82594 0)
(1.8491 -1.76897 8.67155e-21)
(2.45773 -1.70705 1.35714e-19)
(3.13888 -1.64373 3.66552e-20)
(3.9127 -1.58323 -3.87544e-20)
(4.80511 -1.52939 0)
(5.84187 -1.48577 -7.96362e-20)
(7.05293 -1.46399 2.54877e-19)
(8.47698 -1.48694 -5.25666e-21)
(10.1662 -1.58931 -7.21233e-21)
(12.1534 -1.81566 0)
(14.482 -2.22451 1.53556e-19)
(17.1269 -2.85507 -9.40628e-21)
(-2.64639 -2.07889 0)
(-2.37653 -2.06945 0)
(-2.08696 -2.05064 -1.6257e-19)
(-1.78097 -2.02791 5.54573e-20)
(-1.46336 -1.99906 1.13277e-19)
(-1.1362 -1.96693 -9.95236e-20)
(-0.785467 -1.93679 1.0288e-19)
(-0.408477 -1.90355 1.0416e-21)
(-0.00028369 -1.86612 1.22338e-19)
(0.438198 -1.82096 0)
(0.906639 -1.76968 -1.29057e-19)
(1.41564 -1.71638 1.02707e-21)
(1.98069 -1.6609 -8.33356e-21)
(2.60521 -1.59962 8.71904e-21)
(3.30093 -1.53717 0)
(4.09011 -1.48067 0)
(5.00896 -1.43733 7.42667e-20)
(6.08526 -1.41087 -7.93843e-20)
(7.32839 -1.40694 7.76591e-20)
(8.76526 -1.44093 2.40791e-19)
(10.4455 -1.54717 -4.7739e-19)
(12.3975 -1.77249 1.6987e-19)
(14.6979 -2.18152 0)
(17.3132 -2.80529 -1.42759e-19)
(-2.49964 -2.0173 -1.93039e-19)
(-2.24582 -2.00401 5.31158e-20)
(-1.97356 -1.97722 1.61571e-19)
(-1.68078 -1.94736 0)
(-1.36267 -1.9183 1.36785e-19)
(-1.04601 -1.87828 -3.90647e-20)
(-0.695946 -1.84724 1.26733e-19)
(-0.328158 -1.8123 2.32702e-19)
(0.0766527 -1.77398 -1.20356e-19)
(0.518706 -1.72573 4.88974e-22)
(0.993348 -1.67128 1.26123e-19)
(1.50529 -1.61617 0)
(2.07728 -1.5622 0)
(2.71926 -1.50111 0)
(3.44114 -1.44275 0)
(4.24214 -1.39038 -3.4642e-20)
(5.15556 -1.35249 -6.89663e-20)
(6.21247 -1.31682 1.09024e-19)
(7.49477 -1.33852 -1.49935e-19)
(9.01541 -1.36215 -7.18828e-20)
(10.8802 -1.52929 5.34005e-20)
(12.8395 -1.8309 -2.68435e-19)
(15.169 -2.26446 1.7164e-19)
(17.7163 -2.87975 2.71193e-19)
(17.8561 -4.94692 0)
(21.1619 -6.35773 4.61226e-20)
(22.3206 -6.79307 -2.99486e-18)
(22.927 -6.98821 2.41891e-19)
(23.3147 -7.08984 1.90877e-18)
(23.5644 -7.13754 -1.32418e-18)
(23.7186 -7.14639 1.12424e-18)
(23.802 -7.12658 8.39857e-19)
(23.8326 -7.08514 -1.31301e-18)
(23.8247 -7.02774 5.56255e-19)
(23.7897 -6.95874 2.20077e-20)
(23.7353 -6.88127 7.66866e-21)
(23.667 -6.79752 -8.58983e-20)
(23.5886 -6.709 8.12309e-20)
(23.5027 -6.61659 -1.93945e-20)
(23.4111 -6.5209 -1.67697e-19)
(23.3152 -6.42229 2.52472e-19)
(23.2157 -6.32098 7.48621e-20)
(23.1133 -6.21708 -8.85214e-20)
(23.0084 -6.11066 0)
(22.9008 -6.0018 0)
(22.791 -5.88958 0)
(22.6789 -5.77385 0)
(22.5608 -5.66992 -2.91775e-19)
(18.0131 -4.38301 -1.33733e-18)
(21.6733 -5.88431 2.92957e-18)
(22.9941 -6.41936 -1.39143e-18)
(23.5081 -6.59265 6.62909e-20)
(23.8059 -6.68592 0)
(23.9747 -6.73426 0)
(24.0564 -6.74945 1.05919e-18)
(24.0776 -6.74013 -9.63187e-19)
(24.0576 -6.71261 0)
(24.0103 -6.67165 -3.02944e-20)
(23.945 -6.6205 -2.18201e-20)
(23.8678 -6.56171 1.89109e-19)
(23.7827 -6.49683 -1.93703e-19)
(23.6923 -6.42705 4.27522e-21)
(23.5983 -6.35315 1.02944e-20)
(23.5016 -6.27567 4.22075e-22)
(23.4031 -6.19492 -4.56233e-20)
(23.3029 -6.11116 -2.71002e-19)
(23.2014 -6.02451 5.90838e-19)
(23.0984 -5.93511 -3.18899e-19)
(22.9937 -5.84301 -4.34957e-19)
(22.8874 -5.74749 4.23771e-19)
(22.7799 -5.64911 2.67276e-19)
(22.6686 -5.55812 -5.38804e-19)
(18.4176 -4.1291 -1.06315e-18)
(21.8645 -5.51093 1.1176e-18)
(23.3513 -6.14899 1.82291e-19)
(23.8025 -6.31161 0)
(24.0299 -6.38834 -7.9959e-20)
(24.1442 -6.42676 0)
(24.1843 -6.43851 5.26513e-20)
(24.1757 -6.43115 0)
(24.1355 -6.40986 -4.9713e-19)
(24.0752 -6.37814 4.6448e-19)
(24.0019 -6.3384 2.55425e-19)
(23.9202 -6.29222 -2.41259e-19)
(23.8329 -6.24074 1.49945e-20)
(23.7421 -6.18471 -7.51732e-21)
(23.6489 -6.12478 -8.65496e-20)
(23.5542 -6.06129 1.05944e-19)
(23.4583 -5.99455 2.12489e-20)
(23.3614 -5.9248 0)
(23.2637 -5.85212 -3.90019e-19)
(23.1649 -5.77668 3.11794e-19)
(23.0649 -5.6985 0)
(22.964 -5.61707 -2.35873e-19)
(22.8627 -5.53307 -1.48576e-19)
(22.7595 -5.45317 2.50666e-19)
(18.8434 -3.99479 -8.21458e-19)
(22.0136 -5.24641 1.76964e-18)
(23.6023 -5.94718 -1.08312e-18)
(24.0172 -6.11044 6.8733e-19)
(24.1843 -6.17079 -1.11591e-18)
(24.2537 -6.19884 -1.71194e-21)
(24.2621 -6.20532 3.24956e-19)
(24.2325 -6.19668 -3.88296e-20)
(24.1794 -6.17723 -1.97137e-19)
(24.1117 -6.14959 2.1361e-19)
(24.0347 -6.11557 0)
(23.9518 -6.07625 0)
(23.8651 -6.03249 1.19454e-20)
(23.776 -5.98487 8.12797e-21)
(23.6854 -5.93383 -4.69496e-21)
(23.5938 -5.87968 -1.3962e-20)
(23.5014 -5.82266 -1.01488e-21)
(23.4084 -5.76293 -1.27258e-19)
(23.3147 -5.70061 1.95867e-19)
(23.2202 -5.63579 0)
(23.1249 -5.56851 0)
(23.0292 -5.49849 1.04956e-19)
(22.9334 -5.42655 1.23296e-19)
(22.8358 -5.35751 0)
(19.1945 -3.9069 -5.20254e-19)
(22.1448 -5.05862 9.45458e-20)
(23.7713 -5.78237 -5.3048e-19)
(24.1708 -5.95148 7.77442e-19)
(24.2908 -5.99738 6.77203e-20)
(24.3263 -6.01637 -3.72619e-19)
(24.3118 -6.01773 4.48483e-19)
(24.2674 -6.00712 3.86216e-20)
(24.2053 -5.9879 -3.04337e-20)
(24.1324 -5.96214 4.33953e-20)
(24.0529 -5.93122 0)
(23.9694 -5.89595 0)
(23.8835 -5.85704 -4.05826e-20)
(23.7962 -5.81494 2.73141e-20)
(23.7082 -5.76997 0)
(23.6197 -5.72242 0)
(23.5308 -5.67246 -2.10823e-20)
(23.4418 -5.62024 0)
(23.3524 -5.56585 0)
(23.2627 -5.50934 0)
(23.1727 -5.4507 -2.00797e-19)
(23.0825 -5.38983 8.91033e-20)
(22.9925 -5.32688 3.64067e-19)
(22.9016 -5.26242 -3.82139e-19)
(19.4832 -3.83747 -2.95471e-19)
(22.2655 -4.91519 -5.05245e-19)
(23.8835 -5.63905 -5.15282e-20)
(24.2749 -5.8158 3.19679e-19)
(24.3582 -5.85043 5.50261e-19)
(24.3683 -5.86236 5.13792e-20)
(24.3378 -5.85974 -2.9044e-19)
(24.2836 -5.8474 0)
(24.2157 -5.82809 0)
(24.1398 -5.80342 -3.23679e-21)
(24.0592 -5.77451 0)
(23.976 -5.74203 -4.14622e-20)
(23.8913 -5.70653 5.71638e-20)
(23.8061 -5.66839 1.16984e-20)
(23.7206 -5.6279 -1.12755e-20)
(23.6352 -5.58523 -8.6662e-20)
(23.5499 -5.54063 1.90759e-19)
(23.4647 -5.49422 -9.69014e-20)
(23.3797 -5.4461 1.84399e-19)
(23.295 -5.39622 -1.07725e-19)
(23.2104 -5.34457 -9.14156e-20)
(23.1261 -5.29113 -1.02835e-19)
(23.0421 -5.23592 -1.18944e-19)
(22.9577 -5.17848 0)
(19.7157 -3.7718 3.06315e-19)
(22.3685 -4.79262 -5.74215e-19)
(23.9579 -5.50729 6.40475e-19)
(24.3459 -5.6941 -5.17499e-19)
(24.402 -5.72259 -2.43401e-19)
(24.3936 -5.73021 -2.01735e-19)
(24.3516 -5.72496 -4.21598e-21)
(24.2906 -5.71145 6.43914e-20)
(24.219 -5.69202 5.02227e-20)
(24.1413 -5.66808 -4.05083e-20)
(24.0603 -5.64059 -6.53081e-20)
(23.9776 -5.6101 6.92012e-20)
(23.8944 -5.57706 -2.32249e-20)
(23.8111 -5.54184 3.22101e-20)
(23.7281 -5.50461 2.23128e-20)
(23.6455 -5.4656 -4.63033e-20)
(23.5633 -5.42511 -4.38668e-20)
(23.4817 -5.38329 2.83225e-20)
(23.4008 -5.34017 -3.47098e-20)
(23.3206 -5.29568 -4.08658e-20)
(23.2412 -5.24975 9.38506e-20)
(23.1623 -5.20255 1.05848e-19)
(23.0836 -5.15428 0)
(23.0043 -5.10532 0)
(19.933 -3.71859 -1.53366e-19)
(22.478 -4.6999 0)
(24.0198 -5.40255 2.80555e-19)
(24.3977 -5.59321 -1.4673e-19)
(24.4316 -5.61445 1.17153e-19)
(24.4091 -5.61737 9.73881e-20)
(24.3587 -5.60947 -3.42187e-21)
(24.2927 -5.59463 -6.41547e-20)
(24.2182 -5.57482 -9.76215e-20)
(24.1391 -5.55128 0)
(24.0579 -5.52471 -6.84696e-20)
(23.9759 -5.49556 4.01046e-20)
(23.8938 -5.46436 7.39744e-21)
(23.8124 -5.43132 0)
(23.7317 -5.39649 -1.68783e-20)
(23.6514 -5.36023 4.04525e-20)
(23.5719 -5.32294 2.24551e-20)
(23.4935 -5.28483 1.80565e-22)
(23.4163 -5.24596 7.59562e-20)
(23.3408 -5.20601 -7.48382e-20)
(23.266 -5.16474 4.58613e-20)
(23.1919 -5.12267 0)
(23.1178 -5.0801 0)
(23.0424 -5.03893 6.17984e-20)
(20.0418 -3.63376 2.8298e-19)
(22.498 -4.57215 0)
(24.0292 -5.27624 0)
(24.4251 -5.49033 1.18445e-19)
(24.4516 -5.51553 -3.31e-19)
(24.4206 -5.51797 1.04795e-19)
(24.3645 -5.50885 -7.57683e-20)
(24.295 -5.49319 1.0781e-19)
(24.2183 -5.47313 -9.19286e-20)
(24.1383 -5.45009 7.79808e-20)
(24.0574 -5.42447 0)
(23.9759 -5.39641 0)
(23.8949 -5.36684 -6.54219e-21)
(23.8153 -5.33558 1.93284e-21)
(23.7362 -5.30222 1.7384e-20)
(23.6577 -5.26787 -6.81897e-20)
(23.5804 -5.23331 1.66477e-20)
(23.5048 -5.1987 3.62065e-20)
(23.4307 -5.16368 -6.46286e-20)
(23.3592 -5.12723 0)
(23.2881 -5.08919 -4.68926e-20)
(23.2173 -5.05098 5.13339e-20)
(23.1469 -5.01231 0)
(23.0746 -4.97598 -6.35204e-20)
(20.398 -3.69086 -2.02529e-20)
(22.7433 -4.62903 -1.60194e-20)
(24.1291 -5.29057 8.15998e-21)
(24.4712 -5.4542 -1.40584e-21)
(24.4683 -5.44665 -1.43407e-20)
(24.4264 -5.43684 -9.71181e-20)
(24.3644 -5.42232 0)
(24.2907 -5.40411 5.63209e-20)
(24.2111 -5.38313 -1.6632e-19)
(24.1294 -5.36054 7.4665e-20)
(24.0485 -5.33517 -2.12962e-20)
(23.9666 -5.30718 -5.39965e-21)
(23.8856 -5.27872 2.10372e-20)
(23.8086 -5.24849 -1.43596e-20)
(23.7317 -5.21571 1.31407e-20)
(23.6543 -5.18294 0)
(23.5781 -5.15086 7.91182e-20)
(23.5041 -5.11873 -2.32212e-20)
(23.4323 -5.08628 -3.68418e-20)
(23.3698 -5.05307 -4.74366e-20)
(23.3011 -5.01823 1.42074e-19)
(23.2348 -4.98409 -1.00886e-19)
(23.1716 -4.94969 1.20782e-19)
(23.1042 -4.91879 -1.22381e-19)
(-0.080926 1.07062 3.88299e-19)
(0.404732 1.34035 0)
(1.17893 1.91944 0)
(1.9781 2.58758 -6.48982e-20)
(2.83623 3.28438 0)
(3.82667 4.0391 9.07477e-20)
(4.97426 4.85691 0)
(6.26451 5.73335 6.58492e-20)
(7.63402 6.66451 -1.79183e-18)
(9.06155 7.61667 1.43367e-18)
(10.5217 8.55884 0)
(11.9817 9.46334 8.3307e-19)
(13.4025 10.3005 -8.32148e-19)
(14.7473 11.0449 -9.68932e-20)
(15.9847 11.6746 5.14693e-19)
(17.0897 12.1717 -6.2482e-19)
(18.0473 12.5248 2.4065e-19)
(18.8536 12.7302 0)
(19.5158 12.7936 7.81672e-20)
(20.0499 12.7289 1.98473e-19)
(20.4774 12.5567 -8.65847e-20)
(20.8221 12.3007 8.10811e-20)
(21.1044 11.9841 2.71538e-19)
(21.3597 11.6051 -9.96222e-20)
(-7.18275 2.20198 -4.76143e-17)
(-7.24778 2.16194 1.36997e-17)
(-6.91099 2.10325 0)
(-6.37416 2.13093 2.6258e-19)
(-5.66351 2.22732 0)
(-4.7891 2.39295 0)
(-3.73475 2.63523 -3.35957e-18)
(-2.47115 2.95682 2.8741e-18)
(-0.941901 3.34667 3.10975e-19)
(0.807056 3.83781 2.00464e-18)
(2.7342 4.44361 -2.01453e-18)
(4.803 5.16563 1.31405e-18)
(6.95042 5.99417 -1.33746e-18)
(9.11324 6.90329 1.40741e-18)
(11.2273 7.85152 -9.90257e-19)
(13.2297 8.78821 1.72298e-19)
(15.0634 9.65998 7.63072e-19)
(16.6811 10.4168 -5.39248e-20)
(18.0524 11.0186 -5.15222e-19)
(19.1673 11.441 -2.34948e-19)
(20.0381 11.678 0)
(20.6946 11.7399 2.59986e-19)
(21.1797 11.6563 6.99513e-20)
(21.541 11.4327 -3.09789e-20)