/*--------------------------------*- C++ -*----------------------------------*\
| =========                 |                                                 |
| \\      /  F ield         | OpenFOAM: The Open Source CFD Toolbox           |
|  \\    /   O peration     | Version:  2.3.0                                 |
|   \\  /    A nd           | Web:      www.OpenFOAM.org                      |
|    \\/     M anipulation  |                                                 |
\*---------------------------------------------------------------------------*/
FoamFile
{
    version     2.0;
    format      ascii;
    class       volScalarField;
    location    "5000";
    object      nut;
}
// * * * * * * * * * * * * * * * * * * * * * * * * * * * * * * * * * * * * * //

dimensions      [0 2 -1 0 0 0 0];

internalField   nonuniform List<scalar> 
14767
(
0.0490374
0.0459766
0.0430343
0.0402462
0.0376371
0.0352368
0.0330749
0.0311227
0.0292258
0.0273974
0.0256628
0.0240276
0.0224878
0.0210334
0.0196538
0.0183402
0.0170837
0.0158791
0.0147237
0.0136149
0.0125523
0.0115363
0.0105907
0.00992947
0.0530904
0.0505279
0.0480605
0.0456977
0.0434455
0.0413059
0.0392832
0.0373767
0.0355812
0.0338973
0.0323285
0.0308796
0.0295555
0.0283589
0.0272958
0.0263693
0.0255858
0.0249499
0.0244665
0.02414
0.0239732
0.0239668
0.0241221
0.024434
0.0567365
0.0545962
0.0525415
0.0505767
0.0487037
0.0469244
0.0452409
0.0436536
0.0421647
0.040776
0.0394894
0.038309
0.037238
0.0362806
0.0354401
0.0347216
0.034128
0.0336638
0.0333323
0.0331342
0.0330703
0.0331383
0.0333321
0.0336456
0.0599874
0.0581943
0.056476
0.0548335
0.0532678
0.05178
0.0503712
0.0490427
0.0477963
0.0466331
0.0455564
0.0445695
0.0436746
0.0428759
0.0421778
0.041584
0.0410974
0.0407223
0.0404611
0.0403153
0.0402856
0.0403704
0.0405663
0.0408683
0.0628758
0.0613628
0.0599155
0.0585301
0.0572072
0.0559473
0.0547519
0.0536222
0.0525593
0.0515651
0.0506427
0.0497942
0.0490242
0.0483354
0.0477335
0.0472211
0.0468032
0.0464829
0.0462637
0.0461476
0.0461354
0.0462275
0.0464215
0.0467137
0.0654223
0.0641457
0.0629181
0.0617384
0.0606075
0.0595261
0.0584963
0.0575199
0.0565978
0.0557323
0.054926
0.0541811
0.0535017
0.0528929
0.052358
0.0519025
0.0515305
0.051246
0.0510533
0.050955
0.0509529
0.0510471
0.0512377
0.0515212
0.0676769
0.0665911
0.0655409
0.0645263
0.0635482
0.0626079
0.0617074
0.0608499
0.0600375
0.059272
0.0585554
0.0578904
0.0572806
0.0567304
0.0562453
0.0558303
0.0554904
0.0552309
0.0550553
0.0549681
0.0549712
0.0550661
0.0552526
0.0555292
0.0696732
0.0687418
0.0678345
0.066954
0.0660996
0.0652718
0.0644732
0.0637084
0.0629814
0.0622948
0.06165
0.0610485
0.0604937
0.0599896
0.0595422
0.0591578
0.0588418
0.058599
0.0584341
0.0583534
0.0583592
0.0584533
0.0586362
0.0589066
0.0714384
0.0706376
0.0698432
0.0690722
0.0683203
0.067584
0.0668688
0.0661739
0.065513
0.0648881
0.0643015
0.0637537
0.0632444
0.0627807
0.0623598
0.0619992
0.0617023
0.0614738
0.0613126
0.0612346
0.0612408
0.0613334
0.0615133
0.0617789
0.0730064
0.0723236
0.0716042
0.070922
0.07026
0.0695958
0.0689574
0.0683097
0.0676975
0.0671186
0.066574
0.0660773
0.0656058
0.0651923
0.0647847
0.0644428
0.064158
0.063949
0.0637842
0.0637072
0.0637104
0.0637995
0.0639764
0.0642393
0.0109891
0.0131592
0.0146493
0.0161245
0.0177304
0.0194972
0.021419
0.0234857
0.0256858
0.028009
0.0304459
0.0329882
0.0356296
0.0383639
0.0411855
0.0440892
0.0470691
0.050119
0.0532326
0.0564026
0.0596213
0.0628801
0.0661704
0.0694855
0.0248871
0.0254956
0.0262832
0.0272524
0.0284001
0.0297196
0.0312021
0.0328359
0.034608
0.0365071
0.0385217
0.0406406
0.0428551
0.0451566
0.0475377
0.0499923
0.0525145
0.0550986
0.0577396
0.060432
0.063171
0.0659515
0.0687678
0.0716166
0.0340676
0.034611
0.0352954
0.0361226
0.0370919
0.0381988
0.039438
0.040802
0.0422823
0.0438705
0.0455582
0.0473367
0.0491988
0.0511377
0.0531468
0.0552208
0.0573549
0.0595443
0.0617849
0.0640726
0.066404
0.0687762
0.0711863
0.073634
0.0412704
0.0417798
0.0424089
0.0431573
0.0440238
0.045005
0.0460953
0.0472887
0.0485786
0.0499577
0.051419
0.0529555
0.0545607
0.0562296
0.0579562
0.0597359
0.0615652
0.0634401
0.0653578
0.0673154
0.0693102
0.0713405
0.0734037
0.0754913
0.0471008
0.0475868
0.0481785
0.0488746
0.0496728
0.050569
0.0515579
0.0526333
0.0537891
0.0550184
0.056315
0.0576728
0.0590861
0.0605499
0.0620599
0.0636119
0.0652026
0.0668288
0.0684882
0.0701789
0.071899
0.0736478
0.0754232
0.0772095
0.0518953
0.052363
0.0529269
0.0535848
0.0543337
0.0551684
0.0560832
0.0570722
0.0581288
0.0592463
0.0604193
0.0616421
0.0629092
0.0642163
0.0655591
0.0669337
0.0683371
0.0697663
0.0712193
0.0726947
0.0741914
0.0757097
0.0772501
0.0787965
0.0558927
0.0563451
0.0568875
0.0575164
0.0582278
0.059016
0.0598749
0.0607973
0.0617768
0.0628076
0.0638845
0.0650021
0.0661555
0.0673399
0.0685516
0.0697864
0.0710412
0.0723133
0.0736003
0.074901
0.0762149
0.0775423
0.0788846
0.0802551
0.0592618
0.0597016
0.0602258
0.060832
0.0615151
0.0622678
0.0630827
0.0639523
0.0648699
0.0658311
0.0668307
0.0678646
0.0689274
0.0700141
0.0711214
0.0722448
0.0733807
0.0745262
0.0756783
0.076836
0.0779992
0.0791695
0.0803471
0.0815437
0.0621266
0.0625562
0.063064
0.0636514
0.0643143
0.0650408
0.0658207
0.0666462
0.0675116
0.0684153
0.0693496
0.070317
0.0713066
0.0723139
0.0733381
0.0743713
0.075411
0.0764535
0.0774953
0.0785339
0.079571
0.0806122
0.081653
0.0826863
0.0645771
0.0649991
0.0654887
0.0660612
0.0667113
0.067414
0.0681634
0.0689504
0.0697688
0.0706227
0.0714913
0.0724119
0.0733405
0.0742855
0.0752462
0.0762038
0.0771673
0.0781258
0.0790772
0.0800135
0.0809387
0.0818781
0.08284
0.0837558
0.0804605
0.0745902
0.0689588
0.0635385
0.0583289
0.0533354
0.048566
0.0440289
0.0397307
0.0356769
0.0318711
0.0283139
0.0250026
0.0219358
0.0191117
0.0165286
0.0141808
0.0120594
0.010165
0.00853432
0.00727563
0.00606766
0.00477987
0.00329894
0.084103
0.0789666
0.0740171
0.0692171
0.0645625
0.0600573
0.0557094
0.0515281
0.047523
0.0437022
0.040071
0.036635
0.0333973
0.0303608
0.0275342
0.0249515
0.0226577
0.0205859
0.0185795
0.0165548
0.0144751
0.0122935
0.00994546
0.00734603
0.0879239
0.0835252
0.0792443
0.0750588
0.0709671
0.066974
0.0630869
0.0593168
0.0556752
0.0521749
0.0488318
0.0456607
0.0426673
0.0398343
0.037125
0.0344972
0.0319144
0.029341
0.0267326
0.0240415
0.0212189
0.0182186
0.0149923
0.0114876
0.0919349
0.0881932
0.0845272
0.080916
0.0773581
0.0738571
0.0704201
0.0670544
0.0637678
0.0605646
0.057444
0.0544007
0.051426
0.0485035
0.0456103
0.0427161
0.0397913
0.0368021
0.0337145
0.0304878
0.0270798
0.0234467
0.0195415
0.0153256
0.0959902
0.0927964
0.0896338
0.0864829
0.0833418
0.0802131
0.0771008
0.0740081
0.0709382
0.0678921
0.0648643
0.0618466
0.0588299
0.0557994
0.0527343
0.0496143
0.0464112
0.0430949
0.0396322
0.0359856
0.0321136
0.0279739
0.0235229
0.0187199
0.0998468
0.0970592
0.0942654
0.0914493
0.0886103
0.0857485
0.0828644
0.0799599
0.0770358
0.0740903
0.0711171
0.0681075
0.0650507
0.0619321
0.0587352
0.0554384
0.0520169
0.0484414
0.0446786
0.0406913
0.0364397
0.031881
0.0269714
0.0216696
0.103341
0.100852
0.0983331
0.0957681
0.0931566
0.0904953
0.0877832
0.0850196
0.0822051
0.0793369
0.0764068
0.0734046
0.0703181
0.067134
0.063835
0.0604007
0.0568059
0.0530212
0.0490127
0.0447428
0.0401723
0.035257
0.0299531
0.0242189
0.106403
0.104167
0.101867
0.0995004
0.0970685
0.0945655
0.0919885
0.0893367
0.0866093
0.0838054
0.0809168
0.077926
0.0748195
0.0715847
0.0682054
0.0646618
0.0609285
0.056973
0.0527595
0.0482509
0.0434076
0.0381852
0.0325391
0.0264259
0.109109
0.107057
0.104934
0.10273
0.100445
0.0980702
0.0956017
0.0930406
0.0903841
0.0876344
0.0847904
0.0818203
0.0786997
0.0754215
0.0719746
0.0683428
0.064501
0.0604085
0.0560213
0.0513049
0.0462262
0.0407396
0.034797
0.0283524
0.111447
0.109559
0.107592
0.105536
0.103371
0.101102
0.0987187
0.0962333
0.0936344
0.0909217
0.0881341
0.0852085
0.082075
0.078751
0.0752404
0.0715302
0.0676112
0.063421
0.0588794
0.0539717
0.0486902
0.0429798
0.0367855
0.0300724
0.00162368
0.000874194
0.00112032
0.00141149
0.00169396
0.00198443
0.00230542
0.0026889
0.00317594
0.003792
0.0045114
0.0053309
0.00625301
0.0072836
0.00843022
0.0097003
0.0111015
0.0126425
0.0143322
0.0161807
0.0181985
0.0203972
0.0227873
0.0253714
0.00442006
0.00196651
0.00144579
0.00171438
0.00203234
0.00238584
0.00280031
0.00329893
0.00389837
0.00460787
0.00540343
0.00628516
0.00725632
0.00832186
0.00948741
0.0107585
0.0121413
0.0136429
0.0152712
0.0170347
0.0189425
0.0210036
0.0232261
0.0256189
0.00763869
0.00379911
0.00194024
0.00202319
0.00240019
0.0028429
0.00336321
0.00396903
0.00466487
0.00545363
0.0063156
0.00725208
0.0082657
0.00936013
0.0105391
0.0118069
0.0131682
0.0146289
0.0161957
0.0178754
0.019675
0.0216017
0.0236627
0.0258654
0.010726
0.00590761
0.00268478
0.00234987
0.00278962
0.00332802
0.00394664
0.0046434
0.00542477
0.00628129
0.00720094
0.00818471
0.00923432
0.0103518
0.0115397
0.0128011
0.0141402
0.015561
0.0170688
0.018669
0.020367
0.0221682
0.0240769
0.0260927
0.0134958
0.00794475
0.0036116
0.00270694
0.00319054
0.00381958
0.00452498
0.00530161
0.00615669
0.00707221
0.00804231
0.00906693
0.010147
0.0112831
0.0124767
0.0137304
0.015047
0.0164299
0.0178826
0.019409
0.0210131
0.022699
0.0244717
0.0263427
0.0159128
0.00977173
0.0045981
0.0030952
0.00359219
0.00430276
0.00508471
0.00593312
0.00685061
0.00781833
0.00883271
0.00989319
0.0109989
0.01215
0.0133474
0.0145928
0.0158878
0.0172348
0.0186362
0.0200946
0.0216132
0.0231954
0.0248467
0.0265758
0.0179981
0.0113606
0.00554942
0.00350351
0.00398559
0.00476719
0.00561561
0.00653028
0.00750203
0.00851634
0.00956996
0.0106613
0.011789
0.0129526
0.0141525
0.0153892
0.0166638
0.0179773
0.0193316
0.0207281
0.0221693
0.0236581
0.0251998
0.0268022
0.0197955
0.0127305
0.00642138
0.00391652
0.0043649
0.00520821
0.00611686
0.00709005
0.00810969
0.00916527
0.0102536
0.0113719
0.0125187
0.0136927
0.0148941
0.0161223
0.0173776
0.0186605
0.0199714
0.0213117
0.0226829
0.0240873
0.0255274
0.0270049
0.0213605
0.0139163
0.00719685
0.0043182
0.00472604
0.00562279
0.00658725
0.00761141
0.00867345
0.00976543
0.0108847
0.0120274
0.0131907
0.0143737
0.0155759
0.0167962
0.0180337
0.0192877
0.0205581
0.0218461
0.0231539
0.0244815
0.0258296
0.0272001
0.0227775
0.0149992
0.00793125
0.00471232
0.0050643
0.00601863
0.00703174
0.00809299
0.00918944
0.0103244
0.0114802
0.0126402
0.0138125
0.0150034
0.0162089
0.0174204
0.0186391
0.0198599
0.0210826
0.0223185
0.0235729
0.0248345
0.0261018
0.0273938
0.000347459
0.00119411
0.00253066
0.00413115
0.00575266
0.0073638
0.00898088
0.0106167
0.0122713
0.0139453
0.015642
0.0173674
0.0191307
0.0209444
0.0228211
0.0247704
0.0267924
0.0288883
0.0311136
0.0335107
0.036052
0.0387972
0.0418612
0.0451408
0.000254741
0.000680212
0.00158002
0.00282123
0.004306
0.00579337
0.00728029
0.00876406
0.0102595
0.0117836
0.0133486
0.0149591
0.0166203
0.0183396
0.0201265
0.0219921
0.0239466
0.0260011
0.0281778
0.0305078
0.0330048
0.0357037
0.0386556
0.0417507
7.05828e-05
0.000408327
0.000976828
0.00178574
0.00285944
0.00421749
0.00589236
0.00764532
0.00935046
0.0110067
0.0126238
0.0142169
0.015802
0.0173949
0.0190144
0.0206825
0.0224238
0.0242647
0.0262337
0.0283641
0.0306887
0.0332406
0.0360489
0.039072
9.43481e-05
0.000339255
0.000801086
0.00144512
0.00230066
0.00339394
0.00475868
0.00643187
0.00827109
0.0101145
0.0119301
0.0137094
0.015444
0.0171297
0.0187695
0.0203772
0.021978
0.023609
0.0253165
0.0271546
0.0291811
0.0314511
0.0340081
0.0368585
5.17529e-05
0.000293106
0.000691091
0.00124129
0.00197599
0.00291227
0.00407801
0.00550606
0.00723294
0.00917985
0.0111476
0.0130915
0.0150002
0.0168623
0.0186637
0.0203923
0.0220453
0.0236369
0.0252032
0.0268033
0.0285156
0.0304289
0.0326272
0.0351635
4.83995e-05
0.000272835
0.000624447
0.00111519
0.00176763
0.00260092
0.00363841
0.00491032
0.00645174
0.0082988
0.0103333
0.0123973
0.0144473
0.0164677
0.0184419
0.0203494
0.0221673
0.0238794
0.0254866
0.0270175
0.0285362
0.0301426
0.0319593
0.0341141
4.04084e-05
0.000265518
0.000573485
0.00102091
0.00161362
0.00237328
0.00331841
0.00447601
0.00587778
0.00756032
0.00954842
0.0116833
0.0138427
0.0159911
0.0181107
0.0201815
0.0221778
0.02407
0.0258319
0.0274527
0.028954
0.0304045
0.031924
0.0336572
3.74187e-05
0.000259793
0.000536091
0.00095058
0.00149789
0.00220093
0.00307564
0.00414648
0.00544309
0.00699977
0.00885478
0.0109852
0.0132163
0.0154658
0.0177052
0.0199145
0.0220694
0.0241389
0.0260869
0.027879
0.029497
0.030959
0.03234
0.0337668
3.43136e-05
0.000255546
0.000506562
0.000895314
0.00140737
0.00206468
0.00288353
0.00388572
0.0050986
0.00655445
0.00829
0.0103379
0.0125949
0.0149194
0.0172562
0.019581
0.0218711
0.0240972
0.0262225
0.0282042
0.0300017
0.0315914
0.0329909
0.0342717
3.2348e-05
0.000251573
0.00048346
0.000851716
0.00133565
0.00195571
0.00272935
0.00367585
0.00482076
0.00619435
0.0078317
0.00977167
0.0120028
0.0143722
0.0167861
0.0192069
0.0216111
0.023972
0.0262547
0.0284157
0.0304057
0.0321775
0.0337042
0.0350012
3.09869e-05
0.000248407
0.000465469
0.000816788
0.00127798
0.00186778
0.00260467
0.00350563
0.0045947
0.00590057
0.00745654
0.00930081
0.0114623
0.0138433
0.0163137
0.0188136
0.0213141
0.0237899
0.0262091
0.0285304
0.0307028
0.0326695
0.0343772
0.0357955
3.03939e-05
0.000246409
0.000452511
0.000789035
0.00123164
0.00179683
0.00250364
0.00336726
0.00441025
0.0056599
0.00714813
0.00891162
0.0109887
0.0133495
0.0158549
0.0184185
0.0210004
0.0235744
0.0261112
0.0285727
0.0309097
0.0330629
0.0349672
0.0365639
3.0327e-05
0.000245569
0.0004442
0.000767103
0.00119452
0.00173959
0.00242174
0.00325466
0.00425976
0.00546286
0.00689454
0.00859012
0.0105891
0.0129038
0.0154229
0.0180357
0.0206865
0.0233451
0.0259836
0.028567
0.0310497
0.0333737
0.0354711
0.0372736
3.0748e-05
0.000245584
0.000439335
0.000749712
0.00116479
0.00169369
0.00235531
0.00316311
0.00413703
0.0053018
0.00668662
0.00832555
0.0102574
0.0125134
0.0150275
0.0176759
0.0203853
0.0231178
0.0258454
0.0285358
0.0311469
0.0336245
0.0359019
0.0379051
3.15166e-05
0.000246017
0.000436632
0.000735772
0.00114068
0.00165653
0.00230107
0.00308824
0.00403652
0.00516965
0.00651576
0.00810751
0.00998272
0.0121794
0.0146737
0.0173456
0.020105
0.0229035
0.0257108
0.0284965
0.031222
0.0338368
0.036277
0.0384655
3.24863e-05
0.000246541
0.000434974
0.000724277
0.00112076
0.00162576
0.00225618
0.00302621
0.00395336
0.00506037
0.00637426
0.00792674
0.00975454
0.0118974
0.0143617
0.0170467
0.0198485
0.0227072
0.0255877
0.0284603
0.0312893
0.0340282
0.0366171
0.0389828
3.36267e-05
0.000247066
0.000433914
0.000714647
0.00110396
0.00159987
0.00221837
0.00297418
0.00388363
0.00496879
0.00625578
0.00777531
0.00956318
0.0116595
0.014088
0.0167773
0.0196149
0.022529
0.025478
0.0284315
0.0313561
0.0342086
0.0369332
0.0394594
3.48682e-05
0.000247544
0.000433184
0.000706482
0.00108954
0.00157762
0.00218591
0.00292952
0.00382396
0.00489042
0.00615453
0.00764616
0.00939998
0.0114558
0.0138471
0.0165325
0.0194
0.0223652
0.0253792
0.028409
0.0314229
0.0343804
0.0372291
0.0399013
3.62254e-05
0.000247946
0.000432644
0.000699351
0.00107695
0.00155813
0.00215749
0.00289039
0.00377169
0.00482197
0.00606612
0.00753344
0.00925772
0.011278
0.0136328
0.0163074
0.019198
0.02221
0.0252854
0.0283878
0.0314857
0.0345409
0.0375038
0.0403097
3.76489e-05
0.000248329
0.000432266
0.000693002
0.00106567
0.0015407
0.00213202
0.00285543
0.00372499
0.00476081
0.00598731
0.00743303
0.00913106
0.0111198
0.0134397
0.0160971
0.019004
0.0220576
0.0251908
0.0283622
0.0315391
0.0346851
0.0377525
0.0406775
3.90009e-05
0.000248612
0.000431863
0.000687267
0.00105541
0.00152476
0.00210876
0.00282343
0.00368235
0.00470504
0.00591546
0.00734159
0.00901586
0.0109759
0.013263
0.0158981
0.018814
0.0219038
0.0250907
0.0283274
0.0315792
0.0348108
0.037977
0.0410194
4.03604e-05
0.000248837
0.000431465
0.000681943
0.00104589
0.00151001
0.00208718
0.00279381
0.00364287
0.00465348
0.00584903
0.00725709
0.00890943
0.010843
0.0130992
0.0157083
0.0186259
0.0217456
0.0249817
0.0282797
0.0316023
0.0349136
0.038169
0.0413067
4.17372e-05
0.000249072
0.000431173
0.000677049
0.001037
0.00149615
0.00206697
0.00276606
0.00360583
0.0046051
0.00578684
0.00717798
0.00880986
0.0107187
0.0129456
0.0155267
0.018439
0.021582
0.0248624
0.0282182
0.031608
0.0349955
0.0383379
0.0415785
4.30566e-05
0.000249273
0.00043088
0.000672499
0.00102864
0.00148308
0.00204782
0.00273973
0.00357074
0.00455931
0.00572797
0.00710321
0.00871582
0.0106014
0.0128005
0.0153527
0.0182533
0.021413
0.0247324
0.028142
0.0315958
0.0350561
0.0384805
0.0418119
4.43452e-05
0.000249485
0.000430658
0.000668302
0.00102077
0.00147073
0.00202967
0.00271469
0.00353733
0.00451568
0.00567191
0.00703206
0.00862641
0.0104899
0.0126626
0.015186
0.0180697
0.0212393
0.0245922
0.0280515
0.0315661
0.0350964
0.0386014
0.0420293
4.55888e-05
0.000249708
0.000430479
0.000664433
0.00101335
0.00145905
0.00201253
0.00269079
0.00350538
0.00447395
0.0056183
0.00696407
0.00854103
0.0103836
0.0125312
0.0150262
0.0178891
0.0210621
0.0244428
0.0279474
0.0315191
0.0351158
0.038696
0.0422075
4.6774e-05
0.000249947
0.000430351
0.000660901
0.0010063
0.00144793
0.00199625
0.00266793
0.00347478
0.00443398
0.00556697
0.00689899
0.00845933
0.0102819
0.0124056
0.014873
0.0177124
0.0208831
0.0242857
0.027831
0.0314563
0.0351166
0.0387698
0.0423655
4.79158e-05
0.000250219
0.000430294
0.000657731
0.000999614
0.00143732
0.0019807
0.0026461
0.00344556
0.0043958
0.00551791
0.00683674
0.00838118
0.0101846
0.0122854
0.0147261
0.0175405
0.0207036
0.0241226
0.0277038
0.0313793
0.0351004
0.0388243
0.042501
4.90341e-05
0.000250527
0.000430328
0.000654953
0.000993312
0.00142725
0.0019659
0.00262531
0.00341772
0.00435942
0.00547113
0.00677736
0.00830658
0.0100917
0.0121706
0.0145856
0.0173741
0.0205252
0.023955
0.0275675
0.0312892
0.0350684
0.0388622
0.0426244
5.01577e-05
0.000250895
0.000430492
0.000652604
0.000987413
0.00141773
0.00195189
0.00260561
0.00339134
0.00432492
0.00542676
0.00672098
0.00823569
0.0100034
0.0120613
0.0144516
0.0172141
0.0203495
0.0237849
0.0274234
0.0311869
0.03502
0.0388794
0.0427236
5.12792e-05
0.00025131
0.000430769
0.000650663
0.000981906
0.00140877
0.00193867
0.00258702
0.00336642
0.00429234
0.00538483
0.0066677
0.00816867
0.00991975
0.0119578
0.0143245
0.0170612
0.0201783
0.0236144
0.0272737
0.0310739
0.0349552
0.0388712
0.042776
5.24129e-05
0.00025178
0.000431173
0.000649131
0.00097681
0.00140037
0.00192627
0.00256954
0.003343
0.00426173
0.00534544
0.00661761
0.00810563
0.00984106
0.0118603
0.0142046
0.0169163
0.0200133
0.0234462
0.0271217
0.0309542
0.0348797
0.0388496
0.0428182
5.35482e-05
0.000252297
0.000431688
0.000647967
0.000972107
0.00139254
0.00191468
0.00255321
0.00332111
0.00423309
0.00530856
0.00657073
0.00804662
0.0097674
0.011769
0.0140923
0.0167801
0.0198563
0.0232828
0.0269706
0.0308316
0.0347979
0.0388181
0.0428465
5.46792e-05
0.000252838
0.000432273
0.00064712
0.000967789
0.00138528
0.0019039
0.002538
0.00330072
0.00420638
0.00527415
0.00652697
0.00799155
0.00969868
0.0116838
0.0139875
0.0166528
0.0197084
0.0231266
0.0268236
0.0307099
0.0347138
0.0387806
0.0428625
5.58314e-05
0.000253409
0.000432943
0.000646555
0.000963854
0.00137859
0.00189394
0.00252391
0.0032818
0.00418157
0.00524216
0.00648629
0.00794031
0.00963472
0.0116046
0.01389
0.0165344
0.01957
0.0229787
0.026683
0.0305928
0.0346329
0.0387463
0.0428846
5.69959e-05
0.000254001
0.00043367
0.000646231
0.000960302
0.00137246
0.00188477
0.00251093
0.00326434
0.00415866
0.00521258
0.00644857
0.00789273
0.00957523
0.0115309
0.0137993
0.0164241
0.0194404
0.0228391
0.0265494
0.0304812
0.0345569
0.0387166
0.0429116
5.81731e-05
0.00025461
0.000434446
0.0006461
0.000957089
0.00136686
0.00187638
0.00249902
0.00324831
0.00413758
0.00518532
0.00641374
0.0078487
0.00952008
0.0114623
0.0137148
0.0163211
0.0193188
0.0227067
0.0264215
0.0303741
0.0344844
0.0386897
0.0429395
5.93657e-05
0.000255228
0.000435259
0.000646127
0.000954193
0.00136176
0.00186872
0.00248814
0.00323362
0.00411826
0.0051603
0.00638171
0.00780811
0.00946911
0.0113988
0.0136362
0.0162249
0.0192044
0.0225805
0.026298
0.0302696
0.0344132
0.0386639
0.0429692
6.05707e-05
0.000255851
0.000436095
0.000646275
0.000951574
0.0013571
0.00186172
0.00247818
0.0032202
0.00410061
0.00513743
0.00635239
0.00777088
0.00942225
0.0113402
0.0135635
0.0161355
0.019097
0.0224603
0.0261781
0.0301658
0.0343401
0.0386341
0.0429966
6.17833e-05
0.000256474
0.000436942
0.000646514
0.000949208
0.00135286
0.00185533
0.00246909
0.00320796
0.0040845
0.00511655
0.00632562
0.00773688
0.00937936
0.0112865
0.0134967
0.0160529
0.0189973
0.0223471
0.0260629
0.0300635
0.0342642
0.0385949
0.0430012
6.3002e-05
0.000257092
0.000437786
0.000646816
0.000947058
0.00134897
0.00184948
0.00246077
0.00319676
0.00406979
0.00509748
0.0063012
0.00770587
0.00934025
0.0112375
0.0134356
0.0159774
0.0189056
0.0222421
0.0259548
0.0299662
0.0341908
0.0385548
0.0429986
6.42246e-05
0.000257702
0.000438621
0.00064716
0.000945099
0.00134541
0.00184411
0.00245314
0.0031865
0.00405631
0.00508005
0.0062789
0.00767757
0.00930459
0.0111928
0.0133799
0.0159085
0.0188219
0.0221457
0.025855
0.0298766
0.0341244
0.0385223
0.0430074
6.5439e-05
0.000258303
0.000439437
0.000647536
0.000943319
0.00134213
0.00183917
0.00244611
0.00317707
0.00404395
0.00506408
0.00625847
0.00765168
0.00927199
0.011152
0.0133291
0.0158457
0.0187455
0.0220575
0.0257636
0.0297949
0.0340661
0.0384997
0.0430326
6.66567e-05
0.000258888
0.000440234
0.000647936
0.000941694
0.00133912
0.00183461
0.00243963
0.00316837
0.00403256
0.00504937
0.00623971
0.00762791
0.00924212
0.0111147
0.0132826
0.0157882
0.0186756
0.0219766
0.0256792
0.0297197
0.0340133
0.0384813
0.0430588
6.78918e-05
0.000259458
0.000441025
0.00064836
0.00094022
0.00133635
0.00183041
0.00243364
0.00316032
0.00402201
0.00503577
0.00622235
0.00760598
0.00921459
0.0110803
0.01324
0.0157356
0.0186116
0.0219022
0.0256015
0.0296505
0.0339655
0.0384658
0.0430848
6.91371e-05
0.000260023
0.000441814
0.000648806
0.000938895
0.00133382
0.00182653
0.00242809
0.00315283
0.00401219
0.00502311
0.00620623
0.00758563
0.00918908
0.0110485
0.0132006
0.015687
0.0185524
0.0218334
0.0255295
0.0295869
0.0339232
0.0384567
0.0431166
7.03768e-05
0.00026058
0.000442592
0.000649266
0.000937711
0.00133151
0.00182296
0.00242295
0.00314587
0.00400303
0.00501127
0.00619114
0.00756658
0.00916524
0.0110189
0.0131639
0.0156418
0.0184976
0.0217694
0.0254621
0.029527
0.0338839
0.0384502
0.0431558
7.15947e-05
0.000261118
0.000443349
0.000649734
0.000936657
0.00132941
0.00181969
0.00241819
0.00313939
0.00399446
0.00500015
0.00617691
0.00754861
0.00914276
0.010991
0.0131294
0.0155995
0.0184462
0.0217095
0.0253985
0.0294703
0.0338461
0.0384433
0.04319
7.28059e-05
0.000261641
0.000444095
0.000650213
0.000935728
0.00132752
0.00181672
0.00241382
0.0031334
0.00398646
0.00498969
0.00616347
0.00753157
0.0091214
0.0109644
0.0130967
0.0155595
0.0183978
0.021653
0.0253387
0.0294166
0.0338101
0.0384352
0.0432197
7.4003e-05
0.000262152
0.000444822
0.000650699
0.000934943
0.00132587
0.00181404
0.00240984
0.00312788
0.00397902
0.00497989
0.00615078
0.00751537
0.00910098
0.010939
0.0130653
0.015521
0.0183514
0.0215991
0.0252818
0.0293663
0.0337773
0.0384286
0.0432394
7.51741e-05
0.000262654
0.000445536
0.000651212
0.000934304
0.00132442
0.00181168
0.00240629
0.00312286
0.00397218
0.00497078
0.00613886
0.00750003
0.00908149
0.0109145
0.013035
0.0154837
0.0183063
0.0215465
0.0252262
0.0293175
0.0337485
0.0384331
0.0432935
7.63314e-05
0.000263154
0.000446242
0.000651745
0.000933803
0.00132321
0.00180964
0.00240314
0.00311834
0.00396597
0.00496241
0.00612778
0.0074856
0.00906297
0.010891
0.0130055
0.0154473
0.0182619
0.0214943
0.0251699
0.0292668
0.0337154
0.0384295
0.0433279
7.75034e-05
0.00026365
0.000446961
0.000652306
0.000933432
0.00132221
0.0018079
0.00240038
0.00311436
0.00396043
0.00495482
0.0061176
0.00747222
0.00904556
0.0108687
0.0129773
0.0154119
0.0182182
0.0214421
0.0251125
0.0292132
0.0336785
0.0384219
0.0433605
7.86811e-05
0.000264145
0.000447684
0.000652885
0.000933181
0.00132142
0.00180645
0.00239806
0.00311089
0.00395552
0.00494804
0.00610839
0.00745992
0.0090295
0.0108478
0.0129505
0.0153779
0.0181757
0.0213903
0.0250543
0.0291566
0.0336365
0.0384076
0.0433849
7.98067e-05
0.000264632
0.000448385
0.000653466
0.00093303
0.0013208
0.00180526
0.00239608
0.00310796
0.00395119
0.00494202
0.00610022
0.00744889
0.00901479
0.0108286
0.0129255
0.0153459
0.018135
0.0213402
0.024996
0.0290978
0.0335888
0.0383838
0.0433945
8.09283e-05
0.000265092
0.000449057
0.000654066
0.000933023
0.00132039
0.00180439
0.00239449
0.00310548
0.00394757
0.0049368
0.00609293
0.00743903
0.00900157
0.0108112
0.0129027
0.0153163
0.0180972
0.0212928
0.02494
0.029039
0.0335386
0.0383552
0.0434003
8.20808e-05
0.000265592
0.000449786
0.000654684
0.000933147
0.00132023
0.00180379
0.00239334
0.00310353
0.00394454
0.0049324
0.00608671
0.00743038
0.00898995
0.0107956
0.0128823
0.0152898
0.0180629
0.0212493
0.024888
0.0289834
0.0334891
0.0383247
0.0434028
8.31116e-05
0.000266051
0.000450431
0.000655323
0.000933415
0.00132025
0.0018035
0.00239249
0.00310201
0.00394208
0.00492867
0.00608134
0.00742291
0.00897965
0.0107818
0.012864
0.0152658
0.018032
0.0212104
0.0248411
0.0289332
0.0334445
0.0382956
0.0433995
8.41853e-05
0.000266502
0.000451081
0.000655986
0.000933812
0.0013205
0.00180349
0.00239211
0.00310104
0.00394032
0.00492576
0.00607691
0.0074165
0.00897078
0.0107696
0.0128477
0.0152445
0.0180043
0.0211754
0.0247996
0.0288892
0.0334068
0.0382743
0.0433991
8.53301e-05
0.000267003
0.000451838
0.000656723
0.000934371
0.00132102
0.0018039
0.00239223
0.00310067
0.00393924
0.00492374
0.00607353
0.00741129
0.00896317
0.0107591
0.0128334
0.0152254
0.0179794
0.0211438
0.0247619
0.0288503
0.0333757
0.0382644
0.0434273
8.64112e-05
0.000267471
0.000452519
0.000657462
0.000935121
0.0013218
0.00180466
0.00239275
0.00310084
0.00393885
0.00492245
0.00607102
0.00740718
0.00895688
0.0107501
0.0128209
0.0152084
0.017957
0.021115
0.0247271
0.0288134
0.033346
0.0382532
0.0434468
8.74856e-05
0.000267944
0.000453225
0.000658216
0.000936009
0.00132287
0.00180579
0.00239386
0.0031017
0.00393929
0.00492217
0.00606965
0.00740433
0.00895214
0.0107427
0.0128103
0.0151935
0.017937
0.0210888
0.0246951
0.0287787
0.0333165
0.0382393
0.0434588
8.84949e-05
0.000268406
0.000453901
0.00065902
0.000937071
0.00132421
0.00180734
0.00239545
0.00310324
0.00394046
0.0049228
0.00606947
0.00740284
0.00894882
0.0107371
0.0128014
0.0151808
0.0179194
0.0210657
0.0246663
0.0287478
0.0332903
0.0382269
0.0434679
8.95424e-05
0.000268857
0.000454576
0.00065986
0.000938336
0.00132582
0.00180927
0.00239761
0.00310546
0.00394259
0.0049245
0.00607043
0.00740275
0.0089471
0.0107332
0.0127947
0.0151703
0.0179043
0.0210452
0.0246408
0.0287205
0.0332692
0.0382223
0.0434872
9.06171e-05
0.000269349
0.000455319
0.000660754
0.000939818
0.00132782
0.00181168
0.0024004
0.00310846
0.00394561
0.00492741
0.00607287
0.00740424
0.00894731
0.0107314
0.0127902
0.0151623
0.0178917
0.0210272
0.0246177
0.0286956
0.0332511
0.0382243
0.0435282
9.15909e-05
0.000269804
0.000455979
0.000661675
0.000941486
0.00133008
0.00181451
0.00240369
0.00311215
0.00394953
0.00493137
0.00607663
0.00740748
0.00894942
0.0107319
0.0127882
0.015157
0.017882
0.021012
0.0245967
0.0286715
0.0332313
0.03822
0.0435503
9.26251e-05
0.000270254
0.000456651
0.00066263
0.000943345
0.00133269
0.0018178
0.00240764
0.00311665
0.00395452
0.00493659
0.00608186
0.00741242
0.00895372
0.0107348
0.0127891
0.0151549
0.0178756
0.0210003
0.0245791
0.0286493
0.0332108
0.0382117
0.0435655
9.3694e-05
0.000270746
0.000457402
0.000663659
0.000945414
0.00133563
0.0018216
0.00241227
0.00312198
0.00396047
0.0049431
0.00608868
0.00741924
0.00896011
0.0107403
0.012793
0.0151563
0.0178734
0.0209932
0.0245661
0.0286319
0.0331941
0.0382054
0.0435826
9.47397e-05
0.000271205
0.000458113
0.000664735
0.000947747
0.00133895
0.00182591
0.0024175
0.00312811
0.00396742
0.00495074
0.00609689
0.00742784
0.00896871
0.0107485
0.0128002
0.0151616
0.0178759
0.0209914
0.0245591
0.0286205
0.0331831
0.0382042
0.0436047
9.58184e-05
0.000271696
0.000458889
0.000665854
0.000950296
0.00134268
0.00183074
0.0024235
0.00313518
0.0039755
0.00495975
0.0061067
0.00743829
0.00897964
0.0107594
0.0128107
0.0151709
0.017883
0.0209952
0.0245587
0.0286161
0.0331784
0.0382061
0.0436237
9.68008e-05
0.000272151
0.000459584
0.000666991
0.00095306
0.00134675
0.00183611
0.00243011
0.00314307
0.0039846
0.00497005
0.00611815
0.00745065
0.00899267
0.0107729
0.0128241
0.0151839
0.0178948
0.0210049
0.0245653
0.0286205
0.0331828
0.038214
0.0436367
9.78286e-05
0.000272596
0.000460283
0.0006682
0.000956139
0.00135123
0.00184202
0.00243753
0.00315195
0.00399495
0.00498177
0.0061312
0.0074649
0.0090079
0.010789
0.0128406
0.0152003
0.0179107
0.0210197
0.0245791
0.0286341
0.0332003
0.0382388
0.0436569
9.88867e-05
0.000273075
0.000461043
0.000669461
0.000959484
0.00135621
0.00184859
0.00244581
0.00316186
0.00400653
0.00499509
0.00614613
0.00748133
0.00902569
0.0108078
0.0128602
0.0152203
0.0179305
0.0210391
0.0245982
0.0286555
0.0332308
0.0382925
0.0437627
9.98507e-05
0.000273529
0.000461725
0.000670758
0.000963099
0.0013616
0.00185577
0.00245482
0.00317278
0.0040194
0.00500987
0.0061628
0.00749989
0.00904593
0.0108295
0.012883
0.0152437
0.0179542
0.0210624
0.024621
0.0286798
0.0332628
0.0383437
0.0438495
0.000100889
0.000273964
0.000462416
0.000672088
0.000966974
0.00136744
0.00186357
0.00246472
0.00318482
0.00403369
0.00502642
0.00618157
0.00752085
0.00906902
0.0108543
0.0129094
0.0152711
0.0179818
0.0210898
0.024648
0.0287068
0.0332944
0.0383869
0.0439083
0.00010194
0.000274396
0.000463135
0.000673489
0.000971125
0.00137372
0.00187204
0.00247554
0.00319798
0.00404928
0.00504462
0.00620247
0.00754434
0.00909497
0.0108826
0.0129396
0.0153028
0.0180144
0.0211224
0.02468
0.0287395
0.0333319
0.0384386
0.0439868
0.000102959
0.000274793
0.000463783
0.000674917
0.000975594
0.00138048
0.00188117
0.00248716
0.00321223
0.00406629
0.00506454
0.00622538
0.00757034
0.00912395
0.0109145