# Forces     
# CofR       : (0.000000e+00 0.000000e+00 0.000000e+00)
# Time       forces(pressure viscous porous) moment(pressure viscous porous)
5.000000e+00	((-1.609365e+01 -1.531209e+02 2.032441e-19) (3.602762e-01 -4.057821e-02 4.903403e-20) (0.000000e+00 0.000000e+00 0.000000e+00)) ((7.656043e+00 -8.046825e-01 -4.326247e+01) (2.028910e-03 1.801381e-02 -5.516314e-04) (0.000000e+00 0.000000e+00 0.000000e+00))
1.000000e+01	((-1.605251e+00 -1.527295e+01 -6.611626e-19) (3.218893e-01 -6.113308e-02 1.647614e-20) (0.000000e+00 0.000000e+00 0.000000e+00)) ((7.636477e-01 -8.026253e-02 -8.123366e+00) (3.056654e-03 1.609446e-02 -7.891784e-03) (0.000000e+00 0.000000e+00 0.000000e+00))
1.500000e+01	((2.580073e+00 2.454774e+01 6.602758e-20) (2.841265e-01 -3.754988e-02 -2.432081e-20) (0.000000e+00 0.000000e+00 0.000000e+00)) ((-1.227387e+00 1.290036e-01 5.954255e+00) (1.877494e-03 1.420632e-02 -2.612960e-03) (0.000000e+00 0.000000e+00 0.000000e+00))
2.000000e+01	((5.078303e-01 4.831668e+00 1.429555e-19) (2.588455e-01 -2.729438e-02 -1.243875e-20) (0.000000e+00 0.000000e+00 0.000000e+00)) ((-2.415834e-01 2.539151e-02 -3.217514e-01) (1.364719e-03 1.294228e-02 -4.961083e-04) (0.000000e+00 0.000000e+00 0.000000e+00))
2.500000e+01	((1.128470e+00 1.073666e+01 -1.386891e-18) (2.419932e-01 -2.431625e-02 2.529956e-20) (0.000000e+00 0.000000e+00 0.000000e+00)) ((-5.368329e-01 5.642350e-02 -5.227115e-03) (1.215812e-03 1.209966e-02 -2.379329e-04) (0.000000e+00 0.000000e+00 0.000000e+00))
3.000000e+01	((1.459364e+00 1.388491e+01 -1.636419e-18) (2.271566e-01 -2.271427e-02 3.413763e-20) (0.000000e+00 0.000000e+00 0.000000e+00)) ((-6.942453e-01 7.296822e-02 1.351782e+00) (1.135713e-03 1.135783e-02 -1.535648e-04) (0.000000e+00 0.000000e+00 0.000000e+00))
3.500000e+01	((1.131310e+00 1.076368e+01 -1.623419e-18) (2.148009e-01 -2.162533e-02 3.676219e-20) (0.000000e+00 0.000000e+00 0.000000e+00)) ((-5.381840e-01 5.656552e-02 2.964666e-01) (1.081267e-03 1.074004e-02 -1.897364e-04) (0.000000e+00 0.000000e+00 0.000000e+00))
4.000000e+01	((1.374057e+00 1.307326e+01 -2.011092e-18) (2.034252e-01 -2.053851e-02 4.812093e-20) (0.000000e+00 0.000000e+00 0.000000e+00)) ((-6.536629e-01 6.870285e-02 5.478144e-01) (1.026926e-03 1.017126e-02 -2.256354e-04) (0.000000e+00 0.000000e+00 0.000000e+00))
4.500000e+01	((1.435457e+00 1.365744e+01 -2.091484e-18) (1.929154e-01 -1.947785e-02 5.271009e-20) (0.000000e+00 0.000000e+00 0.000000e+00)) ((-6.828720e-01 7.177285e-02 6.422699e-01) (9.738925e-04 9.645771e-03 -2.040615e-04) (0.000000e+00 0.000000e+00 0.000000e+00))
5.000000e+01	((1.422988e+00 1.353880e+01 -2.293490e-18) (1.830718e-01 -1.858104e-02 5.837027e-20) (0.000000e+00 0.000000e+00 0.000000e+00)) ((-6.769399e-01 7.114938e-02 3.529754e-01) (9.290520e-04 9.153592e-03 -1.843986e-04) (0.000000e+00 0.000000e+00 0.000000e+00))
5.500000e+01	((1.494863e+00 1.422265e+01 -2.213883e-18) (1.742088e-01 -1.773612e-02 5.709006e-20) (0.000000e+00 0.000000e+00 0.000000e+00)) ((-7.111325e-01 7.474316e-02 4.047822e-01) (8.868058e-04 8.710441e-03 -1.632867e-04) (0.000000e+00 0.000000e+00 0.000000e+00))
6.000000e+01	((1.484636e+00 1.412535e+01 -2.254832e-18) (1.661343e-01 -1.696196e-02 5.988741e-20) (0.000000e+00 0.000000e+00 0.000000e+00)) ((-7.062673e-01 7.423181e-02 2.623286e-01) (8.480978e-04 8.306716e-03 -1.408458e-04) (0.000000e+00 0.000000e+00 0.000000e+00))
6.500000e+01	((1.519315e+00 1.445529e+01 -2.269116e-18) (1.590977e-01 -1.629187e-02 6.105374e-20) (0.000000e+00 0.000000e+00 0.000000e+00)) ((-7.227647e-01 7.596576e-02 2.564646e-01) (8.145934e-04 7.954887e-03 -1.268640e-04) (0.000000e+00 0.000000e+00 0.000000e+00))
7.000000e+01	((1.515380e+00 1.441785e+01 -2.227017e-18) (1.529029e-01 -1.567326e-02 6.023671e-20) (0.000000e+00 0.000000e+00 0.000000e+00)) ((-7.208927e-01 7.576900e-02 1.895411e-01) (7.836629e-04 7.645144e-03 -1.176874e-04) (0.000000e+00 0.000000e+00 0.000000e+00))
7.500000e+01	((1.529185e+00 1.454920e+01 -2.235107e-18) (1.476146e-01 -1.514176e-02 6.075882e-20) (0.000000e+00 0.000000e+00 0.000000e+00)) ((-7.274601e-01 7.645927e-02 1.736551e-01) (7.570878e-04 7.380731e-03 -1.151812e-04) (0.000000e+00 0.000000e+00 0.000000e+00))
8.000000e+01	((1.528249e+00 1.454030e+01 -2.211490e-18) (1.430036e-01 -1.466632e-02 6.029944e-20) (0.000000e+00 0.000000e+00 0.000000e+00)) ((-7.270149e-01 7.641247e-02 1.512453e-01) (7.333161e-04 7.150181e-03 -1.122575e-04) (0.000000e+00 0.000000e+00 0.000000e+00))
8.500000e+01	((1.536710e+00 1.462080e+01 -2.201076e-18) (1.391198e-01 -1.426701e-02 5.995259e-20) (0.000000e+00 0.000000e+00 0.000000e+00)) ((-7.310399e-01 7.683551e-02 1.487904e-01) (7.133507e-04 6.955990e-03 -1.134097e-04) (0.000000e+00 0.000000e+00 0.000000e+00))
9.000000e+01	((1.540243e+00 1.465441e+01 -2.172693e-18) (1.357565e-01 -1.391302e-02 5.912492e-20) (0.000000e+00 0.000000e+00 0.000000e+00)) ((-7.327203e-01 7.701214e-02 1.557491e-01) (6.956512e-04 6.787827e-03 -1.133223e-04) (0.000000e+00 0.000000e+00 0.000000e+00))
9.500000e+01	((1.545961e+00 1.470881e+01 -2.156392e-18) (1.329795e-01 -1.362430e-02 5.838384e-20) (0.000000e+00 0.000000e+00 0.000000e+00)) ((-7.354405e-01 7.729803e-02 1.603859e-01) (6.812148e-04 6.648974e-03 -1.152466e-04) (0.000000e+00 0.000000e+00 0.000000e+00))
1.000000e+02	((1.553145e+00 1.477716e+01 -2.153218e-18) (1.305835e-01 -1.336936e-02 5.833048e-20) (0.000000e+00 0.000000e+00 0.000000e+00)) ((-7.388582e-01 7.765725e-02 1.833523e-01) (6.684678e-04 6.529175e-03 -1.160455e-04) (0.000000e+00 0.000000e+00 0.000000e+00))
1.050000e+02	((1.557776e+00 1.482122e+01 -2.139917e-18) (1.286176e-01 -1.316342e-02 5.763022e-20) (0.000000e+00 0.000000e+00 0.000000e+00)) ((-7.410612e-01 7.788880e-02 1.899761e-01) (6.581708e-04 6.430882e-03 -1.179415e-04) (0.000000e+00 0.000000e+00 0.000000e+00))
1.100000e+02	((1.567244e+00 1.491130e+01 -2.139245e-18) (1.268925e-01 -1.297836e-02 5.762660e-20) (0.000000e+00 0.000000e+00 0.000000e+00)) ((-7.455652e-01 7.836218e-02 2.207532e-01) (6.489181e-04 6.344627e-03 -1.184088e-04) (0.000000e+00 0.000000e+00 0.000000e+00))
1.150000e+02	((1.571422e+00 1.495106e+01 -2.139504e-18) (1.254587e-01 -1.282826e-02 5.745960e-20) (0.000000e+00 0.000000e+00 0.000000e+00)) ((-7.475528e-01 7.857109e-02 2.282197e-01) (6.414128e-04 6.272934e-03 -1.193028e-04) (0.000000e+00 0.000000e+00 0.000000e+00))
1.200000e+02	((1.579203e+00 1.502509e+01 -2.138934e-18) (1.241649e-01 -1.269067e-02 5.753985e-20) (0.000000e+00 0.000000e+00 0.000000e+00)) ((-7.512546e-01 7.896016e-02 2.512897e-01) (6.345337e-04 6.208243e-03 -1.194243e-04) (0.000000e+00 0.000000e+00 0.000000e+00))
1.250000e+02	((1.584126e+00 1.507193e+01 -2.136218e-18) (1.230750e-01 -1.257757e-02 5.730589e-20) (0.000000e+00 0.000000e+00 0.000000e+00)) ((-7.535966e-01 7.920632e-02 2.637279e-01) (6.288787e-04 6.153748e-03 -1.194814e-04) (0.000000e+00 0.000000e+00 0.000000e+00))
1.300000e+02	((1.589080e+00 1.511906e+01 -2.128953e-18) (1.220622e-01 -1.247096e-02 5.728237e-20) (0.000000e+00 0.000000e+00 0.000000e+00)) ((-7.559531e-01 7.945400e-02 2.756432e-01) (6.235482e-04 6.103110e-03 -1.189351e-04) (0.000000e+00 0.000000e+00 0.000000e+00))
1.350000e+02	((1.592987e+00 1.515623e+01 -2.125790e-18) (1.212118e-01 -1.238408e-02 5.703375e-20) (0.000000e+00 0.000000e+00 0.000000e+00)) ((-7.578116e-01 7.964933e-02 2.868013e-01) (6.192040e-04 6.060589e-03 -1.187852e-04) (0.000000e+00 0.000000e+00 0.000000e+00))
1.400000e+02	((1.596545e+00 1.519009e+01 -2.123424e-18) (1.204037e-01 -1.229947e-02 5.724934e-20) (0.000000e+00 0.000000e+00 0.000000e+00)) ((-7.595044e-01 7.982725e-02 2.941435e-01) (6.149734e-04 6.020185e-03 -1.177265e-04) (0.000000e+00 0.000000e+00 0.000000e+00))
1.450000e+02	((1.599048e+00 1.521390e+01 -2.116793e-18) (1.197395e-01 -1.223229e-02 5.686143e-20) (0.000000e+00 0.000000e+00 0.000000e+00)) ((-7.606952e-01 7.995240e-02 3.032376e-01) (6.116147e-04 5.986974e-03 -1.174697e-04) (0.000000e+00 0.000000e+00 0.000000e+00))
1.500000e+02	((1.600072e+00 1.522365e+01 -2.111654e-18) (1.190986e-01 -1.216486e-02 5.701581e-20) (0.000000e+00 0.000000e+00 0.000000e+00)) ((-7.611823e-01 8.000360e-02 3.050700e-01) (6.082429e-04 5.954932e-03 -1.165803e-04) (0.000000e+00 0.000000e+00 0.000000e+00))
1.550000e+02	((1.600601e+00 1.522868e+01 -2.105489e-18) (1.185913e-01 -1.211366e-02 5.662712e-20) (0.000000e+00 0.000000e+00 0.000000e+00)) ((-7.614341e-01 8.003007e-02 3.099786e-01) (6.056831e-04 5.929563e-03 -1.166343e-04) (0.000000e+00 0.000000e+00 0.000000e+00))
1.600000e+02	((1.600303e+00 1.522584e+01 -2.101050e-18) (1.180911e-01 -1.206028e-02 5.681090e-20) (0.000000e+00 0.000000e+00 0.000000e+00)) ((-7.612922e-01 8.001515e-02 3.099953e-01) (6.030139e-04 5.904556e-03 -1.159757e-04) (0.000000e+00 0.000000e+00 0.000000e+00))
1.650000e+02	((1.598735e+00 1.521093e+01 -2.096101e-18) (1.177119e-01 -1.202169e-02 5.643458e-20) (0.000000e+00 0.000000e+00 0.000000e+00)) ((-7.605464e-01 7.993677e-02 3.099125e-01) (6.010847e-04 5.885597e-03 -1.160924e-04) (0.000000e+00 0.000000e+00 0.000000e+00))
1.700000e+02	((1.596924e+00 1.519369e+01 -2.085742e-18) (1.173298e-01 -1.198017e-02 5.640510e-20) (0.000000e+00 0.000000e+00 0.000000e+00)) ((-7.596846e-01 7.984619e-02 3.086870e-01) (5.990086e-04 5.866489e-03 -1.156816e-04) (0.000000e+00 0.000000e+00 0.000000e+00))
1.750000e+02	((1.594522e+00 1.517084e+01 -2.081184e-18) (1.170591e-01 -1.195208e-02 5.601477e-20) (0.000000e+00 0.000000e+00 0.000000e+00)) ((-7.585419e-01 7.972608e-02 3.076267e-01) (5.976039e-04 5.852957e-03 -1.161800e-04) (0.000000e+00 0.000000e+00 0.000000e+00))
1.800000e+02	((1.592071e+00 1.514752e+01 -2.077002e-18) (1.167739e-01 -1.192004e-02 5.619752e-20) (0.000000e+00 0.000000e+00 0.000000e+00)) ((-7.573760e-01 7.960355e-02 3.062719e-01) (5.960020e-04 5.838697e-03 -1.158695e-04) (0.000000e+00 0.000000e+00 0.000000e+00))
1.850000e+02	((1.589371e+00 1.512183e+01 -2.072135e-18) (1.165886e-01 -1.190050e-02 5.577749e-20) (0.000000e+00 0.000000e+00 0.000000e+00)) ((-7.560916e-01 7.946855e-02 3.045218e-01) (5.950250e-04 5.829432e-03 -1.165606e-04) (0.000000e+00 0.000000e+00 0.000000e+00))
1.900000e+02	((1.586658e+00 1.509602e+01 -2.063489e-18) (1.163809e-01 -1.187637e-02 5.580068e-20) (0.000000e+00 0.000000e+00 0.000000e+00)) ((-7.548009e-01 7.933289e-02 3.042663e-01) (5.938183e-04 5.819045e-03 -1.164234e-04) (0.000000e+00 0.000000e+00 0.000000e+00))
1.950000e+02	((1.583790e+00 1.506873e+01 -2.056446e-18) (1.162655e-01 -1.186380e-02 5.528793e-20) (0.000000e+00 0.000000e+00 0.000000e+00)) ((-7.534364e-01 7.918948e-02 3.039828e-01) (5.931901e-04 5.813274e-03 -1.171558e-04) (0.000000e+00 0.000000e+00 0.000000e+00))
2.000000e+02	((1.581080e+00 1.504295e+01 -2.051121e-18) (1.161207e-01 -1.184581e-02 5.542652e-20) (0.000000e+00 0.000000e+00 0.000000e+00)) ((-7.521475e-01 7.905401e-02 3.036780e-01) (5.922905e-04 5.806035e-03 -1.170337e-04) (0.000000e+00 0.000000e+00 0.000000e+00))
2.050000e+02	((1.578680e+00 1.502011e+01 -2.045529e-18) (1.160621e-01 -1.183927e-02 5.496066e-20) (0.000000e+00 0.000000e+00 0.000000e+00)) ((-7.510055e-01 7.893398e-02 3.039885e-01) (5.919635e-04 5.803104e-03 -1.178642e-04) (0.000000e+00 0.000000e+00 0.000000e+00))
2.100000e+02	((1.576284e+00 1.499731e+01 -2.040968e-18) (1.159680e-01 -1.182659e-02 5.512383e-20) (0.000000e+00 0.000000e+00 0.000000e+00)) ((-7.498657e-01 7.881418e-02 3.049931e-01) (5.913295e-04 5.798401e-03 -1.177124e-04) (0.000000e+00 0.000000e+00 0.000000e+00))
2.150000e+02	((1.573794e+00 1.497363e+01 -2.037568e-18) (1.159571e-01 -1.182497e-02 5.473228e-20) (0.000000e+00 0.000000e+00 0.000000e+00)) ((-7.486815e-01 7.868972e-02 3.057994e-01) (5.912485e-04 5.797857e-03 -1.185436e-04) (0.000000e+00 0.000000e+00 0.000000e+00))
2.200000e+02	((1.571599e+00 1.495274e+01 -2.034283e-18) (1.159057e-01 -1.181689e-02 5.494198e-20) (0.000000e+00 0.000000e+00 0.000000e+00)) ((-7.476370e-01 7.857994e-02 3.067271e-01) (5.908446e-04 5.795285e-03 -1.182995e-04) (0.000000e+00 0.000000e+00 0.000000e+00))
2.250000e+02	((1.569711e+00 1.493478e+01 -2.033887e-18) (1.159332e-01 -1.181942e-02 5.465047e-20) (0.000000e+00 0.000000e+00 0.000000e+00)) ((-7.467391e-01 7.848556e-02 3.074473e-01) (5.909711e-04 5.796660e-03 -1.191097e-04) (0.000000e+00 0.000000e+00 0.000000e+00))
2.300000e+02	((1.567743e+00 1.491606e+01 -2.030678e-18) (1.159161e-01 -1.181502e-02 5.486451e-20) (0.000000e+00 0.000000e+00 0.000000e+00)) ((-7.458028e-01 7.838715e-02 3.082727e-01) (5.907511e-04 5.795807e-03 -1.188440e-04) (0.000000e+00 0.000000e+00 0.000000e+00))
2.350000e+02	((1.565849e+00 1.489803e+01 -2.030564e-18) (1.159747e-01 -1.182095e-02 5.458395e-20) (0.000000e+00 0.000000e+00 0.000000e+00)) ((-7.449016e-01 7.829244e-02 3.088821e-01) (5.910477e-04 5.798736e-03 -1.195617e-04) (0.000000e+00 0.000000e+00 0.000000e+00))
2.400000e+02	((1.564070e+00 1.488111e+01 -2.027782e-18) (1.159839e-01 -1.181963e-02 5.480877e-20) (0.000000e+00 0.000000e+00 0.000000e+00)) ((-7.440554e-01 7.820349e-02 3.089677e-01) (5.909814e-04 5.799194e-03 -1.192360e-04) (0.000000e+00 0.000000e+00 0.000000e+00))
2.450000e+02	((1.562272e+00 1.486400e+01 -2.027564e-18) (1.160656e-01 -1.182831e-02 5.452130e-20) (0.000000e+00 0.000000e+00 0.000000e+00)) ((-7.432000e-01 7.811359e-02 3.091192e-01) (5.914156e-04 5.803280e-03 -1.199194e-04) (0.000000e+00 0.000000e+00 0.000000e+00))
2.500000e+02	((1.560399e+00 1.484618e+01 -2.027136e-18) (1.160935e-01 -1.182915e-02 5.483413e-20) (0.000000e+00 0.000000e+00 0.000000e+00)) ((-7.423090e-01 7.801994e-02 3.082910e-01) (5.914576e-04 5.804677e-03 -1.195026e-04) (0.000000e+00 0.000000e+00 0.000000e+00))
2.550000e+02	((1.559148e+00 1.483428e+01 -2.026617e-18) (1.161911e-01 -1.183973e-02 5.452640e-20) (0.000000e+00 0.000000e+00 0.000000e+00)) ((-7.417141e-01 7.795741e-02 3.082301e-01) (5.919867e-04 5.809553e-03 -1.201809e-04) (0.000000e+00 0.000000e+00 0.000000e+00))
2.600000e+02	((1.557399e+00 1.481764e+01 -2.025998e-18) (1.162306e-01 -1.184188e-02 5.483134e-20) (0.000000e+00 0.000000e+00 0.000000e+00)) ((-7.408818e-01 7.786993e-02 3.071762e-01) (5.920941e-04 5.811531e-03 -1.197029e-04) (0.000000e+00 0.000000e+00 0.000000e+00))
2.650000e+02	((1.555992e+00 1.480426e+01 -2.025713e-18) (1.163374e-01 -1.185360e-02 5.452823e-20) (0.000000e+00 0.000000e+00 0.000000e+00)) ((-7.402128e-01 7.779962e-02 3.061308e-01) (5.926800e-04 5.816870e-03 -1.203722e-04) (0.000000e+00 0.000000e+00 0.000000e+00))
2.700000e+02	((1.554649e+00 1.479147e+01 -2.025291e-18) (1.163828e-01 -1.185647e-02 5.483473e-20) (0.000000e+00 0.000000e+00 0.000000e+00)) ((-7.395736e-01 7.773243e-02 3.051997e-01) (5.928236e-04 5.819141e-03 -1.198970e-04) (0.000000e+00 0.000000e+00 0.000000e+00))
2.750000e+02	((1.553270e+00 1.477836e+01 -2.024799e-18) (1.164938e-01 -1.186879e-02 5.452223e-20) (0.000000e+00 0.000000e+00 0.000000e+00)) ((-7.389179e-01 7.766352e-02 3.038432e-01) (5.934393e-04 5.824688e-03 -1.205309e-04) (0.000000e+00 0.000000e+00 0.000000e+00))
2.800000e+02	((1.552025e+00 1.476651e+01 -2.024264e-18) (1.165405e-01 -1.187195e-02 5.482068e-20) (0.000000e+00 0.000000e+00 0.000000e+00)) ((-7.383253e-01 7.760124e-02 3.027343e-01) (5.935976e-04 5.827027e-03 -1.200477e-04) (0.000000e+00 0.000000e+00 0.000000e+00))
2.850000e+02	((1.550960e+00 1.475638e+01 -2.023976e-18) (1.166515e-01 -1.188431e-02 5.450990e-20) (0.000000e+00 0.000000e+00 0.000000e+00)) ((-7.378190e-01 7.754802e-02 3.015708e-01) (5.942157e-04 5.832574e-03 -1.206813e-04) (0.000000e+00 0.000000e+00 0.000000e+00))
2.900000e+02	((1.549896e+00 1.474625e+01 -2.023636e-18) (1.166968e-01 -1.188736e-02 5.481014e-20) (0.000000e+00 0.000000e+00 0.000000e+00)) ((-7.373127e-01 7.749480e-02 3.005276e-01) (5.943681e-04 5.834842e-03 -1.201949e-04) (0.000000e+00 0.000000e+00 0.000000e+00))
2.950000e+02	((1.548961e+00 1.473735e+01 -2.023332e-18) (1.168050e-01 -1.189952e-02 5.449870e-20) (0.000000e+00 0.000000e+00 0.000000e+00)) ((-7.368676e-01 7.744803e-02 2.993785e-01) (5.949760e-04 5.840248e-03 -1.208232e-04) (0.000000e+00 0.000000e+00 0.000000e+00))
3.000000e+02	((1.548068e+00 1.472886e+01 -2.023935e-18) (1.168463e-01 -1.190220e-02 5.482729e-20) (0.000000e+00 0.000000e+00 0.000000e+00)) ((-7.364432e-01 7.740342e-02 2.984388e-01) (5.951098e-04 5.842316e-03 -1.203320e-04) (0.000000e+00 0.000000e+00 0.000000e+00))
3.050000e+02	((1.547313e+00 1.472168e+01 -2.023668e-18) (1.169502e-01 -1.191400e-02 5.451615e-20) (0.000000e+00 0.000000e+00 0.000000e+00)) ((-7.360839e-01 7.736566e-02 2.974149e-01) (5.957002e-04 5.847511e-03 -1.209734e-04) (0.000000e+00 0.000000e+00 0.000000e+00))
3.100000e+02	((1.546672e+00 1.471558e+01 -2.023342e-18) (1.169861e-01 -1.191623e-02 5.480584e-20) (0.000000e+00 0.000000e+00 0.000000e+00)) ((-7.357790e-01 7.733360e-02 2.968498e-01) (5.958113e-04 5.849305e-03 -1.204675e-04) (0.000000e+00 0.000000e+00 0.000000e+00))
3.150000e+02	((1.546119e+00 1.471032e+01 -2.023793e-18) (1.170840e-01 -1.192739e-02 5.452311e-20) (0.000000e+00 0.000000e+00 0.000000e+00)) ((-7.355159e-01 7.730596e-02 2.960563e-01) (5.963697e-04 5.854199e-03 -1.210621e-04) (0.000000e+00 0.000000e+00 0.000000e+00))
3.200000e+02	((1.545655e+00 1.470590e+01 -2.024168e-18) (1.171137e-01 -1.192906e-02 5.483195e-20) (0.000000e+00 0.000000e+00 0.000000e+00)) ((-7.352952e-01 7.728276e-02 2.955222e-01) (5.964529e-04 5.855684e-03 -1.205708e-04) (0.000000e+00 0.000000e+00 0.000000e+00))
3.250000e+02	((1.545237e+00 1.470192e+01 -2.024510e-18) (1.172051e-01 -1.193970e-02 5.454759e-20) (0.000000e+00 0.000000e+00 0.000000e+00)) ((-7.350961e-01 7.726184e-02 2.950564e-01) (5.969849e-04 5.860254e-03 -1.211903e-04) (0.000000e+00 0.000000e+00 0.000000e+00))
3.300000e+02	((1.544906e+00 1.469877e+01 -2.024734e-18) (1.172277e-01 -1.194060e-02 5.485156e-20) (0.000000e+00 0.000000e+00 0.000000e+00)) ((-7.349387e-01 7.724528e-02 2.946463e-01) (5.970298e-04 5.861385e-03 -1.206720e-04) (0.000000e+00 0.000000e+00 0.000000e+00))
3.350000e+02	((1.544641e+00 1.469626e+01 -2.025000e-18) (1.173121e-01 -1.195059e-02 5.456355e-20) (0.000000e+00 0.000000e+00 0.000000e+00)) ((-7.348130e-01 7.723207e-02 2.941246e-01) (5.975296e-04 5.865604e-03 -1.212175e-04) (0.000000e+00 0.000000e+00 0.000000e+00))
3.400000e+02	((1.544439e+00 1.469433e+01 -2.025136e-18) (1.173276e-01 -1.195084e-02 5.486130e-20) (0.000000e+00 0.000000e+00 0.000000e+00)) ((-7.347167e-01 7.722196e-02 2.939148e-01) (5.975420e-04 5.866381e-03 -1.206937e-04) (0.000000e+00 0.000000e+00 0.000000e+00))
3.450000e+02	((1.544358e+00 1.469356e+01 -2.025220e-18) (1.174049e-01 -1.196011e-02 5.456759e-20) (0.000000e+00 0.000000e+00 0.000000e+00)) ((-7.346781e-01 7.721789e-02 2.935043e-01) (5.980056e-04 5.870245e-03 -1.212357e-04) (0.000000e+00 0.000000e+00 0.000000e+00))
3.500000e+02	((1.544247e+00 1.469250e+01 -2.025820e-18) (1.174132e-01 -1.195968e-02 5.487816e-20) (0.000000e+00 0.000000e+00 0.000000e+00)) ((-7.346251e-01 7.721233e-02 2.933043e-01) (5.979838e-04 5.870659e-03 -1.207070e-04) (0.000000e+00 0.000000e+00 0.000000e+00))
3.550000e+02	((1.544221e+00 1.469226e+01 -2.026622e-18) (1.174837e-01 -1.196833e-02 5.461341e-20) (0.000000e+00 0.000000e+00 0.000000e+00)) ((-7.346128e-01 7.721103e-02 2.930047e-01) (5.984165e-04 5.874184e-03 -1.212946e-04) (0.000000e+00 0.000000e+00 0.000000e+00))
3.600000e+02	((1.544181e+00 1.469188e+01 -2.026641e-18) (1.174849e-01 -1.196720e-02 5.490208e-20) (0.000000e+00 0.000000e+00 0.000000e+00)) ((-7.345938e-01 7.720904e-02 2.928577e-01) (5.983602e-04 5.874247e-03 -1.207411e-04) (0.000000e+00 0.000000e+00 0.000000e+00))
3.650000e+02	((1.544219e+00 1.469224e+01 -2.027403e-18) (1.175485e-01 -1.197519e-02 5.463789e-20) (0.000000e+00 0.000000e+00 0.000000e+00)) ((-7.346118e-01 7.721093e-02 2.926284e-01) (5.987594e-04 5.877424e-03 -1.212733e-04) (0.000000e+00 0.000000e+00 0.000000e+00))
3.700000e+02	((1.544246e+00 1.469250e+01 -2.027818e-18) (1.175431e-01 -1.197334e-02 5.493921e-20) (0.000000e+00 0.000000e+00 0.000000e+00)) ((-7.346250e-01 7.721231e-02 2.924118e-01) (5.986668e-04 5.877153e-03 -1.206837e-04) (0.000000e+00 0.000000e+00 0.000000e+00))
3.750000e+02	((1.544329e+00 1.469329e+01 -2.028150e-18) (1.176004e-01 -1.198070e-02 5.465875e-20) (0.000000e+00 0.000000e+00 0.000000e+00)) ((-7.346643e-01 7.721645e-02 2.922090e-01) (5.990351e-04 5.880019e-03 -1.212169e-04) (0.000000e+00 0.000000e+00 0.000000e+00))
3.800000e+02	((1.544398e+00 1.469395e+01 -2.028570e-18) (1.175889e-01 -1.197827e-02 5.495874e-20) (0.000000e+00 0.000000e+00 0.000000e+00)) ((-7.346973e-01 7.721992e-02 2.919963e-01) (5.989133e-04 5.879444e-03 -1.206666e-04) (0.000000e+00 0.000000e+00 0.000000e+00))
3.850000e+02	((1.544517e+00 1.469507e+01 -2.028765e-18) (1.176406e-01 -1.198508e-02 5.467467e-20) (0.000000e+00 0.000000e+00 0.000000e+00)) ((-7.347537e-01 7.722585e-02 2.918484e-01) (5.992541e-04 5.882028e-03 -1.212289e-04) (0.000000e+00 0.000000e+00 0.000000e+00))
3.900000e+02	((1.544590e+00 1.469577e+01 -2.029093e-18) (1.176235e-01 -1.198208e-02 5.497176e-20) (0.000000e+00 0.000000e+00 0.000000e+00)) ((-7.347886e-01 7.722951e-02 2.917648e-01) (5.991042e-04 5.881177e-03 -1.206721e-04) (0.000000e+00 0.000000e+00 0.000000e+00))
3.950000e+02	((1.544723e+00 1.469703e+01 -2.029372e-18) (1.176699e-01 -1.198834e-02 5.469271e-20) (0.000000e+00 0.000000e+00 0.000000e+00)) ((-7.348517e-01 7.723615e-02 2.916658e-01) (5.994169e-04 5.883496e-03 -1.211940e-04) (0.000000e+00 0.000000e+00 0.000000e+00))
4.000000e+02	((1.544854e+00 1.469829e+01 -2.029938e-18) (1.176479e-01 -1.198477e-02 5.499737e-20) (0.000000e+00 0.000000e+00 0.000000e+00)) ((-7.349143e-01 7.724272e-02 2.915474e-01) (5.992386e-04 5.882395e-03 -1.205916e-04) (0.000000e+00 0.000000e+00 0.000000e+00))
4.050000e+02	((1.544987e+00 1.469955e+01 -2.030234e-18) (1.176901e-01 -1.199060e-02 5.471741e-20) (0.000000e+00 0.000000e+00 0.000000e+00)) ((-7.349774e-01 7.724936e-02 2.914059e-01) (5.995298e-04 5.884504e-03 -1.211284e-04) (0.000000e+00 0.000000e+00 0.000000e+00))
4.100000e+02	((1.545111e+00 1.470073e+01 -2.030395e-18) (1.176641e-01 -1.198668e-02 5.500659e-20) (0.000000e+00 0.000000e+00 0.000000e+00)) ((-7.350363e-01 7.725555e-02 2.913910e-01) (5.993340e-04 5.883206e-03 -1.205767e-04) (0.000000e+00 0.000000e+00 0.000000e+00))
4.150000e+02	((1.545260e+00 1.470214e+01 -2.030688e-18) (1.177026e-01 -1.199211e-02 5.472865e-20) (0.000000e+00 0.000000e+00 0.000000e+00)) ((-7.351072e-01 7.726300e-02 2.913360e-01) (5.996055e-04 5.885128e-03 -1.211421e-04) (0.000000e+00 0.000000e+00 0.000000e+00))
4.200000e+02	((1.545406e+00 1.470354e+01 -2.030822e-18) (1.176731e-01 -1.198779e-02 5.501785e-20) (0.000000e+00 0.000000e+00 0.000000e+00)) ((-7.351768e-01 7.727031e-02 2.913827e-01) (5.993894e-04 5.883656e-03 -1.205529e-04) (0.000000e+00 0.000000e+00 0.000000e+00))
4.250000e+02	((1.545543e+00 1.470484e+01 -2.031040e-18) (1.177085e-01 -1.199287e-02 5.473685e-20) (0.000000e+00 0.000000e+00 0.000000e+00)) ((-7.352418e-01 7.727714e-02 2.913008e-01) (5.996434e-04 5.885423e-03 -1.210776e-04) (0.000000e+00 0.000000e+00 0.000000e+00))
4.300000e+02	((1.545684e+00 1.470618e+01 -2.031126e-18) (1.176765e-01 -1.198832e-02 5.502368e-20) (0.000000e+00 0.000000e+00 0.000000e+00)) ((-7.353091e-01 7.728422e-02 2.913603e-01) (5.994158e-04 5.883825e-03 -1.205242e-04) (0.000000e+00 0.000000e+00 0.000000e+00))
4.350000e+02	((1.545817e+00 1.470744e+01 -2.031289e-18) (1.177094e-01 -1.199314e-02 5.474223e-20) (0.000000e+00 0.000000e+00 0.000000e+00)) ((-7.353722e-01 7.729085e-02 2.914142e-01) (5.996571e-04 5.885468e-03 -1.210750e-04) (0.000000e+00 0.000000e+00 0.000000e+00))
4.400000e+02	((1.545937e+00 1.470859e+01 -2.031160e-18) (1.176754e-01 -1.198836e-02 5.502069e-20) (0.000000e+00 0.000000e+00 0.000000e+00)) ((-7.354294e-01 7.729687e-02 2.914231e-01) (5.994180e-04 5.883771e-03 -1.205096e-04) (0.000000e+00 0.000000e+00 0.000000e+00))
4.450000e+02	((1.546094e+00 1.471008e+01 -2.031425e-18) (1.177065e-01 -1.199299e-02 5.474265e-20) (0.000000e+00 0.000000e+00 0.000000e+00)) ((-7.355042e-01 7.730472e-02 2.914287e-01) (5.996495e-04 5.885323e-03 -1.210503e-04) (0.000000e+00 0.000000e+00 0.000000e+00))
4.500000e+02	((1.546210e+00 1.471118e+01 -2.031687e-18) (1.176708e-01 -1.198801e-02 5.503740e-20) (0.000000e+00 0.000000e+00 0.000000e+00)) ((-7.355590e-01 7.731048e-02 2.915290e-01) (5.994004e-04 5.883541e-03 -1.204776e-04) (0.000000e+00 0.000000e+00 0.000000e+00))
4.550000e+02	((1.546340e+00 1.471242e+01 -2.031607e-18) (1.177006e-01 -1.199251e-02 5.474665e-20) (0.000000e+00 0.000000e+00 0.000000e+00)) ((-7.356208e-01 7.731698e-02 2.915855e-01) (5.996255e-04 5.885031e-03 -1.210243e-04) (0.000000e+00 0.000000e+00 0.000000e+00))
4.600000e+02	((1.546428e+00 1.471326e+01 -2.031798e-18) (1.176639e-01 -1.198742e-02 5.503804e-20) (0.000000e+00 0.000000e+00 0.000000e+00)) ((-7.356630e-01 7.732141e-02 2.916168e-01) (5.993712e-04 5.883197e-03 -1.204672e-04) (0.000000e+00 0.000000e+00 0.000000e+00))
4.650000e+02	((1.546563e+00 1.471454e+01 -2.031998e-18) (1.176928e-01 -1.199182e-02 5.475802e-20) (0.000000e+00 0.000000e+00 0.000000e+00)) ((-7.357271e-01 7.732815e-02 2.916180e-01) (5.995911e-04 5.884642e-03 -1.210094e-04) (0.000000e+00 0.000000e+00 0.000000e+00))
4.700000e+02	((1.546658e+00 1.471545e+01 -2.031899e-18) (1.176554e-01 -1.198664e-02 5.504023e-20) (0.000000e+00 0.000000e+00 0.000000e+00)) ((-7.357723e-01 7.733291e-02 2.917845e-01) (5.993318e-04 5.882769e-03 -1.204353e-04) (0.000000e+00 0.000000e+00 0.000000e+00))
4.750000e+02	((1.546746e+00 1.471629e+01 -2.032052e-18) (1.176836e-01 -1.199094e-02 5.475901e-20) (0.000000e+00 0.000000e+00 0.000000e+00)) ((-7.358143e-01 7.733732e-02 2.917390e-01) (5.995470e-04 5.884182e-03 -1.209730e-04) (0.000000e+00 0.000000e+00 0.000000e+00))
4.800000e+02	((1.546824e+00 1.471703e+01 -2.031978e-18) (1.176460e-01 -1.198576e-02 5.504065e-20) (0.000000e+00 0.000000e+00 0.000000e+00)) ((-7.358513e-01 7.734121e-02 2.918273e-01) (5.992880e-04 5.882301e-03 -1.204214e-04) (0.000000e+00 0.000000e+00 0.000000e+00))
4.850000e+02	((1.546922e+00 1.471796e+01 -2.032121e-18) (1.176739e-01 -1.199002e-02 5.475960e-20) (0.000000e+00 0.000000e+00 0.000000e+00)) ((-7.358979e-01 7.734611e-02 2.918769e-01) (5.995011e-04 5.883696e-03 -1.209639e-04) (0.000000e+00 0.000000e+00 0.000000e+00))
4.900000e+02	((1.546995e+00 1.471865e+01 -2.032038e-18) (1.176362e-01 -1.198479e-02 5.504229e-20) (0.000000e+00 0.000000e+00 0.000000e+00)) ((-7.359325e-01 7.734974e-02 2.919434e-01) (5.992393e-04 5.881808e-03 -1.204037e-04) (0.000000e+00 0.000000e+00 0.000000e+00))
4.950000e+02	((1.547076e+00 1.471942e+01 -2.031994e-18) (1.176642e-01 -1.198909e-02 5.475345e-20) (0.000000e+00 0.000000e+00 0.000000e+00)) ((-7.359710e-01 7.735378e-02 2.919638e-01) (5.994544e-04 5.883210e-03 -1.209606e-04) (0.000000e+00 0.000000e+00 0.000000e+00))
5.000000e+02	((1.547107e+00 1.471972e+01 -2.032047e-18) (1.176266e-01 -1.198388e-02 5.504056e-20) (0.000000e+00 0.000000e+00 0.000000e+00)) ((-7.359859e-01 7.735535e-02 2.920567e-01) (5.991942e-04 5.881330e-03 -1.204104e-04) (0.000000e+00 0.000000e+00 0.000000e+00))
5.050000e+02	((1.547182e+00 1.472044e+01 -2.032010e-18) (1.176545e-01 -1.198812e-02 5.475460e-20) (0.000000e+00 0.000000e+00 0.000000e+00)) ((-7.360218e-01 7.735912e-02 2.920642e-01) (5.994062e-04 5.882727e-03 -1.209422e-04) (0.000000e+00 0.000000e+00 0.000000e+00))
5.100000e+02	((1.547211e+00 1.472071e+01 -2.031965e-18) (1.176172e-01 -1.198295e-02 5.503639e-20) (0.000000e+00 0.000000e+00 0.000000e+00)) ((-7.360354e-01 7.736056e-02 2.921390e-01) (5.991475e-04 5.880860e-03 -1.203939e-04) (0.000000e+00 0.000000e+00 0.000000e+00))
5.150000e+02	((1.547268e+00 1.472125e+01 -2.032049e-18) (1.176454e-01 -1.198721e-02 5.475588e-20) (0.000000e+00 0.000000e+00 0.000000e+00)) ((-7.360626e-01 7.736342e-02 2.921535e-01) (5.993605e-04 5.882268e-03 -1.209374e-04) (0.000000e+00 0.000000e+00 0.000000e+00))
5.200000e+02	((1.547294e+00 1.472150e+01 -2.032014e-18) (1.176084e-01 -1.198206e-02 5.503779e-20) (0.000000e+00 0.000000e+00 0.000000e+00)) ((-7.360749e-01 7.736471e-02 2.922069e-01) (5.991032e-04 5.880420e-03 -1.203871e-04) (0.000000e+00 0.000000e+00 0.000000e+00))
5.250000e+02	((1.547333e+00 1.472187e+01 -2.031996e-18) (1.176369e-01 -1.198636e-02 5.475369e-20) (0.000000e+00 0.000000e+00 0.000000e+00)) ((-7.360935e-01 7.736667e-02 2.922371e-01) (5.993182e-04 5.881846e-03 -1.209324e-04) (0.000000e+00 0.000000e+00 0.000000e+00))
5.300000e+02	((1.547358e+00 1.472210e+01 -2.031960e-18) (1.176004e-01 -1.198125e-02 5.503601e-20) (0.000000e+00 0.000000e+00 0.000000e+00)) ((-7.361051e-01 7.736788e-02 2.922753e-01) (5.990625e-04 5.880018e-03 -1.203814e-04) (0.000000e+00 0.000000e+00 0.000000e+00))
5.350000e+02	((1.547382e+00 1.472233e+01 -2.031965e-18) (1.176293e-01 -1.198559e-02 5.475226e-20) (0.000000e+00 0.000000e+00 0.000000e+00)) ((-7.361166e-01 7.736909e-02 2.923009e-01) (5.992796e-04 5.881466e-03 -1.209288e-04) (0.000000e+00 0.000000e+00 0.000000e+00))
5.400000e+02	((1.547400e+00 1.472251e+01 -2.031924e-18) (1.175932e-01 -1.198052e-02 5.503504e-20) (0.000000e+00 0.000000e+00 0.000000e+00)) ((-7.361254e-01 7.737002e-02 2.923454e-01) (5.990261e-04 5.879661e-03 -1.203787e-04) (0.000000e+00 0.000000e+00 0.000000e+00))
5.450000e+02	((1.547417e+00 1.472267e+01 -2.031979e-18) (1.176226e-01 -1.198491e-02 5.475276e-20) (0.000000e+00 0.000000e+00 0.000000e+00)) ((-7.361335e-01 7.737087e-02 2.923517e-01) (5.992453e-04 5.881131e-03 -1.209257e-04) (0.000000e+00 0.000000e+00 0.000000e+00))
5.500000e+02	((1.547427e+00 1.472276e+01 -2.031947e-18) (1.175870e-01 -1.197988e-02 5.503598e-20) (0.000000e+00 0.000000e+00 0.000000e+00)) ((-7.361380e-01 7.737133e-02 2.924064e-01) (5.989942e-04 5.879350e-03 -1.203773e-04) (0.000000e+00 0.000000e+00 0.000000e+00))
5.550000e+02	((1.547439e+00 1.472288e+01 -2.031963e-18) (1.176169e-01 -1.198431e-02 5.475251e-20) (0.000000e+00 0.000000e+00 0.000000e+00)) ((-7.361440e-01 7.737197e-02 2.923985e-01) (5.992155e-04 5.880844e-03 -1.209242e-04) (0.000000e+00 0.000000e+00 0.000000e+00))