/*--------------------------------*- C++ -*----------------------------------*\
| =========                 |                                                 |
| \\      /  F ield         | OpenFOAM: The Open Source CFD Toolbox           |
|  \\    /   O peration     | Version:  2.3.0                                 |
|   \\  /    A nd           | Web:      www.OpenFOAM.org                      |
|    \\/     M anipulation  |                                                 |
\*---------------------------------------------------------------------------*/
FoamFile
{
    version     2.0;
    format      ascii;
    class       surfaceScalarField;
    location    "1000";
    object      phi;
}
// * * * * * * * * * * * * * * * * * * * * * * * * * * * * * * * * * * * * * //

dimensions      [0 3 -1 0 0 0 0];

internalField   nonuniform List<scalar> 
72468
(
-0.00345202
-0.00720679
0.00790387
0.00275484
-0.00410401
-0.00695693
0.00760892
-0.00471271
-0.00671511
0.00732381
-0.00527871
-0.00648225
0.00704825
-0.00580387
-0.00625635
0.0067815
-0.00629059
-0.00603887
0.00652559
-0.00673892
-0.0058284
0.00627673
-0.00714943
-0.00562609
0.00603661
-0.0075265
-0.00542875
0.00580581
-0.00786842
-0.00523962
0.00558155
-0.00817779
-0.00505665
0.00536603
-0.00845529
-0.00487905
0.00515655
-0.00870426
-0.00470731
0.00495627
-0.00892222
-0.0045423
0.00476026
-0.00911383
-0.00438129
0.0045729
-0.00927773
-0.00422651
0.00439041
-0.00941833
-0.00407459
0.00421519
-0.00953309
-0.00392984
0.0040446
-0.00962646
-0.00378834
0.00388171
-0.00969899
-0.00365024
0.00372277
-0.00975199
-0.00351646
0.00356946
-0.00978685
-0.00338781
0.00342267
-0.00980537
-0.00326037
0.00327889
-0.00980892
-0.00313796
0.00314151
-0.00979756
-0.00301827
0.0030069
-0.00977451
-0.00290093
0.00287789
-0.00973893
-0.00278571
0.00275012
-0.00969053
-0.00267417
0.00262577
-0.00963229
-0.00256194
0.00250369
-0.00956121
-0.00245224
0.00238116
-0.00947898
-0.00234193
0.0022597
-0.00938118
-0.0022328
0.002135
-0.00926605
-0.00212177
0.00200664
-0.00913121
-0.0020106
0.00187576
-0.00897758
-0.00189353
0.0017399
-0.00879931
-0.0017759
0.00159763
-0.00859607
-0.00165032
0.00144707
-0.00836461
-0.00152009
0.00128864
-0.00810609
-0.0013802
0.00112168
-0.00781608
-0.00123489
0.000944876
-0.00749789
-0.0010756
0.000757414
-0.00714922
-0.000912685
0.000564013
-0.000738578
-0.00686323
0.000452586
-0.00313734
-0.00658302
0.00251358
-0.00371958
-0.00637469
-0.00426077
-0.00617393
-0.00476354
-0.00597948
-0.00522809
-0.00579179
-0.00565737
-0.00560959
-0.00605123
-0.00543454
-0.00641262
-0.0052647
-0.00674018
-0.00510119
-0.00703735
-0.00494246
-0.00730462
-0.00478938
-0.00754265
-0.00464102
-0.0077526
-0.00449736
-0.00793705
-0.00435784
-0.0080942
-0.00422414
-0.00822724
-0.00409348
-0.0083363
-0.00396553
-0.00842276
-0.00384338
-0.00848745
-0.00372365
-0.00853102
-0.00360668
-0.00855415
-0.00349333
-0.00855963
-0.00338233
-0.00854745
-0.00327255
-0.00851817
-0.00316724
-0.00847322
-0.00306321
-0.0084142
-0.00295996
-0.00834086
-0.00285904
-0.0082566
-0.00275843
-0.00816001
-0.00265852
-0.00805322
-0.00255903
-0.00793464
-0.00246051
-0.00780823
-0.00235921
-0.00767181
-0.00225819
-0.00752795
-0.00215447
-0.00736934
-0.00205214
-0.00720194
-0.0019433
-0.00701705
-0.00183521
-0.00681346
-0.00172368
-0.00658161
-0.00161205
-0.00631959
-0.00149691
-0.00601086
-0.00138433
-0.00564718
-0.00127637
-0.00117133
-0.00521443
-0.00284929
-0.00602496
0.00229123
-0.00336841
-0.00585557
-0.00385143
-0.00569091
-0.00429892
-0.00553199
-0.00471207
-0.00537864
-0.00509186
-0.0052298
-0.00543987
-0.00508652
-0.0057572
-0.00494737
-0.00604553
-0.00481286
-0.00630464
-0.00468335
-0.00653689
-0.00455714
-0.00674276
-0.00443515
-0.006923
-0.00431712
-0.00707905
-0.0042018
-0.00721144
-0.00409175
-0.00732244
-0.00398248
-0.00740978
-0.00387818
-0.00747753
-0.00377563
-0.00752627
-0.00367491
-0.00755436
-0.00357859
-0.00756515
-0.00348255
-0.00755881
-0.00338866
-0.00753422
-0.00329714
-0.00749502
-0.00320644
-0.00744105
-0.00311718
-0.00737203
-0.00302899
-0.00729067
-0.0029404
-0.00719418
-0.00285492
-0.00708566
-0.00276704
-0.00696418
-0.00268051
-0.00683236
-0.00259233
-0.00668841
-0.00250316
-0.00653362
-0.00241298
-0.00636521
-0.00232287
-0.00618775
-0.0022296
-0.00599587
-0.00213518
-0.00579228
-0.00203879
-0.00557574
-0.00194023
-0.00534568
-0.00184211
-0.00509783
-0.00174475
-0.00483293
-0.00164923
-0.00455277
-0.00155654
-0.00147239
-0.00425171
-0.00258399
-0.00552571
0.00208474
-0.00304934
-0.00539022
-0.00348125
-0.005259
-0.0038798
-0.00513343
-0.00424839
-0.00501006
-0.00458585
-0.00489234
-0.00489457
-0.0047778
-0.00517558
-0.00466637
-0.00542932
-0.00455913
-0.00565816
-0.0044545
-0.00586094
-0.00435435
-0.00604051
-0.00425558
-0.00619739
-0.00416024
-0.00633033
-0.00406885
-0.00644442
-0.00397766
-0.00653672
-0.00389019
-0.00660954
-0.00380536
-0.00666445
-0.00372072
-0.00669942
-0.00363994
-0.00671827
-0.00355973
-0.00672044
-0.00348037
-0.0067063
-0.00340281
-0.00667695
-0.0033265
-0.00663253
-0.00325086
-0.00657563
-0.00317407
-0.00650514
-0.00309948
-0.00642024
-0.0030253
-0.00632632
-0.00294884
-0.00621868
-0.00287468
-0.00610147
-0.00279772
-0.00597196
-0.00272184
-0.00583224
-0.00264288
-0.00568164
-0.00256357
-0.0055214
-0.00248311
-0.00535157
-0.00239944
-0.00517092
-0.00231583
-0.00497892
-0.0022308
-0.00477534
-0.00214381
-0.00456097
-0.00205647
-0.0043341
-0.00197162
-0.00409593
-0.0018874
-0.00384524
-0.00180722
-0.00173378
-0.00358385
-0.0023437
-0.00507746
0.00189545
-0.00276021
-0.0049737
-0.00314603
-0.00487318
-0.00350337
-0.00477609
-0.00383158
-0.00468184
-0.00413282
-0.0045911
-0.00440852
-0.0045021
-0.00465744
-0.00441745
-0.00488313
-0.00433344
-0.00508458
-0.00425305
-0.00526368
-0.00417525
-0.00542108
-0.00409818
-0.00555755
-0.00402377
-0.00567512
-0.00395128
-0.00577204
-0.00388073
-0.00585034
-0.00381189
-0.00591204
-0.00374366
-0.00595601
-0.00367675
-0.00598383
-0.00361213
-0.00599619
-0.00354737
-0.00599295
-0.00348362
-0.00597521
-0.00342054
-0.00594376
-0.00335794
-0.00589948
-0.00329514
-0.00584111
-0.00323245
-0.00577122
-0.00316936
-0.00569116
-0.00310536
-0.00559859
-0.00304141
-0.00549599
-0.00297728
-0.00538266
-0.00291105
-0.00525993
-0.00284457
-0.00512679
-0.00277602
-0.0049849
-0.00270546
-0.00483346
-0.00263456
-0.00467226
-0.00256064
-0.0045028
-0.00248529
-0.00432539
-0.00240821
-0.00413882
-0.00233038
-0.00394171
-0.00225358
-0.00373794
-0.00217539
-0.00352419
-0.00210116
-0.00330309
-0.00202831
-0.00196116
-0.00307572
-0.00212379
-0.00467424
0.00172057
-0.00249813
-0.00459937
-0.00284515
-0.00452616
-0.00316479
-0.00445645
-0.00345869
-0.00438795
-0.00372819
-0.0043216
-0.00397289
-0.0042574
-0.0041961
-0.00419424
-0.00439595
-0.00413359
-0.00457513
-0.00407386
-0.00473406
-0.00401633
-0.00487358
-0.00395866
-0.00499319
-0.00390416
-0.00509489
-0.00384959
-0.00517949
-0.00379614
-0.0052485
-0.00374288
-0.00530017
-0.003692
-0.00533649
-0.00364043
-0.00535951
-0.00358911
-0.00536681
-0.00354006
-0.00536074
-0.0034897
-0.00534173
-0.00343955
-0.0053097
-0.00338997
-0.00526536
-0.00333948
-0.00521009
-0.00328772
-0.00514332
-0.00323613
-0.00506591
-0.00318278
-0.00497905
-0.00312827
-0.00488319
-0.00307315
-0.00477669
-0.00301754
-0.00466279
-0.00295846
-0.00453907
-0.00289974
-0.00440723
-0.00283731
-0.00426781
-0.00277398
-0.00411956
-0.00270888
-0.00396325
-0.00264159
-0.00379884
-0.00257262
-0.00362665
-0.00250256
-0.00344954
-0.0024307
-0.00326411
-0.00236081
-0.00307242
-0.00229284
-0.0028743
-0.00222644
-0.00216499
-0.00267047
-0.00192384
-0.00431126
0.00156087
-0.00226089
-0.00426232
-0.00257185
-0.0042152
-0.00285984
-0.00416846
-0.00312321
-0.00412458
-0.00336454
-0.00408027
-0.00358423
-0.00403771
-0.00378254
-0.00399593
-0.00396167
-0.00395446
-0.00412167
-0.00391386
-0.00426326
-0.00387473
-0.00438596
-0.00383596
-0.00449256
-0.00379756
-0.00458273
-0.00375941
-0.00465736
-0.00372151
-0.00471566
-0.00368458
-0.0047614
-0.00364626
-0.00479207
-0.00360975
-0.00480866
-0.00357252
-0.00481375
-0.00353497
-0.00480707
-0.00349638
-0.00478734
-0.00345929
-0.00475649
-0.00342082
-0.0047148
-0.00338117
-0.00466149
-0.00334103
-0.00459794
-0.00329968
-0.00452659
-0.00325413
-0.00444479
-0.00321007
-0.0043552
-0.00316273
-0.00425801
-0.00311474
-0.00415116
-0.00306532
-0.00403828
-0.00301262
-0.0039167
-0.00295889
-0.00378745
-0.00290322
-0.00365166
-0.00284467
-0.00350791
-0.00278535
-0.00335801
-0.00272252
-0.00320302
-0.00265755
-0.00304095
-0.00259277
-0.0028727
-0.00252906
-0.00269999
-0.00246556
-0.00252081
-0.00240561
-0.00234729
-0.00233851
-0.00174424
-0.00398462
0.00141759
-0.00204696
-0.0039596
-0.00232727
-0.00393489
-0.00258471
-0.00391102
-0.00282171
-0.00388758
-0.00303855
-0.00386342
-0.00323581
-0.00384045
-0.00341459
-0.00381715
-0.00357449
-0.00379456
-0.00371621
-0.00377215
-0.00384256
-0.00374838
-0.00395292
-0.00372559
-0.00404805
-0.00370244
-0.00412769
-0.00367977
-0.00419278
-0.00365642
-0.00424521
-0.00363215
-0.00428314
-0.00360832
-0.00430979
-0.0035831
-0.00432415
-0.00355816
-0.00432715
-0.00353197
-0.00431767
-0.00350586
-0.00429942
-0.00347753
-0.00427068
-0.00344957
-0.00423109
-0.00342075
-0.00418181
-0.00339031
-0.00412347
-0.00335802
-0.00405541
-0.00332219
-0.00398005
-0.00328544
-0.00389664
-0.00324614
-0.00380627
-0.00320512
-0.00370845
-0.00316313
-0.00360429
-0.00311678
-0.00349228
-0.0030709
-0.00337577
-0.00301973
-0.00325173
-0.00296872
-0.00312152
-0.00291556
-0.00298474
-0.0028593
-0.00284199
-0.0028003
-0.00269435
-0.00274041
-0.00254261
-0.0026808
-0.00238616
-0.00262201
-0.00222629
-0.00256549
-0.00251257
-0.00206101
-0.00157995
0.00128538
-0.00369005
-0.00185299
-0.00368655
-0.00210527
-0.00368262
-0.00233789
-0.00367839
-0.00255121
-0.00367427
-0.00274543
-0.0036692
-0.00292325
-0.00366264
-0.00308331
-0.00365709
-0.00322727
-0.00365059
-0.00335528
-0.00364414
-0.00346742
-0.00363624
-0.00356639
-0.00362662
-0.00365137
-0.00361746
-0.0037219
-0.00360925
-0.00378012
-0.0035982
-0.0038256
-0.00358666
-0.0038599
-0.00357403
-0.00388217
-0.00356083
-0.00389465
-0.00354568
-0.00389577
-0.00353085
-0.00388572
-0.00351591
-0.00386775
-0.0034955
-0.00384151
-0.0034758
-0.00380613
-0.00345614
-0.00376141
-0.00343503
-0.00370672
-0.0034127
-0.00364362
-0.00338529
-0.0035744
-0.00335466
-0.00349809
-0.00332244
-0.0034152
-0.00328801
-0.00332646
-0.00325186
-0.00322911
-0.00321412
-0.00312784
-0.00317217
-0.00301992
-0.00312765
-0.00290778
-0.00308086
-0.00278947
-0.00303386
-0.0026655
-0.00298327
-0.00253416
-0.00293164
-0.00240003
-0.00287454
-0.00226157
-0.00281926
-0.00211842
-0.00276515
-0.00197416
-0.00270976
-0.00182298
-0.00266374
-0.00588588
-0.000629659
-0.000347692
-0.00519288
-0.000621963
-7.10334e-05
-0.0046223
-0.000640028
6.94472e-05
-0.00412806
-0.00066983
0.000175587
-0.00368788
-0.000708011
0.00026783
-0.00328776
-0.000753126
0.000353009
-0.00291932
-0.000802637
0.000434194
-0.00257878
-0.000853588
0.000513053
-0.00225941
-0.000909392
0.000590018
-0.00196015
-0.000965866
0.000666607
-0.0016787
-0.00102533
0.000743872
-0.00141229
-0.00108687
0.000820468
-0.00116124
-0.00115026
0.000899214
-0.000924862
-0.00121422
0.000977843
-0.000701367
-0.00128225
0.00105876
-0.000491946
-0.00135036
0.00114094
-0.000295647
-0.00142135
0.00122505
-0.000113128
-0.00149467
0.00131215
5.65697e-05
-0.00157042
0.00140072
0.0002121
-0.0016482
0.00149267
0.000353707
-0.00172881
0.0015872
0.000481053
-0.00181286
0.00168552
0.000593611
-0.00189905
0.00178649
0.000690917
-0.00198906
0.00189175
0.000772339
-0.00208253
0.0020011
0.000837619
-0.00217921
0.00211393
0.000885205
-0.00227977
0.00223218
0.000914661
-0.00238395
0.00235449
0.00092521
-0.00249284
0.00248229
0.000916701
-0.00260617
0.00261468
0.000886564
-0.0027233
0.00275343
0.000835633
-0.00284622
0.00289715
0.000760969
-0.00297289
0.00304755
0.000663105
-0.00310596
0.00320383
0.000539793
-0.00324397
0.00336728
0.000390375
-0.00338759
0.00353701
0.000213101
-0.00353725
0.00371453
6.68103e-06
-0.00369332
0.00389974
-0.000229461
-0.00385588
0.00409202
-0.000497765
-0.00402499
0.00429329
-0.000799439
-0.00420156
0.00450323
-0.0011357
-0.00438588
0.00472214
-0.00457779
0.00495047
-0.00150838
-0.0047415
-0.00110258
-0.00428995
-0.00107352
-0.0038714
-0.00105858
-0.0034813
-0.00105993
-0.00311939
-0.00106992
-0.00278266
-0.00108986
-0.00246848
-0.00111681
-0.00217249
-0.00114958
-0.00189576
-0.00118612
-0.00163465
-0.00122697
-0.00138806
-0.00127192
-0.00115501
-0.00131992
-0.000936184
-0.00136909
-0.000728841
-0.00142157
-0.000534595
-0.0014765
-0.000350696
-0.00153426
-0.000179667
-0.00159238
-2.02675e-05
-0.00165407
0.000127365
-0.00171805
0.000262999
-0.00178383
0.000386251
-0.00185206
0.000496239
-0.00192285
0.000592994
-0.00199581
0.000675998
-0.00207206
0.000744652
-0.00215118
0.00079832
-0.00223288
0.00083628
-0.00231773
0.000857836
-0.0024055
0.000862631
-0.00249763
0.000848826
-0.00259237
0.000816789
-0.00269126
0.000764261
-0.0027937
0.000691736
-0.00290036
0.000597485
-0.00301171
0.000480327
-0.00312681
0.000339652
-0.00324692
0.000174233
-0.00337183
-1.68648e-05
-0.00350223
-0.000235682
-0.00363706
-0.000482667
-0.003778
-0.000759282
-0.00392494
-0.00106763
-0.00407753
-0.00423702
-0.00140839
-0.00393843
-0.00141586
-0.0036242
-0.00138775
-0.00331226
-0.00137051
-0.00301051
-0.00136168
-0.00271858
-0.00136185
-0.00243901
-0.00136943
-0.00217083
-0.00138499
-0.00191533
-0.00140508
-0.00167107
-0.00143038
-0.00143908
-0.00145897
-0.0012178
-0.0014932
-0.00100894
-0.00152879
-0.000809772
-0.00156825
-0.000621275
-0.00161007
-0.00044385
-0.00165392
-0.000277587
-0.00170052
-0.000121893
-0.00174807
2.30517e-05
-0.00179901
0.000156442
-0.00185144
0.000278582
-0.00190597
0.000389179
-0.00196266
0.000487311
-0.00202098
0.000573613
-0.00208211
0.000647073
-0.00214552
0.000706278
-0.00221039
0.000752077
-0.00227868
0.00078345
-0.0023491
0.000799675
-0.00242173
0.000799738
-0.00249769
0.000783853
-0.00257648
0.000750605
-0.00265801
0.000699522
-0.00274261
0.000629771
-0.00283061
0.000540238
-0.00292218
0.000430404
-0.00301698
0.000298913
-0.00311543
0.000145425
-0.00321835
-3.22089e-05
-0.00332459
-0.000233857
-0.00343541
-0.000461064
-0.00355079
-0.000715484
-0.00367052
-0.000997717
-0.0037953
-0.00392554
-0.0013092
-0.00331866
-0.00168105
-0.00305412
-0.0016523
-0.00279381
-0.00163082
-0.00253893
-0.00161657
-0.00229187
-0.0016089
-0.00205254
-0.00160876
-0.00182254
-0.00161499
-0.00160188
-0.00162574
-0.00139086
-0.00164141
-0.00118782
-0.00166201
-0.000995295
-0.00168572
-0.00081158
-0.0017125
-0.000636905
-0.00174293
-0.000472442
-0.00177453
-0.000316488
-0.00180988
-0.00017096
-0.00184605
-3.3512e-05
-0.00188552
9.31453e-05
-0.00192567
0.000210035
-0.00196833
0.000316285
-0.00201222
0.000412168
-0.00205854
0.000497314
-0.00210613
0.000570822
-0.00215562
0.000632802
-0.0022075
0.000683204
-0.00226079
0.000720153
-0.00231563
0.000744547
-0.0023735
0.000755194
-0.00243238
0.000751508
-0.00249401
0.000732655
-0.00255763
0.000698201
-0.00262356
0.000647811
-0.00269222
0.000580241
-0.00276304
0.000494829
-0.00283677
0.000391154
-0.0029133
0.000268186
-0.00299246
0.000124684
-0.00307484
-3.95213e-05
-0.00316039
-0.000226082
-0.00324885
-0.000435453
-0.00334142
-0.000669351
-0.00343662
-0.000928034
-0.00353662
-0.00364013
-0.00121344
-0.0028451
-0.00191167
-0.0026161
-0.00188129
-0.00239223
-0.00185469
-0.00217226
-0.00183654
-0.00195849
-0.00182267
-0.00175132
-0.00181593
-0.00155058
-0.00181573
-0.0013573
-0.00181902
-0.00117114
-0.00182757
-0.000993583
-0.00183956
-0.000822758
-0.00185654
-0.000660139
-0.00187512
-0.00050643
-0.00189664
-0.000359921
-0.00192104
-0.000222001
-0.0019478
-9.21602e-05
-0.00197589
2.81436e-05
-0.00200583
0.000140532
-0.00203806
0.000243516
-0.00207132
0.00033744
-0.00210615
0.000421417
-0.00214252
0.000496219
-0.00218093
0.00056039
-0.00221979
0.000613569
-0.00226068
0.000655377
-0.0023026
0.000686716
-0.00234697
0.000705208
-0.00239199
0.000711285
-0.00243845
0.000704526
-0.00248725
0.000684234
-0.00253734
0.00064971
-0.00258903
0.000600713
-0.00264323
0.000536212
-0.00269854
0.000455607
-0.00275616
0.00035829
-0.00281599
0.00024335
-0.00287752
0.000110192
-0.00294169
-4.22561e-05
-0.00300794
-0.000214281
-0.00307683
-0.000407501
-0.0031482
-0.000621918
-0.00322221
-0.00085984
-0.0032987
-0.00337875
-0.00112122
-0.00246537
-0.00211677
-0.00226364
-0.00208303
-0.00206489
-0.00205344
-0.00187204
-0.00202939
-0.00168322
-0.00201148
-0.00149946
-0.0019997
-0.00132275
-0.00199243
-0.00115247
-0.00198931
-0.000987034
-0.001993
-0.000828712
-0.00199788
-0.000678202
-0.00200705
-0.000533464
-0.00201986
-0.000396217
-0.00203389
-0.000266404
-0.00205085
-0.000144248
-0.00206995
-2.86397e-05
-0.0020915
7.88627e-05
-0.00211333
0.000177515
-0.00213671
0.000268846
-0.00216265
0.000351431
-0.00218873
0.00042553
-0.00221661
0.000489802
-0.0022452
0.000545505
-0.00227549
0.00059119
-0.00230636
0.000627418
-0.00233882
0.000652333
-0.00237188
0.000666883
-0.00240654
0.000669854
-0.00244143
0.00066101
-0.0024784
0.000639823
-0.00251615
0.000605658
-0.00255487
0.000557988
-0.00259556
0.000496519
-0.00263707
0.000420885
-0.00268053
0.000329201
-0.0027243
0.000222575
-0.00277089
9.85044e-05
-0.00281762
-4.19936e-05
-0.00286744
-0.000200892
-0.00291793
-0.000378749
-0.00297035
-0.000575881
-0.00302507
-0.000793602
-0.00308097
-0.00313924
-0.00103311
-0.00215458
-0.0023007
-0.00197427
-0.00226334
-0.00179792
-0.00222978
-0.00162574
-0.00220157
-0.00145754
-0.00217968
-0.00129458
-0.00216266
-0.00113685
-0.00215016
-0.000983072
-0.00214309
-0.000837123
-0.00213895
-0.000696395
-0.00213861
-0.000561164
-0.00214228
-0.000432268
-0.00214876
-0.000310131
-0.00215602
-0.000194069
-0.00216691
-8.41493e-05
-0.00217987
1.75014e-05
-0.00219315
0.000112998
-0.00220882
0.0002016
-0.00222531
0.000282504
-0.00224355
0.000355428
-0.00226165
0.000420735
-0.00228192
0.00047761
-0.00230208
0.000526214
-0.00232409
0.000566166
-0.00234632
0.000596582
-0.00236924
0.000617581
-0.00239288
0.000627838
-0.0024168
0.000628859
-0.00244245
0.000618329
-0.00246787
0.000596649
-0.00249447
0.000563719
-0.00252194
0.000518156
-0.00254999
0.000460371
-0.00257928
0.000388819
-0.00260898
0.000304054
-0.00263954
0.000204208
-0.00267105
9.02411e-05
-0.00270365
-4.0264e-05
-0.00273694
-0.0001868
-0.00277139
-0.000349801
-0.00280735
-0.000531046
-0.00284383
-0.00073033
-0.00288169
-0.0029202
-0.000949371
-0.00189526
-0.00246645
-0.00173392
-0.00242468
-0.00157504
-0.00238866
-0.00141951
-0.0023571
-0.00126863
-0.00233056
-0.00112305
-0.00230824
-0.000981622
-0.00229159
-0.000845191
-0.00227952
-0.000713354
-0.00227079
-0.000587177
-0.00226478
-0.000466502
-0.00226296
-0.000351367
-0.00226389
-0.000241149
-0.00226624
-0.000137618
-0.00227044
-3.98084e-05
-0.00227768
5.20125e-05
-0.00228497
0.00013756
-0.00229437
0.000216458
-0.00230421
0.000287762
-0.00231486
0.000352925
-0.00232682
0.00041076
-0.00233976
0.000461416
-0.00235274
0.000503979
-0.00236666
0.000538232
-0.00238057
0.000564188
-0.0023952
0.000581188
-0.00240988
0.000589766
-0.00242537
0.000588251
-0.00244093
0.000577346
-0.00245697
0.000556046
-0.00247317
0.000523867
-0.00248976
0.000481206
-0.00250733
0.000426565
-0.00252464
0.000359993
-0.00254241
0.000280634
-0.00256018
0.000188431
-0.00257884
8.23676e-05
-0.00259759
-3.76172e-05
-0.00261695
-0.000172045
-0.00263696
-0.00032217
-0.00265722
-0.000488217
-0.00267778
-0.000671323
-0.00269859
-0.00271995
-0.000871569
-0.00167549
-0.00261395
-0.00152985
-0.00257032
-0.00138639
-0.00253212
-0.00124684
-0.00249665
-0.00111136
-0.00246604
-0.000978967
-0.00244063
-0.000851914
-0.00241865
-0.000728248
-0.00240318
-0.000611206
-0.00238783
-0.00049761
-0.00237838
-0.000389015
-0.00237155
-0.000285241
-0.00236767
-0.000188488
-0.00236299
-9.5235e-05
-0.0023637
-6.20868e-06
-0.00236671
7.63728e-05
-0.00236755
0.000151877
-0.00236988
0.000222483
-0.00237482
0.000286568
-0.00237894
0.000344707
-0.00238496
0.000396257
-0.00239131
0.000441163
-0.00239764
0.000478591
-0.00240409
0.000508798
-0.00241078
0.000530536
-0.00241693
0.000545282
-0.00242463
0.000551561
-0.00243165
0.000549044
-0.00243842
0.000537381
-0.00244531
0.000516858
-0.00245265
0.000486414
-0.00245932
0.000446331
-0.00246725
0.000394781
-0.00247309
0.000332396
-0.00248002
0.000259089
-0.00248687
0.000173873
-0.00249363
7.60327e-05
-0.00249975
-3.41771e-05
-0.00250674
-0.000158205
-0.00251294
-0.00029601
-0.00251942
-0.000448162
-0.00252563
-0.000615431
-0.00253132
-0.000798302
-0.00253708
0.000394805
0.00466413
-0.00507016
1.123e-05
0.000759646
0.00444198
-0.00480682
0.00108546
0.00423072
-0.00455653
0.00137502
0.00402997
-0.00431953
0.00163086
0.00383905
-0.00409489
0.00185476
0.00365785
-0.00388175
0.002049
0.00348564
-0.00367988
0.00221593
0.00332198
-0.00348891
0.00235679
0.00316633
-0.0033072
0.00247375
0.00301843
-0.00313539
0.00256804
0.00287803
-0.00297232
0.00264169
0.00274392
-0.00281758
0.00269527
0.002617
-0.00267058
0.00273122
0.00249554
-0.00253148
0.00274998
0.00238031
-0.00239908
0.00275309
0.00227057
-0.00227368
0.00274161
0.00216563
-0.00215415
0.0027167
0.00206597
-0.00204105
0.00267919
0.00197056
-0.00193305
0.00263006
0.00187997
-0.00183084
0.00257035
0.00179321
-0.0017335
0.00250073
0.00171037
-0.00164074
0.00242229
0.00163123
-0.0015528
0.00233544
0.00155564
-0.00146879
0.00224147
0.00148302
-0.00138904
0.0021405
0.00141371
-0.00131274
0.00203358
0.00134725
-0.00124033
0.00192127
0.00128352
-0.0011712
0.00180425
0.00122207
-0.00110504
0.0016833
0.00116299
-0.00104204
0.00155887
0.00110595
-0.000981528
0.00143167
0.0010511
-0.000923898
0.00130216
0.000997781
-0.00086827
0.00117117
0.000945989
-0.000815005
0.00103937
0.00089521
-0.000763401
0.000907385
0.000845482
-0.000713502
0.000776044
0.000796093
-0.000664751
0.000646139
0.000746683
-0.000616777
0.000518525
0.000696444
-0.00056883
0.000394099
0.000644128
-0.000519701
0.000272386
0.000589037
-0.000467323
0.000140849
0.000540272
-0.000408734
0.000591274
-0.000106464
-0.000343961
0.000358147
0.0042947
1.12784e-05
0.000690776
0.00410935
0.000989022
0.00393248
0.00125477
0.00376422
0.00148998
0.00360383
0.00169686
0.00345098
0.00187716
0.00330533
0.00203233
0.00316681
0.00216402
0.00303464
0.00227397
0.00290849
0.00236354
0.00278846
0.00243366
0.00267381
0.00248629
0.00256437
0.00252185
0.00245998
0.00254208
0.00236009
0.0025477
0.00226495
0.00253946
0.00217386
0.00251895
0.00208648
0.00248635
0.00200316
0.00244315
0.00192317
0.00238963
0.00184673
0.002327
0.001773
0.00225574
0.0017025
0.00217665
0.00163473
0.0020903
0.00156936
0.00199738
0.00150663
0.00189865
0.00144598
0.00179479
0.00138738
0.00168623
0.00133063
0.00157349
0.00127573
0.00145706
0.00122238
0.00133812
0.00117004
0.00121682
0.00111908
0.00109385
0.00106896
0.00096967
0.00101939
0.000845254
0.000969899
0.000721097
0.00092025
0.000598116
0.000869665
0.000476993
0.000817567
0.000358036
0.000763085
0.000237859
0.000709215
9.85822e-05
0.000679549
0.000804385
-0.000114528
0.000324964
0.00395875
1.09859e-05
0.000628062
0.00380625
0.000900123
0.00366042
0.00114328
0.00352107
0.00135916
0.00338796
0.0015493
0.00326084
0.00171551
0.00313912
0.00185893
0.00302339
0.00198137
0.00291221
0.00208372
0.00280613
0.00216757
0.00270461
0.00223386
0.00260752
0.00228366
0.00251457
0.00231811
0.00242553
0.00233823
0.00233997
0.00234495
0.00225823
0.00233919
0.00217962
0.00232161
0.00210406
0.0022932
0.00203158
0.0022547
0.00196166
0.00220692
0.00189451
0.00215007
0.00182986
0.00208543
0.00176714
0.00201341
0.00170674
0.00193444
0.00164833
0.0018494
0.00159167
0.00175869
0.00153669
0.00166294
0.00148313
0.00156266
0.00143091
0.00145849
0.00137989
0.00135105
0.00132983
0.00124034
0.00128075
0.00112745
0.00123197
0.00101297
0.00118344
0.000897255
0.00113511
0.00078087
0.00108628
0.000664607
0.00103651
0.00054913
0.000985143
0.000435068
0.000931629
0.000321858
0.000876295
0.000205537
0.000825537
6.85047e-05
0.000816582
0.000989715
-0.000116825
0.00029474
0.00365325
1.07615e-05
0.000570706
0.00353029
0.000819104
0.00341202
0.00104158
0.00329859
0.00123915
0.00319039
0.00141384
0.00308615
0.0015664
0.00298656
0.00169903
0.00289076
0.00181215
0.0027991
0.00190725
0.00271103
0.00198514
0.00262673
0.00204725
0.0025454
0.00209442
0.0024674
0.00212747
0.00239247
0.00214731
0.00232013
0.00215473
0.00225081
0.00215072
0.00218363
0.00213574
0.00211904
0.00211079
0.00205653
0.00207625
0.00199619
0.0020331
0.00193766
0.00198195
0.00188101
0.00192308
0.00182601
0.00185726
0.00177257
0.00178512
0.00172047
0.00170715
0.00166964
0.00162411
0.00161974
0.00153598
0.00157125
0.00144366
0.00152324
0.00134749
0.00147606
0.00124811
0.00142921
0.00114601
0.00138285
0.00104153
0.00133645
0.000935299
0.00128967
0.000827799
0.00124261
0.000719739
0.00119434
0.000611682
0.00114457
0.000504039
0.00109279
0.000397322
0.00103835
0.000290706
0.00098291
0.000179553
0.00093669
4.957e-05
0.000946565
0.00115508
-0.000115792
0.000267509
0.00337592
9.81973e-06
0.000518655
0.00327914
0.000745136
0.00318554
0.000948116
0.00309561
0.00112924
0.00300926
0.00128949
0.0029259
0.0014301
0.00284595
0.00155198
0.00276888
0.00165662
0.00269446
0.00174445
0.0026232
0.00181716
0.00255401
0.00187518
0.00248738
0.00191941
0.00242317
0.00195074
0.00236114
0.00196992
0.00230095
0.00197779
0.00224294
0.00197505
0.00218637
0.00196227
0.00213182
0.00194011
0.0020787
0.00190939
0.00202691
0.00187035
0.0019767
0.00182399
0.00192737
0.00177052
0.00187947
0.00171059
0.0018325
0.00164467
0.00178639
0.00157325
0.00174105
0.0014967
0.00169629
0.00141585
0.0016521
0.00133094
0.00160814
0.00124246
0.00156455
0.00115073
0.00152093
0.00105652
0.00147706
0.000960222
0.00143275
0.000861929
0.00138796
0.000762611
0.00134192
0.000662591
0.00129436
0.00056227
0.00124489
0.000462283
0.00119277
0.000362699
0.00113793
0.000262758
0.00108285
0.000157741
0.00104171
3.64756e-05
0.00106783
0.00130483
-0.000113274
0.000242526
0.00312397
9.42739e-06
0.000471346
0.00305032
0.000677775
0.00297911
0.000863115
0.00291027
0.00102879
0.00284358
0.0011757
0.002779
0.00130464
0.002717
0.00141705
0.00265647
0.00151316
0.00259836
0.00159475
0.0025416
0.00166177
0.002487
0.00171559
0.00243356
0.00175694
0.00238182
0.00178665
0.00233144
0.00180512
0.00228248
0.00181319
0.00223488
0.00181137
0.00218819
0.00180028
0.00214291
0.00178075
0.00209823
0.00175291
0.00205475
0.00171794
0.00201168
0.00167572
0.00196959
0.00162697
0.00192822
0.00157229
0.00188718
0.00151215
0.00184652
0.00144675
0.00180645
0.00137673
0.00176632
0.00130251
0.00172631
0.00122473
0.00168592
0.00114346
0.00164582
0.00105922
0.00160517
0.000972506
0.00156378
0.000883554
0.0015217
0.000793218
0.0014783
0.000701645
0.0014335
0.00060932
0.00138669
0.000516603
0.00133761
0.000424125
0.00128525
0.000331732
0.00123032
0.000238303
0.00117628
0.000140288
0.00113972
2.79572e-05
0.00118016
0.00144194
-0.000109155
0.000219883
0.00289532
8.76381e-06
0.000428044
0.00284216
0.000616308
0.00279084
0.000785619
0.00274096
0.000936935
0.00269227
0.00107124
0.00264469
0.00118983
0.00259841
0.00129285
0.00255345
0.00138167
0.00250954
0.00145654
0.00246672
0.00151873
0.00242481
0.00156867
0.00238361
0.00160735
0.00234315
0.00163508
0.0023037
0.00165251
0.00226505
0.00166063
0.00222676
0.00165948
0.00218935
0.00165005
0.00215233
0.00163239
0.0021159
0.00160761
0.00207952
0.0015757
0.0020436
0.00153761
0.00200768
0.00149354
0.00197229
0.00144361
0.00193711
0.00138855
0.00190158
0.00132888
0.00186612
0.00126484
0.00183036
0.00119671
0.00179444
0.00112514
0.00175749
0.0010507
0.00172026
0.000973453
0.00168242
0.000893604
0.00164363
0.000811968
0.00160334
0.000728855
0.00156141
0.000644828
0.00151752
0.000560101
0.00147142
0.000474844
0.00142286
0.00038927
0.00137083
0.000303546
0.00131605
0.000216397
0.00126343
0.000124094
0.00123203
1.92105e-05
0.00128505
0.00156752
-0.000106373
0.00019951
0.00268741
8.40908e-06
0.000388722
0.00265295
0.000560439
0.00261913
0.000714941
0.00258646
0.000853175
0.00255403
0.000976284
0.00252158
0.0010847
0.00248999
0.00117918
0.00245897
0.00126068
0.00242805
0.00132988
0.00239753
0.00138703
0.00236766
0.00143337
0.00233727
0.00146898
0.00230754
0.00149493
0.00227775
0.00151158
0.0022484
0.00151927
0.00221907
0.00151877
0.00218984
0.00151047
0.00216064
0.00149454
0.00213183
0.0014717
0.00210235
0.00144317
0.00207212
0.00140866
0.00204219
0.00136837
0.00201258
0.00132289
0.00198259
0.00127284
0.00195163
0.0012182
0.00192076
0.00115974
0.00188882
0.00109754
0.00185664
0.00103196
0.00182308
0.000963978
0.00178824
0.000893223
0.00175317
0.000819667
0.00171719
0.000744761
0.00167824
0.000668544
0.00163763
0.000591651
0.00159442
0.000514214
0.00154885
0.000435938
0.00150114
0.000357423
0.00144934
0.000278789
0.00139468
0.000198773
0.00134345
0.000113631
0.00131717
1.70304e-05
0.00138165
0.001684
-9.94504e-05
0.000180898
0.0025009
5.60925e-06
0.000353022
0.00248083
0.000509503
0.00246265
0.000650053
0.00244591
0.000776359
0.00242773
0.000888883
0.00240906
0.000988472
0.00239041
0.00107539
0.00237205
0.00115036
0.00235307
0.00121422
0.00233367
0.00126657
0.00231531
0.00130885
0.00229499
0.00134236
0.00227403
0.00136687
0.00225324
0.00138255
0.00223272
0.00139026
0.00221136
0.00139061
0.00218949
0.00138376
0.00216749
0.00136969
0.0021459
0.00134853
0.00212351
0.00132213
0.00209852
0.00129104
0.00207328
0.00125453
0.00204909
0.00121284
0.00202428
0.0011667
0.00199777
0.00111667
0.00197079
0.00106334
0.00194216
0.00100587
0.00191411
0.000945601
0.00188335
0.00088401
0.00184983
0.000819679
0.0018175
0.000751912
0.00178496
0.00068266
0.00174749
0.000612629
0.00170766
0.000542405
0.00166464
0.000472218
0.00161904
0.000400118
0.00157324
0.000327644
0.00152182
0.000255073
0.00146725
0.000180127
0.00141839
9.82624e-05
0.00139903
1.74917e-06
0.00147816
-0.000103637
0.00178939
-0.000319517
0.001014
-0.000800943
-0.000580324
0.00123489
-0.000974083
-0.000856075
0.00137119
-0.00109544
-0.00113693
0.00147702
-0.00119616
-0.00141845
0.00157019
-0.00128867
-0.00169757
0.00165662
-0.00137749
-0.00197246
0.00173982
-0.00146493
-0.00224079
0.00182068
-0.00155235