/*--------------------------------*- C++ -*----------------------------------*\
| =========                 |                                                 |
| \\      /  F ield         | OpenFOAM: The Open Source CFD Toolbox           |
|  \\    /   O peration     | Version:  2.3.0                                 |
|   \\  /    A nd           | Web:      www.OpenFOAM.org                      |
|    \\/     M anipulation  |                                                 |
\*---------------------------------------------------------------------------*/
FoamFile
{
    version     2.0;
    format      ascii;
    class       volVectorField;
    location    "1000";
    object      U;
}
// * * * * * * * * * * * * * * * * * * * * * * * * * * * * * * * * * * * * * //

dimensions      [0 1 -1 0 0 0 0];

internalField   nonuniform List<vector> 
36404
(
(24.5227 5.45882 0)
(24.5616 5.64361 5.11677e-21)
(24.5982 5.84049 -7.77439e-21)
(24.6316 6.04192 1.79979e-21)
(24.6618 6.24886 9.11649e-21)
(24.6886 6.46152 -4.96216e-20)
(24.712 6.68002 9.85577e-20)
(24.7319 6.90462 -6.31874e-20)
(24.7479 7.13549 1.76297e-20)
(24.7599 7.3728 7.29455e-21)
(24.7674 7.61685 -9.61605e-20)
(24.7702 7.86789 8.71248e-20)
(24.7678 8.1263 0)
(24.7599 8.39248 8.78154e-21)
(24.7459 8.667 0)
(24.7254 8.95046 -1.02134e-20)
(24.698 9.24364 1.77765e-20)
(24.6634 9.54741 1.90884e-20)
(24.6211 9.86285 -3.56945e-19)
(24.5709 10.191 3.18801e-19)
(24.5122 10.533 3.89676e-19)
(24.4446 10.8903 -3.89033e-19)
(24.3675 11.2642 -8.52378e-21)
(24.2798 11.6559 9.20758e-21)
(24.1805 12.0669 -4.87269e-19)
(24.0676 12.4979 1.01702e-18)
(23.9388 12.9497 -5.31739e-19)
(23.7907 13.4225 -1.28476e-20)
(23.6182 13.9155 3.05357e-19)
(23.4147 14.4272 -3.31071e-19)
(23.171 14.955 7.30981e-21)
(22.8756 15.4945 1.93725e-21)
(22.514 16.0406 -6.64216e-21)
(22.0675 16.5865 0)
(21.5134 17.1228 -4.0553e-19)
(20.8236 17.6382 4.19857e-19)
(19.9647 18.1218 3.83e-19)
(18.8952 18.5596 -4.1591e-19)
(17.5625 18.9249 0)
(15.9064 19.1791 -1.14081e-19)
(13.8813 19.3423 1.20383e-19)
(11.4634 19.5042 4.98142e-21)
(8.62268 19.3395 -7.92704e-21)
(24.3233 5.50153 -5.50304e-21)
(24.3483 5.67162 -2.53596e-21)
(24.3704 5.85044 -3.47147e-22)
(24.3892 6.03298 1.60895e-21)
(24.4044 6.21991 -5.87772e-21)
(24.4161 6.41149 -1.97645e-20)
(24.4243 6.60783 2.02649e-20)
(24.4288 6.8091 -2.62194e-20)
(24.4294 7.0154 6.27119e-20)
(24.4258 7.22692 -4.47378e-20)
(24.4178 7.44378 4.12324e-21)
(24.405 7.66613 2.47722e-21)
(24.387 7.89412 -5.96266e-20)
(24.3632 8.1279 5.94767e-20)
(24.3332 8.36767 0)
(24.2961 8.61368 0)
(24.2512 8.86612 -6.7957e-21)
(24.1976 9.12541 -7.27175e-21)
(24.1347 9.39201 7.76271e-21)
(24.0614 9.66625 8.26921e-21)
(23.9766 9.94878 -1.01725e-19)
(23.8793 10.2402 1.03323e-19)
(23.7681 10.5411 2.33943e-21)
(23.6415 10.8522 1.1546e-19)
(23.4978 11.1745 -1.20527e-19)
(23.3348 11.5085 1.30026e-19)
(23.15 11.8552 4.31312e-22)
(22.9405 12.2152 -2.69135e-19)
(22.7029 12.589 1.38101e-19)
(22.4332 12.9763 4.66847e-21)
(22.1271 13.3767 -7.07956e-21)
(21.7792 13.7879 1.23669e-19)
(21.3839 14.2068 -2.33064e-20)
(20.9345 14.6278 -1.05212e-19)
(20.4246 15.043 3.34907e-21)
(19.8468 15.4407 0)
(19.1952 15.8048 0)
(18.4647 16.1139 1.32019e-21)
(17.6539 16.3391 0)
(16.7683 16.4429 -7.17742e-21)
(15.825 16.3801 2.8446e-21)
(14.84 16.0948 0)
(13.8131 15.5242 -8.29306e-21)
(24.1443 5.52477 -1.40372e-20)
(24.1604 5.68509 -7.96687e-21)
(24.1716 5.84684 1.40327e-20)
(24.1791 6.01208 8.66094e-21)
(24.1831 6.18101 -8.57905e-21)
(24.1835 6.35378 3.29416e-22)
(24.1801 6.53053 -1.03659e-21)
(24.173 6.71134 1.80476e-21)
(24.1618 6.89636 -3.1007e-21)
(24.1464 7.0857 -1.12246e-20)
(24.1264 7.2795 -3.97866e-21)
(24.1016 7.4779 1.7207e-20)
(24.0715 7.68107 2.93312e-22)
(24.0359 7.88912 0)
(23.9943 8.10222 6.17113e-22)
(23.9461 8.32046 0)
(23.8906 8.54392 0)
(23.827 8.77286 3.65935e-20)
(23.7545 9.0074 -3.58521e-20)
(23.6722 9.24778 0)
(23.579 9.49419 0)
(23.4739 9.74678 0)
(23.3558 10.0057 3.94068e-20)
(23.2234 10.271 -4.00704e-20)
(23.0752 10.5426 -3.45104e-22)
(22.9092 10.8203 -2.50791e-21)
(22.723 11.1036 -2.77416e-23)
(22.5141 11.3919 -2.13456e-22)
(22.2793 11.6844 -5.26995e-22)
(22.0151 11.9796 -1.23481e-21)
(21.7177 12.2758 -9.45702e-21)
(21.3831 12.5702 1.55817e-20)
(21.0066 12.8588 -1.00411e-21)
(20.5842 13.1371 0)
(20.1117 13.3986 -6.24154e-20)
(19.5856 13.6351 6.44769e-20)
(19.0037 13.8361 -8.27618e-21)
(18.3656 13.9895 -3.00682e-21)
(17.6747 14.0811 1.90926e-19)
(16.9392 14.0958 3.30735e-20)
(16.1749 14.0183 -4.07226e-19)
(15.4055 13.8332 -2.69832e-20)
(14.6687 13.5271 1.64498e-19)
(23.986 5.54163 1.8099e-20)
(23.9936 5.68706 -1.93209e-20)
(23.9964 5.83338 1.16224e-20)
(23.9958 5.98312 0)
(23.9919 6.13596 -1.69338e-20)
(23.9845 6.29209 1.8227e-21)
(23.9735 6.45163 1.47703e-20)
(23.9589 6.61462 7.89388e-22)
(23.9403 6.7812 1.97988e-20)
(23.9177 6.95148 -3.71442e-20)
(23.8908 7.12557 2.53628e-21)
(23.8592 7.30351 1.3397e-20)
(23.8225 7.48547 -2.95797e-22)
(23.7804 7.67163 6.90759e-21)
(23.7325 7.86207 -6.27333e-21)
(23.6785 8.05678 -1.2023e-21)
(23.6175 8.25586 1.17295e-21)
(23.5489 8.45931 0)
(23.4718 8.66717 1.52162e-22)
(23.3852 8.8796 0)
(23.2881 9.09661 0)
(23.1792 9.31823 0)
(23.0576 9.54461 -5.07191e-22)
(22.9221 9.77578 1.45241e-21)
(22.7717 10.0115 1.87561e-20)
(22.605 10.2514 -2.02393e-20)
(22.4206 10.4948 2.79788e-23)
(22.2164 10.7408 2.15133e-22)
(21.9902 10.9881 5.30542e-22)
(21.7394 11.2351 -3.466e-20)
(21.4615 11.4798 8.82762e-20)
(21.1537 11.7192 -5.60059e-20)
(20.8134 11.9497 -7.64076e-20)
(20.4384 12.1669 -9.97384e-21)
(20.0269 12.3653 -1.94391e-20)
(19.5781 12.5379 1.21249e-19)
(19.0924 12.6769 1.91511e-20)
(18.5722 12.7728 0)
(18.0222 12.8152 1.52114e-20)
(17.4505 12.7945 1.53395e-20)
(16.8684 12.7016 1.83264e-20)
(16.2915 12.53 -1.96139e-19)
(15.7396 12.2792 2.11072e-19)
(23.8485 5.54946 2.55727e-20)
(23.8465 5.68061 -1.65566e-20)
(23.8426 5.81332 0)
(23.8361 5.94915 0)
(23.8265 6.08761 0)
(23.8136 6.22901 0)
(23.7974 6.37345 0)
(23.7776 6.52093 0)
(23.7541 6.67157 2.07271e-20)
(23.7266 6.8255 -3.83105e-20)
(23.6952 6.98288 1.94674e-20)
(23.6594 7.14361 0)
(23.6186 7.30777 2.00707e-20)
(23.5725 7.47571 -4.32358e-22)
(23.5211 7.6475 -4.81637e-20)
(23.4638 7.82311 3.42412e-20)
(23.4004 8.00257 3.19953e-20)
(23.3299 8.18576 -3.63111e-20)
(23.2518 8.37268 -1.21864e-21)
(23.1651 8.56329 0)
(23.0688 8.75743 0)
(22.9617 8.95495 -3.59219e-21)
(22.8422 9.15577 0)
(22.7092 9.35993 -1.02181e-21)
(22.5616 9.56738 0)
(22.3986 9.77781 3.46394e-20)
(22.2195 9.99048 7.63962e-21)
(22.0226 10.2041 -3.90412e-20)
(21.8062 10.4173 -3.89964e-21)
(21.5681 10.6285 -3.00685e-21)
(21.3062 10.8355 0)
(21.0184 11.0358 8.89002e-20)
(20.7028 11.2258 -9.32355e-20)
(20.3577 11.4018 1.62594e-21)
(19.9821 11.5588 0)
(19.5757 11.6916 0)
(19.1402 11.7942 -1.09669e-20)
(18.6789 11.8599 1.31004e-19)
(18.1972 11.8814 -3.20208e-22)
(17.7025 11.8519 -1.3754e-19)
(17.2043 11.766 0)
(16.7145 11.6206 0)
(16.2467 11.4164 2.5915e-20)
(23.7225 5.54751 -8.97385e-21)
(23.7154 5.66759 1.00451e-20)
(23.7069 5.78882 5.20302e-21)
(23.6966 5.91249 -5.03752e-21)
(23.6833 6.03831 0)
(23.6666 6.16677 0)
(23.6469 6.29807 2.77332e-20)
(23.6238 6.43219 -3.19912e-20)
(23.5973 6.56912 0)
(23.5668 6.70906 -2.52126e-20)
(23.5325 6.85232 2.51016e-20)
(23.4945 6.99865 0)
(23.4518 7.14784 2.10534e-20)
(23.4037 7.30043 -2.80126e-20)
(23.3503 7.45668 -6.93138e-21)
(23.2914 7.61646 4.15124e-21)
(23.2267 7.77975 0)
(23.1555 7.94648 2.94281e-21)
(23.0773 8.11656 -3.1071e-20)
(22.9913 8.28994 5.9366e-20)
(22.8968 8.46646 -3.3093e-20)
(22.7926 8.6457 8.9134e-21)
(22.6776 8.82704 5.65646e-21)
(22.5494 9.01029 -6.12479e-21)
(22.4065 9.19579 0)
(22.2482 9.38375 -5.09726e-20)
(22.0746 9.57361 5.19206e-20)
(21.8855 9.76386 1.03443e-21)
(21.6794 9.95292 8.96981e-21)
(21.4543 10.1391 0)
(21.2084 10.3203 -6.37076e-21)
(20.9402 10.4945 -1.14066e-19)
(20.6486 10.6583 1.16214e-19)
(20.3322 10.8079 -8.08823e-21)
(19.9899 10.9391 1.05814e-20)
(19.6213 11.0471 0)
(19.2277 11.1276 -1.11154e-19)
(18.8128 11.1759 -2.67741e-20)
(18.3825 11.1868 -1.35714e-20)
(17.9442 11.1547 3.06976e-19)
(17.5051 11.0754 -1.63812e-19)
(17.0739 10.9474 0)
(16.6606 10.771 -1.33949e-19)
(23.6078 5.54083 0)
(23.5978 5.65109 -6.13436e-21)
(23.5869 5.7621 1.70197e-20)
(23.5742 5.87506 -2.28482e-20)
(23.5587 5.98967 -5.72098e-21)
(23.5395 6.10671 0)
(23.5174 6.22668 4.4705e-20)
(23.4924 6.34929 -5.01228e-22)
(23.4642 6.47449 -3.88859e-20)
(23.4322 6.60235 -4.21588e-20)
(23.3956 6.73357 4.1856e-20)
(23.3562 6.86809 -3.73043e-20)
(23.3132 7.00493 3.62166e-20)
(23.2645 7.14457 0)
(23.2102 7.28789 4.14542e-21)
(23.1507 7.43458 -4.19822e-21)
(23.0855 7.58452 0)
(23.0144 7.73773 0)
(22.9368 7.89401 5.76454e-21)
(22.852 8.05327 -3.94261e-20)
(22.7591 8.21561 9.1392e-20)
(22.6575 8.38114 -5.26486e-20)
(22.5476 8.54823 -5.72709e-21)
(22.4256 8.71548 6.19938e-21)
(22.2892 8.88339 0)
(22.1362 9.05307 8.93631e-21)
(21.9674 9.22483 9.73407e-21)
(21.7843 9.39725 6.1339e-21)
(21.5861 9.56821 -5.06846e-21)
(21.3713 9.73577 0)
(21.1378 9.89792 -1.23595e-19)
(20.8839 10.0531 2.55715e-19)
(20.6098 10.1988 -2.06529e-19)
(20.3148 10.3313 -1.75245e-20)
(19.998 10.4461 7.41845e-20)
(19.6586 10.538 0)
(19.296 10.6037 0)
(18.9134 10.6409 0)
(18.5174 10.6466 1.29666e-19)
(18.117 10.6152 -1.50619e-19)
(17.7171 10.5426 0)
(17.3251 10.4285 0)
(16.9498 10.2719 0)
(23.5056 5.53715 -6.8311e-21)
(23.4941 5.63428 -6.50739e-22)
(23.481 5.73481 -3.19342e-20)
(23.4669 5.838 6.12833e-21)
(23.4504 5.94275 3.02941e-20)
(23.4296 6.04959 -2.38264e-20)
(23.4057 6.15979 1.73781e-20)
(23.3794 6.27277 2.30531e-20)
(23.3504 6.38792 -2.28652e-20)
(23.3189 6.50536 2.86041e-20)
(23.2808 6.62571 -2.24007e-20)
(23.2395 6.75028 0)
(23.1972 6.87728 1.11412e-20)
(23.1492 7.00616 3.93925e-20)
(23.0944 7.13868 -4.55476e-20)
(23.0351 7.27454 0)
(22.97 7.4133 -6.31515e-21)
(22.8991 7.55544 0)
(22.8221 7.70076 3.89644e-20)
(22.7388 7.84846 -4.50677e-20)
(22.6483 7.99799 -7.40212e-21)
(22.5469 8.15181 0)
(22.4416 8.30893 6.30604e-20)
(22.3265 8.46482 -5.5784e-20)
(22.1983 8.61947 -7.34082e-20)
(22.0526 8.77496 7.59224e-20)
(21.888 8.93137 -9.60527e-20)
(21.7098 9.08926 7.75688e-20)
(21.5182 9.24599 5.17923e-20)
(21.3123 9.39959 -6.69691e-20)
(21.0903 9.54715 -4.8903e-20)
(20.8477 9.68728 -5.39386e-21)
(20.5869 9.81905 7.23864e-20)
(20.3081 9.93937 9.77582e-20)
(20.0119 10.0445 -1.87746e-19)
(19.6976 10.1274 -9.02265e-21)
(19.3601 10.1838 1.12049e-19)
(19.0035 10.2134 -3.23677e-20)
(18.6307 10.2154 9.22753e-20)
(18.2585 10.1847 -7.6021e-20)
(17.8872 10.1165 -4.30712e-20)
(17.5211 10.0145 -4.87656e-20)
(17.1773 9.87276 4.92881e-20)
(23.4148 5.52335 1.52411e-20)
(23.4018 5.61424 2.94258e-20)
(23.387 5.7062 -1.18508e-22)
(23.3719 5.80104 0)
(23.3563 5.89798 3.42169e-20)
(23.3351 5.99588 6.81261e-21)
(23.3103 6.09758 -2.00717e-20)
(23.2837 6.2032 -6.8096e-21)
(23.2516 6.30941 0)
(23.2214 6.41876 8.27599e-22)
(23.1836 6.52926 7.09213e-21)
(23.1416 6.64448 2.57989e-20)
(23.1011 6.76367 -2.39403e-20)
(23.0553 6.88338 1.29305e-20)
(22.9994 7.00669 7.03499e-21)
(22.942 7.1345 0)
(22.8793 7.26403 -8.74092e-22)
(22.8107 7.39643 -2.80469e-20)
(22.7357 7.53272 4.22861e-20)
(22.6513 7.67338 7.51711e-22)
(22.5647 7.8119 -2.41116e-20)
(22.4615 7.95245 4.15823e-20)
(22.3633 8.10371 0)
(22.2617 8.2515 -4.48131e-20)
(22.1451 8.39382 -2.51785e-21)
(22.008 8.54055 8.2486e-20)
(21.8469 8.68429 -4.39724e-20)
(21.6754 8.83047 0)
(21.4925 8.97466 0)
(21.2967 9.11699 1.41638e-20)
(21.0899 9.25291 1.72518e-20)
(20.8572 9.38019 7.21723e-20)
(20.6083 9.50018 5.58042e-21)
(20.3452 9.60838 5.95032e-21)
(20.0702 9.70505 -8.81401e-20)
(19.7851 9.78187 1.32185e-19)
(19.4639 9.83485 -1.04416e-19)
(19.1183 9.86326 9.44639e-20)
(18.7487 9.86334 -6.70781e-20)
(18.3978 9.83163 8.05499e-20)
(18.0508 9.76133 4.88927e-20)
(17.7011 9.67181 -4.10399e-20)
(17.3849 9.54132 -4.71651e-20)
(5.72944 17.7099 1.81798e-19)
(5.65561 15.5953 -1.34914e-19)
(5.95468 13.9614 8.10175e-20)
(6.37457 12.652 -3.33494e-19)
(6.84342 11.5836 1.99754e-19)
(7.32539 10.6845 -2.93867e-20)
(7.80156 9.91875 0)
(8.26186 9.26088 3.52188e-20)
(8.70119 8.69192 -9.02082e-19)
(9.11651 8.19572 -7.33385e-21)
(9.50697 7.75937 -8.39657e-19)
(9.87286 7.37322 3.06672e-18)
(10.2149 7.02847 1.24996e-21)
(10.5346 6.7189 -1.44749e-18)
(10.8336 6.439 -4.78795e-20)
(11.1135 6.18419 4.19448e-20)
(11.3763 5.95098 1.25573e-18)
(11.6232 5.73601 -2.5215e-18)
(11.8561 5.537 2.44082e-18)
(12.0763 5.35173 -1.14202e-18)
(12.2852 5.1785 -1.132e-18)
(12.4838 5.01563 7.06175e-21)
(12.6733 4.86194 -5.8999e-20)
(12.8547 4.71628 9.11059e-19)
(13.0286 4.57761 -6.56631e-20)
(13.1959 4.44524 1.05379e-18)
(13.3571 4.31841 -1.04532e-18)
(13.5128 4.19658 0)
(13.6634 4.07923 9.507e-19)
(13.8093 3.96598 -8.88727e-19)
(13.9508 3.85642 -9.36224e-19)
(14.0883 3.75035 9.38851e-19)
(14.2219 3.64744 -1.18615e-19)
(14.3519 3.54754 0)
(14.4785 3.4504 0)
(14.6019 3.35591 2.25845e-21)
(14.7223 3.26395 -4.65278e-19)
(14.8398 3.17438 4.6881e-19)
(14.9546 3.0872 -3.45026e-19)
(15.0668 3.00236 3.42336e-19)
(15.1768 2.9199 -1.13392e-19)
(15.2847 2.84014 -5.39883e-20)
(15.3901 2.75808 5.38074e-20)
(12.7987 14.6936 -1.57427e-20)
(12.0682 13.7404 4.51924e-20)
(11.5963 12.8202 7.44472e-20)
(11.3139 11.967 1.07269e-19)
(11.1641 11.1896 -2.02931e-19)
(11.1091 10.4869 2.55632e-20)
(11.1218 9.85515 0)
(11.1831 9.2887 0)
(11.2789 8.78103 0)
(11.3988 8.32558 0)
(11.5346 7.91596 -7.40555e-19)
(11.6805 7.54636 8.30083e-19)
(11.8325 7.2116 -4.23266e-20)
(11.9876 6.90714 4.10451e-20)
(12.1436 6.6288 -1.32947e-18)
(12.2989 6.37319 1.29033e-18)
(12.4525 6.13734 0)
(12.6039 5.91869 -1.24023e-18)
(12.7523 5.71497 7.86214e-21)
(12.8977 5.52436 1.12942e-18)
(13.0399 5.34528 1.1174e-18)
(13.1789 5.17635 -1.05894e-18)
(13.3147 5.01653 6.46744e-20)
(13.4473 4.8648 1.00035e-18)
(13.5768 4.72031 -9.84393e-19)
(13.7032 4.58239 -1.0797e-18)
(13.8267 4.45042 9.5186e-19)
(13.9473 4.32394 9.33526e-19)
(14.0651 4.20242 -1.85551e-18)
(14.1802 4.08547 9.24256e-19)
(14.2928 3.97281 0)
(14.4029 3.86408 -9.11035e-19)
(14.5107 3.75907 9.1632e-19)
(14.6163 3.65745 0)
(14.7197 3.55902 3.43088e-19)
(14.821 3.46361 -3.45245e-19)
(14.9204 3.37106 0)
(15.0178 3.28121 -4.60329e-19)
(15.1135 3.19395 1.1791e-19)
(15.2075 3.10924 2.27198e-19)
(15.2999 3.02704 -1.11712e-19)
(15.3913 2.94755 -1.0806e-19)
(15.4819 2.86161 4.22996e-19)
(14.0165 13.1012 0)
(13.4898 12.5828 -3.29981e-20)
(13.083 12.015 3.43256e-20)
(12.7835 11.4325 -3.60159e-20)
(12.5752 10.8585 -1.60697e-19)
(12.4423 10.3065 -1.7184e-19)
(12.3705 9.78464 6.6054e-19)
(12.3469 9.29654 -2.87566e-19)
(12.3613 8.84329 -4.09987e-20)
(12.4048 8.42428 0)
(12.4703 8.03782 0)
(12.5518 7.68168 -4.23067e-20)
(12.6452 7.35349 4.12104e-20)
(12.7468 7.05063 -6.52225e-19)
(12.8539 6.77059 5.95736e-19)
(12.9645 6.51104 -3.78973e-20)
(13.077 6.26999 1.13604e-18)
(13.1905 6.04539 9.2996e-22)
(13.3038 5.83555 -3.47315e-20)
(13.4164 5.63896 -1.07852e-18)
(13.528 5.45427 1.04533e-18)
(13.6382 5.28028 -1.98197e-18)
(13.7468 5.11595 1.93723e-18)
(13.8538 4.9603 -1.50994e-21)
(13.9589 4.81248 -9.92193e-19)
(14.0622 4.6718 -8.01675e-19)
(14.1637 4.53761 8.533e-19)
(14.2634 4.40937 8.96332e-19)
(14.3612 4.28656 -1.7282e-18)
(14.4571 4.16877 8.89196e-19)
(14.5514 4.0556 0)
(14.644 3.94673 0)
(14.735 3.84182 0)
(14.8245 3.74053 0)
(14.9124 3.64266 -3.31586e-19)
(14.9989 3.54798 9.49446e-19)
(15.0838 3.4563 -5.6193e-19)
(15.1674 3.36745 -1.11977e-19)
(15.2496 3.28131 1.13059e-19)
(15.3306 3.19775 0)
(15.4105 3.11672 -1.0891e-19)
(15.4897 3.03851 1.07882e-19)
(15.5682 2.9541 1.05773e-19)
(15.2329 11.956 3.22111e-20)
(14.7862 11.5738 -6.14306e-20)
(14.4073 11.1518 -1.19461e-21)
(14.0976 10.7089 1.10205e-19)
(13.8536 10.2601 -7.42455e-20)
(13.6689 9.81676 -3.80193e-20)
(13.5357 9.38692 0)
(13.4464 8.97559 2.82635e-19)
(13.3938 8.58562 -5.97588e-19)
(13.3713 8.21846 2.75732e-19)
(13.373 7.87432 -3.8185e-20)
(13.3941 7.55271 0)
(13.4306 7.25256 0)
(13.4791 6.97258 -5.55747e-19)
(13.537 6.71135 5.41152e-19)
(13.602 6.46735 3.46017e-20)
(13.6725 6.23917 0)
(13.7469 6.02537 -5.02771e-19)
(13.8243 5.82471 5.22451e-19)
(13.9037 5.63597 5.38291e-19)
(13.9845 5.45807 -5.56295e-19)
(14.0662 5.29005 -9.02657e-19)
(14.1483 5.13098 1.00174e-18)
(14.2305 4.98005 9.81321e-19)
(14.3126 4.83655 -8.52764e-19)
(14.3941 4.69982 -1.23941e-21)
(14.4751 4.56932 1.17383e-21)
(14.5553 4.44456 0)
(14.6346 4.3251 -5.49147e-20)
(14.713 4.21053 -4.85847e-19)
(14.7906 4.10052 1.75608e-21)
(14.8673 3.99473 4.3256e-19)
(14.9431 3.89279 0)
(15.018 3.79443 -4.32497e-19)
(15.0919 3.69941 1.87898e-21)
(15.1647 3.60755 3.83393e-19)
(15.2366 3.51866 1.10694e-19)
(15.3075 3.4326 1.11141e-19)
(15.3776 3.3492 -2.2005e-19)
(15.4468 3.26835 2.19168e-19)
(15.5152 3.1901 2.15988e-19)
(15.5831 3.11504 0)
(15.6506 3.03516 -1.0618e-19)
(15.8126 11.1586 5.69918e-20)
(15.421 10.8552 -4.62902e-20)
(15.078 10.5169 4.82941e-20)
(14.7868 10.1563 7.05188e-20)
(14.5467 9.78459 -1.05375e-19)
(14.355 9.41091 3.77873e-20)
(14.2069 9.04262 0)
(14.0973 8.68464 0)
(14.021 8.34037 3.72518e-20)
(13.9727 8.01202 3.04524e-19)
(13.9477 7.70082 4.2017e-20)
(13.942 7.40699 -2.92311e-19)
(13.9522 7.13023 -3.56554e-20)
(13.9752 6.87009 -3.61877e-20)
(14.0085 6.6257 5.93091e-19)
(14.0501 6.39606 -5.78528e-19)
(14.0983 6.18008 -3.29009e-20)
(14.1515 5.9769 -3.20665e-20)
(14.2088 5.7855 -4.41838e-19)
(14.2691 5.60493 9.83621e-19)
(14.3318 5.43433 -2.40647e-22)
(14.3962 5.27288 -9.98131e-19)
(14.4619 5.11977 9.18476e-19)
(14.5284 4.97428 -4.51999e-19)
(14.5953 4.83579 0)
(14.6624 4.70378 -5.53816e-20)
(14.7293 4.57774 5.47287e-20)
(14.7959 4.45726 0)
(14.8621 4.34193 5.28796e-20)
(14.9278 4.23139 5.35277e-20)
(14.9931 4.12533 0)
(15.058 4.02336 -3.70132e-19)
(15.1224 3.92514 4.7725e-19)
(15.1861 3.83038 -5.2803e-20)
(15.249 3.7389 -4.2641e-19)
(15.3112 3.65058 6.44628e-19)
(15.3726 3.56518 -2.70179e-19)
(15.4333 3.48254 5.39891e-20)
(15.4934 3.40249 -1.08276e-19)
(15.5529 3.32484 5.43475e-20)
(15.6117 3.24967 -1.3379e-19)
(15.67 3.17755 2.63517e-20)
(15.728 3.10013 1.02939e-19)
(16.2725 10.5508 8.07265e-20)
(15.9165 10.2929 1.48237e-20)
(15.5982 10.005 4.79907e-20)
(15.3212 9.69607 4.9001e-22)
(15.0863 9.37494 3.5203e-20)
(14.8924 9.04896 -1.80259e-19)
(14.7363 8.7245 1.07025e-19)
(14.6149 8.40586 0)
(14.5233 8.09648 2.94716e-19)
(14.4575 7.79901 -2.52312e-19)
(14.4139 7.51479 -2.55492e-19)
(14.3891 7.24459 2.48918e-19)
(14.3801 6.98836 3.56715e-20)
(14.3841 6.74624 0)
(14.399 6.5177 5.44951e-19)
(14.4229 6.30178 -5.64759e-19)
(14.4538 6.09791 5.54723e-19)
(14.4904 5.90554 -5.37572e-19)
(14.5318 5.72382 1.01943e-18)
(14.577 5.55199 -1.02393e-18)
(14.6252 5.38936 0)
(14.676 5.23513 -4.61194e-19)
(14.7286 5.08865 3.39323e-19)
(14.7826 4.94924 5.50748e-20)
(14.8373 4.81643 -4.37222e-19)
(14.8925 4.68978 8.63484e-19)
(14.9479 4.5689 -4.27319e-19)
(15.0034 4.45332 -3.701e-19)
(15.0589 4.34271 3.6773e-19)
(15.1143 4.23677 0)
(15.1696 4.1352 0)
(15.225 4.03755 -6.76904e-22)
(15.2801 3.9434 -6.46483e-22)
(15.3346 3.85262 5.26399e-20)
(15.3884 3.76514 0)
(15.4416 3.6808 1.58481e-19)
(15.4944 3.59931 -3.7188e-19)
(15.5467 3.52048 1.07223e-19)
(15.5985 3.4441 0)
(15.6499 3.37001 2.12537e-19)
(15.7005 3.29828 -1.05676e-19)
(15.7504 3.22961 0)
(15.7995 3.1585 -9.96804e-20)
(16.5938 10.0765 0)
(16.2638 9.84886 0)
(15.9657 9.59455 -1.55131e-20)
(15.7019 9.32079 -4.88957e-20)
(15.4741 9.03488 0)
(15.2823 8.74276 3.49261e-20)
(15.124 8.45028 3.54883e-20)
(14.998 8.16064 0)
(14.8985 7.8776 -3.22433e-19)
(14.8229 7.60428 5.65749e-19)
(14.7688 7.34174 -3.1669e-20)
(14.7329 7.09045 -2.41218e-19)
(14.7117 6.85102 6.79672e-20)
(14.7032 6.62442 0)
(14.7064 6.40942 -6.58063e-20)
(14.7187 6.20491 9.7504e-20)
(14.7375 6.0117 0)
(14.7626 5.82907 4.98396e-19)
(14.7931 5.65609 -1.03063e-18)
(14.8275 5.49237 4.74249e-19)
(14.8657 5.33717 0)
(14.9068 5.18968 0)
(14.95 5.04933 5.61543e-20)
(14.9946 4.91562 3.82806e-19)
(15.0401 4.78823 -5.39415e-20)
(15.0862 4.66691 -4.26279e-19)
(15.1329 4.55103 -4.21061e-19)
(15.18 4.44021 3.65355e-19)
(15.2271 4.33425 -5.15191e-20)
(15.2745 4.23288 0)
(15.3221 4.13581 0)
(15.3703 4.04231 -5.79834e-22)
(15.4178 3.95203 -3.08509e-19)
(15.4647 3.86529 2.06639e-19)
(15.5111 3.78205 2.06972e-19)
(15.5572 3.70178 -3.64388e-19)
(15.603 3.62425 2.09925e-19)
(15.6484 3.54925 4.61503e-22)
(15.6936 3.4766 0)
(15.7382 3.40608 -5.27495e-20)
(15.7819 3.33767 0)
(15.8248 3.27181 5.15173e-20)
(15.8672 3.20526 -4.87896e-20)
(16.8436 9.69537 -2.80701e-20)
(16.5321 9.49018 8.56149e-20)
(16.2507 9.25886 6.05751e-20)
(15.997 9.0097 6.30587e-20)
(15.7751 8.74887 0)
(15.5865 8.48112 0)
(15.428 8.21288 6.72652e-20)
(15.3008 7.94417 0)
(15.1952 7.6829 0)
(15.1137 7.42948 -1.38119e-19)
(15.0529 7.18492 1.35253e-19)
(15.0095 6.94811 -2.7164e-19)
(14.9785 6.72242 4.66487e-19)
(14.961 6.51044 -2.62193e-19)
(14.9575 6.3058 1.06791e-21)
(14.9613 6.11008 -1.02417e-21)
(14.97 5.92704 0)
(14.9874 5.7528 3.04661e-19)
(15.0102 5.58783 -2.37291e-19)
(15.0366 5.43153 8.92217e-22)
(15.0675 5.28285 -5.65107e-20)
(15.1013 5.14117 0)
(15.137 5.00624 5.44902e-20)
(15.1743 4.87777 0)
(15.2121 4.75556 7.06146e-22)
(15.2511 4.63943 -1.57962e-19)
(15.2912 4.52807 3.64366e-19)
(15.3315 4.42171 -5.14812e-20)
(15.3721 4.32032 -1.0256e-19)
(15.4132 4.22324 5.06391e-20)
(15.4547 4.1303 1.52516e-19)
(15.4973 4.04042 -2.03675e-19)
(15.5381 3.95368 -1.51959e-19)
(15.5789 3.87142 2.54608e-19)
(15.6193 3.79256 -5.08978e-20)
(15.6597 3.71605 0)
(15.6999 3.64237 -5.17969e-20)
(15.7397 3.57107 1.56303e-19)
(15.7793 3.50193 -5.1906e-20)
(15.8184 3.435 5.1907e-20)
(15.8562 3.37007 -5.17741e-20)
(15.8928 3.30725 -1.02574e-19)
(15.9299 3.24548 5.04251e-20)
(17.0628 9.37502 0)
(16.7518 9.19381 -4.83467e-20)
(16.4731 8.98239 -6.52605e-20)
(16.2216 8.75208 -6.28785e-20)
(16.0074 8.50875 0)
(15.8253 8.25807 0)
(15.6701 8.00808 -6.70205e-20)
(15.5474 7.74986 6.81597e-20)
(15.4358 7.51081 -2.70833e-19)
(15.351 7.27247 1.30118e-19)
(15.2839 7.04441 -6.2441e-20)
(15.235 6.81874 6.25552e-20)
(15.1947 6.60625 2.63111e-19)
(15.1738 6.41143 -5.13071e-19)
(15.1695 6.21084 3.12828e-19)
(15.1643 6.02102 2.56739e-19)
(15.1648 5.85044 -6.03766e-20)
(15.1795 5.68203 -7.1728e-19)
(15.1956 5.52539 4.77034e-19)
(15.2154 5.3742 -1.75311e-19)
(15.2415 5.23012 2.85035e-19)
(15.2693 5.09336 0)
(15.2991 4.96324 1.62378e-19)
(15.3306 4.84004 -2.68956e-19)
(15.3617 4.72263 5.39345e-20)
(15.3958 4.61147 -1.06021e-19)
(15.431 4.50335 2.61233e-19)
(15.4656 4.40181 -1.56874e-19)
(15.5004 4.30434 -5.24436e-20)
(15.5361 4.21043 -5.18631e-20)
(15.5726 4.12055 2.53041e-19)
(15.6113 4.03364 -2.45427e-19)
(15.6454 3.95103 0)
(15.6806 3.87475 -5.2035e-20)
(15.715 3.79925 5.18368e-20)
(15.7503 3.72508 -1.02638e-19)
(15.7856 3.65568 1.22375e-22)
(15.8207 3.58743 0)
(15.8551 3.52115 1.0403e-19)
(15.8897 3.45798 5.23412e-20)
(15.9228 3.39661 -5.06562e-20)
(15.9541 3.33584 3.74801e-20)
(15.9855 3.27465 -3.77537e-20)
(15.2624 -1.57566 0)
(15.0538 -1.56237 -1.91719e-19)
(14.8471 -1.54802 0)
(14.6431 -1.53344 -1.95703e-19)
(14.4421 -1.51871 0)
(14.2441 -1.50389 9.95021e-20)
(14.049 -1.48902 0)
(13.8566 -1.47409 9.13489e-19)
(13.6669 -1.45913 -8.20408e-19)
(13.4796 -1.44415 -8.31302e-19)
(13.2945 -1.42916 1.73808e-18)
(13.1114 -1.41415 -9.09937e-19)
(12.9302 -1.39918 0)
(12.7507 -1.38419 2.86818e-22)
(12.5725 -1.36924 5.68565e-20)
(12.3955 -1.3543 -8.84537e-19)
(12.2194 -1.33938 9.73146e-19)
(12.044 -1.32449 3.63943e-22)
(11.8691 -1.30964 9.8355e-19)
(11.6944 -1.2948 -1.16104e-18)
(11.5195 -1.27996 -1.07385e-18)
(11.3443 -1.26515 2.40655e-18)
(11.1684 -1.25032 -1.23076e-18)
(10.9915 -1.23548 8.31459e-20)
(10.8131 -1.22061 1.47514e-18)
(10.633 -1.20572 -3.05758e-18)
(10.4507 -1.19075 5.14858e-20)
(10.2656 -1.17572 3.53739e-18)
(10.077 -1.16059 -1.85818e-18)
(9.88438 -1.14533 3.21828e-20)
(9.68671 -1.12993 2.35675e-18)
(9.48291 -1.11432 -2.52137e-18)
(9.27162 -1.09847 1.39746e-18)
(9.05107 -1.08225 -1.51569e-18)
(8.81896 -1.06555 1.76226e-18)
(8.57212 -1.04818 -3.95524e-18)
(8.30614 -1.02971 2.31826e-18)
(8.0144 -1.00958 -1.43966e-18)
(7.68654 -0.986661 1.72052e-18)
(7.30526 -0.958532 6.28593e-20)
(6.84456 -0.91721 0)
(6.32105 -0.83915 1.06273e-19)
(6.68963 -0.628494 0)
(15.2637 -1.57262 0)
(15.0743 -1.56113 0)
(14.8866 -1.54865 0)
(14.701 -1.53577 -2.01407e-19)
(14.5175 -1.52264 1.01137e-19)
(14.3363 -1.50938 3.04887e-19)
(14.1573 -1.49601 -8.17711e-19)
(13.9804 -1.48255 -7.88124e-25)
(13.8055 -1.46902 3.10706e-19)
(13.6324 -1.45544 8.3662e-19)
(13.4608 -1.4418 -9.52351e-19)
(13.2907 -1.42809 8.58522e-19)
(13.1219 -1.41435 -8.72902e-19)
(12.954 -1.40054 -2.54738e-22)
(12.787 -1.38668 -5.73203e-20)
(12.6205 -1.37276 -1.0527e-18)
(12.4544 -1.35877 9.03302e-19)
(12.2884 -1.34472 -6.27273e-20)
(12.1222 -1.33062 -6.47662e-20)
(11.9556 -1.31644 6.78043e-20)
(11.7882 -1.30218 -7.08903e-20)
(11.6198 -1.28785 -1.14469e-18)
(11.45 -1.27342 2.45171e-18)
(11.2785 -1.25888 -4.13205e-20)
(11.1048 -1.24423 -4.38752e-20)
(10.9285 -1.22944 2.06093e-22)
(10.7491 -1.2145 -1.55051e-18)
(10.566 -1.19938 0)
(10.3785 -1.18405 1.92299e-18)
(10.1859 -1.16846 -2.02679e-18)
(9.98701 -1.15256 -1.82402e-22)
(9.7808 -1.13628 0)
(9.56572 -1.11952 0)
(9.33991 -1.10211 -4.7037e-20)
(9.10093 -1.08385 0)
(8.84545 -1.06444 5.98058e-20)
(8.56897 -1.04336 6.84732e-20)
(8.26494 -1.01983 7.93241e-20)
(7.924 -0.992143 -1.87321e-19)
(7.5349 -0.956376 -1.12857e-19)
(7.10509 -0.90253 0)
(6.82666 -0.824246 -1.46485e-18)
(8.13701 -0.656058 -1.60698e-18)
(15.2627 -1.56993 0)
(15.0892 -1.55976 -1.52218e-19)
(14.9166 -1.54852 1.53205e-19)
(14.7453 -1.53674 3.07517e-19)
(14.5754 -1.52462 -1.02972e-19)
(14.407 -1.51227 4.13162e-19)
(14.2402 -1.49976 -4.14817e-19)
(14.0748 -1.48711 -5.22123e-20)
(13.9107 -1.47435 1.04836e-19)
(13.7478 -1.4615 -3.70417e-19)
(13.586 -1.44859 4.81386e-19)
(13.4251 -1.43561 -8.67817e-19)
(13.2649 -1.42257 8.81649e-19)
(13.1052 -1.40945 -1.0114e-18)
(12.9459 -1.39627 9.76844e-19)
(12.7867 -1.383 9.42997e-19)
(12.6275 -1.36964 6.07626e-20)
(12.4679 -1.3562 -1.9435e-18)
(12.3078 -1.34267 1.10489e-18)
(12.1468 -1.32904 -6.78024e-20)
(11.9847 -1.31528 0)
(11.8212 -1.30138 0)
(11.6558 -1.28732 3.88986e-20)
(11.4884 -1.27308 -4.12851e-20)
(11.3183 -1.25864 -1.35455e-18)
(11.1452 -1.24398 1.48937e-18)
(10.9685 -1.22905 -9.95887e-20)
(10.7876 -1.21381 0)
(10.6018 -1.19821 8.08379e-19)
(10.4102 -1.18217 -1.00185e-18)
(10.2118 -1.16561 1.02374e-18)
(10.0055 -1.14842 -1.19656e-18)
(9.7896 -1.13047 0)
(9.56224 -1.11155 1.55548e-18)
(9.32089 -1.09141 -9.20221e-19)
(9.06221 -1.06968 -9.21403e-19)
(8.78169 -1.04578 6.59575e-20)
(8.47321 -1.0188 0)
(8.12948 -0.986604 -8.88653e-20)
(7.74859 -0.944023 2.11297e-19)
(7.37525 -0.87751 -2.59219e-19)
(7.32255 -0.783537 0)
(8.99491 -0.659811 0)
(15.261 -1.56689 1.02609e-19)
(15.1015 -1.5575 1.033e-19)
(14.9423 -1.54716 2.36513e-22)
(14.7837 -1.53625 0)
(14.6259 -1.52499 -1.04594e-19)
(14.4689 -1.5135 4.19963e-19)
(14.3129 -1.5018 -2.10696e-19)
(14.1578 -1.48991 -3.70636e-19)
(14.0035 -1.47787 4.25922e-19)
(13.8499 -1.46571 -5.35917e-20)
(13.6967 -1.45346 0)
(13.544 -1.44115 5.48634e-20)
(13.3915 -1.42878 -4.46748e-19)
(13.2391 -1.4163 5.68797e-19)
(13.0867 -1.40373 -5.80415e-20)
(12.9339 -1.39103 5.95128e-20)
(12.7806 -1.37822 0)
(12.6265 -1.36529 -6.32148e-20)
(12.4713 -1.35224 1.11582e-18)
(12.315 -1.33908 1.36623e-19)
(12.157 -1.32576 -1.21075e-18)
(11.9973 -1.31224 0)
(11.8353 -1.29849 5.48918e-19)
(11.6707 -1.2845 4.13675e-20)
(11.5031 -1.27025 -7.89204e-19)
(11.3319 -1.25571 0)
(11.1567 -1.24082 -7.47268e-19)
(10.9769 -1.22556 8.5467e-19)
(10.7917 -1.20983 5.74193e-20)
(10.6002 -1.19355 0)
(10.4015 -1.17661 1.08325e-18)
(10.1943 -1.15888 -1.10958e-18)
(9.9769 -1.1402 8.13985e-20)
(9.74752 -1.12035 6.29371e-19)
(9.50357 -1.09901 -6.00443e-19)
(9.24171 -1.07575 -1.12057e-19)
(8.9575 -1.0499 -1.26884e-19)
(8.64549 -1.02032 -1.45745e-19)
(8.30101 -0.984336 -1.69428e-19)
(7.93195 -0.935911 4.00319e-19)
(7.61424 -0.860304 1.21348e-19)
(7.72702 -0.753684 -4.41499e-19)
(9.54919 -0.657918 0)
(15.2599 -1.56524 2.61713e-20)
(15.1133 -1.55557 -2.63178e-20)
(14.9664 -1.54573 -5.27289e-20)
(14.8195 -1.5355 5.30972e-20)
(14.6726 -1.52497 -1.06221e-19)
(14.5262 -1.51429 5.33425e-20)
(14.3801 -1.50339 -2.1379e-19)
(14.2345 -1.49225 2.68332e-19)
(14.089 -1.48089 -5.40334e-20)
(13.9437 -1.46934 -5.44523e-20)
(13.7984 -1.45767 4.3965e-19)
(13.6529 -1.44595 -3.89443e-19)
(13.5073 -1.43419 -5.6581e-20)
(13.3613 -1.42229 1.2573e-22)
(13.2148 -1.41026 0)
(13.0676 -1.39808 0)
(12.9194 -1.38573 5.58298e-19)
(12.77 -1.3732 -5.11862e-19)
(12.6192 -1.36054 -6.61862e-20)
(12.4667 -1.34777 -6.19612e-19)
(12.3123 -1.33488 6.46037e-19)
(12.1557 -1.32174 -7.52274e-20)
(11.9965 -1.30829 7.10116e-19)
(11.8343 -1.29451 -7.4868e-19)
(11.6687 -1.28042 4.39619e-20)
(11.4992 -1.26599 0)
(11.3251 -1.25116 -7.97676e-19)
(11.146 -1.2359 9.07438e-19)
(10.961 -1.22015 0)
(10.7695 -1.20377 9.91378e-19)
(10.5702 -1.18657 -2.15085e-18)
(10.3619 -1.16845 1.09916e-18)
(10.143 -1.14929 5.6209e-19)
(9.9116 -1.12887 -6.19252e-19)
(9.66514 -1.10676 -9.80285e-20)
(9.40036 -1.08243 7.67602e-19)
(9.11294 -1.05501 -3.70702e-19)
(8.7981 -1.02304 -1.12683e-18)
(8.4541 -0.98334 6.50333e-19)
(8.09782 -0.929107 0)
(7.8282 -0.845921 0)
(8.05746 -0.732078 2.71291e-19)
(9.95333 -0.654307 1.07969e-18)
(15.26 -1.56308 0)
(15.1246 -1.55338 -2.67656e-20)
(14.9885 -1.54409 -2.68179e-20)
(14.8521 -1.53443 -5.37909e-20)
(14.715 -1.52446 5.39863e-20)
(14.5778 -1.51452 -5.39819e-20)
(14.4406 -1.5044 -5.42232e-20)
(14.3033 -1.49395 -5.43251e-20)
(14.1658 -1.48322 1.09358e-19)
(14.0279 -1.47221 -3.85808e-19)
(13.8894 -1.46096 4.45067e-19)
(13.7502 -1.4497 -1.12721e-19)
(13.6104 -1.4385 5.72329e-19)
(13.4699 -1.42716 -5.244e-19)
(13.3285 -1.41564 0)
(13.186 -1.40394 -6.10724e-20)
(13.0422 -1.39203 -6.26462e-20)
(12.8968 -1.37984 0)
(12.7495 -1.3674 -6.70151e-20)
(12.5999 -1.35491 -5.56057e-19)
(12.4482 -1.34246 5.79283e-19)
(12.2942 -1.32981 -1.86538e-22)
(12.1373 -1.31669 -7.95511e-20)
(11.9771 -1.30313 8.35584e-20)
(11.813 -1.28921 7.07226e-19)
(11.6448 -1.27487 -7.5001e-19)
(11.4716 -1.26008 -7.98608e-19)
(11.293 -1.24484 1.65368e-18)