/*--------------------------------*- C++ -*----------------------------------*\
| =========                 |                                                 |
| \\      /  F ield         | OpenFOAM: The Open Source CFD Toolbox           |
|  \\    /   O peration     | Version:  2.3.0                                 |
|   \\  /    A nd           | Web:      www.OpenFOAM.org                      |
|    \\/     M anipulation  |                                                 |
\*---------------------------------------------------------------------------*/
FoamFile
{
    version     2.0;
    format      ascii;
    class       volScalarField;
    location    "200";
    object      nut;
}
// * * * * * * * * * * * * * * * * * * * * * * * * * * * * * * * * * * * * * //

dimensions      [0 2 -1 0 0 0 0];

internalField   nonuniform List<scalar> 
28256
(
0.0201668
0.0189468
0.0177584
0.0166514
0.0156563
0.0147974
0.0140836
0.0135218
0.0131093
0.0128196
0.0126283
0.0124977
0.0123942
0.012283
0.0121421
0.0119413
0.0116757
0.0113315
0.0109317
0.0104413
0.0219939
0.0211366
0.02035
0.0196743
0.0191426
0.0187758
0.0185804
0.0185603
0.0186947
0.0189584
0.0193185
0.0197391
0.0201891
0.0206371
0.0210629
0.0214384
0.0217723
0.0220345
0.0222315
0.0223605
0.0240134
0.0235592
0.0232081
0.0229914
0.0229298
0.0230326
0.0232971
0.0237069
0.0242296
0.0248335
0.0254866
0.0261557
0.0268064
0.0274224
0.0279832
0.0284732
0.0288838
0.0292208
0.0294595
0.0295985
0.0261839
0.0261505
0.0262343
0.0264552
0.0268222
0.0273297
0.0279624
0.0286942
0.029488
0.0303182
0.0311559
0.0319686
0.0327345
0.0334413
0.03407
0.0346225
0.0350834
0.0354445
0.0357077
0.0358725
0.0284704
0.0288441
0.0293351
0.0299503
0.0306834
0.0315179
0.0324323
0.0333975
0.0343845
0.0353654
0.0363169
0.0372201
0.0380568
0.0388172
0.0394921
0.0400765
0.0405613
0.0409482
0.0412338
0.0414076
0.0308104
0.0315799
0.0324376
0.0333898
0.0344206
0.0355107
0.0366345
0.0377686
0.0388877
0.0399679
0.0409947
0.0419563
0.0428368
0.0436286
0.0443295
0.0449347
0.0454391
0.045847
0.0461425
0.0463345
0.0332069
0.034308
0.0354775
0.0367047
0.0379703
0.0392539
0.0405325
0.0417849
0.0429929
0.0441397
0.0452176
0.0462121
0.0471196
0.0479331
0.0486512
0.0492723
0.049793
0.0502087
0.0505196
0.0507231
0.035579
0.0369735
0.0383988
0.0398442
0.0412895
0.0427153
0.0441034
0.0454373
0.0467034
0.0478946
0.0490018
0.0500184
0.0509429
0.05177
0.0525009
0.0531312
0.0536599
0.0540874
0.0544112
0.054624
0.0379298
0.0395413
0.0411632
0.0427721
0.0443469
0.0458727
0.0473352
0.048722
0.050026
0.051243
0.052367
0.0533972
0.0543302
0.0551655
0.0559032
0.0565404
0.0570788
0.0575157
0.0578469
0.0580737
0.0401975
0.0419712
0.0437341
0.0454575
0.0471202
0.04871
0.0502176
0.0516361
0.0529614
0.0541909
0.0553235
0.0563586
0.0572956
0.058135
0.0588765
0.0595196
0.0600642
0.0605076
0.0608495
0.0610859
0.0423159
0.0442158
0.0460771
0.0478744
0.0495908
0.0512162
0.0527464
0.0541785
0.0555106
0.0567424
0.0578752
0.0589099
0.0598466
0.0606863
0.0614286
0.0620756
0.0626238
0.0630746
0.0634247
0.0636735
0.0442361
0.0462408
0.0481669
0.0500047
0.0517446
0.0533821
0.0549161
0.0563462
0.057673
0.0588988
0.0600255
0.0610547
0.0619863
0.0628225
0.0635651
0.064212
0.064764
0.0652202
0.0655783
0.0658375
0.045988
0.0480362
0.0499862
0.0518326
0.0535706
0.0551993
0.0567203
0.0581357
0.0594477
0.0606593
0.0617732
0.0627912
0.0637143
0.064545
0.0652834
0.0659293
0.0664827
0.0669426
0.0673083
0.0675772
0.0475381
0.0495842
0.0515211
0.0533461
0.0550586
0.0566603
0.058154
0.0595431
0.0608313
0.0620216
0.063117
0.0641194
0.0650307
0.0658518
0.0665833
0.0672258
0.0677788
0.0682417
0.0686137
0.0688932
0.0488518
0.0508641
0.052757
0.0545353
0.0562015
0.0577592
0.0592125
0.0605656
0.0618214
0.0629839
0.064055
0.0650373
0.0659323
0.0667406
0.0674632
0.0681001
0.0686513
0.0691163
0.0694939
0.0697829
0.0499343
0.0518644
0.0536818
0.0553895
0.0569912
0.0584907
0.0598921
0.0611992
0.0624154
0.0635432
0.0645849
0.0655431
0.0664184
0.067211
0.0679224
0.0685524
0.0691003
0.0695661
0.0699489
0.0702474
0.0507455
0.0525649
0.0542816
0.0558991
0.0574201
0.0588485
0.0601881
0.0614415
0.0626108
0.0636982
0.0647063
0.0656365
0.0664886
0.0672632
0.0679616
0.0685832
0.0691272
0.0695936
0.0699811
0.070289
0.0512543
0.0529416
0.0545386
0.0560498
0.057479
0.0588274
0.0600975
0.0612898
0.0624068
0.0634493
0.0644193
0.0653172
0.0661441
0.0668989
0.0675831
0.0681959
0.0687363
0.0692027
0.069596
0.0699135
0.0514509
0.052976
0.0544341
0.0558286
0.0571566
0.0584197
0.0596165
0.060746
0.0618065
0.0627995
0.0637254
0.0645878
0.0653869
0.0661213
0.0667918
0.0673963
0.0679326
0.0684016
0.0688016
0.0691304
0.051287
0.0526325
0.0539439
0.0552194
0.0564386
0.0576163
0.0587447
0.059815
0.0608249
0.0617651
0.0626372
0.0634536
0.0642199
0.0649358
0.0655964
0.0661955
0.06673
0.0672012
0.0676098
0.067955
0.0104303
0.0109181
0.0113649
0.0117386
0.0120674
0.0123405
0.0125748
0.0127887
0.0130001
0.0132446
0.0135582
0.0139789
0.0145377
0.0152613
0.0161671
0.0172635
0.0185518
0.0200254
0.0216693
0.0234583
0.0223895
0.0223315
0.0222155
0.0220423
0.0218005
0.0215311
0.0212228
0.0209025
0.0205849
0.0203052
0.0200935
0.0199869
0.0200209
0.0202286
0.0206349
0.0212552
0.0220935
0.0231437
0.024389
0.0257993
0.0296423
0.0296021
0.0294583
0.0292387
0.0289567
0.028597
0.028185
0.0277198
0.0272319
0.0267412
0.0262718
0.0258637
0.0255485
0.0253641
0.0253488
0.0255269
0.025916
0.0265214
0.0273355
0.0283361
0.0359296
0.0358796
0.0357439
0.0355231
0.0352169
0.0348216
0.0343601
0.0338302
0.0332552
0.0326454
0.0320297
0.0314312
0.0308757
0.030411
0.0300635
0.0298713
0.0298609
0.030049
0.0304389
0.0310208
0.0414776
0.0414443
0.0413115
0.0410917
0.0407685
0.0403702
0.0398882
0.0393282
0.0387042
0.0380357
0.0373299
0.0366067
0.0359021
0.0352329
0.0346383
0.0341551
0.0338113
0.0336314
0.0336287
0.0338033
0.0464173
0.0463902
0.0462701
0.0460491
0.0457399
0.0453383
0.0448513
0.0442811
0.0436386
0.0429372
0.0421759
0.0413833
0.0405726
0.0397664
0.0389954
0.0382888
0.0376778
0.0371884
0.0368392
0.0366453
0.0508156
0.0508053
0.0506916
0.050487
0.0501834
0.0497904
0.049307
0.0487357
0.0480926
0.0473755
0.0465921
0.0457548
0.0448799
0.0439801
0.0430834
0.0422127
0.0413941
0.0406513
0.0400115
0.0394926
0.0547327
0.0547327
0.0546351
0.0544409
0.0541529
0.0537676
0.0532947
0.0527372
0.052099
0.051381
0.0505892
0.0497313
0.0488152
0.0478576
0.0468771
0.0458891
0.0449132
0.0439732
0.0430957
0.0422974
0.058193
0.058208
0.0581274
0.0579493
0.0576731
0.0573047
0.0568474
0.0563075
0.0556791
0.0549677
0.0541764
0.0533144
0.0523824
0.0513929
0.0503568
0.0492881
0.0481997
0.0471131
0.0460464
0.0450182
0.0612188
0.0612506
0.0611848
0.0610224
0.0607647
0.060416
0.0599784
0.0594536
0.0588421
0.0581416
0.0573655
0.0565092
0.0555772
0.0545752
0.0535084
0.0523869
0.0512252
0.0500313
0.0488266
0.0476242
0.0638199
0.0638654
0.0638158
0.0636724
0.0634367
0.0631097
0.062691
0.0621871
0.0615953
0.060918
0.0601579
0.0593169
0.0583953
0.0573937
0.0563177
0.0551739
0.0539654
0.0527055
0.0514049
0.0500731
0.0659963
0.066059
0.0660271
0.0659035
0.0656873
0.0653825
0.0649898
0.0645109
0.0639451
0.0632935
0.0625574
0.0617389
0.0608336
0.0598466
0.0587789
0.0576299
0.0564063
0.0551117
0.0537506
0.0523373
0.0677506
0.0678286
0.0678159
0.0677117
0.0675196
0.0672403
0.0668743
0.0664233
0.0658863
0.0652636
0.0645586
0.0637677
0.0628908
0.0619285
0.0608793
0.0597458
0.0585251
0.0572211
0.0558369
0.0543814
0.0690796
0.0691751
0.0691811
0.0691005
0.0689331
0.0686796
0.0683423
0.0679217
0.0674158
0.0668279
0.0661572
0.0654009
0.0645582
0.0636285
0.0626113
0.0615045
0.0603067
0.0590171
0.0576378
0.0561757
0.0699833
0.0700955
0.0701224
0.0700648
0.0699228
0.0696979
0.0693911
0.0690032
0.0685325
0.0679809
0.0673469
0.0666286
0.0658275
0.0649389
0.0639632
0.0628962
0.0617357
0.0604801
0.0591277
0.057683
0.0704611
0.0705908
0.0706383
0.0706041
0.0704894
0.0702937
0.0700191
0.0696642
0.0692298
0.0687163
0.0681224
0.0674476
0.0666904
0.0658501
0.0649227
0.063904
0.0627942
0.0615864
0.0602761
0.0588589
0.070516
0.0706633
0.0707319
0.0707218
0.0706335
0.0704675
0.0702238
0.0699025
0.0695043
0.06903
0.068478
0.0678476
0.0671386
0.0663493
0.0654759
0.0645169
0.0634669
0.062321
0.0610738
0.0597151
0.0701549
0.0703205
0.07041
0.0704234
0.0703607
0.0702215
0.0700065
0.0697165
0.0693522
0.0689144
0.0684032
0.0678182
0.0671587
0.0664232
0.0656097
0.0647158
0.0637369
0.0626682
0.0615033
0.060232
0.0693882
0.069573
0.0696845
0.0697211
0.0696821
0.0695649
0.0693711
0.0691035
0.0687658
0.0683599
0.0678869
0.0673454
0.0667345
0.0660551
0.0653047
0.0644809
0.0635805
0.0625994
0.0615332
0.0603756
0.0682292
0.0684368
0.0685744
0.068639
0.0686269
0.0685149
0.0683168
0.0680493
0.067727
0.0673493
0.0669169
0.0664106
0.0658401
0.0652216
0.0645357
0.063783
0.0629603
0.062072
0.0611173
0.0600894
0.0022151
0.00189393
0.00194732
0.0023566
0.00296442
0.00362036
0.00423975
0.00478519
0.00525364
0.00565262
0.00598915
0.00626507
0.00647927
0.0066279
0.00670764
0.00671931
0.00665999
0.00653274
0.00634248
0.00608736
0.00284954
0.00338501
0.00438144
0.00553303
0.00666267
0.00771269
0.00868014
0.00958071
0.0104286
0.0112328
0.0119919
0.0127027
0.0133551
0.0139411
0.0144534
0.0148865
0.0152371
0.0155066
0.0156875
0.0157834
0.00491852
0.0064029
0.00799134
0.00950561
0.0109103
0.0122201
0.0134567
0.0146355
0.0157611
0.0168299
0.0178345
0.0187627
0.0196057
0.0203556
0.0210042
0.0215484
0.0219858
0.0223133
0.0225328
0.0226412
0.00809388
0.0100386
0.0118836
0.0135989
0.0152039
0.0167222
0.0181689
0.0195479
0.0208566
0.0220866
0.023227
0.0242703
0.025207
0.0260322
0.0267421
0.0273355
0.0278089
0.0281621
0.0283965
0.0285074
0.0116936
0.0138337
0.0158359
0.0177102
0.0194795
0.02116
0.0227576
0.0242709
0.0256931
0.0270162
0.0282323
0.0293346
0.0303188
0.0311814
0.0319212
0.0325366
0.0330279
0.0333936
0.0336328
0.0337464
0.0154134
0.0176796
0.0198074
0.0218102
0.0237043
0.0254985
0.0271938
0.0287863
0.0302707
0.031641
0.0328917
0.0340197
0.0350222
0.0358984
0.0366484
0.037271
0.0377676
0.0381364
0.038377
0.0384883
0.019172
0.0215421
0.0237704
0.025868
0.0278461
0.0297099
0.0314583
0.033089
0.0345983
0.0359832
0.0372415
0.0383719
0.0393745
0.0402487
0.0409957
0.0416161
0.0421088
0.0424745
0.0427118
0.042819
0.0229427
0.025396
0.0276968
0.0298556
0.0318806
0.0337762
0.0355437
0.0371811
0.0386888
0.0400663
0.0413138
0.0424311
0.0434207
0.0442823
0.0450179
0.0456274
0.0461114
0.0464689
0.0466995
0.0468012
0.026691
0.0292155
0.031562
0.03375
0.0357904
0.0376885
0.0394475
0.0410699
0.042557
0.0439111
0.0451343
0.0462287
0.0471955
0.0480373
0.0487548
0.0493485
0.0498186
0.0501647
0.0503853
0.0504789
0.030431
0.0329845
0.0353454
0.0375342
0.039563
0.0414405
0.0431716
0.0447617
0.0462147
0.047535
0.048725
0.0497878
0.0507261
0.0515418
0.052236
0.0528096
0.0532617
0.0535928
0.0538011
0.053885
0.034138
0.0366828
0.0390292
0.0411936
0.0431899
0.0450281
0.0467171
0.0482631
0.0496724
0.0509499
0.0521002
0.0531262
0.0540305
0.0548157
0.0554826
0.0560316
0.0564629
0.0567757
0.0569686
0.0570406
0.0377632
0.0402851
0.0425954
0.0447158
0.0466626
0.0484485
0.0500837
0.0515775
0.0529361
0.0541654
0.0552705
0.0562549
0.0571214
0.057872
0.0585079
0.0590292
0.0594361
0.0597276
0.0599031
0.05996
0.041301
0.043774
0.0460282
0.0480883
0.049973
0.0516969
0.0532711
0.0547058
0.0560087
0.0571857
0.058242
0.0591814
0.0600064
0.0607192
0.0613204
0.061811
0.0621902
0.0624575
0.0626118
0.0626519
0.0447442
0.0471339
0.0493122
0.0512991
0.0531123
0.0547669
0.0562751
0.0576471
0.0588908
0.0600124
0.0610172
0.0619087
0.0626895
0.0633614
0.0639252
0.0643814
0.0647297
0.0649698
0.0651002
0.0651198
0.0480405
0.0503343
0.0524267
0.0543327
0.0560689
0.0576504
0.0590899
0.0603969
0.0615798
0.0626447
0.0635959
0.0644376
0.0651716
0.0658
0.0663235
0.0667424
0.0670569
0.067266
0.0673691
0.0673649
0.0511155
0.053338
0.0553475
0.0571709
0.0588285
0.0603364
0.0617064
0.0629489
0.0640709
0.0650782
0.0659756
0.0667659
0.0674517
0.0680345
0.0685151
0.0688941
0.0691711
0.0693461
0.0694183
0.0693865
0.0540207
0.0561428
0.0580596
0.0597974
0.0613761
0.062811
0.0641139
0.0652934
0.0663563
0.0673078
0.0681516
0.068891
0.0695276
0.0700633
0.070499
0.070835
0.0710719
0.0712091
0.0712464
0.0711825
0.0567113
0.0587242
0.060542
0.0621912
0.0636918
0.0650567
0.0662962
0.0674176
0.0684261
0.0693257
0.0701194
0.0708092
0.0713973
0.0718851
0.0722739
0.0725647
0.072758
0.072854
0.0728519
0.0727514
0.0591734
0.0610587
0.0627666
0.0643233
0.0657478
0.0670483
0.0682311
0.0693031
0.0702664
0.0711229
0.0718737
0.0725194
0.0730613
0.0735007
0.0738398
0.074082
0.0742287
0.07428
0.0742349
0.0740915
0.0613962
0.0631166
0.0646934
0.0661441
0.0675
0.0687495
0.0698822
0.0709203
0.0718568
0.0726864
0.0734105
0.0740233
0.0745279
0.0749175
0.0751975
0.0753829
0.0754782
0.0754863
0.0753992
0.0752024
0.00608718
0.00634687
0.00653779
0.00666805
0.00673221
0.0067323
0.00666948
0.00655035
0.00638462
0.00618529
0.00597042
0.00576293
0.00559169
0.00549654
0.00553521
0.00577971
0.00630711
0.00718406
0.00845922
0.0101669
0.0157783
0.0156654
0.0154725
0.0151947
0.0148369
0.0143994
0.0138904
0.0133154
0.0126858
0.0120161
0.0113229
0.0106268
0.00995068
0.00932547
0.00879582
0.00843182
0.00833348
0.00861615
0.0093714
0.0106381
0.0226293
0.0225007
0.0222596
0.0219122
0.0214577
0.0209003
0.0202422
0.01949
0.0186528
0.0177417
0.0167736
0.0157658
0.0147419
0.013729
0.0127621
0.011893
0.0112051
0.010822
0.0108901
0.0115186
0.0284938
0.0283521
0.0280921
0.02771
0.0272118
0.0265973
0.0258681
0.0250286
0.0240842
0.0230437
0.0219169
0.0207206
0.0194724
0.018196
0.0169206
0.0156854
0.0145501
0.0136107
0.0130109
0.0129126
0.0337289
0.0335806
0.0333054
0.032906
0.0323827
0.031736
0.0309686
0.0300813
0.0290779
0.0279625
0.0267437
0.0254306
0.0240377
0.0225834
0.0210902
0.0195889
0.0181222
0.0167582
0.0156066
0.0148227
0.038467
0.0383139
0.0380312
0.0376207
0.0370836
0.0364215
0.0356341
0.0347225
0.033688
0.0325336
0.0312621
0.0298812
0.0283987
0.0268273
0.0251844
0.0234923
0.0217812
0.0200977
0.0185184
0.0171605
0.0427945
0.042637
0.0423493
0.0419337
0.0413906
0.0407216
0.0399261
0.0390046
0.0379575
0.0367846
0.0354886
0.0340711
0.0325372
0.0308943
0.029153
0.0273282
0.02544
0.0235196
0.0216157
0.0198059
0.0467717
0.0466103
0.0463204
0.0459017
0.0453575
0.044687
0.0438908
0.0429688
0.0419197
0.0407434
0.0394391
0.0380071
0.0364484
0.0347657
0.0329645
0.0310524
0.0290413
0.0269491
0.0248046
0.0226548
0.0504435
0.0502789
0.0499857
0.0495673
0.049023
0.0483552
0.0475628
0.0466454
0.0456016
0.0444299
0.0431288
0.0416963
0.0401308
0.0384315
0.0365986
0.0346346
0.0325432
0.0303317
0.0280144
0.0256165
0.0538424
0.0536724
0.0533775
0.0529583
0.0524165
0.0517524
0.0509659
0.0500561
0.0490213
0.0478598
0.0465688
0.0451452
0.0435849
0.0418849
0.0400417
0.0380522
0.0359138
0.0336261
0.031191
0.0286179
0.0569888
0.0568134
0.0565148
0.056095
0.0555554
0.0548953
0.0541157
0.053215
0.0521914
0.0510426
0.049766
0.0483565
0.0468099
0.0451201
0.0432814
0.0412862
0.0391276
0.0367979
0.0342895
0.0315989
0.0598974
0.0597138
0.0594106
0.0589894
0.0584505
0.0577945
0.0570212
0.0561293
0.0551173
0.0539828
0.0527218
0.0513302
0.0498018
0.0481299
0.0463057
0.0443201
0.0421616
0.0398174
0.0372725
0.0345112
0.0625755
0.0623818
0.0620721
0.061647
0.0611075
0.0604538
0.0596853
0.0588017
0.0578007
0.0566796
0.055435
0.0540621
0.0525547
0.0509046
0.0491029
0.0471377
0.044995
0.0426581
0.040106
0.0373152
0.0650267
0.0648204
0.0645009
0.0640697
0.0635272
0.0628731
0.0621077
0.06123
0.0602379
0.0591287
0.0578991
0.0565448
0.0550588
0.0534334
0.0516584
0.049721
0.0476059
0.0452937
0.0427595
0.0399748
0.0672519
0.0670288
0.0666968
0.0662557
0.0657066
0.0650493
0.0642833
0.0634081
0.0624216
0.0613217
0.060105
0.0587669
0.0573017
0.055701
0.0539549
0.0520506
0.049972
0.0476982
0.0452025
0.0424543
0.0692492
0.0690059
0.0686563
0.0682015
0.0676413
0.0669758
0.0662047
0.0653272
0.064342
0.0632467
0.0620385
0.0607134
0.0592659
0.0576888
0.0559723
0.0541039
0.0520674
0.049842
0.0473988
0.0447011
0.0710167
0.0707477
0.0703759
0.0699015
0.0693245
0.0686445
0.0678617
0.0669753
0.0659843
0.0648873
0.0636816
0.0623644
0.0609304
0.0593738
0.0576857
0.0558544
0.0538649
0.0516971
0.0493231
0.0467089
0.0725514
0.0722513
0.0718511
0.0713507
0.0707492
0.0700465
0.0692423
0.0683368
0.0673302
0.0662217
0.0650103
0.0636935
0.0622675
0.0607269
0.0590645
0.0572701
0.0553303
0.053226
0.0509323
0.0484251
0.0738503
0.0735129
0.0730785
0.0725458
0.0719115
0.071173
0.0703317
0.0693906
0.068353
0.0672201
0.0659922
0.064667
0.0632412
0.0617107
0.0600704
0.058312
0.0564232
0.0543919
0.0522053
0.0498497
0.0749042
0.0745221
0.0740532
0.0734942
0.0728199
0.0720193
0.0711098
0.0701007
0.0690109
0.0678362
0.0665825
0.0652412
0.0638058
0.0622757
0.0606524
0.0589331
0.0571111
0.0551687
0.0531014
0.0509262
4.15915e-05
0.000322482
0.000618899
0.000953722
0.00134361
0.00178385
0.00228698
0.00285622
0.00350062
0.00422439
0.00504052
0.00595602
0.00698309
0.00813126
0.0094
0.0107874
0.0122855
0.0138762
0.0155373
0.0172257
4.09923e-14
1.06031e-11
2.60037e-10
2.91706e-09
1.85353e-06
7.08086e-05
0.000474234
0.000797918
0.00120133
0.00169846
0.00230378
0.00303232
0.00389806
0.00491391
0.00609007
0.00743169
0.00893754
0.0106005
0.0124041
0.01432
0
0
0
6.76763e-10
2.01537e-07
0.000192683
0.000367141
0.000578272
0.000848559
0.00119401
0.00163093
0.00217675
0.0028499
0.00366947
0.00465374
0.00581873
0.00717619
0.00873239
0.0104873
0.0124335
4.69075e-18
6.99208e-16
2.00921e-08
6.63021e-06
9.79007e-05
0.000220752
0.000353228
0.000520109
0.000734591
0.00101037
0.00136255
0.00180802
0.0023658
0.00305665
0.0039024
0.00492488
0.00614433
0.00757778
0.00923731
0.0111271
8.19773e-09
5.89698e-07
5.7414e-06
3.20472e-05
0.00010377
0.000200222
0.000317241
0.000463312
0.000649486
0.000888094
0.00119289
0.00157965
0.00206661
0.00267437
0.00342571
0.00434489
0.00545669
0.00678503
0.0083513
0.0101716
9.69373e-09
7.83564e-07
6.62299e-06
2.80772e-05
8.37469e-05
0.00017133
0.000278355
0.000410382
0.000577466
0.000790939
0.00106355
0.00141006
0.00184773
0.00239657
0.00307917
0.00392071
0.00494818
0.00618937
0.00767135
0.00941688
8.66934e-09
6.93081e-07
5.69078e-06
2.341e-05
6.66993e-05
0.000145872
0.00024509
0.000365984
0.000518372
0.000712606
0.00096069
0.00127655
0.0016766
0.00218007
0.00280918
0.00358929
0.00454841
0.00571658
0.00712465
0.00880129
7.81714e-09
6.35376e-07
5.20448e-06
2.0914e-05
5.61595e-05
0.000125694
0.000218014
0.000330058
0.000470595
0.000649455
0.000877937
0.00116927
0.00153916
0.00200614
0.00259207
0.00332223
0.00422542
0.00533394
0.00668374
0.00831614
7.31283e-09
6.13121e-07
5.1109e-06
2.04446e-05
5.2962e-05
0.000110841
0.000196301
0.000301075
0.00043167
0.000597909
0.000810278
0.00108144
0.00142638
0.00186299
0.00241252
0.00309979
0.00395333
0.0050051
0.006289
0.00783618
6.8676e-09
5.88749e-07
4.9811e-06
1.98509e-05
5.02032e-05
9.9201e-05
0.000178316
0.000276958
0.000399213
0.000554946
0.000753866
0.00100802
0.00133177
0.00174238
0.0022604
0.00290999
0.00371923
0.00471981
0.00594624
0.00743484
6.4783e-09
5.6775e-07
4.85565e-06
1.94104e-05
4.85872e-05
9.32246e-05
0.000163946
0.000256836
0.000372108
0.000518581
0.000705953
0.000945497
0.00125101
0.00163911
0.00212969
0.00274644
0.00351722
0.00447422
0.00565451
0.007102
6.19846e-09
5.53208e-07
4.81371e-06
1.93978e-05
4.83033e-05
9.09656e-05
0.000152561
0.000239813
0.000348965
0.000487284
0.000664646
0.00089156
0.00118123
0.00154968
0.00201624
0.00260409
0.00334062
0.00425774
0.00539165
0.00678098
5.93529e-09
5.38752e-07
4.73225e-06
1.91806e-05
4.75837e-05
8.83718e-05
0.000143008
0.00022502
0.00032876
0.000459938
0.000628542
0.000844396
0.00112016
0.0014713
0.00191661
0.00247871
0.00318458
0.00406592
0.0051596
0.00650888
5.69037e-09
5.22529e-07
4.64132e-06
1.89334e-05
4.69895e-05
8.66802e-05
0.000137639
0.000212713
0.000311259
0.000436208
0.000596721
0.000802734
0.00106614
0.00140188
0.00182819
0.00236709
0.0030449
0.00389278
0.00494633
0.00624454
5.48467e-09
5.11351e-07
4.59107e-06
1.89227e-05
4.70638e-05
8.64283e-05
0.000135523
0.000202665
0.000296013
0.000415267
0.00056841
0.000765587
0.00101794
0.00133988
0.00174907
0.00226698
0.00291949
0.00373736
0.00475685
0.00602086
5.29424e-09
4.98945e-07
4.53501e-06
1.88709e-05
4.70558e-05
8.6053e-05
0.000133446
0.000193952
0.000282445
0.00039649
0.000542924
0.000732122
0.000974522
0.00128398
0.00167763
0.00217646
0.00280573
0.00359569
0.00458182
0.00580471
5.1046e-09
4.85876e-07
4.45164e-06
1.8662e-05
4.67055e-05
8.52695e-05
0.000131311
0.000187411
0.000270511
0.000379699
0.000520178
0.000701822
0.000935095
0.00123313
0.00161252
0.00209364
0.00270107
0.00346405
0.00441656
0.00559634
4.92894e-09
4.73402e-07
4.3739e-06
1.85084e-05
4.65551e-05
8.50266e-05
0.000130493
0.000184397
0.0002605
0.000364718
0.000499632
0.00067418
0.00089898
0.00118643
0.00155254
0.00201705
0.00260376
0.00334087
0.00426127
0.0054016
4.76778e-09
4.62692e-07
4.32099e-06
1.84637e-05
4.66613e-05
8.52405e-05
0.000130383
0.000182678
0.000251911
0.0003512
0.000480829
0.000648696
0.000865607
0.00114323
0.00149693
0.00194589
0.00251324
0.00322666
0.00411894
0.00522892
4.63297e-09
4.5294e-07
4.26299e-06
1.83664e-05
4.66416e-05
8.52345e-05
0.000129946
0.000180666
0.000244196
0.000338785
0.000463449
0.00062511
0.000834598
0.001103
0.00144514
0.00187956
0.00242884
0.00312008
0.0039852
0.00506065
4.47626e-09
4.40567e-07
4.1776e-06
1.81479e-05
4.63582e-05
8.48612e-05
0.000129183
0.000178697
0.00023837
0.000327546
0.000447396
0.000603331
0.000805602
0.00106537
0.00139678
0.00181781
0.00235062
0.00302222
0.00386522
0.00492005
4.32338e-09
4.28927e-07
4.09525e-06
1.79462e-05
4.61248e-05
8.46528e-05
0.000128861
0.000177778
0.000235351
0.000317782
0.000432641
0.000583071
0.000778452
0.0010301
0.0013515
0.0017602
0.00227794
0.00293142
0.00375296
0.004781
4.19274e-09
4.181e-07
4.01487e-06
1.78027e-05
4.60507e-05
8.47455e-05
0.000129002
0.000177553
0.000233541
0.000309262
0.000419126
0.000564271
0.000753126
0.000997229
0.00130934
0.00170656
0.0022102
0.00284643
0.0036466
0.00464747
4.03364e-09
4.03797e-07
3.94821e-06
1.76267e-05
4.59224e-05
8.47831e-05
0.000129047
0.000177177
0.000231637
0.000301617
0.00040671
0.000546865
0.000729611
0.000966668
0.00127014
0.00165661
0.00214693
0.00276649
0.00354574
0.00452022
3.91413e-09
3.962e-07
3.8557e-06
1.73611e-05
4.56055e-05
8.44811e-05
0.000128695
0.000176417
0.000229558
0.000295246
0.000395433
0.000530898
0.00070809
0.000938312
0.00123362
0.00160994
0.00208748
0.00269087
0.0034495
0.00439731
3.81369e-09
3.84646e-07
3.76912e-06
1.7067e-05
4.51271e-05
8.39967e-05
0.00012821
0.00017572
0.000228084
0.000291255
0.000385537
0.00051631
0.00068823
0.00091185
0.00119942
0.00156606
0.00203135
0.00261933
0.00335865
0.00428277
3.7171e-09
3.74696e-07
3.66977e-06
1.6753e-05
4.46694e-05
8.35549e-05
0.000127858
0.000175355
0.000227346
0.000288962
0.000376948
0.000502945
0.000669774
0.000887095
0.00116731
0.00152488
0.00197887
0.00255307
0.00327661
0.0041861
3.60759e-09
3.64713e-07
3.59975e-06
1.64839e-05
4.42891e-05
8.32079e-05
0.000127625
0.000175145
0.000226829
0.000287068
0.000369213
0.000490594
0.000652536
0.000863874
0.0011372
0.00148631
0.00192987
0.00249139
0.00319974
0.0040898
3.52824e-09
3.56333e-07
3.51676e-06
1.62342e-05
4.38879e-05
8.28484e-05
0.000127346
0.000174847
0.000226131
0.000284992
0.000362122
0.000479108
0.00063641
0.000842087
0.00110894
0.00145021
0.00188404
0.00243357
0.00312701
0.00399793
3.42035e-09
3.46659e-07
3.42925e-06
1.59202e-05
4.33815e-05
8.22881e-05
0.000126795
0.000174217
0.000225084
0.00028271
0.000355818
0.000468417
0.000621365
0.00082188
0.00108243
0.00141619
0.0018408
0.00237871
0.00305719
0.00390818
3.32705e-09
3.37194e-07
3.34419e-06
1.56071e-05
4.2803e-05
8.15784e-05
0.000126059
0.000173384
0.000223941
0.000280683
0.000351019
0.000458678
0.000607367
0.000803028
0.00105749
0.00138414
0.00180002
0.00232722
0.00299303
0.00383156
3.26728e-09
3.29742e-07
3.27839e-06
1.53424e-05
4.22637e-05
8.09198e-05
0.000125361
0.000172666
0.000223077
0.000279291
0.000347856
0.000449995
0.000594356
0.000785323
0.00103398
0.00135394
0.00176159
0.00227862
0.00293187
0.00375361
3.21069e-09
3.23171e-07
3.21196e-06
1.50789e-05
4.17862e-05
8.03294e-05
0.000124799
0.000172146
0.000222512
0.000278375
0.000345592
0.000442216
0.000582268
0.000768659
0.00101175
0.00132536
0.00172535
0.00223294
0.00287488
0.0036842
3.10933e-09
3.13584e-07
3.1482e-06
1.48263e-05
4.1322e-05
7.98338e-05
0.000124339
0.000171745
0.000222073
0.000277596
0.000343559
0.000435063
0.000570936
0.000752971
0.000990796
0.00129838
0.00169106
0.00218976
0.00282073
0.00361614
3.04581e-09
3.09073e-07
3.09137e-06
1.46074e-05
4.09458e-05
7.94e-05
0.000123938
0.000171363
0.000221601
0.000276749
0.000341465
0.000428414
0.000560292
0.000738125
0.000970936
0.00127282
0.00165857
0.00214874
0.0027691
0.0035511
2.99032e-09
3.02264e-07
3.0376e-06
1.43887e-05
4.05445e-05
7.89127e-05
0.000123456
0.000170868
0.000220994
0.00027572
0.000339232
0.000422246
0.000550283
0.00072416
0.00095228
0.00124858
0.0016278
0.00210986
0.00272032
0.0034907
2.93513e-09
2.9739e-07
2.97924e-06
1.41649e-05
4.00993e-05
7.83303e-05
0.000122856
0.000170264
0.00022027
0.000274589
0.000337053
0.000416908
0.000540947
0.000711045
0.000934754
0.00122558
0.00159844
0.0020727
0.00267321
0.00343024
2.88785e-09
2.91267e-07
2.92736e-06
1.39412e-05
3.96397e-05
7.77237e-05
0.000122217
0.000169603
0.000219484
0.000273496
0.0003352
0.000412765
0.000532336
0.000698648
0.000918099
0.0012037
0.00157052
0.00203735
0.00262892
0.00337637
2.82022e-09
2.85257e-07
2.86538e-06
1.37058e-05
3.91758e-05
7.71203e-05
0.000121582
0.000168965
0.000218794
0.000272628
0.000333816
0.000409783
0.000524522
0.000687025
0.000902374
0.00118293
0.00154394
0.00200389
0.00258741
0.0033258
2.76315e-09
2.7957e-07
2.81897e-06
1.35062e-05
3.87817e-05
7.66014e-05
0.000121029
0.000168435
0.000218281
0.000272025
0.000332856
0.000407559
0.000517372
0.000676039
0.000887376
0.00116308
0.00151862
0.00197194
0.00254709
0.00327378
2.72736e-09
2.75421e-07
2.77367e-06
1.33435e-05
3.84382e-05
7.61651e-05
0.000120578
0.000168033
0.00021792
0.000271608
0.000332132
0.000405689
0.000510802
0.000665727
0.000873187
0.00114425
0.00149465
0.00194192
0.00251051
0.00323276
2.68486e-09
2.70892e-07
2.73515e-06
1.31768e-05
3.81212e-05
7.57942e-05
0.000120224
0.000167713
0.000217631
0.000271266
0.000331457
0.000403873
0.000504642
0.000655953
0.000859688
0.00112638
0.00147199
0.00191382
0.00247641
0.00319162
2.6672e-09
2.67791e-07
2.70149e-06
1.30276e-05
3.78387e-05
7.54492e-05
0.000119889
0.000167416
0.000217342
0.000270891
0.000330722
0.000402025
0.000498855
0.000646731
0.000846952
0.00110953
0.0014505
0.00188694
0.00244258
0.00314673
2.64342e-09
2.64684e-07
2.66425e-06
1.28864e-05
3.75568e-05
7.50843e-05
0.000119545
0.000167101
0.000217012
0.000270433
0.000329885
0.000400126
0.00049346
0.000638004
0.00083489
0.0010937
0.00143025
0.00186179
0.00241203
0.00311248
2.6079e-09
2.60696e-07
2.62759e-06
1.27419e-05
3.72485e-05
7.47196e-05
0.00011917
0.00016673
0.000216615
0.000269919
0.000329003
0.000398266
0.000488639
0.00062986
0.000823559
0.0010787
0.0014107
0.00183656
0.00237787
0.00305832
2.57741e-09
2.56746e-07
2.5962e-06
1.26053e-05
3.69562e-05
7.43196e-05
0.000118741
0.000166305
0.000216173
0.000269356
0.000328115
0.000396587
0.000484595
0.000622219
0.000812773
0.00106433
0.00139184
0.00181254
0.00234833
0.00303022
2.53251e-09
2.52906e-07
2.5627e-06
1.2469e-05
3.66457e-05
7.38975e-05
0.000118295
0.000165865
0.000215723
0.000268822
0.000327343
0.000395215
0.000481443
0.000615151
0.000802525
0.00105056
0.00137363
0.00178906
0.00231773
0.00298519
2.4863e-09
2.48765e-07
2.52981e-06
1.23213e-05
3.634e-05
7.34932e-05
0.000117869
0.000165456
0.00021532
0.000268387
0.000326774
0.000394233
0.000479113
0.000608631
0.000792753
0.00103726
0.00135589
0.00176588
0.00228714
0.00294494
2.46081e-09
2.46803e-07
2.50654e-06
1.22096e-05
3.61087e-05
7.31767e-05
0.000117525
0.000165124
0.000215008
0.000268084
0.000326393
0.000393547
0.000477334
0.000602602
0.000783435
0.00102444
0.00133876
0.00174389
0.00226026
0.00291777
2.44373e-09
2.44981e-07
2.48765e-06
1.2123e-05
3.59104e-05
7.2919e-05
0.000117256
0.000164888
0.000214827
0.000267936
0.000326206
0.000393104
0.000475868
0.000596965
0.000774495
0.00101205
0.00132228
0.00172292
0.00223397
0.00288269
2.42436e-09
2.43311e-07
2.4688e-06
1.20405e-05
3.57481e-05
7.26992e-05
0.000117058
0.000164741
0.000214735
0.000267881
0.000326108
0.00039274
0.000474526
0.000591647
0.000765945
0.00100021
0.00130658
0.00170305
0.00220965
0.00285488
2.40849e-09
2.41139e-07
2.44862e-06
1.19642e-05
3.55846e-05
7.25019e-05
0.00011689
0.000164617
0.000214669
0.000267855
0.000326024
0.000392368
0.000473194
0.000586614
0.00075782
0.000988919
0.00129161
0.00168404
0.00218568
0.00282266
2.38e-09
2.38807e-07
2.42894e-06
1.18878e-05
3.54309e-05
7.23019e-05
0.000116702
0.000164496
0.000214623
0.00026784
0.000325946
0.000391989
0.000471846
0.000581822
0.000750046
0.000978113
0.00127727
0.00166544
0.00216139
0.00278941
2.36495e-09
2.37053e-07
2.41401e-06
1.18171e-05
3.52856e-05
7.21377e-05
0.000116557
0.000164391
0.000214555
0.000267793
0.000325825
0.00039155
0.000470484
0.000577316
0.000742655
0.000967809
0.0012636
0.00164757
0.00213858
0.00276196
2.35571e-09
2.35962e-07
2.40048e-06
1.17544e-05
3.51537e-05
7.19706e-05
0.000116412
0.000164284
0.000214472
0.000267704
0.000325643
0.000391053
0.000469099
0.000573101
0.000735598
0.000957924
0.00125028
0.00162962
0.00211406
0.00272469
2.33167e-09
2.33798e-07
2.38261e-06
1.16814e-05
3.50053e-05
7.1781e-05
0.00011623
0.000164132
0.000214362
0.00026759
0.000325425
0.000390534
0.000467784
0.000569323
0.000728867
0.000948358
0.00123736
0.00161254
0.00209283
0.00270458
2.32494e-09
2.32587e-07
2.36519e-06
1.16177e-05
3.48646e-05
7.16043e-05
0.000116049
0.000163979
0.000214241
0.000267452
0.000325188
0.000390021
0.000466572
0.000566042
0.000722481
0.000939147
0.00122481
0.00159572
0.00207059
0.00267134
2.33498e-09
2.31978e-07
2.35497e-06
1.15617e-05
3.47516e-05
7.14511e-05
0.000115883
0.00016384
0.000214103
0.000267297
0.000324969