/*--------------------------------*- C++ -*----------------------------------*\
| =========                 |                                                 |
| \\      /  F ield         | OpenFOAM: The Open Source CFD Toolbox           |
|  \\    /   O peration     | Version:  2.3.0                                 |
|   \\  /    A nd           | Web:      www.OpenFOAM.org                      |
|    \\/     M anipulation  |                                                 |
\*---------------------------------------------------------------------------*/
FoamFile
{
    version     2.0;
    format      ascii;
    class       volScalarField;
    location    "200";
    object      p;
}
// * * * * * * * * * * * * * * * * * * * * * * * * * * * * * * * * * * * * * //

dimensions      [0 2 -2 0 0 0 0];

internalField   nonuniform List<scalar> 
28256
(
-0.23281
18.8069
33.2301
45.5809
55.3726
61.7906
64.7263
64.8201
62.2055
57.6463
51.7658
44.5749
36.606
27.5431
17.7078
6.50602
-4.73287
-16.7931
-23.9776
-32.6867
-6.15866
8.43479
19.1071
28.2054
35.6708
41.3004
45.1058
47.1486
47.0799
44.8922
40.319
33.426
24.2147
13.1238
0.210959
-14.0118
-29.2844
-45.1649
-61.9756
-78.399
-12.826
-1.52019
5.9693
11.6174
15.1886
16.3932
15.4161
12.2724
7.35059
1.02044
-6.42924
-14.6239
-23.3757
-32.402
-41.7105
-51.0299
-60.3841
-69.7308
-79.0818
-88.2721
-20.9474
-11.1753
-5.93423
-2.47371
-0.709947
-0.740305
-2.33148
-5.39675
-9.64919
-14.8774
-20.9468
-27.6508
-34.8235
-42.3182
-49.9673
-57.7271
-65.5712
-73.3788
-81.0756
-88.7057
-29.3468
-20.6794
-17.1955
-15.4484
-15.2172
-16.4739
-19.0238
-22.6604
-27.1252
-32.2313
-37.7889
-43.6199
-49.5836
-55.6662
-61.8212
-67.9464
-73.9984
-80.0189
-85.9387
-91.7739
-36.995
-29.6505
-27.3423
-26.6928
-27.2169
-28.8447
-31.4241
-34.7554
-38.6671
-42.9793
-47.5942
-52.4293
-57.4177
-62.4472
-67.5407
-72.62
-77.6387
-82.6325
-87.5519
-92.4242
-44.0246
-38.0617
-36.6419
-36.6705
-37.6384
-39.4441
-41.9576
-45.0114
-48.4842
-52.2403
-56.2205
-60.3236
-64.5034
-68.7089
-72.9287
-77.1285
-81.3586
-85.5104
-89.5705
-93.5635
-48.769
-45.6097
-44.9337
-45.3359
-46.4803
-48.2516
-50.5451
-53.2324
-56.2052
-59.3943
-62.7148
-66.1554
-69.6457
-73.1814
-76.7547
-80.3061
-83.8338
-87.3196
-90.7546
-94.1252
-53.6583
-52.5926
-52.4152
-53.0051
-54.1798
-55.8167
-57.83
-60.1269
-62.6465
-65.3431
-68.1381
-71.0266
-73.9675
-76.9415
-79.92
-82.8866
-85.8331
-88.7917
-91.688
-94.5403
-59.6529
-59.0045
-59.0435
-59.7192
-60.8317
-62.304
-64.0535
-66.0057
-68.1144
-70.342
-72.673
-75.0669
-77.4993
-79.9883
-82.47
-85.0094
-87.4935
-89.9632
-92.4144
-94.8217
-65.9081
-64.7201
-64.8986
-65.6332
-66.6613
-67.9164
-69.368
-70.9828
-72.7211
-74.5662
-76.4796
-78.4644
-80.4649
-82.5409
-84.5929
-86.6736
-88.7765
-90.8471
-92.8732
-94.9095
-71.0044
-69.7924
-70.0925
-70.822
-71.7294
-72.7922
-73.994
-75.3083
-76.7062
-78.1813
-79.7098
-81.3045
-82.9342
-84.616
-86.3312
-88.0192
-89.736
-91.4635
-93.1847
-94.865
-74.7221
-74.262
-74.702
-75.3876
-76.1576
-77.0101
-77.9683
-78.9855
-80.0774
-81.2366
-82.4776
-83.739
-85.045
-86.3861
-87.7621
-89.1654
-90.5785
-91.9721
-93.3919
-94.784
-78.8455
-78.6192
-78.9289
-79.4511
-80.0495
-80.6841
-81.3978
-82.1531
-82.9848
-83.8319
-84.7674
-85.7112
-86.7237
-87.7595
-88.8486
-89.9442
-91.0883
-92.2422
-93.3742
-94.5083
-82.3667
-82.3136
-82.5278
-82.9098
-83.3433
-83.7844
-84.2768
-84.7939
-85.3557
-85.9627
-86.6225
-87.3253
-88.1195
-88.8923
-89.7494
-90.6144
-91.5017
-92.4051
-93.3493
-94.2746
-85.4154
-85.4907
-85.6546
-85.8738
-86.1285
-86.3708
-86.6263
-86.9438
-87.273
-87.6719
-88.0918
-88.5558
-89.1144
-89.6716
-90.2963
-90.9562
-91.6497
-92.3669
-93.0954
-93.8318
-88.1038
-88.227
-88.2538
-88.2978
-88.3545
-88.4193
-88.4876
-88.6013
-88.7448
-88.9477
-89.2002
-89.5055
-89.888
-90.2937
-90.7472
-91.2865
-91.8048
-92.3768
-92.9649
-93.5632
-90.1361
-90.3192
-90.2157
-90.1023
-90.0031
-89.8882
-89.7963
-89.6985
-89.6813
-89.6687
-89.7405
-89.8547
-90.0835
-90.34
-90.6275
-90.9992
-91.412
-91.8235
-92.2896
-92.7677
-91.9316
-91.9047
-91.6687
-91.3744
-91.1649
-90.9768
-90.8538
-90.7166
-90.6385
-90.5878
-90.6533
-90.7663
-91.014
-91.2801
-91.5928
-91.8958
-92.247
-92.5937
-93.0229
-93.4175
-93.8231
-93.7536
-93.0208
-92.1103
-91.3016
-90.817
-90.3142
-89.7451
-89.2297
-88.7783
-88.4248
-88.1864
-88.0045
-87.7607
-87.819
-88.2403
-88.636
-88.9688
-89.1876
-89.2161
-83.8029
-120.521
-142.439
-159.37
-174.896
-188.336
-199.959
-209.452
-217.091
-222.957
-227.022
-229.294
-229.603
-227.814
-223.746
-217.394
-208.943
-198.842
-187.469
-178.272
-94.3027
-110.201
-126.197
-141.178
-155.564
-168.68
-180.427
-190.691
-199.071
-205.435
-209.602
-211.697
-211.721
-209.907
-206.471
-201.583
-195.395
-188.014
-179.418
-173.238
-97.2454
-106.165
-114.977
-123.569
-131.944
-140.197
-148.176
-155.905
-163.135
-169.797
-175.651
-180.499
-184.109
-186.229
-186.708
-185.446
-182.511
-177.977
-171.938
-167.279
-96.2138
-103.589
-110.838
-117.999
-125.063
-131.998
-138.652
-145.063
-151.139
-156.762
-161.739
-166.009
-169.433
-171.779
-173.033
-173.004
-171.644
-168.892
-164.719
-160.803
-97.4287
-103.036
-108.602
-114.042
-119.38
-124.616
-129.756
-134.768
-139.63
-144.268
-148.64
-152.621
-156.056
-158.865
-160.836
-161.82
-161.717
-160.41
-157.819
-154.706
-97.2129
-101.88
-106.511
-111.016
-115.452
-119.858
-124.165
-128.342
-132.444
-136.34
-140.056
-143.515
-146.606
-149.235
-151.304
-152.675
-153.2
-152.794
-151.375
-149.921
-97.4937
-101.335
-105.172
-108.936
-112.626
-116.214
-119.812
-123.293
-126.693
-129.959
-133.079
-136.044
-138.778
-141.23
-143.26
-144.784
-145.694
-145.871
-145.192
-144.57
-97.4487
-100.685
-103.912
-107.054
-110.208
-113.272
-116.256
-119.187
-122.049
-124.865
-127.557
-130.143
-132.542
-134.714
-136.598
-138.106
-139.148
-139.642
-139.492
-139.489
-97.3654
-100.123
-102.844
-105.497
-108.142
-110.765
-113.333
-115.836
-118.256
-120.639
-122.939
-125.101
-127.169
-129.089
-130.804
-132.264
-133.376
-134.043
-134.233
-134.617
-97.1587
-99.498
-101.857
-104.148
-106.375
-108.553
-110.724
-112.883
-114.965
-116.994
-118.965
-120.863
-122.651
-124.317
-125.834
-127.153
-128.223
-128.991
-129.399
-129.985
-96.9269
-98.8975
-100.833
-102.746
-104.658
-106.556
-108.41
-110.229
-111.982
-113.717
-115.39
-117
-118.543
-120.013
-121.35
-122.556
-123.574
-124.348
-124.893
-125.608
-96.5413
-98.1949
-99.8668
-101.506
-103.151
-104.729
-106.277
-107.816
-109.313
-110.783
-112.225
-113.616
-114.941
-116.19
-117.354
-118.409
-119.324
-120.086
-120.685
-121.402
-96.1811
-97.5548
-98.9413
-100.288
-101.628
-102.971
-104.295
-105.592
-106.87
-108.113
-109.303
-110.453
-111.568
-112.649
-113.668
-114.61
-115.461
-116.176
-116.795
-117.487
-95.6574
-96.7915
-97.948
-99.087
-100.218
-101.344
-102.457
-103.534
-104.587
-105.63
-106.64
-107.624
-108.587
-109.482
-110.348
-111.135
-111.86
-112.526
-113.135
-113.722
-95.2114
-96.1305
-97.069
-98.0054
-98.9466
-99.8508
-100.782
-101.658
-102.529
-103.383
-104.224
-105.023
-105.786
-106.533
-107.241
-107.933
-108.575
-109.143
-109.705
-110.184
-94.5928
-95.3416
-96.1452
-96.9108
-97.6812
-98.4414
-99.1894
-99.9286
-100.664
-101.369
-102.018
-102.691
-103.322
-103.935
-104.502
-105.056
-105.584
-106.088
-106.559
-107.029
-94.179
-94.7738
-95.4024
-96.0397
-96.6623
-97.2807
-97.876
-98.4513
-99.0246
-99.5879
-100.103
-100.618
-101.096
-101.565
-102.008
-102.438
-102.839
-103.248
-103.642
-103.923
-93.2735
-93.7763
-94.3006
-94.8218
-95.3782
-95.9099
-96.4224
-96.9188
-97.3947
-97.866
-98.3144
-98.7173
-99.1219
-99.4527
-99.7964
-100.121
-100.405
-100.682
-100.961
-101.153
-93.8675
-94.2992
-94.7131
-95.0671
-95.4664
-95.7858
-96.0774
-96.384
-96.7575
-97.0799
-97.4205
-97.6757
-97.9152
-98.1124
-98.307
-98.4719
-98.6097
-98.7587
-98.8825
-98.9684
-89.499
-89.6928
-89.6738
-89.9417
-90.967
-92.4722
-92.6196
-92.7471
-93.1466
-93.527
-94.0314
-95.0091
-95.1318
-94.6563
-95.465
-95.5451
-95.431
-95.5381
-95.574
-95.6709
-153.59
-150.569
-147.937
-145.852
-144.483
-143.899
-144.103
-145.101
-146.935
-149.613
-153.102
-157.376
-162.416
-168.23
-174.769
-181.833
-189.183
-198.055
-213.577
-236.326
-151.915
-148.495
-145.738
-143.784
-142.891
-143.148
-144.425
-146.457
-148.953
-151.662
-154.375
-156.944
-159.26
-161.216
-162.757
-163.84
-164.441
-164.634
-164.562
-164.264
-151.516
-148.721
-147.011
-146.227
-146.367
-147.265
-148.675
-150.35
-152.089
-153.732
-155.176
-156.353
-157.21
-157.748
-157.986
-157.93
-157.615
-157.056
-156.268
-155.357
-152.106
-150.129
-149.224
-149.042
-149.479
-150.36
-151.503
-152.733
-153.913
-154.954
-155.79
-156.388
-156.742
-156.844
-156.701
-156.325
-155.731
-154.912
-153.885
-152.697
-153.174
-151.903
-151.483
-151.638
-152.251
-153.158
-154.197
-155.239
-156.188
-156.976
-157.565
-157.934
-158.074
-157.984
-157.666
-157.122
-156.357
-155.379
-154.192
-152.828
-154.528
-153.954
-153.894
-154.292
-155.008
-155.888
-156.805
-157.662
-158.393
-158.961
-159.341
-159.519
-159.484
-159.231
-158.762
-158.076
-157.179
-156.084
-154.793
-153.336
-156.503
-156.183
-156.4
-156.95
-157.699
-158.529
-159.344
-160.077
-160.682
-161.124
-161.381
-161.441
-161.295
-160.943
-160.38
-159.615
-158.652
-157.497
-156.157
-154.656
-158.395
-158.508
-158.903
-159.527
-160.27
-161.034
-161.75
-162.365
-162.84
-163.156
-163.298
-163.251
-163.007
-162.569
-161.933
-161.105
-160.089
-158.897
-157.534
-156.026
-160.291
-160.826
-161.364
-162.017
-162.727
-163.422
-164.046
-164.562
-164.944
-165.167
-165.217
-165.089
-164.778
-164.28
-163.598
-162.736
-161.701
-160.503
-159.148
-157.653
-162.533
-163.183
-163.775
-164.412
-165.065
-165.682
-166.217
-166.637
-166.924
-167.062
-167.039
-166.842
-166.472
-165.928
-165.213
-164.331
-163.29
-162.097
-160.762
-159.299
-164.637
-165.664
-166.181
-166.739
-167.311
-167.839
-168.285
-168.623
-168.828
-168.887
-168.795
-168.547
-168.138
-167.567
-166.837
-165.952
-164.921
-163.75
-162.446
-161.022
-167.17
-167.973
-168.465
-168.955
-169.443
-169.885
-170.242
-170.495
-170.629
-170.631
-170.488
-170.196
-169.754
-169.164
-168.428
-167.55
-166.535
-165.392
-164.129
-162.757
-168.804
-170.144
-170.638
-171.052
-171.455
-171.816
-172.099
-172.282
-172.348
-172.291
-172.105
-171.785
-171.326
-170.729
-169.996
-169.134
-168.148
-167.044
-165.826
-164.507
-170.886
-172.25
-172.689
-173.03
-173.359
-173.646
-173.856
-173.977
-173.995
-173.899
-173.681
-173.337
-172.865
-172.269
-171.549
-170.709
-169.752
-168.688
-167.521
-166.262
-173.47
-174.468
-174.73
-174.956
-175.192
-175.396
-175.538
-175.6
-175.566
-175.432
-175.188
-174.83
-174.358
-173.77
-173.069
-172.257
-171.34
-170.324
-169.213
-168.015
-175.524
-176.352
-176.62
-176.788
-176.945
-177.082
-177.168
-177.184
-177.118
-176.956
-176.695
-176.33
-175.858
-175.28
-174.598
-173.816
-172.937
-171.967
-170.909
-169.773
-177.767
-178.114
-178.348
-178.466
-178.557
-178.629
-178.66
-178.63
-178.524
-178.336
-178.062
-177.698
-177.241
-176.691
-176.046
-175.309
-174.483
-173.571
-172.578
-171.51
-179.438
-180.43
-180.456
-180.412
-180.4
-180.406
-180.408
-180.372
-180.261
-180.053
-179.752
-179.357
-178.87
-178.301
-177.652
-176.925
-176.121
-175.243
-174.293
-173.28
-181.744
-181.768
-181.665
-181.496
-181.286
-181.153
-181.049
-180.932
-180.775
-180.56
-180.323
-180.069
-179.731
-179.307
-178.798
-178.214
-177.546
-176.787
-175.93
-174.986
-185.829
-185.903
-186.765
-186.515
-185.22
-185.252
-185.875
-186.592
-186.387
-185.523
-184.276
-183.345
-182.509
-181.702
-180.872
-180.089
-179.309
-178.473
-177.49
-176.504
-233.651
-209.197
-194.528
-187.405
-182.288
-177.651
-173.428
-169.591
-166.042
-162.697
-159.509
-156.465
-153.566
-150.817
-148.212
-145.73
-143.33
-140.956
-138.556
-136.381
-163.841
-163.158
-162.11
-160.934
-159.593
-158.126
-156.575
-155.036
-153.575
-152.228
-150.987
-149.806
-148.606
-147.312
-145.874
-144.282
-142.549
-140.678
-138.652
-136.749
-154.462
-153.584
-152.715
-151.886
-151.121
-150.409
-149.737
-149.088
-148.442
-147.789
-147.111
-146.402
-145.646
-144.822
-143.901
-142.851
-141.65
-140.271
-138.674
-136.992
-151.434
-150.169
-148.954
-147.848
-146.846
-145.974
-145.235
-144.63
-144.146
-143.77
-143.47
-143.206
-142.934
-142.6
-142.154
-141.559
-140.786
-139.814
-138.611
-137.205
-151.377
-149.915
-148.505
-147.19
-145.993
-144.923
-143.991
-143.208
-142.572
-142.074
-141.696
-141.418
-141.2
-141.002
-140.769
-140.447
-139.985
-139.345
-138.487
-137.351
-151.777
-150.199
-148.669
-147.224
-145.879
-144.656
-143.572
-142.637
-141.857
-141.234
-140.758
-140.409
-140.166
-139.988
-139.831
-139.645
-139.374
-138.969
-138.373
-137.439
-153.052
-151.422
-149.82
-148.283
-146.829
-145.478
-144.249
-143.157
-142.212
-141.417
-140.774
-140.274
-139.9
-139.63
-139.428
-139.25
-139.045
-138.756
-138.317
-137.475
-154.419
-152.774
-151.146
-149.566
-148.051
-146.623
-145.297
-144.091
-143.02
-142.092
-141.309
-140.671
-140.169
-139.785
-139.493
-139.261
-139.044
-138.794
-138.447
-137.762
-156.059
-154.427
-152.798
-151.199
-149.648
-148.163
-146.766
-145.473
-144.297
-143.25
-142.337
-141.56
-140.918
-140.402
-139.993
-139.666
-139.387
-139.115
-138.795
-138.244
-157.744
-156.14
-154.53
-152.937
-151.377
-149.87
-148.432
-147.08
-145.83
-144.692
-143.676
-142.788
-142.027
-141.388
-140.86
-140.426
-140.058
-139.723
-139.376
-138.87
-159.511
-157.95
-156.376
-154.803
-153.253
-151.74
-150.282
-148.895
-147.594
-146.39
-145.293
-144.311
-143.445
-142.695
-142.054
-141.509
-141.038
-140.614
-140.197
-139.672
-161.298
-159.79
-158.257
-156.721
-155.195
-153.696
-152.24
-150.84
-149.509
-148.263
-147.109
-146.055
-145.106
-144.265
-143.524
-142.876
-142.304
-141.784
-141.29
-140.756
-163.108
-161.658
-160.178
-158.688
-157.2
-155.728
-154.288
-152.891
-151.552
-150.283
-149.094
-147.991
-146.981
-146.065
-145.241
-144.503
-143.837
-143.22
-142.631
-142.056
-164.926
-163.539
-162.119
-160.682
-159.241
-157.809
-156.398
-155.022
-153.692
-152.42
-151.213
-150.081
-149.029
-148.06
-147.175
-146.366
-145.623
-144.93
-144.277
-143.714
-166.746
-165.425
-164.07
-162.694
-161.307
-159.925
-158.556
-157.215
-155.908
-154.65
-153.448
-152.309
-151.238
-150.239
-149.313
-148.458
-147.665
-146.921
-146.224
-145.661
-168.571
-167.318
-166.03
-164.718
-163.393
-162.067
-160.75
-159.453
-158.185
-156.956
-155.772
-154.641
-153.567
-152.553
-151.597
-150.698
-149.845
-149.016
-148.172
-147.459
-170.379
-169.198
-167.981
-166.738
-165.478
-164.213
-162.952
-161.71
-160.493
-159.311
-158.166
-157.066
-156.014
-155.014
-154.065
-153.167
-152.309
-151.479
-150.653
-149.996
-172.213
-171.099
-169.949
-168.773
-167.576
-166.377
-165.18
-164.007
-162.859
-161.741
-160.651
-159.597
-158.58
-157.602
-156.663
-155.767
-154.89
-154.013
-153.121
-152.358
-173.977
-172.91
-171.845
-170.781
-169.676
-168.526
-167.325
-166.186
-165.092
-164.066
-163.055
-162.076
-161.123
-160.199
-159.312
-158.503
-157.697
-156.88
-156.09
-155.462
-175.834
-175.078
-174.145
-172.963
-171.433
-170.19
-169.114
-168.538
-167.892
-167.108
-166.097
-165.086
-164.103
-163.216
-162.431
-161.783
-160.833
-159.925
-159.117
-158.185
439.26
434.34
425.681
415.246
403.978
392.407
378.283
360.988
340.634
317.484
291.417
262.668
231.469
198.333
164.323
130.496
97.9961
67.9264
40.3622
14.025
24.6898
25.4374
26.8641
28.697
30.855
32.8391
33.8993
34.7906
36.1749
37.7174
39.2075
40.5323
41.4896
41.7778
40.9663
38.5345
33.9874
26.9552
17.1452
4.05395
49.8549
49.8884
49.9936
50.2175
50.506
50.6482
50.6313
50.5734
50.2842
49.6039
48.4001
46.5295
43.8408
40.2015
35.5146
29.7359
22.8737
14.9698
5.99571
-4.36519
13.0623
13.09
13.2034
13.4173
13.632
13.637
13.5567
13.4352
13.234
12.9246
12.4695
11.8058
10.8492
9.47997
7.5426
4.85321
1.22281
-3.49852
-9.39535
-16.6567
-32.6442
-32.5887
-32.3921
-31.94
-31.32
-30.6029
-29.7837
-28.8734
-27.8844
-26.8396
-25.7697
-24.7257
-23.7721
-23.0046
-22.5465
-22.5601
-23.2391
-24.7836
-27.3298
-31.1439
-56.6514
-56.5722
-56.3668
-55.973
-55.4014
-54.6951
-53.8658
-52.9164
-51.8502
-50.6773
-49.4173
-48.0981
-46.7626
-45.4726
-44.3163
-43.4109
-42.9071
-42.9654
-43.6682
-45.2353
-77.5995
-77.5242
-77.3352
-76.9605
-76.4051
-75.6992
-74.8503
-73.8563
-72.7116
-71.4168
-69.978
-68.41
-66.7361
-64.9998
-63.2651
-61.6221
-60.1971
-59.1356
-58.5241
-58.408
-94.874
-94.8063
-94.6366
-94.2946
-93.7678
-93.083
-92.2539
-91.2699
-90.121
-88.8007
-87.3047
-85.6377
-83.8085
-81.8426
-79.7809
-77.6904
-75.6685
-73.8358
-72.3205
-71.5025
-108.416
-108.355
-108.21
-107.908
-107.428
-106.794
-106.014
-105.082
-103.983
-102.707
-101.245
-99.5926
-97.7503
-95.729
-93.5518
-91.2635
-88.9341
-86.6624
-84.552
-82.7199
-119.305
-119.256
-119.128
-118.866
-118.441
-117.865
-117.149
-116.283
-115.255
-114.052
-112.659
-111.066
-109.269
-107.267
-105.07
-102.702
-100.208
-97.6635
-95.1889
-92.9006
-128.339
-128.292
-128.184
-127.954
-127.574
-127.053
-126.396
-125.597
-124.642
-123.516
-122.202
-120.691
-118.967
-117.027
-114.869
-112.507
-109.966
-107.291
-104.603
-102.313
-135.792
-135.753
-135.657
-135.456
-135.119
-134.649
-134.052
-133.32
-132.437
-131.39
-130.163
-128.739
-127.105
-125.248
-123.161
-120.845
-118.31
-115.589
-112.767
-109.958
-142.024
-141.988
-141.905
-141.728
-141.43
-141.009
-140.468
-139.799
-138.988
-138.02
-136.88
-135.551
-134.017
-132.264
-130.282
-128.067
-125.622
-122.971
-120.228
-117.88
-147.235
-147.205
-147.131
-146.974
-146.707
-146.327
-145.834
-145.22
-144.472
-143.576
-142.514
-141.271
-139.828
-138.169
-136.279
-134.146
-131.763
-129.132
-126.296
-123.471
-151.617
-151.589
-151.525
-151.385
-151.145
-150.801
-150.352
-149.79
-149.103
-148.275
-147.289
-146.129
-144.779
-143.219
-141.434
-139.41
-137.136
-134.612
-131.873
-129.16
-155.273
-155.25
-155.192
-155.068
-154.854
-154.544
-154.137
-153.625
-152.995
-152.231
-151.318
-150.24
-148.98
-147.52
-145.843
-143.932
-141.775
-139.367
-136.729
-134.052
-158.305
-158.284
-158.233
-158.123
-157.93
-157.65
-157.28
-156.811
-156.231
-155.525
-154.679
-153.676
-152.499
-151.13
-149.551
-147.743
-145.691
-143.384
-140.827
-138.143
-160.825
-160.807
-160.763
-160.663
-160.488
-160.233
-159.893
-159.462
-158.926
-158.273
-157.486
-156.55
-155.449
-154.164
-152.677
-150.968
-149.02
-146.818
-144.362
-141.75
-162.863
-162.847
-162.808
-162.719
-162.561
-162.328
-162.019
-161.624
-161.132
-160.529
-159.8
-158.931
-157.905
-156.704
-155.311
-153.705
-151.87
-149.789
-147.457
-144.973
-164.45
-164.437
-164.402
-164.323
-164.181
-163.97
-163.689
-163.328
-162.878
-162.323
-161.649
-160.843
-159.888
-158.767
-157.463
-155.954
-154.219
-152.241
-150.01
-147.571
-165.662
-165.651
-165.621
-165.55
-165.421
-165.231
-164.974
-164.645
-164.232
-163.722
-163.101
-162.356
-161.472
-160.433
-159.221
-157.817
-156.2
-154.351
-152.263
-150.052
-166.446
-166.438
-166.413
-166.351
-166.238
-166.068
-165.839
-165.544
-165.172
-164.712
-164.15
-163.473
-162.667
-161.717
-160.605
-159.314
-157.825
-156.118
-154.178
-152.12
-166.764
-166.759
-166.738
-166.687
-166.59
-166.444
-166.246
-165.99
-165.667
-165.266
-164.773
-164.174
-163.456
-162.604
-161.602
-160.43
-159.07
-157.5
-155.698
-153.717
-166.903
-166.898
-166.881
-166.837
-166.754
-166.627
-166.455
-166.232
-165.949
-165.596
-165.16
-164.628
-163.988
-163.225
-162.323
-161.263
-160.025
-158.586
-156.922
-155.057
-166.969
-166.966
-166.951
-166.913
-166.84
-166.73
-166.579
-166.382
-166.133
-165.82
-165.432
-164.957
-164.383
-163.698
-162.884
-161.924
-160.799
-159.488
-157.964
-156.234
-166.965
-166.962
-166.949
-166.917
-166.854
-166.757
-166.624
-166.451
-166.23
-165.952
-165.606
-165.182
-164.668
-164.051
-163.316
-162.446
-161.422
-160.224
-158.831
-157.237
-167.006
-167.003
-166.991
-166.961
-166.904
-166.816
-166.694
-166.537
-166.335
-166.082
-165.767
-165.381
-164.911
-164.348
-163.676
-162.882
-161.947
-160.851
-159.578
-158.15
-166.985
-166.983
-166.973
-166.946
-166.896
-166.817
-166.708
-166.566
-166.385
-166.156
-165.872
-165.521
-165.093
-164.576
-163.959
-163.226
-162.36
-161.34
-160.141
-158.762
-166.984
-166.981
-166.972
-166.948
-166.901
-166.829
-166.73
-166.6
-166.435
-166.226
-165.966
-165.644
-165.251
-164.776
-164.206
-163.529
-162.726
-161.779
-160.662
-159.361
-166.973
-166.971
-166.963
-166.941
-166.9
-166.835
-166.746
-166.629
-166.479
-166.29
-166.053
-165.759
-165.398
-164.961
-164.436
-163.811
-163.069
-162.192
-161.16
-159.957
-167.018
-167.016
-167.008
-166.988
-166.949
-166.889
-166.806
-166.698
-166.559
-166.383
-166.163
-165.89
-165.555
-165.149
-164.662
-164.082
-163.394
-162.583
-161.631
-160.54
-167.054
-167.051
-167.044
-167.026
-166.99
-166.935
-166.858
-166.758
-166.63
-166.467
-166.263
-166.009
-165.698
-165.32
-164.866
-164.323
-163.678
-162.915
-162.015
-160.975
-167.1
-167.098
-167.091
-167.074
-167.042
-166.99
-166.919
-166.826
-166.707
-166.556
-166.366
-166.13
-165.84
-165.487
-165.062
-164.554
-163.951
-163.237
-162.397
-161.449
-167.167
-167.165
-167.159
-167.143
-167.112
-167.064
-166.997
-166.91
-166.798
-166.657
-166.479
-166.258
-165.987
-165.656
-165.256
-164.779
-164.211
-163.538
-162.743
-161.836
-167.236
-167.234
-167.228
-167.213
-167.185
-167.14
-167.078
-166.997
-166.893
-166.761
-166.595
-166.388
-166.134
-165.822
-165.446
-164.996
-164.459
-163.822
-163.067
-162.197
-167.313
-167.312
-167.306
-167.293
-167.266
-167.225
-167.167
-167.092
-166.994
-166.871
-166.716
-166.523
-166.285
-165.992
-165.638
-165.214
-164.708
-164.108
-163.396
-162.571
-167.432
-167.43
-167.425
-167.412
-167.386
-167.347
-167.292
-167.22
-167.128
-167.011
-166.864
-166.68
-166.453
-166.175
-165.838
-165.434
-164.952
-164.379
-163.701
-162.906
-167.544
-167.543
-167.538
-167.526
-167.502
-167.466
-167.415
-167.348
-167.262
-167.152
-167.014
-166.841
-166.626
-166.364
-166.045
-165.661
-165.203
-164.659
-164.015
-163.281
-167.699
-167.697
-167.692
-167.68
-167.658
-167.623
-167.574
-167.509
-167.426
-167.321
-167.189
-167.023
-166.818
-166.567
-166.262
-165.896
-165.458
-164.937
-164.32
-163.613
-167.855
-167.853
-167.848
-167.837
-167.816
-167.783
-167.736
-167.675
-167.596
-167.496
-167.37
-167.212
-167.017
-166.777
-166.485
-166.133
-165.711
-165.207
-164.606
-163.91
-168.032
-168.031
-168.027
-168.016
-167.995
-167.964
-167.919
-167.861
-167.786
-167.69
-167.57
-167.419
-167.233
-167.005
-166.727
-166.393
-165.993
-165.52
-164.961
-164.345
-168.214
-168.212
-168.208
-168.198
-168.179
-168.149
-168.106
-168.051
-167.98
-167.889
-167.775
-167.632
-167.455
-167.237
-166.972
-166.652
-166.27
-165.815
-165.275
-164.661
-168.406
-168.404
-168.4
-168.391
-168.372
-168.344
-168.304
-168.251
-168.183
-168.096
-167.987
-167.849
-167.679
-167.47
-167.213
-166.903
-166.53
-166.083
-165.547
-164.918
-168.628
-168.627
-168.623
-168.613
-168.596
-168.568
-168.529
-168.478
-168.412
-168.329
-168.224
-168.092
-167.928
-167.727
-167.481
-167.183
-166.827
-166.402
-165.897
-165.325
-168.86
-168.859
-168.855
-168.846
-168.829
-168.802
-168.765
-168.717
-168.654
-168.574
-168.472
-168.346
-168.188
-167.994
-167.756
-167.468
-167.122
-166.708
-166.209
-165.577
-169.099
-169.097
-169.094
-169.085
-169.069
-169.045
-169.01
-168.964
-168.904
-168.828
-168.732
-168.612
-168.461
-168.275
-168.048
-167.774
-167.446
-167.057
-166.603
-166.101
-169.371
-169.369
-169.366
-169.358
-169.342
-169.318
-169.283
-169.238
-169.18
-169.105
-169.011
-168.893
-168.746
-168.564
-168.341
-168.071
-167.745
-167.355
-166.884
-166.269
-169.667
-169.666
-169.662
-169.654
-169.639
-169.614
-169.58
-169.536
-169.478
-169.405
-169.312
-169.195
-169.049
-168.869
-168.649
-168.382
-168.06
-167.673
-167.211
-166.633
-169.95
-169.949
-169.946
-169.938
-169.924
-169.901
-169.869
-169.827
-169.773
-169.703
-169.615
-169.504
-169.365
-169.193
-168.982
-168.726
-168.418
-168.052
-167.618
-167.086
-170.284
-170.283
-170.28
-170.272
-170.258
-170.235
-170.203
-170.161
-170.107
-170.038
-169.95
-169.84
-169.703
-169.534
-169.327
-169.076
-168.773
-168.41
-167.977
-167.418
-170.609
-170.607
-170.604
-170.597
-170.583
-170.562
-170.531
-170.491
-170.439
-170.373
-170.288
-170.182
-170.049
-169.884
-169.682
-169.435
-169.137
-168.781
-168.357
-167.82
-170.957
-170.955
-170.952
-170.945
-170.932
-170.911
-170.882
-170.843
-170.793
-170.728
-170.646
-170.542
-170.412
-170.251
-170.053
-169.811
-169.519
-169.167
-168.75
-168.212
-171.347
-171.346
-171.343
-171.336
-171.323
-171.302
-171.273
-171.234
-171.183
-171.119
-171.037
-170.934
-170.805
-170.645
-170.449
-170.209
-169.919
-169.569
-169.153
-168.623
-171.753
-171.752
-171.749
-171.743
-171.73
-171.71
-171.681
-171.643
-171.594
-171.531
-171.45
-171.349
-171.222
-171.064
-170.87
-170.633
-170.346
-170
-169.59
-169.083
-172.179
-172.178
-172.175
-172.169
-172.156
-172.136
-172.109
-172.072
-172.024
-171.962
-171.883
-171.783
-171.657
-171.501
-171.308
-171.072
-170.784
-170.436
-170.015
-169.46
-172.647
-172.646
-172.643
-172.637
-172.624
-172.605
-172.577
-172.54
-172.492
-172.431
-172.352
-172.252
-172.127
-171.971
-171.779
-171.543
-171.257
-170.914
-170.505
-169.975
-173.147
-173.146
-173.144
-173.137
-173.125
-173.105
-173.077
-173.041
-172.993
-172.931
-172.852
-172.752
-172.626
-172.47
-172.275
-172.037
-171.747
-171.398
-170.983
-170.42
-173.688
-173.687
-173.685
-173.678
-173.666
-173.646
-173.619
-173.582
-173.533
-173.471
-173.391
-173.289
-173.161
-173.001
-172.803
-172.56
-172.265
-171.908
-171.487
-170.969
-174.248
-174.247
-174.245
-174.238
-174.226
-174.207
-174.18
-174.144
-174.096
-174.033
-173.953
-173.85
-173.721
-173.558
-173.355
-173.106
-172.8
-172.429
-171.982
-171.396
-174.899
-174.898
-174.895
-174.889
-174.876
-174.856
-174.827
-174.788
-174.737
-174.672
-174.587
-174.479
-174.342
-174.171
-173.958
-173.696
-173.376
-172.988
-172.524
-171.942
-175.574
-175.573
-175.571
-175.565
-175.552
-175.532
-175.504
-175.465
-175.413
-175.346
-175.259
-175.148
-175.006
-174.827
-174.604
-174.329
-173.993
-173.586
-173.098
-172.49
-176.378
-176.377
-176.374
-176.367
-176.352
-176.329
-176.297
-176.253
-176.195
-176.12
-176.024
-175.901
-175.745
-175.549
-175.306
-175.008
-174.644
-174.206
-173.682
-173.029
-177.206
-177.206
-177.203
-177.196
-177.181
-177.157
-177.122
-177.075
-177.013
-176.932
-176.827
-176.693
-176.522
-176.308
-176.043
-175.716
-175.319
-174.841
-174.273
-173.571
-178.122
-178.121
-178.118
-178.109
-178.092
-178.064
-178.024
-177.971
-177.901
-177.809
-177.69
-177.539
-177.348
-177.108
-176.811
-176.446
-176.004
-175.472
-174.842
-174.07
-179.073
-179.073
-179.069
-179.06
-179.041
-179.01
-178.965
-178.906
-178.826
-178.723
-178.59
-178.42
-178.204
-177.934
-177.599
-177.189
-176.693
-176.099
-175.4
-174.565
-180.103
-180.103
-180.099
-180.087
-180.065
-180.028
-179.977
-179.907
-179.814
-179.694
-179.54
-179.343
-179.094
-178.783
-178.399
-177.93
-177.366
-176.696
-175.914
-174.988
-181.155
-181.154
-181.15
-181.137
-181.11
-181.068
-181.008
-180.927
-180.82
-180.68
-180.5
-180.271
-179.982
-179.62
-179.173
-178.629
-177.976
-177.205
-176.312
-175.26
-182.277
-182.277
-182.271
-182.255
-182.222
-182.17
-182.097
-181.998
-181.868
-181.699
-181.482
-181.205
-180.858
-180.425
-179.894
-179.25
-178.483
-177.586
-176.562
-175.379
-183.421
-183.42
-183.414
-183.393
-183.354
-183.29
-183.199
-183.077
-182.917
-182.708
-182.441
-182.103
-181.677
-181.149
-180.503
-179.726
-178.809
-177.75
-176.562
-175.224
-184.584
-184.583
-184.574
-184.547
-184.494
-184.41
-184.291
-184.132
-183.924
-183.656
-183.314
-182.882
-182.345
-181.683
-180.882
-179.929
-178.823
-177.573
-176.215
-174.765
-185.779
-185.777
-185.764
-185.728
-185.656
-185.543
-185.384
-185.17
-184.89
-184.529
-184.071
-183.496
-182.785
-181.919
-180.884
-179.677
-178.31
-176.814
-175.249
-173.662
-186.598
-186.594
-186.576
-186.522
-186.413
-186.242
-186.005
-185.693
-185.292
-184.785
-184.148
-183.361
-182.402
-181.258
-179.924
-178.411
-176.76
-175.037
-173.344
-171.791
-187.754
-187.746
-187.714
-187.635
-187.486
-187.251
-186.906
-186.426
-185.789
-184.973
-183.957
-182.724
-181.265
-179.589
-177.725
-175.735
-173.713
-171.786
-170.093
-168.796
-187.202
-187.16
-187.018
-186.744
-186.316
-185.719
-184.934
-183.94
-182.717
-181.255
-179.554
-177.639
-175.558
-173.385
-171.209
-169.128
-167.27
-165.764
-164.715
-164.277
-181.621
-181.901
-182.276
-182.174
-181.477
-180.42
-179.09
-177.476
-175.551
-173.323
-170.821
-168.109
-165.3
-162.566
-160.107
-158.147
-156.926
-156.587
-157.064
-158.251
-534.016
-524.43
-510.254
-496.935
-490.175
-483.517
-472.351
-457.675
-440.672
-421.395
-399.794
-376.035
-350.512
-323.855
-296.868
-270.481
-245.573
-222.89
-202.869
-186.502
-209.824
-210.371
-210.774
-211.095
-211.326
-211.243
-210.547
-209.961
-209.538
-209.043
-208.491
-207.947
-207.356
-206.523
-205.136
-202.801
-199.09
-193.673
-186.507
-178.793
-235.839
-235.854
-235.916
-236.018
-235.905
-235.485
-234.883
-233.972
-232.613
-230.701
-228.139
-224.846
-220.765
-215.87
-210.165
-203.714
-196.625
-189.026
-181.009
-173.128
-184.549
-184.552
-184.544
-184.509
-184.425
-184.28
-184.109
-183.913
-183.693
-183.443
-183.159
-182.818
-182.368
-181.704
-180.688
-179.159
-176.924
-173.784
-169.608
-164.968
-179.187
-179.186
-179.183
-179.18
-179.174
-179.151
-179.072
-178.914
-178.643
-178.21
-177.555
-176.619
-175.358
-173.748
-171.791
-169.496
-166.855
-163.837
-160.347
-156.358
-162.62
-162.609
-162.597
-162.577
-162.544
-162.491
-162.414
-162.314
-162.184
-162.009
-161.767
-161.426
-160.943
-160.262
-159.319
-158.056
-156.416
-154.355
-151.829
-148.924
-154.168
-154.156
-154.143
-154.128
-154.112
-154.089
-154.052
-153.986
-153.881
-153.72
-153.482
-153.136
-152.645
-151.966
-151.055
-149.873
-148.392
-146.597
-144.484
-141.84
-144.409
-144.394
-144.377
-144.356
-144.332
-144.304
-144.267
-144.214
-144.143
-144.044
-143.908
-143.719
-143.451
-143.07
-142.532
-141.783
-140.772
-139.464
-137.87
-136.047
-137.085
-137.07
-137.053
-137.033
-137.012
-136.99
-136.965
-136.928
-136.872
-136.791
-136.676
-136.515
-136.289
-135.974
-135.538
-134.94
-134.138
-133.099
-131.821
-130.128
-130.047
-130.032
-130.013
-129.991
-129.969
-129.946
-129.923
-129.892
-129.849
-129.79
-129.71
-129.602