/*--------------------------------*- C++ -*----------------------------------*\
| =========                 |                                                 |
| \\      /  F ield         | OpenFOAM: The Open Source CFD Toolbox           |
|  \\    /   O peration     | Version:  2.3.0                                 |
|   \\  /    A nd           | Web:      www.OpenFOAM.org                      |
|    \\/     M anipulation  |                                                 |
\*---------------------------------------------------------------------------*/
FoamFile
{
    version     2.0;
    format      ascii;
    class       volScalarField;
    location    "5000";
    object      nut;
}
// * * * * * * * * * * * * * * * * * * * * * * * * * * * * * * * * * * * * * //

dimensions      [0 2 -1 0 0 0 0];

internalField   nonuniform List<scalar> 
38546
(
0.0721287
0.0704556
0.0687697
0.0670772
0.0653796
0.0636783
0.0619746
0.0602695
0.0585637
0.0568585
0.0551549
0.0534538
0.0517561
0.0500623
0.0483734
0.0466899
0.0450129
0.0433429
0.0416802
0.0400252
0.0383785
0.0367405
0.0351114
0.0334917
0.0318819
0.0302824
0.0286938
0.0271164
0.0255506
0.0239979
0.0224592
0.0209354
0.019428
0.0179414
0.0164783
0.0150426
0.0136424
0.012286
0.0109874
0.00975938
0.00860656
0.00745913
0.00575388
0.0730731
0.0715751
0.0700687
0.0685571
0.0670408
0.0655204
0.0639964
0.0624696
0.0609404
0.0594095
0.0578774
0.0563448
0.0548119
0.0532791
0.051747
0.050216
0.0486869
0.04716
0.0456355
0.0441137
0.0425952
0.0410802
0.0395692
0.0380628
0.0365617
0.0350663
0.033578
0.0320978
0.0306271
0.0291687
0.0277246
0.0262971
0.0248916
0.0235141
0.0221702
0.0208693
0.0196233
0.0184447
0.0173496
0.0163545
0.0154787
0.0147384
0.014144
0.0739516
0.0726109
0.0712621
0.0699081
0.0685488
0.0671846
0.0658159
0.0644428
0.0630657
0.0616848
0.0603006
0.0589134
0.057523
0.0561296
0.0547339
0.0533362
0.0519368
0.0505359
0.049134
0.0477313
0.0463285
0.0449261
0.0435245
0.0421244
0.0407265
0.0393319
0.0379421
0.0365587
0.0351843
0.0338212
0.0324724
0.0311418
0.0298352
0.0285581
0.0273178
0.0261243
0.024987
0.0239173
0.022929
0.0220341
0.0212453
0.0205728
0.0200255
0.0747677
0.0735669
0.0723566
0.0711395
0.0699164
0.0686873
0.0674522
0.0662112
0.0649646
0.0637121
0.0624544
0.0611915
0.0599228
0.0586488
0.0573695
0.0560852
0.0547962
0.0535028
0.0522055
0.0509047
0.0496009
0.048295
0.0469871
0.045678
0.0443689
0.043061
0.0417559
0.0404553
0.0391616
0.0378781
0.0366081
0.0353557
0.0341263
0.0329257
0.0317613
0.0306417
0.0295757
0.0285745
0.0276493
0.0268093
0.0260645
0.0254241
0.0248934
0.0755322
0.0744493
0.0733585
0.0722604
0.0711552
0.0700425
0.0689224
0.0677949
0.0666598
0.0655173
0.0643676
0.0632104
0.0620458
0.0608734
0.059693
0.0585049
0.0573092
0.0561066
0.0548978
0.0536831
0.052463
0.0512384
0.0500096
0.0487779
0.0475441
0.0463092
0.0450752
0.0438439
0.0426182
0.0414008
0.0401955
0.0390059
0.0378377
0.0366965
0.0355888
0.0345229
0.0335077
0.0325535
0.0316689
0.0308631
0.0301461
0.0295239
0.029003
0.0762411
0.0752606
0.0742733
0.0732786
0.0722755
0.0712636
0.0702428
0.0692126
0.0681732
0.0671245
0.0660665
0.0649995
0.0639237
0.0628379
0.0617419
0.0606355
0.0595188
0.0583928
0.0572582
0.0561155
0.0549655
0.0538093
0.0526471
0.0514806
0.0503104
0.049137
0.047962
0.0467882
0.0456187
0.0444564
0.0433048
0.042167
0.0410481
0.0399535
0.0388901
0.0378651
0.0368874
0.0359663
0.03511
0.0343282
0.0336294
0.0330196
0.0325047
0.076887
0.0760016
0.0751064
0.074202
0.0732875
0.072363
0.0714283
0.0704818
0.0695246
0.0685559
0.0675759
0.0665857
0.0655854
0.0645744
0.0635509
0.062514
0.0614645
0.0604033
0.0593314
0.0582489
0.0571572
0.0560578
0.0549517
0.0538405
0.0527242
0.0516033
0.0504783
0.0493521
0.0482287
0.0471123
0.046006
0.0449124
0.0438344
0.042778
0.0417497
0.040757
0.0398077
0.038911
0.0380758
0.0373112
0.0366254
0.0360251
0.0355146
0.0774808
0.0766788
0.0758638
0.0750382
0.074201
0.0733518
0.0724935
0.0716175
0.0707324
0.0698318
0.0689188
0.0679926
0.0670563
0.0661102
0.0651509
0.0641737
0.0631814
0.0621741
0.0611561
0.060125
0.0590808
0.0580286
0.0569695
0.0559039
0.0548337
0.0537591
0.0526784
0.0515913
0.0505048
0.0494255
0.0483581
0.047304
0.046262
0.0452375
0.0442374
0.0432719
0.0423441
0.0414653
0.0406455
0.0398936
0.0392183
0.0386266
0.0381197
0.0780307
0.0772985
0.0765511
0.0757927
0.0750247
0.0742369
0.0734555
0.0726317
0.0718135
0.0709678
0.0701137
0.0692391
0.0683534
0.0674595
0.0665611
0.0656361
0.0646979
0.0637329
0.0627605
0.0617773
0.0607689
0.0597531
0.0587324
0.0577017
0.056667
0.0556331
0.0545955
0.0535412
0.0524816
0.0514293
0.0503927
0.0493775
0.0483727
0.047378
0.0463998
0.0454582
0.0445479
0.0436849
0.0428777
0.0421357
0.041468
0.040889
0.040383
0.00489518
0.0053201
0.00595932
0.00663193
0.0073112
0.00799333
0.00867676
0.00936235
0.0100521
0.0107489
0.011456
0.0121766
0.0129142
0.0136703
0.0144486
0.0152504
0.0160767
0.0169291
0.0178069
0.0187109
0.0196401
0.0205925
0.0215664
0.0225576
0.0235646
0.0245891
0.0256436
0.0267396
0.0278781
0.0290541
0.0302647
0.031509
0.0327865
0.0340949
0.0354317
0.0367954
0.0381847
0.0395988
0.0410365
0.042497
0.0439802
0.0454861
0.047016
0.013706
0.0134239
0.0132915
0.0132942
0.0134208
0.0136547
0.0139836
0.0143934
0.0148752
0.0154177
0.016014
0.0166571
0.0173413
0.0180637
0.0188191
0.0196057
0.0204204
0.0212622
0.0221294
0.0230199
0.0239329
0.0248674
0.0258209
0.026794
0.0277855
0.0287966
0.0298286
0.0308822
0.0319576
0.0330544
0.0341712
0.0353089
0.0364666
0.0376441
0.038841
0.0400569
0.0412914
0.0425444
0.0438153
0.0451035
0.0464092
0.0477337
0.049084
0.0195997
0.0192923
0.0191013
0.0190266
0.019061
0.019199
0.0194288
0.0197432
0.0201307
0.0205846
0.0210951
0.0216576
0.022265
0.0229122
0.0235953
0.0243112
0.0250568
0.0258291
0.0266264
0.0274466
0.0282883
0.0291497
0.0300306
0.0309286
0.0318441
0.0327764
0.0337254
0.0346905
0.0356713
0.0366677
0.0376793
0.0387059
0.0397475
0.0408036
0.0418743
0.0429594
0.044059
0.0451726
0.0463
0.0474404
0.0485937
0.0497591
0.0509366
0.0244719
0.0241553
0.0239448
0.0238396
0.023836
0.0239284
0.0241094
0.0243701
0.0247033
0.0251006
0.0255558
0.026062
0.0266128
0.0272037
0.0278308
0.0284897
0.0291769
0.0298911
0.0306283
0.0313871
0.0321656
0.0329621
0.0337755
0.034604
0.0354472
0.0363045
0.0371747
0.0380577
0.0389523
0.0398591
0.0407772
0.0417067
0.0426473
0.043599
0.0445616
0.0455352
0.0465197
0.0475145
0.0485193
0.0495335
0.0505565
0.0515866
0.052621
0.0285826
0.0282613
0.0280397
0.0279177
0.0278919
0.0279572
0.0281062
0.0283325
0.0286286
0.0289875
0.0294031
0.0298679
0.0303769
0.0309253
0.031509
0.0321232
0.0327655
0.0334328
0.0341217
0.0348306
0.0355568
0.0362989
0.0370552
0.0378246
0.0386061
0.0393987
0.0402012
0.0410136
0.0418349
0.0426653
0.043504
0.0443509
0.0452063
0.0460695
0.0469407
0.04782
0.0487069
0.0496007
0.0505012
0.0514078
0.0523196
0.0532358
0.054155
0.0320858
0.0317618
0.0315341
0.0314019
0.0313619
0.0314088
0.0315369
0.031739
0.0320084
0.0323394
0.0327248
0.0331584
0.0336353
0.0341509
0.0347005
0.0352807
0.0358873
0.0365169
0.0371665
0.0378338
0.0385169
0.0392131
0.039922
0.0406417
0.0413711
0.0421087
0.042854
0.0436069
0.0443664
0.0451323
0.0459043
0.0466819
0.047465
0.0482538
0.0490484
0.0498479
0.050652
0.0514601
0.0522715
0.0530862
0.053903
0.054721
0.0555407
0.0350969
0.0347714
0.0345401
0.034401
0.0343516
0.0343865
0.0344992
0.0346828
0.0349318
0.0352412
0.0356038
0.0360136
0.0364649
0.036954
0.0374789
0.0380326
0.0386104
0.0392083
0.0398242
0.0404573
0.041104
0.0417621
0.042431
0.0431092
0.0437943
0.0444855
0.0451823
0.0458854
0.0465929
0.0473046
0.0480203
0.0487391
0.0494614
0.0501881
0.0509181
0.05165
0.0523834
0.0531183
0.053854
0.0545897
0.0553245
0.0560576
0.05679
0.0377026
0.0373757
0.0371427
0.0369991
0.0369455
0.0369721
0.0370715
0.0372391
0.0374712
0.0377662
0.0381114
0.0385
0.0389299
0.0394004
0.039909
0.0404405
0.0409921
0.0415618
0.0421488
0.0427554
0.0433711
0.0439957
0.0446323
0.0452756
0.0459223
0.0465731
0.0472285
0.0478926
0.0485543
0.0492203
0.049889
0.0505578
0.0512287
0.0519043
0.0525799
0.0532533
0.0539269
0.0545987
0.0552693
0.0559379
0.0566013
0.0572596
0.0579151
0.0399689
0.0396392
0.0394102
0.0392599
0.0392126
0.03923
0.0393148
0.0394662
0.0396856
0.0399771
0.0403016
0.0406687
0.041083
0.0415423
0.0420486
0.0425466
0.0430763
0.043619
0.0441811
0.0447724
0.0453516
0.045951
0.046566
0.0471746
0.0477869
0.0484038
0.0490247
0.0496636
0.0502738
0.050911
0.051538
0.0521625
0.0527918
0.0534304
0.0540548
0.0546783
0.0553036
0.0559208
0.0565364
0.0571496
0.0577491
0.0583432
0.0589347
0.0204508
0.019342
0.0182772
0.0172545
0.0162729
0.0153315
0.0144289
0.0135643
0.0127366
0.0119446
0.0111877
0.0104651
0.00977579
0.00911941
0.00849517
0.00790252
0.00734115
0.00681075
0.00631174
0.00584523
0.00541328
0.00501958
0.00467042
0.00436999
0.00410903
0.00387604
0.0036625
0.00346266
0.00327257
0.00308889
0.00290923
0.00273094
0.00255188
0.00236994
0.00218299
0.00198889
0.00178553
0.00157105
0.00134367
0.00110122
0.000838669
0.000591464
0.000922107
0.0204231
0.0193969
0.0184085
0.0174559
0.0165383
0.0156545
0.0148037
0.013985
0.0131973
0.0124402
0.0117128
0.0110143
0.0103441
0.00970181
0.00908689
0.00849889
0.00793736
0.00740211
0.00689309
0.0064109
0.00595673
0.00553262
0.00514239
0.00479186
0.0044852
0.00421518
0.00397287
0.00375096
0.00354376
0.00334694
0.00315692
0.00297061
0.00278544
0.00259869
0.00240795
0.00221059
0.00200422
0.00178646
0.00155525
0.00131203
0.00111925
0.00149498
0.00280903
0.0203985
0.0194548
0.0185406
0.0176555
0.0167992
0.0159709
0.0151697
0.014395
0.0136461
0.0129225
0.0122235
0.0115483
0.0108969
0.0102686
0.00966319
0.00908026
0.00851965
0.00798106
0.00746441
0.00697015
0.00649866
0.0060512
0.00563018
0.00523983
0.00488721
0.00457551
0.00429734
0.00404571
0.00381457
0.00359879
0.00339387
0.00319591
0.00300152
0.00280754
0.00261097
0.00240887
0.00219825
0.00197641
0.00174387
0.0015381
0.00171365
0.00301013
0.00489568
0.0203796
0.0195102
0.0186639
0.017841
0.0170411
0.0162637
0.0155083
0.0147743
0.0140613
0.0133687
0.0126961
0.0120431
0.0114095
0.0107946
0.0101988
0.00962141
0.00906255
0.00852207
0.00799985
0.00749624
0.00701153
0.00654653
0.00610277
0.00568295
0.00529273
0.00494018
0.00462449
0.00433956
0.00407983
0.00384039
0.00361636
0.00340323
0.00319688
0.00299341
0.00278929
0.00258101
0.00236522
0.00213965
0.00191615
0.00184414
0.00265012
0.00464318
0.00684331
0.020367
0.0195625
0.0187775
0.018011
0.0172624
0.0165316
0.0158178
0.015121
0.0144408
0.0137768
0.0131287
0.0124962
0.0118792
0.0112774
0.0106907
0.0101192
0.0095628
0.0090215
0.00849528
0.00798441
0.00748931
0.00701054
0.00654902
0.00610691
0.00568791
0.00529939
0.00494809
0.00462966
0.00433948
0.00407336
0.00382697
0.00359569
0.00337485
0.00316
0.00294682
0.00273128
0.00250968
0.00228203
0.00208682
0.00227006
0.00373647
0.00616012
0.00858878
0.0203553
0.0196114
0.018882
0.0181664
0.0174645
0.0167758
0.0161001
0.0154372
0.0147869
0.0141492
0.0135235
0.01291
0.0123085
0.0117188
0.011141
0.0105751
0.0100214
0.00947995
0.0089509
0.00843436
0.00793087
0.00744086
0.00696512
0.00650525
0.00606397
0.00564665
0.00526252
0.00491246
0.00459217
0.00429842
0.00402779
0.00377612
0.00353871
0.00331074
0.00308728
0.00286365
0.00263603
0.00240871
0.00226779
0.00279398
0.00480899
0.00751579
0.0101351
0.0203478
0.0196574
0.0189779
0.0183087
0.017649
0.0169986
0.0163575
0.0157255
0.0151027
0.0144889
0.0138838
0.0132877
0.0127005
0.0121221
0.0115526
0.0109924
0.0104416
0.00990034
0.00936901
0.00884781
0.00833726
0.00783792
0.00735035
0.00687581
0.00641641
0.00597626
0.00556339
0.0051845
0.00483594
0.00451521
0.00421989
0.00394669
0.00369138
0.00344895
0.00321404
0.00298157
0.00274779
0.00252405
0.00246456
0.00336468
0.00579623
0.00871592
0.011501
0.0203411
0.0196997
0.0190658
0.0184384
0.0178176
0.0172022
0.0165923
0.015989
0.0153917
0.0147999
0.0142137
0.0136339
0.0130599
0.0124917
0.0119299
0.0113754
0.0108279
0.0102871
0.00975349
0.00922766
0.00871098
0.00820381
0.00770632
0.00721925
0.00674429
0.00628464
0.00584743
0.00544254
0.00506806
0.00472157
0.00440203
0.00410737
0.00383345
0.00357564
0.00332898
0.00308761
0.0028475
0.00263035
0.00267353
0.00393537
0.00668323
0.00977741
0.0127071
0.0203334
0.0197372
0.0191449
0.018555
0.0179727
0.0173906
0.0168065
0.0162305
0.0156596
0.0150894
0.0145208
0.0139572
0.0133977
0.0128388
0.0122826
0.0117335
0.0111921
0.0106567
0.0101214
0.00958688
0.00906325
0.00855086
0.00804798
0.00755515
0.00707166
0.00659236
0.00612778
0.00569672
0.00530269
0.00493198
0.00458398
0.00426459
0.00397322
0.00369808
0.00343396
0.00318069
0.00293881
0.00273236
0.00290703
0.00452066
0.0074921
0.0107243
0.013774
0.00182526
0.00264849
0.00328564
0.00387839
0.00461711
0.00544873
0.00634146
0.00728701
0.00828111
0.00932117
0.0104031
0.0115243
0.012683
0.0138772
0.0151087
0.0163757
0.01768
0.0190228
0.020405
0.0218294
0.0232973
0.0248129
0.0263781
0.0279966
0.029672
0.0314093
0.0332127
0.035087
0.0370384
0.0390726
0.0411959
0.0434151
0.0457374
0.0481703
0.0507174
0.053383
0.0561711
0.0590862
0.0621327
0.0653149
0.0686369
0.0721026
0.0757158
0.0042642
0.00551182
0.00658989
0.00755336
0.00844034
0.0092765
0.0101129
0.0110142
0.0119949
0.0130323
0.0141139
0.0152339
0.0163902
0.0175809
0.0188045
0.020061
0.0213503
0.0226732
0.0240318
0.0254272
0.0268618
0.0283379
0.0298589
0.0314273
0.0330476
0.0347226
0.036457
0.0382551
0.0401217
0.0420619
0.0440812
0.0461851
0.0483799
0.0506713
0.0530621
0.055555
0.058153
0.0608593
0.0636768
0.0666085
0.0696576
0.0728266
0.0761177
0.00666201
0.00822775
0.00962169
0.0108744
0.0120158
0.0130732
0.0140731
0.0150402
0.0159963
0.0169664
0.0179749
0.0190319
0.0201332
0.021273
0.022448
0.0236575
0.0248995
0.0261761
0.0274872
0.0288345
0.0302201
0.031645
0.0331119
0.034624
0.0361839
0.037795
0.0394603
0.0411834
0.0429685
0.0448197
0.0467412
0.0487378
0.0508141
0.0529749
0.055222
0.057557
0.0599818
0.0624983
0.0651085
0.0678143
0.0706178
0.0735211
0.0765241
0.00885208
0.0106581
0.0122868
0.0137609
0.0151059
0.0163459
0.0175022
0.0185938
0.0196398
0.0206574
0.0216643
0.0226768
0.0237103
0.0247775
0.0258835
0.0270277
0.0282093
0.0294276
0.0306833
0.0319768
0.0333089
0.0346812
0.0360949
0.037552
0.039055
0.0406059
0.0422074
0.0438618
0.0455725
0.0473426
0.0491754
0.0510745
0.0530435
0.0550862
0.0572032
0.0593956
0.0616643
0.0640098
0.0664333
0.068936
0.0715195
0.0741859
0.0769348
0.0108024
0.0128071
0.0146248
0.0162764
0.0177849
0.0191722
0.0204582
0.0216625
0.022799
0.0238844
0.0249326
0.0259573
0.0269735
0.0279961
0.0290396
0.0301166
0.0312338
0.0323918
0.0335917
0.0348324
0.0361141
0.0374369
0.0388018
0.0402094
0.0416612
0.0431585
0.0447029
0.0462962
0.0479405
0.0496384
0.0513921
0.053204
0.0550768
0.0570134
0.0590141
0.0610789
0.0632078
0.0654003
0.067656
0.0699759
0.0723619
0.0748166
0.0773456
0.0125277
0.0147021
0.0166787
0.0184779
0.020121
0.0216298
0.0230238
0.0243208
0.0255364
0.0266841
0.0277778
0.0288303
0.0298545
0.0308649
0.0318755
0.0329024
0.0339619
0.0350648
0.0362129
0.0374058
0.0386419
0.0399215
0.0412435
0.0426084
0.0440159
0.0454661
0.0469603
0.0485
0.0500862
0.0517205
0.0534041
0.0551381
0.0569248
0.0587669
0.0606642
0.0626161
0.0646211
0.0666765
0.0687811
0.0709358
0.0731425
0.0754024
0.0777136
0.0140514
0.0163736
0.0184871
0.0204119
0.0221684
0.0237786
0.0252624
0.0266375
0.0279194
0.0291216
0.0302562
0.0313373
0.0323777
0.0333897
0.0343861
0.0353838
0.0364029
0.0374598
0.0385634
0.0397141
0.0409112
0.0421534
0.04344
0.0447688
0.0461375
0.0475468
0.0489978
0.0504904
0.0520259
0.0536051
0.0552266
0.0568901
0.0585993
0.0603578
0.0621648
0.064018
0.0659136
0.0678468
0.0698143
0.0718186
0.0738647
0.0759517
0.0780761
0.0153966
0.0178495
0.0200832
0.0221171
0.0239705
0.0256664
0.0272249
0.0286662
0.0300049
0.0312534
0.0324237
0.0335315
0.0345885
0.0356052
0.0365967
0.0375821
0.0385783
0.0396006
0.0406656
0.0417799
0.0429431
0.0441551
0.0454145
0.0467129
0.0480454
0.0494196
0.0508339
0.052285
0.0537774
0.0553103
0.0568752
0.058472
0.0601117
0.0617978
0.0635273
0.0652964
0.0670974
0.0689211
0.0707603
0.0726261
0.0745298
0.0764668
0.0784292
0.0165844
0.0191532
0.0214952
0.0236266
0.0255628
0.0273316
0.0289501
0.0304484
0.0318386
0.0331275
0.0343256
0.0354539
0.0365221
0.0375423
0.0385333
0.0395291
0.0405091
0.0415024
0.0425351
0.0436182
0.0447528
0.0459421
0.0471843
0.0484528
0.0497449
0.0510956
0.0524779
0.0538894
0.0553508
0.0568482
0.0583541
0.0598828
0.0614662
0.063094
0.0647604
0.0664616
0.0681826
0.0699059
0.0716159
0.0733528
0.075137
0.0769482
0.0787825
0.000330874
0.00152071
0.00289896
0.00435776
0.00586444
0.00740077
0.00895911
0.0105343
0.0121217
0.0137187
0.0153249
0.01694
0.0185634
0.0201968
0.0218401
0.0234943
0.025159
0.0268343
0.0285214
0.0302196
0.0319286
0.0336489
0.03538
0.0371214
0.0388727
0.0406338
0.0424038
0.0441825
0.0459688
0.0477623
0.0495616
0.0513662
0.0531751
0.054987
0.056801
0.0586159
0.0604303
0.062243
0.0640529
0.0658585
0.0676584
0.0694519
0.0712359
0.000206354
0.00104759
0.00211594
0.00331061
0.00459512
0.00594974
0.00736109
0.00881872
0.010316
0.0118463
0.0134059
0.0149912
0.0165997
0.0182292
0.0198786
0.0215466
0.0232311
0.0249323
0.0266491
0.0283804
0.0301256
0.0318845
0.0336557
0.0354388
0.0372335
0.0390386
0.0408537
0.0426774
0.0445093
0.0463485
0.0481937
0.0500442
0.0518987
0.053756
0.055615
0.0574748
0.0593334
0.0611898
0.063043
0.0648911
0.0667329
0.0685666
0.0703878
0.000158656
0.000853718
0.00173602
0.00275086
0.00387183
0.0050807
0.00636392
0.00771118
0.0091144
0.0105665
0.012062
0.0135957
0.0151641
0.016764
0.0183926
0.0200469
0.0217254
0.0234263
0.025148
0.0268888
0.0286473
0.0304226
0.0322137
0.0340196
0.0358386
0.0376702
0.0395133
0.0413665
0.0432293
0.0451
0.0469778
0.0488612
0.0507491
0.0526404
0.0545337
0.0564274
0.0583205
0.0602113
0.0620986
0.0639806
0.0658558
0.0677225
0.0695769
0.000140828
0.000702151
0.00146783
0.00236822
0.00337965
0.0044848
0.00567066
0.0069277
0.00824817
0.00962537
0.0110538
0.0125289
0.0140468
0.0156036
0.0171962
0.0188219
0.0204782
0.0221626
0.0238732
0.025608
0.0273653
0.0291437
0.0309414
0.0327571
0.0345889
0.036436
0.0382966
0.0401698
0.0420539
0.0439479
0.0458501
0.0477594
0.049674
0.0515928
0.0535142
0.055437
0.0573593
0.0592798
0.0611968
0.063109
0.0650147
0.0669118
0.0687989
0.000154132
0.000615245
0.00130706
0.00212566
0.00305228
0.00407229
0.00517468
0.00635131
0.00759514
0.00890077
0.0102634
0.0116786
0.0131421
0.0146507
0.0162017
0.0177913
0.0194171
0.0210765
0.0227672
0.024487
0.0262343
0.0280066
0.0298018
0.0316187
0.0334553
0.0353096
0.0371804
0.0390662
0.0409651
0.0428756
0.0447964
0.0467256
0.0486614
0.0506028
0.052548
0.0544951
0.0564429
0.0583892
0.0603331
0.0622724
0.0642058
0.0661321
0.068053
0.000162163
0.000558426
0.00119598
0.00195136
0.00281057
0.00376097
0.00479371
0.00590154
0.00707848
0.00831989
0.0096219
0.0109802
0.0123908
0.0138515
0.0153587
0.0169093
0.0185009
0.020131
0.0217966
0.0234958
0.0252267
0.0269865
0.0287731
0.030585
0.0324197
0.0342753
0.0361505
0.0380432
0.0399514
0.0418734
0.0438075
0.0457518
0.0477047
0.0496644
0.0516292
0.0535973
0.0555669
0.0575361
0.0595035
0.0614672
0.0634255
0.0653762
0.0673142
0.000166414
0.000513855
0.00110825
0.00181352
0.00261854
0.00351229
0.00448712
0.0055367
0.00665602
0.007841
0.00908833
0.010394
0.0117553
0.0131695
0.0146336
0.0161449
0.0177008
0.0192992
0.0209368
0.0226119
0.0243223
0.0260653
0.0278388
0.0296409
0.0314691
0.0333218
0.0351965
0.0370914
0.0390043
0.0409334
0.0428766
0.0448325
0.0467985
0.0487729
0.050754
0.0527397
0.054728
0.0567174
0.0587058
0.0606913
0.0626721
0.0646456
0.0666049
0.000169463
0.000478924
0.00103699
0.00170116
0.00246127
0.00330772
0.0042335
0.00523304
0.00630217
0.00743747
0.00863558
0.00989373
0.0112093
0.0125796
0.0140026
0.0154751
0.0169955
0.0185612
0.0201694
0.0218184
0.0235059
0.0252292
0.0269866
0.0287754
0.0305937
0.0324392
0.0343098
0.0362031
0.038117
0.0400495
0.0419986
0.0439623
0.0459381
0.0479243
0.0499187
0.051919
0.0539238
0.0559305
0.0579373
0.0599425
0.0619441
0.0639406
0.0659289
0.000171727
0.000450626
0.000977761
0.0016074
0.00232956
0.00313556
0.004019
0.00497514
0.00600032
0.00709132
0.00824536
0.00946044
0.0107338
0.0120635
0.0134472
0.0148827
0.016368
0.0179012
0.0194796
0.0211015
0.0227646
0.0244666
0.0262054
0.0279787
0.029784
0.0316197
0.033483
0.0353717
0.0372838
0.039217
0.0411689
0.0431374
0.0451201
0.0471151
0.04912
0.0511328
0.0531511
0.0551731
0.0571964
0.0592189
0.0612388
0.0632536
0.0652556
0.000173486
0.000426751
0.000927384
0.00152758
0.00221715
0.00298807
0.00383454
0.00475244
0.00573862
0.00678998
0.00790447
0.00908014
0.0103148
0.0116065
0.0129535
0.0143537
0.0158054
0.0173069
0.0188557
0.0204503
0.0220886
0.023768
0.0254868
0.0272428
0.0290336
0.030857
0.0327108
0.0345926
0.0365003
0.0384313
0.0403833
0.042354
0.0443412
0.0463426
0.0483557
0.0503784
0.0524085
0.0544434
0.0564809
0.0585191
0.0605562
0.0625899
0.0646184
0.000174707
0.000405866
0.000883432
0.00145804
0.00211915
0.00285929
0.00367322
0.00455741
0.0055086
0.00652457
0.00760322
0.0087429
0.0099419
0.0111985
0.0125109
0.0138779
0.0152978
0.0167686
0.0182884
0.0198559
0.021469
0.0231254
0.0248234
0.026561
0.0283357
0.0301453
0.031988
0.0338608
0.0357619
0.0376886
0.0396386
0.0416095
0.0435989
0.0456045
0.0476236
0.0496542
0.0516937
0.0537393
0.0557894
0.0578414
0.0598931
0.0619425
0.0639839
0.000175755
0.000387874
0.000845118
0.00139697
0.00203294
0.00274577
0.00353073
0.00438454
0.00530437
0.00628822
0.00733437
0.00844115
0.00960721
0.0108312
0.0121115
0.0134471
0.0148365
0.0162779
0.0177697
0.0193106
0.0208987
0.0225321
0.0242089
0.0259272
0.0276848
0.0294797
0.0313095
0.033172
0.0350648
0.0369855
0.0389317
0.0409008
0.0428907
0.0448984
0.0469216
0.0489582
0.0510049
0.05306
0.0551205
0.0571841
0.0592487
0.0613107
0.0633622
0.000176691
0.000371977
0.000811708
0.00134289
0.00195628
0.00264458
0.00340349
0.00422989
0.00512121
0.00607588
0.00709226
0.00816895
0.00930462
0.0104982
0.0117486
0.0130546
0.0144148
0.0158282
0.0172932
0.0188082
0.0203719
0.0219823
0.0236378
0.0253365
0.0270764
0.0288557
0.0306719
0.0325226
0.0344057
0.0363189
0.0382598
0.0402255
0.0422139
0.0442221
0.0462479
0.0482885
0.0503412
0.0524035
0.0544729
0.056547
0.0586234
0.0607
0.0627741
0.000177527
0.000358134
0.000782123
0.00129438
0.00188741
0.00255366
0.00328901
0.00409045
0.00495597
0.00588399
0.00687302
0.00792182
0.00902934
0.0101948
0.011417
0.012695
0.0140279
0.0154145
0.0168534
0.0183435
0.0198832
0.021471
0.0231053
0.0247844
0.0265065
0.0282694
0.030071
0.0319092
0.0337818
0.0356863
0.0376202
0.0395812
0.0415668
0.043574
0.0456008
0.0476438
0.0497007
0.051769
0.0538458
0.0559285
0.0580145
0.0601007
0.0621806
0.000178411
0.000345762
0.00075554
0.00125061
0.00182513
0.00247123
0.00318512
0.00396389
0.00480569
0.00570905
0.00667276
0.00769583
0.00877732
0.00991631
0.0111122
0.0123642
0.0136711
0.015032
0.016446
0.017912
0.0194285
0.0209941
0.0226077
0.0242672
0.025971
0.0277173
0.0295038
0.0313288
0.0331901
0.0350849
0.0370109
0.0389661
0.0409475
0.0429526
0.0449786
0.0470228
0.0490828
0.0511554
0.0532381
0.0553279
0.057422
0.0595175
0.0616102
0.000179169
0.000334476
0.000731283
0.00121075
0.00176842
0.00239624
0.00309037
0.00384833
0.00466821
0.00554885
0.00648917
0.00748826
0.00854539
0.00965974
0.0108308
0.012058
0.0133403
0.014677
0.0160674
0.0175101
0.019004
0.0205482
0.022141
0.0237811
0.0254669
0.0271965
0.0289678
0.030779
0.0326281
0.0345125
0.0364299
0.038378
0.0403543
0.0423558
0.04438
0.0464244
0.0484858
0.0505615
0.0526488
0.0547444
0.0568454
0.0589489
0.0610502
0.000179879
0.000324289
0.000709241
0.00117422
0.00171651
0.00232752
0.0030035
0.00374211
0.00454185
0.00540152
0.00632002
0.00729673
0.00833101
0.00942226
0.0105701
0.0117738
0.0130328
0.0143466
0.015714
0.0171344
0.0186067
0.0201297
0.0217025
0.0233235
0.0249914
0.0267041
0.02846
0.0302572
0.0320935
0.033967
0.0358749
0.0378153
0.0397853
0.0417824
0.0438039
0.045847
0.0479089
0.0499865
0.0520773
0.0541775
0.0562846
0.0583953
0.0605048
0.000180514
0.000314951
0.000689075
0.00114093
0.00166873
0.00226411
0.00292331
0.00364413
0.00442516
0.00526518
0.00616344
0.00711924
0.00813214
0.00920173
0.0103277
0.0115092
0.0127461
0.0140378
0.0153834
0.0167824
0.0182336
0.0197364
0.0212895
0.0228918
0.0245418
0.0262378
0.0279782
0.029761
0.0315843
0.0334464
0.0353445
0.0372763
0.0392394
0.0412312
0.0432489
0.0452899
0.047351
0.0494297
0.0515227
0.0536269
0.0557391
0.0578563
0.059974
0.000181142
0.000306467
0.000670657
0.00111045
0.00162451
0.00220542
0.00284913
0.00355346
0.00431696
0.00513856
0.00601778
0.00695407
0.00794688
0.00899613
0.0101012
0.0112618
0.0124777
0.0137482
0.0150729
0.0164514
0.0178825
0.0193656
0.0208997
0.0224836
0.024116
0.0257954
0.0275201
0.0292885
0.0310989
0.0329491
0.0348366
0.0367594
0.0387151
0.0407009
0.0427141
0.0447519
0.0468116
0.0488901
0.0509845
0.0530916
0.0552081
0.0573312
0.0594565
0.00018172
0.000298582
0.000653569
0.00108219
0.00158348
0.00215094
0.00278013
0.00346898
0.00421618
0.00502068
0.00588213
0.00679988
0.00777371
0.00880355
0.00988899
0.0110299
0.0122257
0.0134761
0.014781
0.0161395
0.0175512
0.0190153
0.0205308
0.0220968
0.0237118
0.0253748
0.0270841
0.0288383
0.0306354
0.0324733
0.0343502
0.0362635
0.0382111
0.0401901
0.0421981
0.0442321
0.0462894
0.0483671
0.0504621
0.0525711
0.0546911
0.056819
0.0589502
0.000182253
0.000291642
0.000637797
0.00105599
0.00154533
0.00210015
0.00271566
0.00338998
0.00412185
0.00491042
0.00575514
0.00665548
0.00761154
0.00862312
0.00968992
0.0108119
0.0119885
0.0132199
0.0145056
0.0158451
0.0172381
0.0186836
0.0201812
0.0217294
0.0233278
0.0249744
0.0266686
0.0284085
0.0301921
0.0320177
0.0338834
0.035787
0.037726
0.0396978
0.0416998
0.0437296
0.0457839
0.04786
0.0499547
0.0520647
0.0541871
0.0563183
0.0584534
0.000183084
0.000286616
0.000623166
0.00103156
0.00150976
0.00205263
0.00265543
0.00331617
0.00403361
0.00480697
0.00563583
0.00651992
0.00745923
0.00845338
0.00950238
0.0106063
0.0117648
0.0129779
0.0142453
0.0155666
0.0169413
0.0183691
0.0198489
0.0213803
0.0229619
0.024593
0.0262719
0.0279973
0.0297676
0.031581
0.0334354
0.0353289
0.0372587
0.0392229
0.0412188
0.0432434
0.0452941
0.0473679
0.0494616
0.051572
0.0536959
0.0558294
0.0579673
0.000184546
0.000284915
0.000609642
0.0010088
0.00147636
0.00200812
0.00259901
0.00324696
0.00395074
0.00470973
0.00552363
0.00639232
0.00731553
0.00829318
0.00932538
0.0104121
0.0115533
0.0127489
0.0139988
0.0153024
0.0166597
0.01807
0.0195331
0.0210477
0.0226133
0.0242286
0.0258926
0.0276039
0.0293609
0.0311618
0.0330048
0.0348878
0.0368086
0.0387648
0.0407538
0.0427731
0.0448195
0.0468903
0.0489824
0.0510926
0.0532176
0.0553537
0.0574951
0.000186639
0.000285736
0.000597137
0.000987433
0.00144513
0.00196633
0.00254592
0.00318168
0.00387261
0.004618
0.0054178
0.00627177
0.00717976
0.00814181
0.00915806
0.0102283
0.0113528
0.0125318
0.0137647
0.0150514
0.0163918
0.0177856
0.019232
0.0207305
0.0222802
0.0238803
0.0255297
0.0272269
0.0289705
0.0307591
0.0325906
0.0344631
0.0363745
0.0383224
0.0403043
0.0423174
0.0443592
0.0464267
0.0485167
0.0506262
0.0527522
0.0548919
0.0570434
0.000188975
0.000287807
0.000585548
0.000967501
0.00141597
0.00192697
0.00249573
0.00312002
0.0037988
0.00453153
0.00531786
0.00615791
0.00705131
0.00799841
0.00899931
0.0100539
0.0111627
0.0123254
0.0135421
0.0148126
0.0161368
0.0175142
0.0189447
0.0204273
0.0219617
0.0235469
0.0251819
0.0268653
0.0285957
0.0303718
0.0321917
0.0340536
0.0359554
0.0378948
0.039869
0.0418759
0.0439127
0.0459763
0.0480636
0.0501718
0.0522974
0.0544371
0.0565842
0.000191403
0.000290062
0.000574643
0.000948695
0.00138844
0.00188973
0.00244835
0.0030618
0.0037291
0.00444964
0.00522324
0.00604989
0.00692944
0.00786232
0.00884858
0.00988833
0.0109818
0.0121291
0.0133301
0.0145849
0.0158933
0.0172551
0.0186701
0.0201374
0.0216568
0.0232274
0.024848
0.0265177
0.0282351
0.0299989
0.0318074
0.0336585
0.0355506
0.0374811
0.0394477
0.041448
0.0434792
0.0455384
0.0476227
0.0497289
0.0518538
0.053994
0.0561464
0.000193837
0.000292341
0.00056466
0.000931134
0.00136247
0.00185452
0.00240344
0.00300654
0.00366284
0.00437177
0.00513324
0.00594713
0.00681368
0.00773302
0.00870529
0.00973066
0.0108095
0.0119419
0.0131278
0.0143674
0.0156607
0.0170074
0.0184072
0.0198597
0.0213644
0.0229206
0.0245273
0.0261835
0.0278882
0.0296399
0.0314367
0.0332771
0.0351592
0.0370808
0.0390395
0.0410329
0.0430583
0.0451129
0.0471934
0.0492972
0.0514204
0.0535592
0.0557077
0.000196153
0.0002942
0.000555288
0.000914569
0.00133794
0.00182115
0.00236077
0.00295411
0.00360001
0.00429791
0.00504773
0.00584953
0.00670348
0.00760974
0.00856858
0.00958029
0.010645
0.0117631
0.0129345
0.0141596
0.0154382
0.0167701
0.0181553
0.0195934
0.0210839
0.022626
0.024219
0.0258621
0.027554
0.0292933
0.0310787
0.0329084
0.0347806
0.0366931
0.0386438
0.04063
0.0426492
0.0446987
0.0467754
0.0488762
0.0509977
0.0531364
0.0552874
0.000198144
0.000295576
0.000546363
0.00089881
0.00131456
0.00178925
0.00232012
0.00290412
0.00354006
0.0042275
0.00496628
0.00575649
0.0065984
0.00749207
0.00843804
0.00943652
0.0104878
0.0115922
0.0127497
0.0139607
0.015225
0.0165427
0.0179137
0.0193378
0.0208142
0.0223425
0.0239221
0.0255523
0.0272315
0.0289589
0.030733
0.032552
0.0344141
0.0363175
0.03826
0.0402387
0.0422517
0.0442958
0.0463683
0.048466
0.0505857
0.0527239
0.0548761
0.000199916
0.000296775
0.00053795
0.000883897
0.00129241
0.00175907
0.00228155
0.00285653
0.00348295
0.00416026
0.00488841
0.0056676
0.00649798
0.00737977
0.00831336
0.00929909
0.0103375
0.0114284
0.0125724
0.0137697
0.0150204
0.0163244
0.0176816
0.0190919
0.0205546
0.0220696
0.0236363
0.0252534
0.0269205
0.0286361
0.0303987
0.032207
0.0340591
0.0359533
0.0378873
0.0398587
0.0418651
0.0439036
0.0459716
0.0480658
0.0501833
0.0523205
0.0544728
0.000201684
0.000297906
0.000529965
0.000869688
0.00127133
0.0017304
0.00224469
0.00281119
0.00342846
0.00409615
0.00481416
0.00558262
0.00640185
0.00727217
0.00819382
0.00916746
0.0101932
0.0112714
0.0124025
0.0135865
0.0148239
0.0161145
0.0174583
0.0188552
0.0203048
0.0218068
0.0233605
0.0249652
0.0266201