/*--------------------------------*- C++ -*----------------------------------*\
| =========                 |                                                 |
| \\      /  F ield         | OpenFOAM: The Open Source CFD Toolbox           |
|  \\    /   O peration     | Version:  2.3.0                                 |
|   \\  /    A nd           | Web:      www.OpenFOAM.org                      |
|    \\/     M anipulation  |                                                 |
\*---------------------------------------------------------------------------*/
FoamFile
{
    version     2.0;
    format      ascii;
    class       volScalarField;
    location    "5000";
    object      p;
}
// * * * * * * * * * * * * * * * * * * * * * * * * * * * * * * * * * * * * * //

dimensions      [0 2 -2 0 0 0 0];

internalField   nonuniform List<scalar> 
38546
(
0.000143987
2.44684
4.37562
6.22361
8.07365
9.91591
11.7439
13.557
15.356
17.1421
18.9117
20.664
22.3984
24.1127
25.8059
27.4713
29.1091
30.7085
32.2677
33.7751
35.2229
36.5962
37.8837
39.0653
40.125
41.0373
41.7767
42.3017
42.5911
42.577
42.2211
41.4412
40.1501
38.254
35.5876
32.0013
27.2437
20.8166
12.131
0.400067
-15.428
-38.6773
-79.3334
-1.52714
0.593938
2.39149
4.1123
5.84331
7.57899
9.3129
11.0415
12.7665
14.4858
16.1991
17.9036
19.5979
21.2816
22.9516
24.6075
26.2462
27.8648
29.462
31.035
32.579
34.0897
35.5597
36.9806
38.3408
39.6252
40.8172
41.8882
42.8132
43.5488
44.0493
44.2593
44.1081
43.5043
42.3477
40.5219
37.8798
34.2522
29.4013
23.0423
14.8573
4.38527
-9.26684
-3.3673
-1.46552
0.0740257
1.51259
2.94839
4.3741
5.78514
7.17654
8.54925
9.8997
11.2269
12.5265
13.7963
15.0335
16.2322
17.3892
18.499
19.5561
20.5533
21.4829
22.334
23.0966
23.7566
24.2998
24.708
24.9598
25.0322
24.8922
24.5066
23.8308
22.8183
21.4088
19.5347
17.1125
14.0513
10.2466
5.57888
-0.0749554
-6.84378
-14.8403
-24.1505
-34.7733
-46.5156
-5.0049
-3.34213
-2.01403
-0.769515
0.470924
1.7001
2.91517
4.11483
5.29715
6.4635
7.61073
8.73544
9.83666
10.9107
11.9519
12.9574
13.9225
14.8442
15.7151
16.5296
17.2777
17.949
18.5321
19.012
19.3728
19.5937
19.6526
19.5239
19.175
18.5689
17.6638
16.4115
14.756
12.6389
9.99086
6.73947
2.81001
-1.87254
-7.37594
-13.7458
-21.0006
-29.1066
-37.9472
-6.3709
-5.05279
-3.94156
-2.87067
-1.8065
-0.753951
0.282144
1.30133
2.3018
3.28394
4.24376
5.18151
6.09326
6.97507
7.82046
8.62444
9.38117
10.0882
10.737
11.3233
11.8372
12.2683
12.606
12.8319
12.9313
12.8858
12.6725
12.2664
11.6402
10.7586
9.58259
8.07025
6.17054
3.84005
1.02149
-2.34013
-6.2993
-10.9029
-16.1868
-22.1639
-28.8156
-36.0766
-43.8352
-7.50807
-6.59392
-5.66612
-4.75331
-3.84509
-2.93795
-2.04571
-1.16774
-0.305969
0.539788
1.36046
2.16661
2.94769
3.70355
4.42406
5.10274
5.73504
6.32479
6.85347
7.32335
7.72247
8.04284
8.27712
8.40358
8.40208
8.2622
7.96323
7.47508
6.7834
5.85307
4.64433
3.11554
1.22319
-1.06339
-3.78943
-6.99627
-10.7357
-15.02
-19.8917
-25.3398
-31.344
-37.8432
-44.7529
-9.3248
-8.1293
-7.28694
-6.47767
-5.68043
-4.89266
-4.11735
-3.36099
-2.6139
-1.87431
-1.17177
-0.476594
0.202711
0.873118
1.5044
2.06514
2.56282
3.04899
3.47029
3.84314
4.14296
4.36466
4.51653
4.57344
4.48948
4.26721
3.89203
3.31168
2.54582
1.57215
0.343
-1.19731
-3.10801
-5.38694
-8.07343
-11.1803
-14.8082
-18.8872
-23.5116
-28.6117
-34.2005
-40.2116
-46.5806
-10.5657
-9.48294
-8.76859
-8.05432
-7.32167
-6.60822
-5.90133
-5.27339
-4.63929
-3.99057
-3.39704
-2.82575
-2.27354
-1.65742
-0.98896
-0.43044
-0.0557452
0.323326
0.622286
0.92674
1.13316
1.24348
1.3307
1.36117
1.23729
0.990112
0.632096
0.00218724
-0.82339
-1.81768
-3.01243
-4.47334
-6.3416
-8.56882
-11.2247
-14.1562
-17.736
-21.6567
-26.1694
-30.9833
-36.2443
-41.8724
-47.8528
-11.2241
-10.5222
-10.1422
-9.69282
-9.10049
-8.26702
-7.65847
-6.97438
-6.61457
-6.03761
-5.60883
-5.20975
-4.95266
-4.7198
-4.38276
-3.23901
-2.83138
-2.39882
-2.2979
-2.08955
-1.94743
-2.12538
-2.28235
-2.36708
-2.70346
-3.18503
-3.46248
-4.08575
-4.90447
-5.86654
-6.99333
-8.34947
-10.2003
-12.167
-14.768
-17.2339
-20.8364
-23.8815
-28.2055
-32.5789
-37.4491
-42.6929
-48.4682
-148.01
-156.696
-154.204
-159.605
-167.018
-172.268
-175.876
-178.685
-180.915
-182.657
-183.992
-185.038
-185.84
-186.471
-186.936
-187.247
-187.456
-187.549
-187.571
-187.508
-187.372
-187.185
-186.948
-186.678
-186.378
-186.058
-185.723
-185.381
-185.039
-184.701
-184.367
-184.048
-183.739
-183.443
-183.162
-182.896
-182.644
-182.408
-182.188
-181.984
-181.799
-181.628
-181.647
-28.8479
-49.7628
-68.2797
-84.7245
-99.1174
-111.374
-121.713
-130.47
-137.831
-144.007
-149.148
-153.428
-156.973
-159.896
-162.312
-164.3
-165.94
-167.291
-168.416
-169.363
-170.168
-170.864
-171.479
-172.025
-172.526
-172.988
-173.417
-173.821
-174.201
-174.56
-174.894
-175.21
-175.503
-175.776
-176.031
-176.267
-176.487
-176.69
-176.878
-177.051
-177.21
-177.325
-177.56
-58.9531
-71.1386
-82.3062
-92.4118
-101.54
-109.716
-116.945
-123.313
-128.9
-133.801
-138.095
-141.863
-145.176
-148.103
-150.691
-152.987
-155.039
-156.881
-158.529
-160.02
-161.366
-162.585
-163.692
-164.698
-165.616
-166.452
-167.212
-167.91
-168.546
-169.135
-169.672
-170.172
-170.635
-171.066
-171.472
-171.853
-172.213
-172.554
-172.879
-173.189
-173.489
-173.766
-174.182
-47.351
-57.0178
-66.6228
-75.9307
-84.7675
-93.0185
-100.622
-107.564
-113.853
-119.518
-124.607
-129.161
-133.235
-136.875
-140.131
-143.042
-145.648
-147.985
-150.085
-151.981
-153.694
-155.252
-156.669
-157.962
-159.15
-160.242
-161.252
-162.19
-163.059
-163.875
-164.63
-165.34
-166.005
-166.627
-167.215
-167.772
-168.295
-168.792
-169.264
-169.715
-170.15
-170.584
-171.115
-51.9227
-60.1816
-68.415
-76.4406
-84.1232
-91.3681
-98.115
-104.339
-110.043
-115.241
-119.962
-124.242
-128.121
-131.626
-134.8
-137.682
-140.304
-142.69
-144.865
-146.856
-148.682
-150.363
-151.913
-153.338
-154.662
-155.885
-157.022
-158.082
-159.069
-159.996
-160.857
-161.664
-162.424
-163.138
-163.817
-164.458
-165.066
-165.642
-166.189
-166.709
-167.198
-167.668
-167.981
-51.9451
-59.3125
-66.7085
-73.9756
-81.015
-87.7333
-94.0669
-99.9803
-105.466
-110.528
-115.175
-119.434
-123.328
-126.885
-130.141
-133.113
-135.838
-138.333
-140.614
-142.715
-144.654
-146.438
-148.085
-149.606
-151.018
-152.332
-153.545
-154.689
-155.758
-156.758
-157.688
-158.564
-159.388
-160.165
-160.908
-161.612
-162.281
-162.915
-163.515
-164.089
-164.628
-165.152
-165.438
-53.1932
-59.9992
-66.8041
-73.496
-80.0381
-86.3299
-92.2832
-97.8765
-103.101
-107.957
-112.435
-116.554
-120.359
-123.853
-127.071
-130.016
-132.728
-135.234
-137.504
-139.625
-141.616
-143.435
-145.124
-146.687
-148.135
-149.493
-150.736
-151.935
-153.06
-154.096
-155.065
-155.978
-156.834
-157.655
-158.444
-159.189
-159.896
-160.565
-161.202
-161.817
-162.387
-162.937
-163.154
-53.9673
-60.4088
-66.8103
-73.0945
-79.28
-85.2481
-90.8955
-96.2401
-101.237
-105.88
-110.238
-114.259
-118.011
-121.41
-124.576
-127.513
-130.226
-132.744
-134.969
-137.172
-139.256
-141.053
-142.737
-144.337
-145.811
-147.201
-148.428
-149.712
-150.883
-151.913
-152.901
-153.83
-154.681
-155.534
-156.371
-157.14
-157.862
-158.551
-159.206
-159.843
-160.415
-160.932
-161.132
-54.1385
-60.4157
-66.7939
-72.9108
-78.8741
-84.6567
-90.0707
-95.2425
-100.099
-104.715
-109.218
-113.27
-116.976
-120.181
-123.457
-126.573
-129.367
-131.92
-134.024
-136.857
-138.701
-140.23
-141.915
-143.535
-144.882
-146.137
-147.176
-148.918
-149.851
-150.739
-151.716
-152.542
-153.278
-154.162
-155.018
-155.688
-156.296
-156.891
-157.485
-158.102
-158.576
-158.874
-158.887
-152.035
-152.49
-152.969
-153.436
-153.899
-154.355
-154.805
-155.249
-155.685
-156.113
-156.531
-156.94
-157.338
-157.722
-158.092
-158.446
-158.783
-159.1
-159.397
-159.673
-159.93
-160.167
-160.388
-160.597
-160.799
-160.999
-161.205
-161.425
-161.664
-161.932
-162.238
-162.59
-162.997
-163.468
-164.013
-164.642
-165.364
-166.19
-167.13
-168.188
-169.361
-170.847
-173.793
-151.47
-151.854
-152.26
-152.658
-153.052
-153.443
-153.831
-154.216
-154.598
-154.979
-155.358
-155.736
-156.114
-156.491
-156.868
-157.246
-157.626
-158.006
-158.389
-158.772
-159.157
-159.542
-159.928
-160.313
-160.696
-161.076
-161.454
-161.83
-162.202
-162.572
-162.939
-163.305
-163.669
-164.034
-164.398
-164.761
-165.12
-165.468
-165.795
-166.097
-166.424
-167.199
-169.828
-150.916
-151.267
-151.625
-151.975
-152.322
-152.668
-153.012
-153.356
-153.7
-154.043
-154.386
-154.729
-155.072
-155.416
-155.761
-156.107
-156.455
-156.805
-157.157
-157.511
-157.868
-158.227
-158.588
-158.949
-159.311
-159.671
-160.028
-160.381
-160.729
-161.069
-161.399
-161.718
-162.021
-162.306
-162.567
-162.799
-162.996
-163.151
-163.256
-163.338
-163.608
-164.958
-168.285
-150.432
-150.75
-151.075
-151.393
-151.71
-152.026
-152.341
-152.656
-152.97
-153.283
-153.596
-153.907
-154.217
-154.526
-154.833
-155.139
-155.444
-155.747
-156.049
-156.351
-156.653
-156.953
-157.254
-157.554
-157.854
-158.153
-158.45
-158.744
-159.036
-159.324
-159.606
-159.881
-160.148
-160.404
-160.645
-160.868
-161.068
-161.242
-161.392
-161.583
-162.189
-164.26
-167.627
-150.021
-150.288
-150.575
-150.862
-151.149
-151.437
-151.724
-152.012
-152.299
-152.587
-152.874
-153.16
-153.445
-153.73
-154.014
-154.297
-154.58
-154.863
-155.146
-155.428
-155.71
-155.992
-156.273
-156.553
-156.831
-157.106
-157.379
-157.648
-157.912
-158.171
-158.423
-158.669
-158.907
-159.136
-159.357
-159.569
-159.769
-159.956
-160.146
-160.44
-161.377
-163.79
-166.909
-149.613
-149.854
-150.114
-150.373
-150.634
-150.896
-151.159
-151.422
-151.686
-151.95
-152.214
-152.478
-152.741
-153.005
-153.269
-153.535
-153.801
-154.069
-154.338
-154.608
-154.879
-155.151
-155.423
-155.695
-155.964
-156.231
-156.494
-156.751
-157.003
-157.246
-157.48
-157.703
-157.917
-158.12
-158.312
-158.496
-158.68
-158.87
-159.095
-159.491
-160.723
-163.237
-166.163
-149.24
-149.456
-149.692
-149.928
-150.168
-150.409
-150.65
-150.892
-151.136
-151.379
-151.622
-151.866
-152.11
-152.354
-152.6
-152.849
-153.1
-153.352
-153.607
-153.864
-154.123
-154.384
-154.647
-154.909
-155.17
-155.429
-155.683
-155.931
-156.174
-156.406
-156.626
-156.829
-157.019
-157.197
-157.36
-157.507
-157.651
-157.847
-158.162
-158.747
-160.264
-162.806
-165.659
-148.906
-149.099
-149.313
-149.526
-149.747
-149.971
-150.191
-150.413
-150.64
-150.862
-151.086
-151.312
-151.54
-151.768
-151.997
-152.232
-152.47
-152.711
-152.955
-153.203
-153.449
-153.704
-153.959
-154.216
-154.473
-154.728
-154.977
-155.219
-155.462
-155.696
-155.912
-156.098
-156.267
-156.422
-156.552
-156.622
-156.677
-156.772
-157.108
-157.781
-159.368
-161.794
-164.657
-148.584
-148.762
-148.954
-149.147
-149.359
-149.578
-149.776
-149.975
-150.197
-150.406
-150.612
-150.827
-151.048
-151.261
-151.472
-151.694
-151.923
-152.157
-152.394
-152.631
-152.853
-153.101
-153.347
-153.594
-153.843
-154.104
-154.349
-154.572
-154.798
-155.04
-155.282
-155.454
-155.588
-155.75
-155.946
-155.981
-155.763
-155.746
-156.464
-158.066
-160.22
-163.17
-166.638
-180.522
-183.638
-184.927
-185.741
-186.401
-186.912
-187.288
-187.569
-187.79
-187.974
-188.13
-188.264
-188.377
-188.469
-188.54
-188.588
-188.611
-188.608
-188.578
-188.521
-188.438
-188.327
-188.191
-188.032
-187.852
-187.653
-187.438
-187.212
-186.977
-186.738
-186.499
-186.265
-186.038
-185.823
-185.624
-185.445
-185.287
-185.155
-185.051
-184.978
-184.937
-184.932
-184.964
-174.809
-178.675
-181.413
-183.287
-184.566
-185.437
-186.035
-186.447
-186.722
-186.891
-186.98
-187.011
-187
-186.959
-186.894
-186.811
-186.716
-186.612
-186.503
-186.391
-186.277
-186.163
-186.052
-185.942
-185.835
-185.731
-185.63
-185.531
-185.435
-185.339
-185.243
-185.146
-185.049
-184.949
-184.847
-184.744
-184.639
-184.535
-184.431
-184.329
-184.23
-184.13
-184.04
-172.242
-175.836
-178.808
-181.119
-182.865
-184.173
-185.153
-185.88
-186.409
-186.782
-187.032
-187.187
-187.268
-187.29
-187.267
-187.207
-187.118
-187.006
-186.876
-186.73
-186.571
-186.403
-186.226
-186.043
-185.856
-185.666
-185.474
-185.284
-185.095
-184.908
-184.726
-184.548
-184.376
-184.211
-184.053
-183.904
-183.764
-183.633
-183.511
-183.399
-183.293
-183.188
-183.12
-171.015
-174.187
-176.964
-179.268
-181.108
-182.547
-183.661
-184.51
-185.145
-185.612
-185.945
-186.167
-186.3
-186.358
-186.356
-186.308
-186.222
-186.109
-185.973
-185.82
-185.654
-185.478
-185.296
-185.111
-184.924
-184.737
-184.552
-184.369
-184.189
-184.012
-183.839
-183.67
-183.505
-183.345
-183.19
-183.044
-182.905
-182.776
-182.653
-182.538
-182.433
-182.338
-182.284
-170.012
-172.958
-175.605
-177.864
-179.728
-181.232
-182.422
-183.35
-184.066
-184.605
-185.002
-185.28
-185.462
-185.562
-185.593
-185.568
-185.499
-185.396
-185.264
-185.111
-184.943
-184.762
-184.573
-184.38
-184.187
-183.994
-183.803
-183.612
-183.424
-183.238
-183.057
-182.88
-182.707
-182.539
-182.38
-182.23
-182.092
-181.962
-181.837
-181.718
-181.618
-181.563
-181.399
-169.112
-171.931
-174.471
-176.663
-178.524
-180.047
-181.273
-182.242
-182.992
-183.562
-183.995
-184.316
-184.536
-184.661
-184.709
-184.699
-184.644
-184.554
-184.431
-184.283
-184.114
-183.931
-183.742
-183.554
-183.367
-183.182
-182.996
-182.808
-182.622
-182.44
-182.263
-182.087
-181.913
-181.746
-181.59
-181.446
-181.32
-181.198
-181.074
-180.95
-180.84
-180.759
-180.725
-168.5
-171.197
-173.633
-175.741
-177.584
-179.098
-180.328
-181.297
-182.045
-182.618
-183.075
-183.426
-183.671
-183.805
-183.849
-183.838
-183.794
-183.719
-183.607
-183.459
-183.287
-183.097
-182.912
-182.74
-182.572
-182.402
-182.222
-182.036
-181.855
-181.68
-181.514
-181.336
-181.159
-180.992
-180.84
-180.71
-180.612
-180.502
-180.372
-180.232
-180.113
-180.027
-180.04
-167.485
-170.153
-172.492
-174.457
-176.394
-177.916
-179.18
-180.128
-180.852
-181.435
-181.978
-182.433
-182.724
-182.832
-182.865
-182.889
-182.898
-182.87
-182.759
-182.606
-182.434
-182.261
-182.12
-181.996
-181.875
-181.729
-181.541
-181.352
-181.183
-181.021
-180.856
-180.652
-180.461
-180.293
-180.157
-180.066
-180.014
-179.878
-179.69
-179.516
-179.411
-179.394
-179.54
-169.521
-172.079
-173.866
-175.835
-178.901
-180.912
-181.757
-182.152
-182.553
-183.162
-183.703
-184.14
-184.213
-183.889
-183.646
-183.757
-183.956
-183.649
-183.225
-182.835
-182.507
-182.26
-182.066
-181.899
-181.652
-181.278
-180.956
-180.618
-180.347
-180.093
-179.881
-179.548
-179.333
-179.172
-179.074
-179.009
-178.92
-178.544
-178.394
-178.394
-178.503
-178.796
-179.239
156.536
155.26
149.741
143.479
137.145
130.831
124.649
118.552
112.523
106.683
101.081
95.8011
90.8332
86.1705
81.8062
77.6996
73.8472
70.1938
66.7273
63.4176
60.2398
57.1706
54.1967
51.2963
48.4578
45.6714
42.9293
40.2234
37.5496
34.906
32.2873
29.6932
27.1236
24.5762
22.0484
19.5416
17.0588
14.5932
12.1456
9.72651
7.344
4.92443
2.18207
122.892
120.384
115.953
111.571
107.532
103.773
100.225
96.8469
93.6004
90.4538
87.38
84.3629
81.383
78.4341
75.5069
72.6056
69.7264
66.8701
64.0386
61.2399
58.467
55.7262
53.0186
50.3432
47.7004
45.0891
42.5078
39.9565
37.4262
34.9269
32.4458
29.987
27.5466
25.125
22.7207
20.3296
17.9552
15.5938
13.2429
10.9109
8.60196
6.2654
3.658
127.724
126.632
125.068
123.117
120.773
118.075
115.09
111.864
108.455
104.901
101.248
97.5291
93.7825
90.0354
86.3056
82.6224
78.9919
75.4275
71.9336
68.5194
65.1789
61.915
58.726
55.6077
52.5561
49.5647
46.6356
43.7624
40.9394
38.1654
35.4368
32.7502
30.103
27.4916
24.9149
22.3687
19.8551
17.3673
14.9048
12.4676
10.0628
7.66788
5.08617
115.571
114.617
113.364
111.843
110.092
108.137
106.005
103.717
101.296
98.7563
96.1177
93.3903
90.5874
87.721
84.8044
81.8446
78.8531
75.8388
72.811
69.7778
66.7479
63.7266
60.7148
57.7273
54.7622
51.8218
48.9113
46.0286
43.1806
40.3607
37.5751
34.8221
32.0989
29.4069
26.7481
24.1148
21.5121
18.936
16.3852
13.8571
11.354
8.8985
6.33397
104.787
104.503
104.085
103.431
102.552
101.461
100.165
98.6744
96.999
95.1503
93.1424
90.988
88.7022
86.2991
83.794
81.2009
78.5335
75.8048
73.0294
70.2139
67.3696
64.5114
61.6386
58.7621
55.8896
53.0233
50.1683
47.3277
44.5059
41.7023
38.9189
36.1608
33.4256
30.7121
28.0261
25.3632
22.7274
20.115
17.5294
14.9705
12.4474
9.99326
7.71548
97.6692
97.4858
97.1318
96.5891
95.8891
95.0342
94.0272
92.8695
91.5652
90.118
88.5338
86.8188
84.9773
83.0172
80.9477
78.7756
76.5091
74.1588
71.7331
69.2393
66.6877
64.089
61.4491
58.7751
56.0786
53.3616
50.6325
47.8971
45.1604
42.4249
39.6965
36.9762
34.27
31.5754
28.8985
26.2356
23.5959
20.9701
18.3658
15.7821
13.2314
10.6613
7.68761
90.8638
90.7123
90.4058
89.9673
89.4162
88.7515
87.9714
87.0731
86.056
84.9188
83.6625
82.2876
80.7955
79.1892
77.4725
75.65
73.7245
71.7059
69.5983
67.4074
65.1429
62.8109
60.4175
57.9725
55.4817
52.9518
50.3893
47.8009
45.1928
42.5691
39.9357
37.2965
34.6559
32.0156
29.3828
26.754
24.1374
21.5301
18.9341
16.3527
13.8069
11.2034
7.91786
84.3679
84.2657
84.0472
83.7244
83.3094
82.8008
82.1956
81.4913
80.6858
79.7775
78.7644
77.646
76.4222
75.092
73.6584
72.1217
70.4845
68.751
66.9243
65.0077
63.0088
60.9312
58.7808
56.5645
54.2869
51.9555
49.5772
47.1562
44.6998
42.214
39.701
37.1705
34.625
32.0667
29.5046
26.937
24.3709
21.8071
19.2503
16.7103
14.2095
11.6624
8.72649
78.4633
78.3952
78.228
77.9734
77.6428
77.2357
76.7484
76.1784
75.5235
74.7811
73.9484
73.0245
72.0071
70.8944
69.6868
68.3832
66.9841
65.4921
63.9078
62.2329
60.473
58.6281
56.7051
54.7076
52.6405
50.5076
48.3171
46.0717
43.778
41.443
39.0686
36.6629
34.2296
31.773
29.3003
26.8121
24.3152
21.8121
19.3044
16.8015
14.3218
11.7981
8.80583
73.0114
72.9618
72.8267
72.6181
72.347
72.0119
71.6102
71.1392
70.5967
69.979
69.2841
68.5096
67.6531
66.7118
65.6847
64.5702
63.3674
62.0766
60.6977
59.2309
57.6795
56.0433
54.3251
52.53
50.6593
48.717
46.7089
44.6385
42.5092
40.3288
38.0998
35.8288
33.5202
31.1784
28.8081
26.4144
24.0008
21.5718
19.13
16.6841
14.2492
11.7717
8.9417
67.8867
67.8534
67.7458
67.5757
67.3527
67.0753
66.7403
66.3472
65.8918
65.3721
64.7852
64.1286
63.3998
62.5959
61.7147
60.7544
59.7139
58.5912
57.3858
56.0971
54.726
53.2732
51.7383
50.1252
48.4357
46.6704
44.8353
42.9318
40.9653
38.9385
36.8567
34.7237
32.5438
30.3238
28.0652
25.7736
23.4558
21.1119
18.7479
16.3696
13.9945
11.5659
8.75919
63.0398
63.0245
62.9416
62.8036
62.6203
62.3897
62.1099
61.7786
61.394
60.9529
60.4532
59.8918
59.2664
58.5744
57.8132
56.9802
56.0743
55.0927
54.0343
52.898
51.6831
50.3898
49.0175
47.5669
46.0409
44.4381
42.764
41.0178
39.2046
37.3269
35.3885
33.3935
31.344
29.2477
27.1051
24.923
22.7056
20.454
18.1744
15.8702
13.5629
11.1899
8.19477
58.4741
58.4683
58.4017
58.2886
58.1361
57.9419
57.705
57.4236
57.0947
56.7172
56.2879
55.8042
55.2634
54.6631
54.0008
53.2738
52.4801
51.6174
50.6842
49.678
48.5982
47.4437
46.2142
44.9089
43.5287
42.0741
40.5465
38.9472
37.2779
35.5417
33.7413
31.8791
29.9594
27.9859
25.9608
23.891
21.7782
19.6274
17.4446
15.2368
13.0283
10.765
8.12526
54.1227
54.1303
54.0808
53.9888
53.8621
53.6989
53.4982
53.2575
52.9756
52.6504
52.2794
51.86
51.3896
50.8659
50.2863
49.6483
48.9495
48.1878
47.361
46.467
45.5042
44.4708
43.3663
42.1899
40.9406
39.619
38.2252
36.7602
35.2251
33.6214
31.9517
30.2172
28.4227
26.5688
24.6605
22.7011
20.6945
18.6442
16.5546
14.4334
12.3014
10.1235
7.54232
49.9882
50.0023
49.963
49.8877
49.782
49.6439
49.4726
49.2662
49.0233
48.7418
48.4193
48.0536
47.6425
47.1831
46.6732
46.111
45.4932
44.8176
44.0822
43.2848
42.4236
41.4962
40.502
39.4391
38.3068
37.1049
35.8324
34.4897
33.0782
31.5981
30.0505
28.4373
26.7616
25.0236
23.2291
21.3781
19.4759
17.5251
15.5288
13.4929
11.4312
9.32549
6.92803
46.0261
46.0481
46.0194
45.9599
45.8719
45.7559
45.6098
45.4327
45.2224
44.9778
44.6966
44.3768
44.0157
43.6113
43.1612
42.6635
42.1151
41.5139
40.8579
40.1445
39.3715
38.5373
37.6399
36.6781
35.6502
34.5555
33.3931
32.1621
30.8637
29.4974
28.064
26.5644
25.0012
23.3745
21.6883
19.9432
18.1437
16.2913
14.3898
12.4425
10.4579
8.42477
6.17612
42.2187
42.2482
42.2307
42.1844
42.1136
42.0167
41.893
41.7409
41.5595
41.3472
41.1015
40.8209
40.5032
40.146
39.7476
39.3055
38.8172
38.2809
37.6938
37.0538
36.3584
35.606
34.7946
33.9223
32.9879
31.9893
30.9261
29.797
28.6017
27.3405
26.0132
24.6197
23.1624
21.6414
20.0586
18.4162
16.7168
14.9612
13.1542
11.2988
9.40336
7.45776
5.33176
38.5721
38.6059
38.5944
38.5583
38.5004
38.4193
38.3139
38.1833
38.0265
37.8413
37.6264
37.3795
37.0991
36.7831
36.4295
36.0358
35.6
35.12
34.5932
34.0175
33.3907
32.7106
31.9755
31.1832
30.3321
29.4205
28.4466
27.4102
26.3092
25.1446
23.9151
22.6209
21.2623
19.8411
18.357
16.812
15.209
13.548
11.8331
10.067
8.25785
6.39218
4.33715
35.0491
35.0885
35.0844
35.0585
35.0123
34.9456
34.8572
34.7458
34.6103
34.4491
34.2609
34.0441
33.7964
33.5166
33.2022
32.8509
32.4613
32.0306
31.5571
31.0385
30.4724
29.8567
29.1895
28.4687
27.6922
26.8587
25.966
25.0135
23.9993
22.9231
21.7838
20.5818
19.316
17.988
16.5975
15.1459
13.6344
12.0647
10.4391
8.76018
7.03629
5.25292
3.2686
31.6483
31.6908
31.6929
31.6758
31.6406
31.587
31.5135
31.4191
31.3027
31.1628
30.9985
30.8077
30.589
30.3408
30.061
29.7478
29.3987
29.0119
28.5857
28.1175
27.6055
27.0473
26.4408
25.7844
25.0751
24.3122
23.493
22.617
21.682
20.6871
19.6314
18.5142
17.3353
16.0944
14.7921
13.4285
12.0054
10.5227
8.98363
7.38905
5.74821
4.04716
2.13929
28.3419
28.3921
28.4029
28.3959
28.3719
28.3309
28.2711
28.1925
28.0938
27.9738
27.831
27.6636
27.4708
27.251
27.002
26.7224
26.4096
26.0621
25.6782
25.2551
24.7914
24.2845
23.7328
23.1337
22.4856
21.7864
21.0343
20.228
19.3653
18.4449
17.4663
16.428
15.3299
14.1707
12.9511
11.6712
10.3315
8.93232
7.476
5.96361
4.40348
2.78736
0.960446
25.1587
25.2124
25.2272
25.226
25.2105
25.1789
25.1306
25.0652
24.9815
24.8782
24.7541
24.6078
24.4384
24.2436
24.0219
23.772
23.4916
23.1793
22.8329
22.4506
22.03
21.5696
21.0668
20.5201
19.927
19.2861
18.5948
17.8518
17.0555
16.2042
15.2965
14.3313
13.3079
12.2254
11.0835
9.88216
8.62166
7.30212
5.9246
4.48994
3.00567
1.46676
-0.285335
22.0577
22.12
22.1404
22.1471
22.1395
22.1174
22.0801
22.0271
21.9567
21.8685
21.7613
21.6341
21.4851
21.3128
21.1158
20.8926
20.6415
20.3607
20.0485
19.7024
19.3211
18.9024
18.4443
17.9448
17.4018
16.8136
16.1781
15.4933
14.7577
13.9697
13.1277
12.2304
11.2767
10.2656
9.19685
8.06954
6.88387
5.63947
4.33725
2.97687
1.56406
0.0911939
-1.59981
19.0668
19.1302
19.1523
19.1625
19.1606
19.1458
19.1174
19.0741
19.0157
18.9406
18.8485
18.7379
18.6072
18.4552
18.2806
18.0813
17.8564
17.6042
17.3227
17.0095
16.6636
16.2829
15.8653
15.4089
14.9113
14.3714
13.7868
13.1556
12.4759
11.7461
10.9649
10.1304
9.24178
8.29751
7.29695
6.23948
5.12523
3.9536
2.72529
1.44168
0.110343
-1.26622
-2.80865
16.1302
16.2013
16.2296
16.2474
16.2534
16.2473
16.228
16.1954
16.1483
16.0864
16.0082
15.9132
15.7993
15.6659
15.5116
15.3344
15.1334
14.907
14.6532
14.3704
14.0567
13.7103
13.3297
12.9124
12.4567
11.961
11.4231
10.8408
10.2126
9.53678
8.81169
8.03567
7.20734
6.32569
5.38914
4.39724
3.34957
2.24555
1.08522
-0.131098
-1.39895
-2.71746
-4.21302
13.2811
13.3547
13.386
13.4093
13.4219
13.4231
13.4123
13.3891
13.353
13.3026
13.2375
13.1565
13.058
12.9416
12.8055
12.6487
12.4695
12.2666
12.0382
11.7829
11.4987
11.1839
10.8368
10.4555
10.0382
9.58307
9.08792
8.55091
7.97039
7.34445
6.67152
5.9497
5.17762
4.35425
3.47761
2.54747
1.56289
0.52313
-0.571915
-1.72171
-2.92184
-4.16568
-5.53133
10.5008
10.5789
10.6146
10.6436
10.6621
10.6703
10.6673
10.6526
10.6259
10.5861
10.5327
10.4642
10.3802
10.2793
10.1602
10.0215
9.86236
9.68091
9.47567
9.24537
8.98816
8.70239
8.38618
8.03792
7.65595
7.23808
6.78241
6.28717
5.75082
5.17108
4.54654
3.87519
3.15565
2.3866
1.56644
0.694081
-0.23125
-1.21062
-2.24467
-3.33362
-4.47575
-5.66835
-6.96427
7.80873
7.88488
7.92051
7.95189
7.97416
7.98743
7.99006
7.98256
7.96399
7.93356
7.89029
7.83362
7.76247
7.67557
7.5718
7.45016
7.30898
7.14733
6.96344
6.75623
6.5239
6.26453
5.97692
5.6592
5.30952
4.92604
4.50699
4.05054
3.55506
3.01812
2.4386
1.81445
1.14399
0.425831
-0.341226
-1.15916
-2.02868
-2.95066
-3.92651
-4.95637
-6.03955
-7.17823
-8.42205
5.18218
5.25491
5.29101
5.32483
5.35025
5.36731
5.3753
5.37426
5.36307
5.34103
5.30736
5.26109
5.20154
5.12726
5.03769
4.93129
4.80713
4.66375
4.49961
4.31363
4.10397
3.86932
3.60806
3.31866
2.99888
2.6472
2.26201
1.84149
1.38371
0.886842
0.349318
-0.23085
-0.855179
-1.52558
-2.24284
-3.00926
-3.82564
-4.69329
-5.61344
-6.58688
-7.61114
-8.68865
-9.94501
2.57073
2.65004
2.69464
2.73636
2.76898
2.79359
2.80936
2.81599
2.81336
2.80039
2.77633
2.74081
2.69259
2.63071
2.55442
2.46254
2.35425
2.22766
2.08187
1.91545
1.72717
1.51542
1.27853
1.01504
0.722955
0.400969
0.0473828
-0.339898
-0.762217
-1.22169
-1.72012
-2.25915
-2.84037
-3.46566
-4.13618
-4.85392
-5.61967
-6.43538
-7.30206
-8.22051
-9.18621
-10.1963
-11.4002
0.0329655
0.114832
0.161912
0.207727
0.245479
0.275995
0.298006
0.31205
0.316862
0.312163
0.297308
0.271419
0.233942
0.18387
0.119934
0.0418112
-0.0521009
-0.162994
-0.291709
-0.439883
-0.608369
-0.798962
-1.01309
-1.25242
-1.51855
-1.81279
-2.13711
-2.49321
-2.8826
-3.30727
-3.76905
-4.26941
-4.81027
-5.39298
-6.01936
-6.691
-7.40881
-8.17464
-8.98971
-9.85428
-10.7633
-11.7101
-12.8274
-2.41425
-2.33823
-2.2935
-2.24822
-2.20935
-2.1768
-2.15114
-2.13291
-2.12257
-2.12076
-2.12817
-2.14586
-2.17431
-2.2142
-2.26676
-2.33258
-2.41307
-2.50914
-2.62215
-2.75339
-2.90372
-3.07474
-3.26784
-3.48441
-3.7262
-3.99479
-4.29172
-4.6188
-4.97753
-5.36965
-5.79704
-6.26107
-6.76383
-7.30671
-7.89141
-8.51946
-9.19225
-9.91109
-10.6779
-11.4938
-12.3579
-13.2683
-14.3053
-4.85324
-4.77222
-4.72179
-4.67088
-4.6266
-4.58871
-4.55741
-4.53336
-4.51675
-4.50795
-4.50779
-4.51732
-4.53652
-4.5666
-4.60852
-4.66289
-4.73095
-4.81343
-4.91171
-5.02696
-5.16015
-5.31301
-5.48651
-5.68202
-5.90122
-6.14574
-6.41718
-6.71702
-7.0468
-7.40851
-7.80356
-8.23359
-8.70049
-9.20595
-9.75135
-10.3381
-10.968
-11.6418
-12.3611
-13.1267
-13.9371
-14.7834
-15.6668
-7.22908
-7.14832
-7.09665
-7.04339
-6.99606
-6.9538
-6.91799
-6.8885
-6.86584
-6.85052
-6.84342
-6.84486
-6.8555
-6.87622
-6.90803
-6.95155
-7.00774
-7.07739
-7.16191
-7.26217
-7.37964
-7.51524
-7.67017
-7.84597
-8.04419
-8.26632
-8.51376
-8.7881
-9.09087
-9.42377
-9.78849
-10.1866
-10.6198
-11.0899
-11.5983
-12.1462
-12.7354
-13.3665
-14.0404
-14.7565
-15.5138
-16.3035
-17.0295
-9.558
-9.47687
-9.42331
-9.36759
-9.31757
-9.27201
-9.232
-9.19799
-9.17002
-9.14906
-9.13531
-9.12945
-9.13221
-9.14429
-9.16683
-9.20007
-9.24508
-9.30293
-9.37426
-9.46076
-9.56318
-9.6825
-9.82014
-9.97752
-10.1561
-10.3569
-10.5817
-10.8323
-11.1095
-11.4156
-11.7518
-12.1199
-12.5216
-12.9583
-13.4318
-13.9436
-14.4952
-15.0879
-15.7232
-16.4023
-17.1293
-17.9115
-18.6907
-11.8497
-11.7672
-11.7107
-11.6521
-11.5987
-11.5495
-11.505
-11.4661
-11.4331
-11.4063
-11.3864
-11.3737
-11.3689
-11.3728
-11.3861
-11.4096
-11.4444
-11.4908
-11.5503
-11.6237
-11.7119
-11.816
-11.9374
-12.0775
-12.2373
-12.4184
-12.6222
-12.8501
-13.1034
-13.3841
-13.6935
-14.0333
-14.4051
-14.8104
-15.251
-15.7285
-16.2446
-16.8006
-17.3983
-18.0396
-18.7266
-19.4661
-20.2374
-14.1039
-14.0196
-13.9604
-13.898
-13.8411
-13.7876
-13.7389
-13.6954
-13.6571
-13.6246
-13.5984
-13.5792
-13.5673
-13.5633
-13.5682
-13.5827
-13.6074
-13.6433
-13.6913
-13.7523
-13.827
-13.9169
-14.0232
-14.1468
-14.2891
-14.4514
-14.6353
-14.842
-15.0727
-15.3295
-15.6136
-15.9267
-16.2701
-16.6457
-17.0552
-17.5001
-17.982
-18.5026
-19.0641
-19.668
-20.3148
-21.011
-21.811
-16.323
-16.2351
-16.1723
-16.1064
-16.0455
-15.9882
-15.9352
-15.8868
-15.8434
-15.8053
-15.7732
-15.7475
-15.7286
-15.7174
-15.7143
-15.72
-15.7355
-15.7613
-15.7984
-15.8476
-15.9097
-15.986
-16.0779
-16.1862
-16.3121
-16.4568
-16.6218
-16.8083
-17.0178
-17.252
-17.5121
-17.7997
-18.1165
-18.464
-18.8439
-19.2576
-19.7066
-20.1926
-20.7176
-21.2824
-21.8845
-22.5217
-23.2689
-18.473
-18.3887
-18.3289
-18.2633
-18.2021
-18.1433
-18.0877
-18.0364
-17.9895
-17.947
-17.9101
-17.8787
-17.8539
-17.8358
-17.8251
-17.8228
-17.8294
-17.8457
-17.8726
-17.9107
-17.9612
-18.0248
-18.103
-18.1967
-18.3069
-18.435
-18.5822
-18.7498
-18.9392
-19.1519
-19.3892
-19.6529
-19.9444
-20.2651
-20.6168
-21.0006
-21.4186
-21.8717
-22.3621
-22.8905
-23.4557
-24.0608
-24.7544
-20.6274
-20.5373
-20.4712
-20.4003
-20.334
-20.2706
-20.2106
-20.1546
-20.1027
-20.0554
-20.013
-19.9763
-19.9452
-19.9204
-19.9027
-19.8927
-19.8909
-19.8981
-19.9152
-19.9429
-19.9821
-20.0339
-20.0993
-20.1791
-20.2746
-20.3869
-20.5172
-20.6669
-20.8373
-21.0296
-21.2455
-21.4865
-21.7538
-22.0491
-22.3737
-22.7295
-23.1179
-23.5401
-23.9981
-24.4929
-25.0232
-25.5925
-26.2692
-22.7191
-22.6305
-22.5654
-22.4937
-22.4259
-22.3602
-22.297
-22.2374
-22.1816
-22.1299
-22.0828
-22.0405
-22.0036
-21.9726
-21.9481
-21.9308
-21.921
-21.9196
-21.9275
-21.9455
-21.9741
-22.0144
-22.0674
-22.1341
-22.2157
-22.3131
-22.4274
-22.56
-22.7122
-22.8853
-23.081
-23.3003
-23.5448
-23.8159
-24.1151
-24.4439
-24.804
-25.1966
-25.6232
-26.0846
-26.5811
-27.1151
-27.6792
-24.7755
-24.6875
-24.6224
-24.5499
-24.4803
-24.4125
-24.3473
-24.2848
-24.2259
-24.1705
-24.119
-24.0718
-24.0297
-23.9929
-23.9622
-23.9379
-23.9207
-23.9113
-23.9106
-23.9191
-23.9375
-23.967
-24.0084
-24.0629
-24.131
-24.2142
-24.3133
-24.4298
-24.565
-24.7197
-24.8959
-25.0946
-25.3172
-25.5655
-25.8405
-26.144
-26.4771
-26.8418
-27.2393
-27.6705
-28.1369
-28.6462
-29.1999
-26.811
-26.722
-26.6552
-26.58
-26.5079
-26.4374
-26.3687
-26.303
-26.2403
-26.1808
-26.125
-26.0731
-26.0256
-25.9833
-25.9465
-25.9156
-25.8911
-25.8741
-25.8651
-25.8644
-25.8734
-25.8926
-25.923
-25.9655
-26.0211
-26.0908
-26.1756
-26.2768
-26.3956
-26.533
-26.6908
-26.8699
-27.0718
-27.2982
-27.5502
-27.8294
-28.1371
-28.475
-28.8447
-29.2471
-29.6831
-30.1618
-30.7056
-28.8175
-28.7273
-28.6589
-28.5817
-28.5069
-28.4334
-28.3617
-28.2923
-28.2259
-28.1624
-28.1021
-28.0453
-27.9928
-27.945
-27.902
-27.8647
-27.8336
-27.8093
-27.7921
-27.783
-27.7829
-27.7924
-27.8122
-27.8434
-27.8868
-27.9438
-28.0148
-28.1014
-28.2046
-28.3256
-28.4657
-28.6262
-28.8084
-29.014
-29.2442
-29.5001
-29.7835
-30.0956
-30.4382
-30.812