/*--------------------------------*- C++ -*----------------------------------*\
| =========                 |                                                 |
| \\      /  F ield         | OpenFOAM: The Open Source CFD Toolbox           |
|  \\    /   O peration     | Version:  2.3.0                                 |
|   \\  /    A nd           | Web:      www.OpenFOAM.org                      |
|    \\/     M anipulation  |                                                 |
\*---------------------------------------------------------------------------*/
FoamFile
{
    version     2.0;
    format      ascii;
    class       volVectorField;
    location    "5000";
    object      U;
}
// * * * * * * * * * * * * * * * * * * * * * * * * * * * * * * * * * * * * * //

dimensions      [0 1 -1 0 0 0 0];

internalField   nonuniform List<vector> 
38546
(
(13.2874 -1.93793 3.36084e-21)
(13.1349 -2.01703 -1.58042e-20)
(12.9839 -2.10549 0)
(12.8306 -2.19604 0)
(12.675 -2.28894 -2.26285e-20)
(12.5171 -2.38462 0)
(12.3567 -2.48324 0)
(12.1939 -2.58484 0)
(12.0284 -2.68948 0)
(11.8602 -2.79726 7.59825e-21)
(11.6892 -2.9084 -9.56206e-21)
(11.5153 -3.02305 2.84746e-20)
(11.3383 -3.14141 -2.63146e-20)
(11.1581 -3.26371 5.98269e-20)
(10.9744 -3.39023 2.76284e-20)
(10.787 -3.52133 6.46826e-20)
(10.5957 -3.65739 3.72481e-21)
(10.4004 -3.79894 -1.03452e-19)
(10.2005 -3.94644 -6.62991e-20)
(9.99564 -4.10061 1.61e-19)
(9.78548 -4.26217 -1.10801e-19)
(9.56947 -4.43202 0)
(9.347 -4.61116 -3.10773e-20)
(9.11744 -4.80081 -1.7982e-20)
(8.88011 -5.0023 1.7008e-20)
(8.6343 -5.21724 0)
(8.37924 -5.44762 1.00775e-19)
(8.11409 -5.69554 -1.74473e-20)
(7.8379 -5.96346 1.62606e-20)
(7.55016 -6.25481 4.172e-22)
(7.25015 -6.57292 8.81935e-21)
(6.93725 -6.92246 -6.5774e-20)
(6.61105 -7.30844 1.46529e-21)
(6.27232 -7.73748 5.75996e-20)
(5.92149 -8.21794 -3.82519e-20)
(5.55856 -8.75952 4.12153e-20)
(5.18397 -9.37599 -1.0948e-19)
(4.79401 -10.0815 1.15524e-19)
(4.39177 -10.8996 0)
(3.98274 -11.8622 2.47302e-20)
(3.58821 -13.0224 0)
(3.25496 -14.46 -6.96193e-19)
(3.06892 -16.1671 7.2954e-19)
(13.3933 -2.10056 5.4198e-21)
(13.2606 -2.17589 -1.08134e-21)
(13.1308 -2.26232 9.76331e-21)
(13.0001 -2.35193 -7.27684e-21)
(12.868 -2.44425 -7.54047e-21)
(12.7345 -2.53949 -5.67192e-21)
(12.5994 -2.63779 -5.73913e-21)
(12.4628 -2.73923 2.68321e-20)
(12.3245 -2.8439 -4.6686e-21)
(12.1846 -2.95193 -1.38252e-20)
(12.043 -3.06352 1.95628e-20)
(11.8997 -3.17892 1.68428e-20)
(11.7546 -3.29833 1.84833e-20)
(11.6077 -3.42203 0)
(11.4589 -3.55031 -5.39168e-20)
(11.3082 -3.68347 7.88627e-20)
(11.1554 -3.82188 1.845e-21)
(11.0008 -3.96599 2.93198e-20)
(10.844 -4.11621 6.93267e-21)
(10.6853 -4.27311 0)
(10.5244 -4.43731 1.61756e-20)
(10.3616 -4.60952 1.71492e-20)
(10.1968 -4.79057 -4.47977e-20)
(10.0301 -4.9814 -1.75593e-21)
(9.86165 -5.18309 6.90439e-20)
(9.69169 -5.39687 -2.13091e-20)
(9.5207 -5.62416 -2.83951e-20)
(9.34915 -5.86666 2.93265e-20)
(9.17782 -6.12613 -1.58439e-20)
(9.00793 -6.40483 1.64284e-20)
(8.84084 -6.70507 8.72445e-21)
(8.67837 -7.02952 -9.07471e-21)
(8.52347 -7.38118 2.68789e-20)
(8.3799 -7.76339 -4.49077e-20)
(8.25212 -8.17957 -6.41083e-20)
(8.14676 -8.63337 9.22258e-20)
(8.07276 -9.12876 1.55693e-19)
(8.04202 -9.66948 -1.77103e-20)
(8.07179 -10.2586 -2.997e-20)
(8.18533 -10.8971 -1.17719e-19)
(8.41687 -11.5822 0)
(8.81548 -12.3017 2.03311e-20)
(9.44723 -13.0261 1.61959e-19)
(13.4891 -2.23761 3.68926e-21)
(13.3746 -2.31266 2.56601e-21)
(13.2618 -2.3986 -4.06171e-21)
(13.148 -2.48766 1.81036e-21)
(13.0329 -2.57951 -2.49717e-21)
(12.9168 -2.67439 2.25832e-20)
(12.7994 -2.77243 -1.89401e-20)
(12.6808 -2.87374 -1.76978e-20)
(12.561 -2.9784 -5.46906e-22)
(12.44 -3.08657 0)
(12.3179 -3.19845 0)
(12.1946 -3.31431 -5.01678e-21)
(12.0703 -3.43442 -3.12026e-20)
(11.9448 -3.5591 -3.15147e-20)
(11.8182 -3.68872 3.28397e-20)
(11.6904 -3.8236 -2.31793e-20)
(11.5615 -3.96413 0)
(11.4315 -4.11077 -3.89801e-21)
(11.3006 -4.26403 5.41041e-21)
(11.1688 -4.42449 0)
(11.0363 -4.59284 -2.758e-20)
(10.9033 -4.76981 -1.69619e-20)
(10.7698 -4.95625 -2.93384e-20)
(10.6363 -5.15306 4.34407e-20)
(10.503 -5.36128 -3.3999e-20)
(10.3704 -5.58207 2.10044e-20)
(10.2393 -5.81665 -1.68588e-20)
(10.1103 -6.06651 4.99534e-20)
(9.98471 -6.33311 -3.33692e-20)
(9.86389 -6.6182 0)
(9.74952 -6.92347 0)
(9.6439 -7.25079 1.49845e-20)
(9.55006 -7.6019 -4.10128e-20)
(9.47158 -7.97866 4.11816e-20)
(9.41293 -8.38254 9.18936e-21)
(9.37996 -8.81441 -2.58702e-20)
(9.37926 -9.27466 -1.51706e-20)
(9.41892 -9.76206 5.29278e-21)
(9.50893 -10.273 5.35899e-21)
(9.6603 -10.8007 1.8254e-21)
(9.88509 -11.333 1.09681e-19)
(10.1947 -11.8502 -1.30229e-19)
(10.5969 -12.3225 0)
(13.5839 -2.35033 -1.99659e-20)
(13.4847 -2.42698 5.79268e-21)
(13.3865 -2.51123 -4.33959e-21)
(13.2875 -2.59793 -7.00517e-22)
(13.1878 -2.68722 -7.62756e-22)
(13.0873 -2.77943 -5.96253e-21)
(12.9859 -2.87471 1.15304e-20)
(12.8836 -2.97317 3.8838e-21)
(12.7804 -3.07489 0)
(12.6764 -3.17999 7.20864e-21)
(12.5717 -3.28867 -1.93456e-21)
(12.4664 -3.40114 -4.02258e-21)
(12.3605 -3.51769 4.22006e-21)
(12.2541 -3.6387 2.38623e-20)
(12.1473 -3.76449 -1.54219e-20)
(12.04 -3.89541 1.49093e-20)
(11.9323 -4.03177 -1.5016e-20)
(11.8243 -4.17393 3.30614e-21)
(11.7164 -4.32237 -2.48168e-21)
(11.6087 -4.47757 1.95392e-20)
(11.5015 -4.64013 -8.29253e-21)
(11.3952 -4.8107 2.18089e-20)
(11.2902 -4.99 -2.22511e-20)
(11.1867 -5.1788 -1.34313e-20)
(11.0855 -5.37792 1.40044e-20)
(10.9871 -5.58826 0)
(10.8925 -5.81082 0)
(10.8026 -6.04655 -1.53377e-20)
(10.7188 -6.29664 1.55561e-20)
(10.6426 -6.56218 1.67275e-21)
(10.5758 -6.8443 -1.20059e-20)
(10.5208 -7.14391 -1.48454e-20)
(10.4803 -7.46184 0)
(10.4576 -7.79864 9.52607e-21)
(10.4569 -8.15441 -9.83472e-21)
(10.4828 -8.52865 9.76893e-22)
(10.5405 -8.92006 -8.78596e-21)
(10.6362 -9.32588 -2.59197e-21)
(10.7759 -9.74168 8.97827e-21)
(10.9654 -10.1612 5.06889e-20)
(11.2099 -10.5752 -5.81444e-20)
(11.5122 -10.9713 1.34778e-19)
(11.8705 -11.335 -3.07042e-19)
(13.6757 -2.44849 0)
(13.5885 -2.52557 -4.87317e-21)
(13.502 -2.6065 1.1949e-21)
(13.4153 -2.68979 3.74579e-21)
(13.3282 -2.7757 3.18547e-21)
(13.2405 -2.86453 -2.10753e-21)
(13.1521 -2.9564 8.56269e-22)
(13.063 -3.05139 -3.11358e-21)
(12.973 -3.14964 -1.0175e-21)
(12.8823 -3.25123 -6.27615e-21)
(12.791 -3.35627 1.03055e-21)
(12.6992 -3.46494 -1.05899e-20)
(12.6072 -3.5775 1.16938e-20)
(12.5152 -3.69437 -9.69823e-21)
(12.4229 -3.81603 -6.64886e-21)
(12.3304 -3.94273 0)
(12.2377 -4.07479 0)
(12.1452 -4.21251 4.77903e-21)
(12.0529 -4.35629 -5.03114e-21)
(11.9613 -4.50658 2.72583e-21)
(11.8707 -4.66385 -1.36376e-20)
(11.7816 -4.82869 2.09509e-20)
(11.6943 -5.00179 -2.93387e-20)
(11.6093 -5.18384 -1.01542e-22)
(11.5272 -5.37555 8.25785e-21)
(11.4487 -5.5776 -1.52951e-20)
(11.3747 -5.79082 1.55465e-20)
(11.3063 -6.01598 4.15699e-21)
(11.2448 -6.25387 -6.28843e-21)
(11.1918 -6.50542 1.12946e-21)
(11.1488 -6.7714 5.88968e-21)
(11.1177 -7.05241 2.80071e-21)
(11.101 -7.34859 -2.89108e-21)
(11.1016 -7.6599 0)
(11.1228 -7.98582 0)
(11.1685 -8.32528 0)
(11.2427 -8.67634 0)
(11.3499 -9.03578 -6.12326e-21)
(11.4941 -9.39944 0)
(11.6788 -9.76147 1.75909e-20)
(11.9068 -10.1141 -6.39173e-20)
(12.1784 -10.4487 6.44311e-20)
(12.4912 -10.755 0)
(13.7595 -2.54101 0)
(13.6833 -2.61124 -8.03837e-21)
(13.6075 -2.68727 -5.69575e-21)
(13.5316 -2.7663 5.72091e-21)
(13.4554 -2.8482 -3.17465e-21)
(13.3787 -2.93307 2.78418e-21)
(13.3013 -3.02102 3.80613e-21)
(13.2231 -3.11207 2.54813e-21)
(13.1442 -3.20628 9.97188e-22)
(13.0646 -3.30389 8.15666e-22)
(12.9842 -3.40494 -4.81615e-22)
(12.9035 -3.50936 4.8184e-22)
(12.8226 -3.61741 1.81856e-21)
(12.7421 -3.72943 4.04496e-22)
(12.6618 -3.8461 4.411e-21)
(12.5815 -3.96785 8.85565e-22)
(12.5011 -4.09484 6.40788e-21)
(12.4209 -4.22728 5.76836e-21)
(12.3413 -4.36561 -9.97119e-21)
(12.2626 -4.51014 1.27555e-20)
(12.1851 -4.6613 4.44861e-21)
(12.1094 -4.81943 -1.34309e-20)
(12.0362 -4.98529 6.35991e-21)
(11.966 -5.15956 0)
(11.899 -5.34284 -5.36533e-21)
(11.8362 -5.53564 1.24226e-20)
(11.7783 -5.7387 -4.31505e-21)
(11.7263 -5.95256 -2.69413e-21)
(11.6819 -6.17764 -2.1538e-21)
(11.6467 -6.41477 1.51418e-21)
(11.622 -6.66472 5.35295e-21)
(11.6093 -6.92796 0)
(11.6104 -7.20416 0)
(11.6279 -7.49282 2.03197e-21)
(11.6648 -7.79301 -2.0911e-21)
(11.7244 -8.10351 0)
(11.8097 -8.42226 0)
(11.9247 -8.74611 -1.66184e-20)
(12.0717 -9.07145 3.30903e-20)
(12.2535 -9.39269 0)
(12.4716 -9.70386 -3.20346e-20)
(12.7253 -9.99826 1.19772e-19)
(13.0124 -10.2686 -3.65073e-20)
(13.8358 -2.61277 4.09648e-22)
(13.7695 -2.68075 6.79982e-21)
(13.7033 -2.75412 -8.41741e-21)
(13.6368 -2.82953 0)
(13.5699 -2.90761 4.28558e-21)
(13.5026 -2.98857 2.89673e-21)
(13.4345 -3.07253 1.58972e-21)
(13.3655 -3.15965 -6.80102e-21)
(13.2956 -3.24971 0)
(13.2253 -3.34323 -7.96881e-22)
(13.1538 -3.44046 0)
(13.0817 -3.54097 0)
(13.0093 -3.64482 2.94401e-22)
(12.9375 -3.75208 -2.95497e-22)
(12.8668 -3.86367 -9.84092e-22)
(12.7965 -3.98049 -3.74251e-21)
(12.7256 -4.1026 -1.33245e-21)
(12.6552 -4.22991 0)
(12.5851 -4.36309 2.10019e-21)
(12.5161 -4.50225 -1.08744e-20)
(12.4483 -4.64796 -6.77403e-22)
(12.3821 -4.80014 7.39459e-21)
(12.3191 -4.9593 -2.80334e-21)
(12.2595 -5.1266 2.86578e-21)
(12.2032 -5.30253 -1.02463e-21)
(12.1514 -5.48709 2.89795e-21)
(12.1049 -5.68136 0)
(12.0641 -5.8858 0)
(12.0309 -6.10012 3.2865e-21)
(12.0074 -6.32494 -2.86697e-21)
(11.9951 -6.56137 2.50571e-23)
(11.9948 -6.81014 -4.01222e-22)
(12.007 -7.07089 -1.27984e-21)
(12.0343 -7.34201 1.76416e-21)
(12.0795 -7.62252 -8.22033e-21)
(12.1464 -7.91134 -2.71426e-21)
(12.236 -8.20638 0)
(12.3534 -8.50472 3.83481e-21)
(12.4984 -8.80352 5.65159e-21)
(12.6744 -9.09674 -7.80251e-20)
(12.8821 -9.37991 3.1648e-20)
(13.121 -9.64745 -3.79992e-20)
(13.3886 -9.89373 6.67869e-21)
(13.9108 -2.67772 3.91552e-22)
(13.8505 -2.7412 1.45428e-20)
(13.7914 -2.8109 -4.97678e-21)
(13.7323 -2.88245 0)
(13.6729 -2.95661 -7.16123e-21)
(13.6136 -3.03393 1.70783e-21)
(13.553 -3.11376 -7.22016e-21)
(13.4921 -3.19737 4.75333e-21)
(13.4292 -3.28314 -6.16898e-21)
(13.3671 -3.3724 0)
(13.3033 -3.46598 0)
(13.2386 -3.56309 -6.92217e-22)
(13.1726 -3.66355 1.22916e-21)
(13.1068 -3.76665 3.03503e-21)
(13.0423 -3.87322 0)
(12.9807 -3.98477 8.38206e-22)
(12.9175 -4.10244 1.40706e-21)
(12.8556 -4.2248 -1.32598e-21)
(12.7932 -4.35315 0)
(12.7321 -4.48703 0)
(12.6724 -4.62805 2.34036e-21)
(12.6131 -4.77528 7.17691e-22)
(12.5573 -4.92823 8.2959e-22)
(12.5063 -5.08923 3.01337e-22)
(12.4578 -5.25913 -2.21676e-21)
(12.4131 -5.43622 0)
(12.3756 -5.62228 2.03833e-21)
(12.3429 -5.81907 3.03376e-21)
(12.3173 -6.02464 -7.34307e-23)
(12.3019 -6.23913 5.91196e-21)
(12.2988 -6.46365 0)
(12.308 -6.69997 1.04923e-21)
(12.3276 -6.94815 -1.07861e-21)
(12.3617 -7.20581 8.55841e-21)
(12.4109 -7.46962 0)
(12.4834 -7.74195 1.09757e-20)
(12.5734 -8.01743 1.70835e-20)
(12.6949 -8.2959 2.05757e-20)
(12.8375 -8.57551 2.28803e-20)
(13.0084 -8.84772 2.78652e-20)
(13.2079 -9.11007 1.08727e-19)
(13.4359 -9.35814 1.10736e-20)
(13.6891 -9.58656 -1.38383e-19)
(13.9748 -2.73298 1.36481e-20)
(13.9224 -2.79423 -1.27575e-20)
(13.8716 -2.85964 -6.45156e-21)
(13.821 -2.92677 -1.65914e-20)
(13.7674 -2.99627 0)
(13.7144 -3.07148 -9.89123e-21)
(13.6579 -3.14596 0)
(13.6048 -3.22773 -8.67656e-21)
(13.547 -3.30882 5.81405e-21)
(13.494 -3.39334 4.36867e-22)
(13.4371 -3.48288 -7.16922e-21)
(13.3806 -3.57612 0)
(13.3221 -3.67423 1.34602e-21)
(13.2642 -3.77447 3.40014e-22)
(13.2036 -3.87596 5.07495e-21)
(13.1478 -3.98073 2.10308e-22)
(13.0873 -4.09444 -3.46585e-21)
(13.0326 -4.21233 1.24755e-21)
(12.9769 -4.33727 0)
(12.922 -4.46524 0)
(12.8712 -4.60206 -6.05543e-22)
(12.8189 -4.74595 6.20118e-22)
(12.7688 -4.89283 7.18954e-22)
(12.7283 -5.04714 1.68307e-21)
(12.6892 -5.2132 -9.49844e-22)
(12.6497 -5.38338 4.35393e-21)
(12.6211 -5.56033 3.78889e-21)
(12.5939 -5.75005 -2.18947e-21)
(12.5726 -5.94939 6.98807e-21)
(12.5623 -6.15691 -5.45287e-21)
(12.5656 -6.3727 -6.55045e-22)
(12.5843 -6.59885 3.60505e-22)
(12.6061 -6.8352 1.96899e-20)
(12.6429 -7.0854 -3.22015e-20)
(12.6875 -7.33147 0)
(12.7663 -7.59844 0)
(12.8445 -7.85206 -3.62099e-20)
(12.9717 -8.11662 -4.42702e-20)
(13.1074 -8.38512 0)
(13.2709 -8.6439 9.55993e-20)
(13.4604 -8.89158 -6.71499e-20)
(13.6787 -9.12633 -4.28016e-20)
(13.9206 -9.33912 4.34391e-20)
(4.89543 -16.9729 1.89963e-18)
(6.45853 -16.4354 -1.87794e-18)
(7.90773 -15.7743 0)
(9.33911 -15.3316 -7.77229e-20)
(10.6499 -14.973 0)
(11.7969 -14.6372 6.96694e-20)
(12.7984 -14.3347 -1.79929e-18)
(13.6768 -14.073 1.49898e-18)
(14.4475 -13.8473 -1.16783e-19)
(15.1241 -13.6496 -1.52234e-18)
(15.7195 -13.472 1.35075e-18)
(16.2453 -13.3077 -1.23093e-18)
(16.7116 -13.1512 1.35426e-18)
(17.126 -12.9967 -1.31203e-18)
(17.4963 -12.8416 2.38529e-18)
(17.8285 -12.6835 -1.08133e-18)
(18.1279 -12.521 0)
(18.3991 -12.354 0)
(18.6459 -12.1822 0)
(18.8717 -12.0063 1.42541e-19)
(19.0794 -11.8272 0)
(19.2713 -11.6457 1.04246e-20)
(19.4497 -11.4627 -2.03618e-18)
(19.616 -11.2791 3.99795e-18)
(19.7717 -11.0957 -1.71481e-18)
(19.918 -10.9129 2.47449e-19)
(20.0557 -10.7314 0)
(20.1858 -10.5515 -1.6453e-18)
(20.3089 -10.3734 2.29784e-19)
(20.4256 -10.1974 2.31421e-18)
(20.5362 -10.0235 0)
(20.6414 -9.85194 9.13798e-19)
(20.7415 -9.6826 -2.28378e-18)
(20.8371 -9.5155 1.59446e-18)
(20.9284 -9.35062 -2.25715e-18)
(21.0158 -9.18797 1.35033e-18)
(21.0996 -9.02752 9.04416e-19)
(21.1801 -8.86928 -9.0509e-19)
(21.2574 -8.71321 4.4487e-19)
(21.3318 -8.55933 0)
(21.4034 -8.40754 -4.43836e-19)
(21.4733 -8.25838 1.33557e-18)
(21.541 -8.11125 4.30157e-19)
(10.3127 -13.6379 -1.98265e-19)
(11.1468 -14.1145 4.4122e-19)
(11.9151 -14.4419 1.1483e-19)
(12.6444 -14.6327 -1.49138e-18)
(13.3339 -14.7042 7.9862e-19)
(13.9721 -14.6795 5.86904e-20)
(14.5581 -14.5829 -9.04832e-19)
(15.0945 -14.4337 -6.48628e-20)
(15.5847 -14.2468 1.20931e-20)
(16.0323 -14.034 -4.28026e-20)
(16.4414 -13.8049 1.07252e-18)
(16.8159 -13.5665 -1.1743e-18)
(17.1594 -13.3243 1.06487e-18)
(17.4752 -13.0822 1.27808e-19)
(17.7661 -12.843 -9.12597e-19)
(18.0346 -12.6085 1.7947e-18)
(18.283 -12.38 -1.00468e-18)
(18.5133 -12.1579 1.19836e-19)
(18.7272 -11.9427 9.75066e-19)
(18.9263 -11.7342 -9.52188e-19)
(19.112 -11.5323 1.05458e-18)
(19.2855 -11.3366 -6.88456e-19)
(19.4478 -11.1467 0)
(19.6002 -10.9621 8.99804e-19)
(19.7433 -10.7825 -6.69645e-19)
(19.8781 -10.6072 2.15618e-19)
(20.0052 -10.436 0)
(20.1254 -10.2685 0)
(20.2393 -10.1044 -2.22434e-19)
(20.3474 -9.94335 -2.21416e-19)
(20.4504 -9.78524 0)
(20.5486 -9.62985 2.12109e-19)
(20.6424 -9.477 2.12603e-19)
(20.7323 -9.32657 2.2086e-19)
(20.8187 -9.17845 4.42791e-19)
(20.9017 -9.03256 -4.44198e-19)
(20.9816 -8.88881 4.32971e-19)
(21.0587 -8.74712 8.8181e-19)
(21.133 -8.60742 -1.77058e-18)
(21.2046 -8.4696 -8.88205e-19)
(21.2736 -8.33333 8.88549e-19)
(21.341 -8.19903 -4.49037e-19)
(21.4061 -8.06082 -4.50531e-19)
(11.0925 -12.7123 2.29735e-20)
(11.6509 -13.0046 3.15272e-20)
(12.2408 -13.2059 7.23856e-19)
(12.8411 -13.3277 -6.73613e-19)
(13.4348 -13.3818 0)
(14.0083 -13.3784 8.45176e-19)
(14.5529 -13.3285 -9.38561e-19)
(15.064 -13.2415 -1.09179e-19)
(15.5397 -13.126 9.08434e-19)
(15.9797 -12.9888 -9.43298e-19)
(16.385 -12.836 0)
(16.7574 -12.6721 -1.08739e-18)
(17.0992 -12.5007 9.44983e-19)
(17.4128 -12.3249 7.19114e-19)
(17.7006 -12.1468 -9.29367e-19)
(17.9651 -11.9679 9.40325e-19)
(18.2088 -11.7896 -1.71727e-18)
(18.4336 -11.6127 7.8064e-19)
(18.6416 -11.4379 -1.08251e-19)
(18.8347 -11.2655 1.07073e-19)
(19.0145 -11.096 -8.7801e-19)
(19.1824 -10.9293 6.41409e-19)
(19.3396 -10.7656 0)
(19.4874 -10.605 -2.06438e-19)
(19.6267 -10.4474 -2.13557e-19)
(19.7583 -10.2927 -2.12013e-19)
(19.8829 -10.1408 -1.03376e-18)
(20.0013 -9.99162 8.24513e-19)
(20.1139 -9.84512 -8.26483e-19)
(20.2214 -9.70118 6.20687e-19)
(20.324 -9.55969 0)
(20.4222 -9.42054 -2.10043e-19)
(20.5163 -9.28359 -2.10803e-19)
(20.6067 -9.14876 -8.37402e-19)
(20.6936 -9.01597 1.68311e-18)
(20.7773 -8.88516 -8.46384e-19)
(20.8579 -8.75624 -1.49667e-18)
(20.9355 -8.62914 4.33789e-19)
(21.0101 -8.50375 -4.28594e-19)
(21.082 -8.37998 1.73949e-18)
(21.1512 -8.25767 -8.72263e-19)
(21.2179 -8.13744 4.32808e-19)
(21.2809 -8.01476 -4.25247e-19)
(12.2783 -11.6522 2.22106e-19)
(12.723 -11.9153 -5.90568e-20)
(13.1903 -12.1206 -3.04901e-20)
(13.6663 -12.2685 3.39615e-20)
(14.1395 -12.362 4.30285e-19)
(14.6012 -12.4065 -2.52994e-19)
(15.045 -12.4083 0)
(15.467 -12.3744 1.05968e-19)
(15.8647 -12.3109 0)
(16.2374 -12.2238 0)
(16.5853 -12.118 0)
(16.9089 -11.9978 9.81438e-19)
(17.2097 -11.8671 -1.71687e-18)
(17.4891 -11.7287 9.5915e-19)
(17.7487 -11.585 1.04925e-19)
(17.9899 -11.4379 1.1005e-19)
(18.2145 -11.2891 -1.09042e-19)
(18.4237 -11.1396 1.02979e-19)
(18.6191 -10.9904 -7.3092e-19)
(18.802 -10.8421 7.14535e-19)
(18.9735 -10.6953 7.18074e-19)
(19.1346 -10.5504 -6.04592e-19)
(19.2861 -10.4075 0)
(19.429 -10.2668 -6.00413e-19)
(19.564 -10.1284 1.79224e-18)
(19.6916 -9.99221 5.21454e-21)
(19.8128 -9.85825 2.06591e-19)
(19.9279 -9.72646 -1.5849e-18)
(20.0375 -9.59685 7.90923e-19)
(20.1419 -9.46932 9.98067e-19)
(20.2417 -9.34378 3.5508e-21)
(20.3371 -9.22012 -9.97392e-19)
(20.4286 -9.09825 0)
(20.5165 -8.97811 8.13222e-19)
(20.6011 -8.8597 -8.16926e-19)
(20.6826 -8.74297 8.26724e-19)
(20.761 -8.62784 -1.66127e-18)
(20.8364 -8.51422 1.26384e-18)
(20.909 -8.40199 4.24352e-19)
(20.9788 -8.291 -4.26331e-19)
(21.0463 -8.18122 4.48698e-21)
(21.1116 -8.07288 -8.64994e-19)
(21.1756 -7.96568 8.55004e-19)
(12.8403 -11.0252 2.21847e-21)
(13.2194 -11.2541 2.54705e-19)
(13.6197 -11.4382 -1.87465e-19)
(14.0313 -11.5765 -7.4559e-20)
(14.4452 -11.6706 -8.14573e-20)
(14.8537 -11.7238 -8.73981e-20)
(15.251 -11.7408 0)
(15.6328 -11.7263 -9.2813e-20)
(15.9963 -11.6854 0)
(16.3401 -11.6226 -3.09564e-19)
(16.6636 -11.5421 3.96813e-19)
(16.9669 -11.4476 0)
(17.2506 -11.3424 -1.0055e-19)
(17.5154 -11.229 -4.15351e-19)
(17.7626 -11.1097 -1.1356e-19)
(17.9934 -10.9863 5.0403e-19)
(18.2089 -10.8602 -4.09274e-19)
(18.4103 -10.7325 2.97269e-19)
(18.5988 -10.6042 0)
(18.7755 -10.4759 0)
(18.9414 -10.3483 0)
(19.0974 -10.2217 -9.96676e-20)
(19.2442 -10.0964 -3.92182e-19)
(19.3825 -9.97247 -1.95273e-19)
(19.5133 -9.8501 3.80335e-19)
(19.637 -9.72931 0)
(19.7546 -9.61014 5.7748e-19)
(19.8665 -9.49272 -3.84321e-19)
(19.9731 -9.37709 5.78331e-19)
(20.0746 -9.26314 -3.8618e-19)
(20.1716 -9.15077 0)
(20.2644 -9.03994 -1.94383e-19)
(20.3535 -8.93057 -1.78625e-21)
(20.4393 -8.82275 9.90567e-19)
(20.5218 -8.71652 -3.99708e-19)
(20.6011 -8.61182 -2.0036e-19)
(20.6772 -8.50852 4.12882e-19)
(20.7503 -8.4065 -4.11875e-19)
(20.8204 -8.30559 2.06505e-19)
(20.8878 -8.20563 -2.08342e-19)
(20.9528 -8.10644 4.2665e-19)
(21.0153 -8.00727 0)
(21.0774 -7.90957 -4.27897e-19)
(13.3287 -10.5092 -5.13949e-20)
(13.6688 -10.7163 5.89236e-20)
(14.0265 -10.8864 0)
(14.3946 -11.0183 -3.00573e-19)
(14.7656 -11.1131 -2.63165e-20)
(15.133 -11.1732 -2.45514e-20)
(15.4918 -11.2013 2.4942e-19)
(15.8382 -11.2013 2.88056e-21)
(16.17 -11.177 3.8114e-19)
(16.4854 -11.1322 -4.69142e-19)
(16.7838 -11.0707 2.98607e-19)
(17.0651 -10.9955 -2.87691e-19)
(17.3295 -10.9095 1.00283e-19)
(17.5775 -10.815 9.75141e-20)
(17.8101 -10.7141 3.99589e-19)
(18.028 -10.6086 -8.88562e-19)
(18.2324 -10.4998 2.91976e-19)
(18.4239 -10.3888 0)
(18.604 -10.2763 0)
(18.7734 -10.1634 9.56595e-20)
(18.9325 -10.0509 0)
(19.0822 -9.93871 3.85165e-19)
(19.2232 -9.82714 -7.62267e-19)
(19.3563 -9.71649 5.70005e-19)
(19.4824 -9.60686 1.88812e-19)
(19.6019 -9.49837 -3.76355e-19)
(19.7159 -9.39115 1.88213e-19)
(19.8242 -9.28562 -1.89311e-19)
(19.9272 -9.18169 -3.63249e-21)
(20.0252 -9.07906 0)
(20.1188 -8.9777 0)
(20.2086 -8.87759 0)
(20.295 -8.77878 -5.79392e-19)
(20.3781 -8.68151 3.89784e-19)
(20.4579 -8.58583 -5.87895e-19)
(20.5343 -8.49157 2.00482e-19)
(20.6073 -8.39853 6.05209e-19)
(20.6773 -8.30653 -4.05414e-19)
(20.7443 -8.21556 -2.06813e-19)
(20.8087 -8.12547 2.08737e-19)
(20.8707 -8.03607 0)
(20.9303 -7.94653 2.11883e-19)
(20.9901 -7.8612 -2.08399e-19)
(13.6819 -10.1142 -9.76167e-20)
(13.9946 -10.3059 0)
(14.3226 -10.4647 -6.47232e-20)
(14.6609 -10.5903 7.02852e-20)
(15.0025 -10.6841 0)
(15.3411 -10.7469 0)
(15.6724 -10.7805 5.16448e-19)
(15.9936 -10.7884 -1.6514e-19)
(16.3027 -10.7738 0)
(16.5981 -10.7403 0)
(16.8786 -10.6911 9.5112e-20)
(17.1439 -10.6287 -2.10225e-21)
(17.3941 -10.5557 0)
(17.6302 -10.4742 -2.11817e-21)
(17.852 -10.3865 0)
(18.0604 -10.294 -3.89135e-19)
(18.2561 -10.198 3.82305e-19)
(18.44 -10.0992 -3.86128e-19)
(18.6141 -9.99863 3.78037e-19)
(18.7776 -9.89821 -9.58674e-20)
(18.9306 -9.7976 1.87257e-19)
(19.0747 -9.69648 -1.86455e-19)
(19.2107 -9.59566 0)
(19.3392 -9.4955 -5.60463e-19)
(19.4611 -9.39602 1.85975e-19)
(19.5769 -9.29727 0)
(19.6879 -9.19975 0)
(19.7927 -9.10438 -1.87676e-19)
(19.8917 -9.0101 -1.88032e-19)
(19.9862 -8.91664 0)
(20.0767 -8.82425 1.86621e-19)
(20.1637 -8.73292 0)
(20.2476 -8.64286 1.91965e-19)
(20.3282 -8.55462 5.78779e-19)
(20.4049 -8.46799 -7.73055e-19)
(20.478 -8.38261 -1.96465e-19)
(20.5477 -8.29822 1.98613e-19)
(20.6144 -8.21471 1.9905e-19)
(20.6785 -8.13226 0)
(20.7398 -8.05083 -2.06678e-19)
(20.799 -7.96997 6.17348e-19)
(20.8561 -7.88882 2.09162e-19)
(20.914 -7.81317 -4.07567e-19)
(13.9665 -9.79281 -1.20502e-20)
(14.258 -9.97301 1.09512e-19)
(14.5648 -10.1237 6.35691e-20)
(14.8831 -10.2434 -6.90704e-20)
(15.203 -10.3363 -7.35876e-20)
(15.5187 -10.4006 7.78657e-20)
(15.8284 -10.4372 -8.2506e-20)
(16.1298 -10.4497 -8.57921e-20)
(16.4212 -10.4416 1.79411e-19)
(16.7006 -10.4169 -1.75531e-19)
(16.9662 -10.377 9.09118e-20)
(17.2184 -10.3237 -4.69655e-19)
(17.4566 -10.2599 3.67575e-19)
(17.683 -10.1882 -2.88316e-19)
(17.895 -10.1114 3.71554e-19)
(18.095 -10.0289 1.87564e-19)
(18.2832 -9.94295 -2.84914e-19)
(18.4604 -9.85345 1.84745e-19)
(18.6305 -9.76236 0)
(18.7872 -9.67269 3.75708e-19)
(18.934 -9.58083 -1.82202e-19)
(19.0732 -9.48796 1.9125e-19)
(19.2047 -9.39606 -5.5089e-19)
(19.3291 -9.30436 1.85481e-19)
(19.4476 -9.2128 3.68153e-19)
(19.5602 -9.12166 3.68545e-19)
(19.6691 -9.03249 -3.65355e-19)
(19.7688 -8.94618 -1.85651e-19)
(19.8642 -8.8593 3.66883e-19)
(19.9557 -8.77319 0)
(20.0434 -8.68819 -5.59256e-19)
(20.1279 -8.60393 -2.16219e-21)
(20.2098 -8.52128 5.62267e-19)
(20.2873 -8.44101 1.88813e-19)
(20.3607 -8.36209 5.76754e-19)
(20.4303 -8.28412 -1.91439e-19)
(20.4965 -8.20687 3.9309e-19)
(20.5602 -8.1304 -3.96716e-19)
(20.6215 -8.05533 0)
(20.6798 -7.98169 -2.03573e-19)
(20.7363 -7.90837 -4.10028e-19)
(20.7912 -7.83506 2.05362e-19)
(20.846 -7.76907 4.04518e-19)
(14.1867 -9.53696 -1.07658e-19)
(14.4582 -9.70619 0)
(14.7564 -9.84884 0)
(15.0668 -9.95809 2.73291e-19)
(15.3691 -10.0525 -2.16976e-19)
(15.6655 -10.1169 7.21329e-20)
(15.9585 -10.1537 1.67652e-19)
(16.2459 -10.1683 -3.36663e-19)
(16.5253 -10.1651 3.42382e-19)
(16.7939 -10.1479 -1.70565e-19)
(17.0498 -10.1116 -9.05299e-20)
(17.2925 -10.0629 -1.87055e-19)
(17.5211 -10.006 1.8263e-19)
(17.7409 -9.94399 -1.86301e-19)
(17.9438 -9.87589 0)
(18.1408 -9.79774 -1.88499e-19)
(18.3229 -9.72038 -1.89327e-19)
(18.4963 -9.63695 5.58785e-19)
(18.6663 -9.55387 -1.80104e-19)
(18.8136 -9.47201 -1.86341e-19)
(18.9547 -9.38598 1.87492e-19)
(19.0886 -9.302 0)
(19.2152 -9.21849 1.85675e-19)
(19.3359 -9.13294 -1.8483e-19)
(19.45 -9.04807 -1.85146e-19)
(19.5589 -8.96365 1.46121e-21)
(19.6666 -8.8832 -1.77664e-19)
(19.7581 -8.80401 -5.55199e-19)
(19.8518 -8.72227 -3.75695e-19)
(19.9392 -8.6436 1.08796e-21)
(20.0238 -8.56467 0)
(20.1051 -8.48637 -1.87038e-19)
(20.1843 -8.41084 -2.32431e-21)
(20.2575 -8.33781 -1.97618e-21)
(20.3272 -8.26528 -1.92986e-19)
(20.392 -8.19402 0)
(20.4536 -8.12291 -2.01273e-19)
(20.514 -8.05243 8.08511e-22)
(20.5726 -7.98444 2.00639e-19)
(20.6269 -7.91852 0)
(20.68 -7.85202 0)
(20.7313 -7.78602 2.08788e-19)
(20.7795 -7.72663 2.04708e-19)
(21.7687 -1.28919 -7.10329e-19)
(21.7927 -1.31349 -1.85443e-19)
(21.8167 -1.33878 0)
(21.8406 -1.36343 9.35414e-19)
(21.8641 -1.38783 -1.12469e-18)
(21.8873 -1.41195 1.50404e-18)
(21.9099 -1.43574 1.1368e-18)
(21.9318 -1.45919 -1.51775e-18)
(21.9529 -1.48229 1.91719e-19)
(21.9731 -1.50502 0)
(21.992 -1.52736 5.97884e-22)
(22.0094 -1.5493 -9.89217e-20)
(22.0249 -1.57083 1.00378e-19)
(22.0382 -1.59192 0)
(22.0487 -1.61257 -1.04014e-19)
(22.0558 -1.63275 0)
(22.0589 -1.65244 -1.73552e-18)
(22.057 -1.67163 1.77822e-18)
(22.0492 -1.69029 5.69635e-20)
(22.0342 -1.7084 -1.76775e-18)
(22.0107 -1.72592 -6.36218e-20)
(21.977 -1.74281 2.0088e-18)
(21.9314 -1.75898 -2.08241e-18)
(21.8721 -1.77432 2.22083e-18)
(21.7973 -1.78869 0)
(21.7052 -1.80192 -7.25639e-20)
(21.5943 -1.81386 0)
(21.4627 -1.82429 -2.52698e-18)
(21.3088 -1.83304 2.56221e-18)
(21.1306 -1.83988 -4.40901e-20)
(20.9265 -1.84457 2.94839e-18)
(20.694 -1.84692 -3.1274e-18)
(20.4306 -1.84662 -1.78169e-18)
(20.1335 -1.84347 3.60425e-18)
(19.7986 -1.83719 -3.91511e-18)
(19.4201 -1.82752 2.14211e-18)
(18.9896 -1.81402 2.38921e-18)
(18.4944 -1.79609 -2.5946e-18)
(17.9142 -1.77266 -4.86328e-20)
(17.2135 -1.74195 5.73086e-20)
(16.3207 -1.70975 -6.85798e-20)
(14.8894 -1.71506 0)
(11.5168 -1.71923 -2.90165e-18)
(21.7409 -1.30671 3.95904e-19)
(21.7621 -1.33036 -2.406e-20)
(21.7832 -1.3543 0)
(21.8043 -1.37767 0)
(21.8251 -1.4008 7.76482e-19)
(21.8456 -1.42371 -7.78108e-19)
(21.8658 -1.44638 -1.95711e-19)
(21.8855 -1.46882 -9.76795e-20)
(21.9047 -1.49103 0)
(21.9232 -1.51299 9.89455e-20)
(21.9409 -1.53469 -1.5046e-18)
(21.9576 -1.55613 1.61952e-18)
(21.9731 -1.57731 0)
(21.9871 -1.5982 0)
(21.9992 -1.61881 -1.05902e-19)
(22.0091 -1.6391 -1.73781e-18)
(22.0162 -1.65908 1.88534e-18)
(22.0198 -1.67873 -1.7094e-18)
(22.0194 -1.69803 1.87028e-18)
(22.0138 -1.71696 -1.99259e-18)
(22.0021 -1.73549 1.99089e-18)
(21.9828 -1.75361 0)
(21.9545 -1.77127 6.65268e-20)
(21.9153 -1.78842 -2.29173e-18)
(21.8632 -1.80497 2.30431e-18)
(21.7964 -1.82079 7.50035e-20)
(21.7128 -1.83581 -7.78366e-20)
(21.61 -1.84986 2.61748e-18)
(21.486 -1.8628 -5.39178e-18)
(21.3381 -1.87446 2.87667e-18)
(21.1638 -1.88469 -9.44949e-20)
(20.9601 -1.89325 0)
(20.7236 -1.89994 1.77044e-18)
(20.4502 -1.90449 -3.73204e-18)
(20.1349 -1.90658 1.91892e-18)
(19.7708 -1.90578 6.69739e-20)
(19.3487 -1.90136 1.186e-18)
(18.855 -1.8923 -1.39846e-18)
(18.2676 -1.87721 9.22844e-20)
(17.5423 -1.85533 0)
(16.5084 -1.84317 2.42331e-19)
(14.4552 -1.89486 0)
(10.9963 -1.87614 0)
(21.7148 -1.3227 -1.7077e-19)
(21.7339 -1.34472 1.73757e-19)
(21.7528 -1.36703 0)
(21.7716 -1.389 0)
(21.7902 -1.41083 -2.00194e-19)
(21.8086 -1.43253 -3.00169e-19)
(21.8267 -1.4541 0)
(21.8446 -1.47553 9.0581e-19)
(21.8621 -1.49683 -1.71725e-18)
(21.8791 -1.51799 8.12295e-19)
(21.8956 -1.53903 -1.74594e-18)
(21.9113 -1.55992 1.65761e-18)
(21.9261 -1.58069 -1.04771e-19)
(21.9399 -1.6013 1.06357e-19)
(21.9523 -1.62178 1.08983e-19)
(21.963 -1.64209 0)
(21.9717 -1.66224 0)
(21.9779 -1.68222 1.74459e-18)
(21.981 -1.70201 -1.96732e-18)
(21.9802 -1.72159 -6.12197e-20)
(21.9747 -1.74094 -1.96906e-18)
(21.9635 -1.76003 2.03314e-18)
(21.9451 -1.77881 -6.83427e-20)
(21.9181 -1.79723 0)
(21.8805 -1.81521 7.31767e-20)
(21.8303 -1.83264 0)
(21.7653 -1.84943 8.01385e-20)
(21.6831 -1.86543 -8.29155e-20)
(21.5809 -1.88047 1.3974e-18)
(21.456 -1.89437 -1.3724e-18)
(21.3051 -1.90692 1.92669e-19)
(21.1247 -1.91783 1.01278e-19)
(20.9107 -1.92679 1.62439e-18)
(20.6583 -1.93339 -1.8441e-18)
(20.3615 -1.93712 1.92119e-18)
(20.013 -1.93732 -3.27641e-18)
(19.6026 -1.933 1.16562e-18)
(19.1156 -1.92281 0)
(18.5268 -1.90584 6.26468e-19)
(17.7612 -1.88745 -6.98197e-19)
(16.4714 -1.90863 -9.17879e-20)
(14.02 -1.98998 -1.19787e-20)
(10.9655 -1.94202 0)
(21.6923 -1.33746 1.99204e-19)
(21.7087 -1.3574 -3.07962e-19)
(21.7256 -1.37809 2.05461e-19)
(21.7425 -1.39867 -2.04912e-19)
(21.7593 -1.41923 0)
(21.776 -1.43975 1.02715e-18)
(21.7926 -1.46021 -1.542e-18)
(21.8089 -1.48063 1.64886e-18)
(21.825 -1.501 -8.267e-19)
(21.8407 -1.52132 -1.04396e-19)
(21.856 -1.54159 5.15596e-22)
(21.8707 -1.56181 0)
(21.8848 -1.58197 5.65359e-22)
(21.898 -1.60208 -1.09379e-19)
(21.9102 -1.62214 1.77732e-18)
(21.9211 -1.64214 -1.69575e-18)
(21.9303 -1.66207 1.15355e-19)
(21.9376 -1.68194 1.18897e-19)
(21.9424 -1.70174 -6.06864e-20)
(21.9442 -1.72144 1.25339e-19)
(21.9423 -1.74104 -6.44397e-20)
(21.9357 -1.76051 -2.14053e-18)
(21.9235 -1.77982 1.10522e-18)
(21.9041 -1.79891 1.1494e-18)
(21.876 -1.81773 -1.27284e-18)
(21.8372 -1.83618 7.52515e-20)
(21.7854 -1.85414 -2.4233e-21)
(21.7182 -1.87147 1.35447e-18)
(21.6327 -1.888 1.50628e-18)
(21.5258 -1.90353 -1.83056e-19)
(21.394 -1.9178 -1.65602e-18)
(21.2332 -1.9305 1.54135e-18)
(21.039 -1.94124 -1.62766e-18)
(20.8059 -1.94953 0)
(20.5276 -1.9547 2.46858e-19)
(20.1961 -1.95591 0)
(19.8006 -1.95208 -1.4302e-19)
(19.3252 -1.94187 -1.56316e-19)
(18.7373 -1.92563 6.91643e-19)
(17.9044 -1.91889 -1.20695e-18)
(16.3456 -1.97786 3.63393e-19)
(13.7898 -2.06459 0)
(11.0435 -1.98279 0)
(21.6707 -1.3491 -2.33628e-19)
(21.6858 -1.36791 1.31589e-19)
(21.7009 -1.38742 3.35434e-22)
(21.716 -1.4068 -4.21683e-19)
(21.7313 -1.42619 4.20532e-19)
(21.7464 -1.4456 -3.91275e-22)
(21.7615 -1.46502 7.37698e-19)
(21.7765 -1.48447 -8.43667e-19)
(21.7913 -1.50393 2.11913e-19)
(21.8059 -1.52342 -7.47055e-19)
(21.8201 -1.54293 9.6609e-19)
(21.834 -1.56247 8.68867e-19)
(21.8474 -1.58202 -1.75693e-18)
(21.8601 -1.60161 7.79696e-19)
(21.872 -1.62121 -1.13089e-19)
(21.883 -1.64083 -1.15868e-19)
(21.8927 -1.66047 -1.18416e-19)
(21.9008 -1.68013 0)
(21.9071 -1.69979 3.41622e-22)
(21.9109 -1.71946 -1.27757e-19)
(21.9117 -1.73913 6.60758e-20)
(21.9088 -1.75876 3.92174e-22)
(21.9012 -1.77833 -1.05896e-18)
(21.8878 -1.79779 1.24275e-18)
(21.867 -1.8171 -1.21818e-18)
(21.837 -1.83618 2.53274e-18)
(21.7958 -1.85491 -1.31864e-18)
(21.7406 -1.87317 -1.29172e-18)
(21.6688 -1.89075 -9.2552e-20)
(21.5769 -1.90748 1.59778e-18)
(21.4611 -1.92309 0)
(21.3173 -1.93726 1.03308e-19)
(21.1405 -1.94962 0)
(20.9248 -1.95964 1.15291e-19)
(20.6634 -1.96661 -1.23496e-19)
(20.3476 -1.96961 0)
(19.9663 -1.9674 1.42334e-19)
(19.5021 -1.95883 1.54367e-19)
(18.9096 -1.94603 0)
(17.9837 -1.95642 0)
(16.2182 -2.04274 -1.632e-19)
(13.6873 -2.11574 2.9522e-19)
(11.1218 -2.0101 -2.60134e-19)
(21.6511 -1.35966 -1.08282e-19)
(21.6646 -1.37708 -2.99535e-22)