/*--------------------------------*- C++ -*----------------------------------*\
| =========                 |                                                 |
| \\      /  F ield         | OpenFOAM: The Open Source CFD Toolbox           |
|  \\    /   O peration     | Version:  2.3.0                                 |
|   \\  /    A nd           | Web:      www.OpenFOAM.org                      |
|    \\/     M anipulation  |                                                 |
\*---------------------------------------------------------------------------*/
FoamFile
{
    version     2.0;
    format      ascii;
    class       volScalarField;
    location    "4000";
    object      nut;
}
// * * * * * * * * * * * * * * * * * * * * * * * * * * * * * * * * * * * * * //

dimensions      [0 2 -1 0 0 0 0];

internalField   nonuniform List<scalar> 
39444
(
0.0581313
0.0564689
0.0548153
0.0531719
0.0515387
0.0499174
0.0483088
0.0467136
0.0451328
0.0435675
0.0420184
0.0404865
0.0389726
0.0374772
0.0360017
0.0345465
0.0331132
0.0317025
0.030316
0.0289558
0.0276232
0.0263216
0.0250543
0.0238258
0.0226388
0.0214944
0.0203983
0.0193574
0.0183804
0.0174651
0.0165834
0.0157091
0.0148359
0.0139655
0.0131005
0.0122392
0.0113791
0.0105144
0.00963567
0.00872934
0.00777452
0.00677392
0.00593394
0.0598096
0.0583511
0.0568997
0.0554559
0.0540209
0.0525954
0.0511802
0.0497756
0.0483819
0.0470001
0.0456306
0.0442743
0.0429314
0.0416019
0.0402872
0.0389875
0.037703
0.0364344
0.035183
0.033949
0.0327333
0.0315369
0.0303611
0.0292069
0.0280764
0.02697
0.0258903
0.0248391
0.0238192
0.0228339
0.0218838
0.020972
0.0201017
0.0192781
0.01851
0.0178072
0.0171806
0.0166445
0.0162112
0.0158978
0.0157187
0.0156888
0.0158227
0.0613392
0.0600532
0.058771
0.0574947
0.0562253
0.0549632
0.0537086
0.0524618
0.0512232
0.0499929
0.0487716
0.0475598
0.0463579
0.0451662
0.0439846
0.0428141
0.0416552
0.0405081
0.0393736
0.038252
0.0371451
0.0360533
0.0349778
0.0339199
0.0328816
0.0318643
0.0308698
0.0299012
0.0289608
0.028053
0.0271813
0.0263491
0.0255632
0.0248305
0.0241576
0.0235535
0.0230287
0.0225932
0.0222597
0.022037
0.0219349
0.0219599
0.0221146
0.0627365
0.0615922
0.0604529
0.0593188
0.0581894
0.057065
0.0559453
0.054831
0.0537218
0.0526182
0.0515206
0.050429
0.049344
0.0482659
0.0471952
0.0461321
0.045077
0.0440305
0.0429933
0.0419658
0.0409488
0.0399443
0.0389532
0.0379767
0.0370161
0.0360743
0.035153
0.0342555
0.0333848
0.0325442
0.0317389
0.0309735
0.0302529
0.0295849
0.028976
0.0284341
0.0279685
0.0275888
0.0273026
0.0271199
0.0270469
0.0270877
0.0272449
0.0639995
0.0629804
0.0619644
0.0609515
0.0599411
0.0589334
0.0579282
0.0569254
0.055925
0.0549275
0.0539334
0.0529424
0.0519549
0.0509714
0.0499921
0.0490179
0.0480493
0.0470861
0.0461294
0.0451795
0.0442376
0.0433048
0.0423829
0.0414734
0.0405773
0.0396971
0.0388351
0.0379945
0.0371785
0.0363915
0.0356379
0.0349226
0.0342511
0.0336299
0.0330657
0.0325656
0.0321391
0.0317937
0.0315369
0.0313767
0.0313193
0.0313676
0.031524
0.065142
0.0642322
0.0633225
0.0624131
0.0615044
0.0605961
0.059688
0.0587798
0.0578714
0.0569632
0.0560558
0.0551492
0.0542435
0.053339
0.0524361
0.0515354
0.0506379
0.0497445
0.048855
0.04797
0.0470899
0.0462162
0.045351
0.0444964
0.0436538
0.0428245
0.0420114
0.041217
0.0404448
0.0396991
0.0389856
0.038309
0.0376749
0.037089
0.0365574
0.0360876
0.0356877
0.0353651
0.0351275
0.0349815
0.0349329
0.0349852
0.0351399
0.0661757
0.0653615
0.0645434
0.0637224
0.0629003
0.0620772
0.0612517
0.0604241
0.0595939
0.0587606
0.0579264
0.0570912
0.0562545
0.0554164
0.0545777
0.0537383
0.0528995
0.0520631
0.0512308
0.0504007
0.0495731
0.0487485
0.0479294
0.047119
0.0463205
0.0455345
0.0447625
0.0440067
0.0432702
0.0425576
0.0418749
0.0412272
0.040622
0.0400641
0.0395579
0.0391108
0.0387305
0.0384237
0.0381994
0.0380626
0.0380196
0.0380736
0.0382265
0.0671184
0.0663817
0.0656429
0.0648957
0.0641473
0.0633974
0.0626426
0.0618828
0.0611217
0.0603508
0.059578
0.0588032
0.0580257
0.0572436
0.0564599
0.0556728
0.0548831
0.0540909
0.0533054
0.0525231
0.0517412
0.0509597
0.0501799
0.049403
0.0486395
0.04789
0.0471539
0.0464323
0.0457263
0.0450409
0.044383
0.0437555
0.0431721
0.042637
0.0421524
0.0417227
0.0413582
0.0410621
0.0408473
0.0407171
0.0406772
0.0407323
0.0408829
0.0679877
0.0673075
0.0666399
0.0659488
0.0652598
0.0645727
0.0638818
0.0631693
0.0624743
0.0617569
0.0610376
0.0603098
0.0595866
0.0588474
0.0581135
0.0573698
0.0566306
0.0558653
0.0551141
0.0543718
0.053633
0.0528889
0.0521516
0.0513959
0.0506551
0.0499336
0.0492281
0.0485405
0.0478684
0.0472013
0.0465725
0.0459557
0.0453855
0.044868
0.0444088
0.0439884
0.0436436
0.0433508
0.0431443
0.0430194
0.0429792
0.0430354
0.0431847
0.00672019
0.00854665
0.00970611
0.0108422
0.012045
0.0133186
0.0146493
0.0160236
0.0174302
0.018862
0.0203129
0.0217793
0.0232591
0.02475
0.0262503
0.0277597
0.0292773
0.0308025
0.0323346
0.0338735
0.0354189
0.0369704
0.0385279
0.040091
0.0416594
0.043233
0.0448114
0.0463944
0.0479816
0.0495726
0.051167
0.0527643
0.0543641
0.0559658
0.0575691
0.0591729
0.0607771
0.0623809
0.0639836
0.0655844
0.0671826
0.0687771
0.0703694
0.016125
0.0165997
0.0172356
0.0180187
0.0189303
0.0199493
0.021056
0.0222331
0.0234656
0.0247419
0.026052
0.0273887
0.028746
0.0301189
0.0315043
0.0328998
0.034303
0.0357127
0.0371272
0.0385455
0.039967
0.0413913
0.042818
0.044246
0.0456755
0.0471065
0.0485384
0.0499713
0.051405
0.0528391
0.0542733
0.0557075
0.0571418
0.0585754
0.0600084
0.0614405
0.0628715
0.0643011
0.065729
0.0671548
0.068578
0.0699987
0.0714204
0.0223983
0.0228126
0.0233607
0.0240346
0.0248217
0.0257086
0.0266807
0.0277243
0.0288271
0.0299781
0.0311677
0.0323878
0.0336318
0.034894
0.0361707
0.0374582
0.0387536
0.0400549
0.0413597
0.0426672
0.0439762
0.0452856
0.0465948
0.0479032
0.0492105
0.0505166
0.051821
0.053124
0.0544252
0.0557241
0.0570207
0.058315
0.0596073
0.0608972
0.0621845
0.0634694
0.0647518
0.0660318
0.0673093
0.0685843
0.0698563
0.0711253
0.0723944
0.0275166
0.0279038
0.0284077
0.0290227
0.0297392
0.0305472
0.031435
0.0323912
0.0334055
0.0344669
0.0355667
0.0366977
0.0378528
0.0390269
0.0402151
0.0414134
0.0426193
0.0438299
0.0450431
0.0462575
0.047471
0.0486828
0.0498926
0.0510996
0.0523034
0.0535038
0.0547007
0.0558937
0.0570824
0.0582668
0.0594468
0.0606225
0.0617941
0.0629616
0.0641246
0.0652838
0.0664392
0.0675911
0.0687394
0.069884
0.0710248
0.0721622
0.0732989
0.0317874
0.0321571
0.0326336
0.0332117
0.0338831
0.0346391
0.0354697
0.0363646
0.0373146
0.0383103
0.0393427
0.0404048
0.0414902
0.0425938
0.0437102
0.0448358
0.0459683
0.0471046
0.0482419
0.0493781
0.050512
0.0516422
0.0527682
0.0538897
0.0550067
0.0561187
0.0572252
0.0583255
0.0594195
0.0605072
0.0615886
0.062664
0.0637332
0.0647963
0.0658537
0.0669056
0.0679525
0.0689946
0.0700319
0.0710637
0.0720903
0.0731123
0.0741316
0.0353961
0.0357535
0.036211
0.0367634
0.0374031
0.0381221
0.0389116
0.0397618
0.0406638
0.0416092
0.0425893
0.0435973
0.0446273
0.0456734
0.0467316
0.0477987
0.0488714
0.0499465
0.051021
0.0520923
0.0531589
0.0542202
0.0552759
0.0563263
0.057371
0.0584092
0.0594398
0.060462
0.0614759
0.062482
0.0634802
0.0644705
0.0654529
0.0664272
0.0673941
0.0683543
0.0693085
0.0702568
0.0711985
0.0721329
0.0730601
0.0739813
0.0748997
0.0384774
0.0388252
0.0392689
0.0398024
0.0404186
0.0411097
0.0418677
0.0426837
0.0435489
0.0444546
0.0453931
0.0463575
0.0473417
0.0483404
0.0493511
0.0503706
0.0513953
0.0524203
0.0534424
0.0544585
0.0554671
0.0564694
0.057466
0.0584579
0.0594431
0.0604196
0.0613859
0.0623411
0.063287
0.0642243
0.0651524
0.0660705
0.0669787
0.0678768
0.0687659
0.0696476
0.0705231
0.0713916
0.0722515
0.073101
0.0739411
0.0747743
0.0756029
0.0411285
0.0414695
0.0419026
0.0424221
0.0430206
0.0436881
0.0444218
0.0452111
0.0460469
0.0469206
0.047825
0.0487534
0.0496992
0.0506567
0.0516287
0.0526103
0.0535981
0.0545812
0.0555585
0.0565256
0.0574826
0.0584347
0.0593821
0.0603277
0.0612638
0.0621883
0.0630988
0.0639952
0.0648838
0.0657637
0.0666328
0.0674892
0.0683334
0.0691649
0.0699867
0.0708022
0.0716118
0.0724126
0.0732022
0.0739767
0.0747395
0.0754964
0.0762486
0.0434208
0.0437563
0.0441817
0.0446876
0.0452742
0.0459172
0.0466338
0.0474007
0.0482077
0.0490536
0.0499245
0.0508238
0.0517354
0.0526566
0.0536038
0.0545564
0.0555181
0.0564579
0.0573969
0.0583142
0.0592287
0.06014
0.0610473
0.0619623
0.0628508
0.0637329
0.0645904
0.0654365
0.0662817
0.0671151
0.0679342
0.0687366
0.0695263
0.0702986
0.0710643
0.0718276
0.0725844
0.0733269
0.0740549
0.0747593
0.0754546
0.0761469
0.0768297
0.0670066
0.0638463
0.0606903
0.0575837
0.0545712
0.0516799
0.0489162
0.046277
0.043757
0.041351
0.0390536
0.0368596
0.0347642
0.0327626
0.0308503
0.0290231
0.0272767
0.0256071
0.0240115
0.0224855
0.021026
0.0196298
0.0182945
0.0170165
0.0157948
0.0146259
0.0135082
0.0124381
0.0114138
0.0104331
0.00949355
0.00859518
0.00773616
0.00691586
0.00613549
0.0053951
0.00469635
0.00404215
0.00344139
0.00293378
0.00250237
0.00201349
0.00137561
0.0672568
0.0643504
0.0614499
0.0585913
0.0558104
0.0531285
0.0505518
0.0480789
0.0457063
0.0434298
0.0412454
0.0391491
0.0371373
0.0352064
0.0333525
0.0315724
0.0298629
0.0282215
0.0266445
0.02513
0.0236754
0.0222788
0.0209381
0.0196525
0.0184192
0.0172363
0.0161016
0.0150132
0.0139692
0.0129689
0.0120119
0.011098
0.0102272
0.00940196
0.00862499
0.0079018
0.0072548
0.0066711
0.00606788
0.00541144
0.00467884
0.00383078
0.00279788
0.0675016
0.064835
0.0621706
0.0595374
0.0569649
0.0544723
0.0520659
0.0497455
0.0475081
0.0453512
0.0432719
0.0412672
0.0393345
0.0374711
0.035674
0.033941
0.0322699
0.0306584
0.0291048
0.0276072
0.026164
0.0247745
0.0234381
0.0221546
0.0209215
0.0197369
0.0186003
0.0175108
0.0164684
0.0154727
0.0145256
0.0136286
0.0127854
0.012003
0.0112944
0.0106239
0.00994071
0.00922089
0.00844123
0.00757609
0.00659573
0.0054645
0.00413269
0.0677413
0.065297
0.0628474
0.0604174
0.0580325
0.0557105
0.053458
0.0512756
0.0491617
0.0471142
0.0451314
0.0432112
0.041352
0.0395516
0.0378083
0.0361204
0.0344866
0.0329052
0.0313751
0.0298953
0.0284659
0.0270859
0.0257569
0.0244777
0.0232476
0.0220662
0.0209335
0.01985
0.0188163
0.0178348
0.0169084
0.0160431
0.0152461
0.0145105
0.0137863
0.0130415
0.0122541
0.0114034
0.0104688
0.0094263
0.00824735
0.00689747
0.00533706
0.0679935
0.0657415
0.0634818
0.0612335
0.0590171
0.0568482
0.0547345
0.0526769
0.0506746
0.0487264
0.0468312
0.044988
0.0431955
0.0414531
0.0397593
0.0381134
0.0365144
0.0349614
0.0334539
0.0319921
0.0305755
0.0292056
0.0278838
0.0266098
0.0253834
0.0242061
0.0230785
0.0220019
0.0209799
0.0200154
0.019114
0.0182837
0.0175104
0.0167475
0.0159641
0.0151389
0.0142529
0.0132877
0.0122214
0.0110305
0.00968634
0.00815672
0.00640506
0.0682338
0.0661585
0.064071
0.0619865
0.0599216
0.0578909
0.0559021
0.0539573
0.0520557
0.0501971
0.0483809
0.0466067
0.0448746
0.043184
0.0415352
0.0399275
0.0383607
0.0368342
0.0353482
0.0339029
0.0324994
0.0311391
0.0298237
0.0285536
0.0273302
0.0261556
0.025032
0.0239628
0.0229517
0.022004
0.0211272
0.020314
0.0195197
0.018712
0.017868
0.016969
0.0159973
0.0149328
0.0137543
0.0124367
0.0109516
0.0092668
0.00734737
0.0684547
0.0665441
0.0646134
0.0626774
0.0607496
0.0588431
0.0569674
0.0551247
0.0533146
0.0515363
0.049791
0.0480788
0.0464
0.0447557
0.0431465
0.0415732
0.0400359
0.0385342
0.0370679
0.0356385
0.0342472
0.0328961
0.0315872
0.03032
0.0290977
0.0279241
0.0268029
0.0257388
0.0247371
0.0238048
0.0229459
0.0221213
0.0212927
0.0204383
0.019539
0.0185761
0.0175301
0.0163808
0.0151057
0.0136785
0.0120711
0.0102502
0.00818097
0.0686708
0.0669027
0.0651119
0.0633097
0.0615055
0.0597099
0.0579364
0.0561879
0.0544607
0.0527546
0.0510728
0.0494155
0.0477845
0.0461802
0.0446051
0.0430616
0.0415515
0.0400735
0.0386251
0.0372112
0.035831
0.0344885
0.0331891
0.0319239
0.0307002
0.0295245
0.0284033
0.0273416
0.0263471
0.0254277
0.0245707
0.0237254
0.0228588
0.0219583
0.0210102
0.0199922
0.0188835
0.0176618
0.0163036
0.0147802
0.013066
0.0111273
0.00892526
0.0688705
0.0672329
0.0655703
0.0638875
0.0621955
0.0604962
0.0588128
0.0571547
0.0555054
0.0538618
0.0522379
0.0506286
0.0490405
0.047471
0.0459244
0.0444041
0.0429168
0.0414667
0.040032
0.0386339
0.0372674
0.035922
0.0346453
0.0333829
0.0321532
0.0309722
0.0298485
0.0287855
0.027794
0.0268844
0.0260136
0.0251487
0.0242466
0.0232964
0.0223073
0.0212428
0.0200814
0.0187991
0.0173713
0.015761
0.0139491
0.0119143
0.00961269
0.000652063
0.000545478
0.00076949
0.000990136
0.0011989
0.00139732
0.00158716
0.00177009
0.00194823
0.00212363
0.00229874
0.00247722
0.00266389
0.00286569
0.00309237
0.00335416
0.00365455
0.00399181
0.0043618
0.00476198
0.00519049
0.005647
0.00613107
0.00664307
0.00718341
0.00775276
0.00835143
0.00898009
0.00963947
0.0103301
0.0110525
0.0118076
0.0125962
0.0134193
0.0142775
0.0151721
0.0161041
0.0170741
0.0180835
0.0191334
0.0202248
0.0213599
0.0225408
0.00156044
0.000868422
0.000957144
0.00117843
0.0013948
0.00160037
0.0017969
0.00198694
0.00217349
0.00236025
0.00255195
0.00275415
0.0029739
0.00321951
0.00349957
0.00381831
0.00416996
0.00455064
0.00495753
0.00538925
0.00584499
0.00632463
0.00682818
0.00735547
0.00790724
0.0084838
0.00908553
0.00971272
0.0103657
0.0110451
0.0117513
0.0124852
0.0132474
0.0140387
0.0148596
0.0157113
0.0165945
0.01751
0.0184586
0.0194416
0.0204599
0.0215149
0.0226071
0.00258741
0.00134289
0.00114793
0.00134852
0.00157152
0.00178483
0.00198975
0.00218999
0.00239018
0.00259597
0.00281379
0.00305051
0.00331271
0.00360693
0.003939
0.00430516
0.00469801
0.00511443
0.00555257
0.00601166
0.00649133
0.00699123
0.00751169
0.0080525
0.00861398
0.00919635
0.00979959
0.010424
0.0110701
0.0117378
0.012428
0.0131411
0.0138775
0.0146378
0.0154227
0.016233
0.0170692
0.017932
0.0188222
0.0197407
0.0206883
0.0216658
0.0226739
0.00355271
0.0018971
0.00134969
0.00149896
0.00172627
0.00194807
0.00216342
0.00237755
0.00259695
0.0028287
0.00307957
0.00335556
0.00366158
0.00400188
0.00437872
0.00478297
0.00520923
0.00565515
0.00611964
0.00660205
0.00710199
0.00761932
0.008154
0.00870597
0.00927507
0.00986145
0.0104651
0.0110862
0.0117248
0.0123811
0.0130557
0.013749
0.0144611
0.0151927
0.0159441
0.0167158
0.0175086
0.0183226
0.0191589
0.0200179
0.0209003
0.0218066
0.0227377
0.00441484
0.00245775
0.00156295
0.00163316
0.00186248
0.00209371
0.00232185
0.00255365
0.00279684
0.00305879
0.00334542
0.00366077
0.00400772
0.00438993
0.00480337
0.00523905
0.00569323
0.0061644
0.00665147
0.00715376
0.00767121
0.00820341
0.00875015
0.00931127
0.00988631
0.0104755
0.0110785
0.0116955
0.0123267
0.0129721
0.0136321
0.0143066
0.0149963
0.0157012
0.0164217
0.0171582
0.0179111
0.0186808
0.0194677
0.0202725
0.0210952
0.0219362
0.0227949
0.00517607
0.00298171
0.00177963
0.00175419
0.00198371
0.00222557
0.00246886
0.00272125
0.00299101
0.00328485
0.0036068
0.00395891
0.00434295
0.00476169
0.00520559
0.00566799
0.00614629
0.00663912
0.00714583
0.00766572
0.00819844
0.00874345
0.00930032
0.00986886
0.0104487
0.0110397
0.0116418
0.0122546
0.0128785
0.0135135
0.0141596
0.0148169
0.0154857
0.0161662
0.0168584
0.0175627
0.0182793
0.0190084
0.0197505
0.0205056
0.0212741
0.0220562
0.0228531
0.00584626
0.00345442
0.0019924
0.00186453
0.00209297
0.00234643
0.00260671
0.00288173
0.00317932
0.00350464
0.00385991
0.00424549
0.00466313
0.0051122
0.0055818
0.00606748
0.00656708
0.00707949
0.00760349
0.00813874
0.00868461
0.00924085
0.00980651
0.0103814
0.010965
0.0115572
0.0121579
0.0127666
0.0133835
0.0140089
0.0146422
0.0152836
0.0159332
0.016591
0.0172572
0.0179322
0.0186158
0.0193081
0.0200091
0.0207191
0.021438
0.0221659
0.0229023
0.00644317
0.00387497
0.00219015
0.00196476
0.00219168
0.00245786
0.00273672
0.00303472
0.00335978
0.00371532
0.00410077
0.00451603
0.00496339
0.00543785
0.0059306
0.00643848
0.00695863
0.00748851
0.00802696
0.00857514
0.00913299
0.00969907
0.0102727
0.0108531
0.0114403
0.0120333
0.0126321
0.0132365
0.0138469
0.0144632
0.0150847
0.0157108
0.0163419
0.0169787
0.0176213
0.0182698
0.0189239
0.0195826
0.0202458
0.0209144
0.0215881
0.0222665
0.0229503
0.00701877
0.00429098
0.00240506
0.00205882
0.00228463
0.00256674
0.00285893
0.00318298
0.0035402
0.00391944
0.00433242
0.00477583
0.00525165
0.00575898
0.0062877
0.00682538
0.00735936
0.00789
0.00842547
0.00898572
0.00955635
0.0101322
0.0107129
0.0112983
0.011888
0.0124797
0.0130739
0.0136722
0.0142765
0.0148859
0.0154955
0.0161034
0.0167149
0.0173314
0.0179531
0.0185797
0.0192085
0.0198354
0.0204626
0.0210936
0.0217256
0.022358
0.0229915
0.000301891
0.00112875
0.00238632
0.00364761
0.00485451
0.00601407
0.00713077
0.00820976
0.00925581
0.0102738
0.0112686
0.012244
0.0132046
0.0141571
0.0151139
0.0160899
0.0170947
0.0181286
0.0191829
0.02025
0.0213758
0.0225985
0.0239016
0.0252661
0.0266784
0.0281318
0.0296218
0.0311441
0.0326957
0.0342736
0.0358762
0.0375011
0.0391469
0.0408125
0.0424962
0.0441969
0.0459136
0.0476448
0.0493896
0.0511466
0.0529156
0.0546968
0.0564963
0.000234904
0.000798381
0.00180342
0.00290228
0.00392453
0.00489478
0.00583792
0.00677054
0.00769745
0.00862088
0.00954214
0.0104623
0.011383
0.0123068
0.0132379
0.0141822
0.0151459
0.0161335
0.0171467
0.0181888
0.0192754
0.0204231
0.0216318
0.0228857
0.0241771
0.025561
0.0270314
0.028565
0.0301477
0.0317712
0.0334293
0.0351169
0.0368304
0.0385667
0.040323
0.0420976
0.0438886
0.0456942
0.0475133
0.0493445
0.0511868
0.0530412
0.0549099
0.000106937
0.000515503
0.00120056
0.00208993
0.00317738
0.00430246
0.00534422
0.00631211
0.00722648
0.00810334
0.00895489
0.00979107
0.0106204
0.0114501
0.012287
0.0131375
0.0140079
0.0149045
0.0158331
0.0168
0.0178124
0.0188781
0.0200015
0.0211811
0.0224164
0.0237185
0.0250832
0.0264954
0.0279907
0.0295782
0.0312325
0.0329383
0.0346849
0.0364647
0.038272
0.0401022
0.0419518
0.0438183
0.0456991
0.0475927
0.0494976
0.0514137
0.0533412
0.000116113
0.000431913
0.0009986
0.00173214
0.00263588
0.00370841
0.00482118
0.00588225
0.00688321
0.00782892
0.00872549
0.00957972
0.0103995
0.0111937
0.011972
0.0127445
0.0135217
0.014314
0.015132
0.0159855
0.016884
0.0178361
0.0188488
0.019927
0.0210735
0.0222897
0.0235736
0.024921
0.0263363
0.0278153
0.029353
0.0309944
0.0327171
0.0344998
0.0363281
0.0381918
0.0400838
0.0419981
0.0439308
0.0458786
0.0478393
0.0498111
0.0517927
8.92276e-05
0.000378928
0.000874517
0.0015171
0.0023059
0.00324267
0.0043229
0.00543687
0.00650994
0.00752999
0.00849884
0.00941941
0.0102944
0.0111273
0.0119229
0.0126885
0.0134332
0.0141678
0.0149051
0.0156585
0.0164418
0.0172685
0.0181508
0.0190994
0.0201218
0.0212227
0.0224033
0.0236627
0.024998
0.0264041
0.0278767
0.0294199
0.0310258
0.0327354
0.0345323
0.0363931
0.0383013
0.0402448
0.0422156
0.0442072
0.0462155
0.0482369
0.0502677
8.27573e-05
0.000347466
0.00079997
0.00138484
0.00210081
0.00294991
0.00393576
0.00503371
0.00614365
0.00721869
0.00824842
0.0092323
0.010171
0.0110651
0.0119154
0.0127237
0.0134941
0.0142328
0.014949
0.0156545
0.0163636
0.0170923
0.0178572
0.0186746
0.0195591
0.0205219
0.0215709
0.0227101
0.023939
0.0252544
0.0266511
0.0281235
0.0296654
0.0312806
0.032965
0.0347593
0.0366394
0.0385816
0.0405687
0.0425888
0.0446336
0.0466964
0.0487716
7.28349e-05
0.000322654
0.000743309
0.00128689
0.00195069
0.00273665
0.00364809
0.00468612
0.00579974
0.00691143
0.00799019
0.00902776
0.0100229
0.0109753
0.0118844
0.0127497
0.0135714
0.0143512
0.0150929
0.0158034
0.0164925
0.0171737
0.0178634
0.0185799
0.0193424
0.0201691
0.0210755
0.0220734
0.0231693
0.0243651
0.0256586
0.0270439
0.0285141
0.0300624
0.0316822
0.0333778
0.0351578
0.0370472
0.0390158
0.0410406
0.0431049
0.0451973
0.0473097
6.73087e-05
0.000304913
0.000702367
0.00121541
0.00184036
0.00257899
0.00343465
0.00441131
0.00549628
0.00662156
0.00773505
0.00881659
0.00986022
0.0108641
0.0118272
0.012748
0.0136253
0.0144581
0.0152468
0.0159935
0.016703
0.0173835
0.0180469
0.018709
0.0193886
0.0201069
0.0208847
0.0217414
0.0226923
0.0237475
0.0249116
0.0261832
0.0275574
0.029026
0.0305803
0.0322129
0.0339194
0.0357022
0.0375979
0.0395888
0.0416467
0.0437513
0.0458871
6.23778e-05
0.000290686
0.00066988
0.00115889
0.00175363
0.00245547
0.00326753
0.00419393
0.00523521
0.00635402
0.00748859
0.00860509
0.00969015
0.0107393
0.0117505
0.0127219
0.0136518
0.0145381
0.0153793
0.0161746
0.0169254
0.0176347
0.0183094
0.01896
0.0196015
0.0202525
0.0209353
0.0216729
0.0224876
0.023398
0.0244177
0.0255537
0.0268066
0.0281716
0.0296404
0.0312029
0.0328488
0.0345708
0.0363731
0.0382742
0.0402857
0.0423764
0.0445245
5.8842e-05
0.000279565
0.00064456
0.00111396
0.00168438
0.00235686
0.00313399
0.00401974
0.00501776
0.00611437
0.00725609
0.00839781
0.00951745
0.0106061
0.0116601
0.0126772
0.0136552
0.0145918
0.0154844
0.0163311
0.0171305
0.017883
0.018591
0.01926
0.0198997
0.0205242
0.021152
0.0218059
0.0225105
0.0232906
0.0241677
0.0251585
0.026272
0.0275108
0.0288705
0.0303426
0.0319155
0.033578
0.0353216
0.0371447
0.0390595
0.0410958
0.0432214
5.60003e-05
0.00027043
0.000624043
0.00107695
0.00162745
0.00227574
0.00302419
0.00387656
0.00483707
0.0059033
0.00704015
0.00819768
0.00934526
0.0104683
0.0115604
0.0126187
0.0136405
0.0146233
0.0155644
0.0164609
0.0173103
0.0181109
0.0188626
0.0195669
0.0202289
0.0208577
0.0214665
0.0220742
0.0227038
0.0233815
0.0241337
0.0249847
0.0259534
0.0270513
0.0282819
0.0296416
0.0311212
0.0327086
0.0343912
0.0361585
0.0380058
0.0399457
0.0420163
5.39058e-05
0.000262874
0.000606902
0.00104604
0.00157994
0.00220801
0.00293253
0.00375692
0.00468567
0.00572051
0.00684286
0.0080073
0.00917593
0.0103283
0.0114546
0.01255
0.0136118
0.0146371
0.015623
0.0165664
0.0174642
0.0183135
0.0191124
0.0198602
0.0205583
0.0212113
0.0218278
0.0224212
0.0230104
0.0236189
0.0242743
0.0250047
0.0258366
0.0267906
0.0278801
0.0291095
0.0304752
0.0319677
0.0335741
0.0352803
0.0370746
0.0389528
0.0409297
5.23336e-05
0.000256565
0.000592308
0.00101967
0.00153948
0.00215048
0.00285471
0.00365545
0.00455686
0.00556266
0.00666487
0.00782808
0.00901131
0.0101881
0.0113445
0.0124738
0.0135721
0.0146365
0.0156638
0.016651
0.0175945
0.018491
0.0193374
0.0201315
0.0208724
0.0215613
0.0222028
0.0228054
0.0233826
0.023954
0.0245438
0.0251809
0.0258952
0.0267146
0.0276616
0.0287504
0.0299859
0.0313645
0.0328759
0.0345062
0.0362409
0.0380688
0.0399887
5.12837e-05
0.000251513
0.000579687
0.000996935
0.0015046
0.00210097
0.00278776
0.00356815
0.00444609
0.00542581
0.00650571
0.00766132
0.00885285
0.0100492
0.0112321
0.012392
0.0135238
0.0146242
0.01569
0.0167179
0.0177044
0.0186458
0.0195384
0.020379
0.0211651
0.0218959
0.0225725
0.0231998
0.0237863
0.0243465
0.0249002
0.0254734
0.0260959
0.0267993
0.027613
0.0285606
0.0296567
0.0309062
0.0323049
0.0338417
0.0355018
0.0372702
0.0391327
5.08595e-05
0.000247811
0.000568769
0.000977187
0.00147436
0.00205792
0.00272955
0.00349216
0.00434982
0.00530662
0.00636405
0.00750752
0.00870172
0.00991279
0.0111185
0.0123061
0.0134688
0.0146025
0.0157039
0.0167698
0.0177966
0.0187803
0.019717
0.020603
0.0214346
0.0222096
0.022927
0.0235883
0.0241985
0.0247669
0.0253087
0.0258452
0.0264035
0.0270151
0.0277132
0.0285282
0.0294842
0.0305959
0.0318676
0.0332939
0.0348627
0.0365583
0.0383635
5.08956e-05
0.000245296
0.000559196
0.000959764
0.00144773
0.00202007
0.0026784
0.00342555
0.00426521
0.00520181
0.00623801
0.00736646
0.00855869
0.00977996
0.0110047
0.012217
0.0134082
0.014573
0.0157077
0.016809
0.0178735
0.0188971
0.0198757
0.0208051
0.0216815
0.0225011
0.0232616
0.0239623
0.024605
0.0251953
0.0257435
0.0262661
0.0267857
0.0273314
0.0279362
0.0286348
0.0294583
0.0304311
0.031567
0.0328692
0.0343309
0.0359391
0.0376791
5.11688e-05
0.000243615
0.000550649
0.000944299
0.00142399
0.00198652
0.00263309
0.00336654
0.00419033
0.00510875
0.0061256
0.00723769
0.0084241
0.00965157
0.0108917
0.012126
0.0133431
0.0145368
0.0157028
0.0168374
0.0179372
0.0189983
0.0200166
0.0209876
0.021907
0.0227707
0.0235749
0.0243176
0.0249982
0.0256191
0.0261868
0.026713
0.0272156
0.0277193
0.028255
0.0288578
0.0295633
0.0304033
0.0314015
0.0325706
0.0339118
0.0354169
0.037072
5.17102e-05
0.000242564
0.000543094
0.000930482
0.00140287
0.00195652
0.00259264
0.0033138
0.0041235
0.00502578
0.00602485
0.00712052
0.00829824
0.00952814
0.0107804
0.0120337
0.0132746
0.0144952
0.0156904
0.0168564
0.0179895
0.0190861
0.0201418
0.0211524
0.022113
0.0230194
0.023867
0.0246525
0.0253738
0.0260308
0.0266269
0.0271696
0.0276723
0.0281548
0.0286441
0.0291735
0.0297797
0.0304995
0.0313646
0.0323973
0.0336085
0.034997
0.0365518
5.23985e-05
0.000241916
0.000536301
0.000918004
0.00138389
0.00192957
0.00255624
0.00326641
0.00406343
0.00495131
0.00593418
0.00701382
0.00818093
0.00941004
0.0106713
0.0119409
0.0132034
0.014449
0.0156717
0.0168671
0.0180318
0.0191618
0.0202531
0.0213011
0.0223013
0.0232487
0.0241387
0.0249669
0.02573
0.0264263
0.0270565
0.0276249
0.0281405
0.0286187
0.0290818
0.0295593
0.0300869
0.0307031
0.0314454
0.0323447
0.0334214
0.0346834
0.0361263
5.30737e-05
0.000241499
0.000530137
0.000906723
0.00136658
0.00190513
0.00252333
0.00322357
0.00400907
0.00488378
0.00585203
0.00691643
0.00807183
0.00929757
0.0105647
0.0118482
0.0131299
0.0143987
0.0156472
0.0168707
0.0180652
0.0192269
0.0203519
0.0214356
0.0224734
0.0234603
0.0243912
0.0252614
0.0260665
0.0268036
0.0274714
0.0280715
0.0286095
0.0290964
0.0295499
0.0299951
0.0304645
0.0309962
0.0316302
0.0324041
0.0333473
0.0344773
0.0357984
5.37595e-05
0.000241182
0.00052447
0.00089644
0.00135088
0.00188286
0.00249336
0.00318462
0.00395969
0.00482246
0.00577727
0.00682749
0.00797066
0.00919098
0.0104615
0.011756
0.0130549
0.014345
0.0156178
0.0168678
0.0180907
0.0192827
0.0204396
0.0215573
0.022631
0.0236557
0.024626
0.025537
0.0263837
0.027162
0.0278694
0.0285051
0.029072
0.0295774
0.0300347
0.0304642
0.0308943
0.0313606
0.0319036
0.0325645
0.03338
0.0343773
0.035571
5.45404e-05
0.000240964
0.00051935
0.000886961
0.00133652
0.00186255
0.00246592
0.0031489
0.00391455
0.0047665
0.005709
0.00674588
0.00787683
0.00909011
0.0103617
0.0116651
0.012979
0.0142886
0.0155842
0.0168593
0.0181092
0.0193298
0.0205174
0.0216674
0.0227754
0.0238361
0.0248446
0.025795
0.0266824
0.0275018
0.0282494
0.0289231
0.0295234
0.0300545
0.0305257
0.0309531
0.0313606
0.0317798
0.0322496
0.0328127
0.0335105
0.0343783
0.0354382
5.52905e-05
0.000240841
0.000514645
0.000878306
0.00132327
0.00184386
0.00244075
0.00311614
0.003873
0.0047151
0.0056463
0.00667077
0.00778973
0.00899488
0.0102654
0.0115754
0.0129025
0.01423
0.0155468
0.0168456
0.0181212
0.0193694
0.020586
0.021767
0.0229077
0.0240031
0.0250479
0.0260366
0.0269635
0.0278234
0.0286114
0.0293244
0.0299609
0.0305226
0.0310155
0.0314517
0.0318503
0.032239
0.0326532
0.0331348
0.0337282
0.0344748
0.0354083
5.59823e-05
0.000240705
0.000510259
0.000870308
0.00131104
0.00182657
0.00241751
0.00308597
0.00383478
0.00466757
0.00558849
0.00660149
0.00770883
0.0089052
0.010173
0.0114876
0.0128257
0.0141694
0.0155061
0.0168273
0.0181274
0.0194018
0.0206464
0.021857
0.023029
0.0241577
0.0252375
0.0262629
0.0272282
0.0281276
0.0289558
0.0297085
0.0303828
0.0309785
0.0314988
0.0319521
0.0323533
0.0327256
0.0331004
0.0335172
0.0340207
0.0346558
0.0354604
5.67067e-05
0.000240612
0.000506247
0.000862868
0.00129974
0.00181059
0.00239599
0.00305791
0.00379935
0.00462364
0.00553487
0.0065373
0.00763352
0.00882073
0.0100846
0.0114019
0.0127493
0.0141073
0.0154624
0.016805
0.0181285
0.0194279
0.0206993
0.0219383
0.0231404
0.0243008
0.0254143
0.0264751
0.0274775
0.0284153
0.0292831
0.0300754
0.0307885
0.0314203
0.0319719
0.0324486
0.0328616
0.0332294
0.0335794
0.0339472
0.0343762
0.0349126
0.0355994
5.74093e-05
0.000240567
0.000502533
0.000855945
0.00128918
0.00179571
0.00237592
0.00303188
0.00376637
0.0045829
0.00548517
0.00647753
0.00756336
0.00874117
0.00999987
0.0113184
0.0126732
0.0140443
0.0154163
0.0167789
0.0181246
0.0194482
0.0207452
0.0220114
0.0232425
0.0244335
0.0255792
0.0266743
0.0277124
0.0286877
0.0295939
0.0304256
0.0311777
0.0318471
0.0324327
0.0329375
0.0333691
0.0337424
0.0340798
0.0344133
0.034783
0.035235
0.0358151
5.8049e-05
0.000240503
0.000499078
0.000849589
0.00127938
0.00178179
0.00235723
0.00300766
0.0037357
0.00454479
0.00543883
0.00642188
0.00749769
0.00866628
0.00991905
0.0112373
0.012598
0.0139803
0.015368
0.0167494
0.0181164
0.0194631
0.0207849
0.0220773
0.023336
0.0245565
0.0257334
0.0268612
0.027934
0.0289455
0.0298893
0.0307596
0.0315506
0.0322581
0.0328797
0.0334159
0.0338717
0.0342581
0.0345936
0.0349055
0.0352308
0.0356137
0.0361034
5.87191e-05
0.000240446
0.000495958
0.000843807
0.00127025
0.0017688
0.00233979
0.00298492
0.00370704
0.00450925
0.00539549
0.00636991
0.0074363
0.00859575
0.0098421
0.0111588
0.0125239
0.0139161
0.015318
0.0167171
0.0181043
0.0194731
0.0208186
0.0221363
0.0234218
0.0246705
0.0258775
0.0270369
0.0281431
0.0291896
0.0301702
0.0310781
0.0319077
0.0326535
0.033312
0.033882
0.0343661
0.0347718
0.035114
0.0354157
0.0357095
0.0360371
0.0364471
5.93774e-05
0.000240416
0.000493048
0.000838362
0.00126167
0.00175665
0.00232338
0.00296365
0.00368005
0.00447593
0.00535489
0.00632114
0.00737864
0.00852929
0.00976871
0.0110829
0.012451
0.0138517
0.0152666
0.0166822
0.0180886
0.0194786
0.0208469
0.0221889
0.0235004
0.0247764
0.0260121
0.0272022
0.0283406
0.0294211
0.0304371
0.031382
0.0322494
0.0330335
0.0337294
0.0343348
0.03485
0.03528
0.0356358
0.0359366
0.0362106
0.0364957
0.0368379
5.99581e-05
0.000240362
0.000490263
0.000833285
0.00125357
0.00174521
0.00230796
0.00294366
0.00365479
0.00444458
0.00531677
0.0062753
0.0073244
0.00846648
0.00969881
0.0110097
0.0123796
0.0137873
0.0152141
0.016645
0.0180696
0.0194799
0.0208703
0.0222358
0.023572
0.0248746
0.0261382
0.0273578
0.0285274
0.0296407
0.0306912
0.0316721
0.0325765
0.0333983
0.034132
0.0347737
0.0353221
0.0357799
0.036155
0.0364626
0.0367268
0.0369812
0.0372685
6.05358e-05
0.000240332
0.000487702
0.00082854
0.00124598
0.00173436
0.00229347
0.00292485
0.00363106
0.00441515
0.00528084
0.00623224
0.00727339
0.00840725
0.00963238
0.0109392
0.0123099
0.0137235
0.0151607
0.016606
0.0180478
0.0194776
0.0208891
0.0222773
0.0236377
0.0249656
0.0262563