/*--------------------------------*- C++ -*----------------------------------*\
| =========                 |                                                 |
| \\      /  F ield         | OpenFOAM: The Open Source CFD Toolbox           |
|  \\    /   O peration     | Version:  2.3.0                                 |
|   \\  /    A nd           | Web:      www.OpenFOAM.org                      |
|    \\/     M anipulation  |                                                 |
\*---------------------------------------------------------------------------*/
FoamFile
{
    version     2.0;
    format      ascii;
    class       volScalarField;
    location    "4000";
    object      nuTilda;
}
// * * * * * * * * * * * * * * * * * * * * * * * * * * * * * * * * * * * * * //

dimensions      [0 2 -1 0 0 0 0];

internalField   nonuniform List<scalar> 
39444
(
0.0581313
0.0564689
0.0548153
0.0531719
0.0515387
0.0499174
0.0483088
0.0467136
0.0451328
0.0435675
0.0420184
0.0404865
0.0389726
0.0374772
0.0360017
0.0345465
0.0331132
0.0317025
0.030316
0.0289558
0.0276232
0.0263216
0.0250543
0.0238258
0.0226388
0.0214944
0.0203983
0.0193574
0.0183804
0.0174651
0.0165834
0.0157091
0.0148359
0.0139655
0.0131005
0.0122392
0.0113791
0.0105144
0.00963569
0.00872936
0.00777454
0.00677395
0.00593398
0.0598096
0.0583511
0.0568997
0.0554559
0.0540209
0.0525954
0.0511802
0.0497756
0.0483819
0.0470001
0.0456307
0.0442743
0.0429314
0.0416019
0.0402872
0.0389875
0.037703
0.0364344
0.035183
0.033949
0.0327333
0.0315369
0.0303611
0.0292069
0.0280764
0.02697
0.0258903
0.0248391
0.0238192
0.0228339
0.0218838
0.020972
0.0201017
0.0192781
0.01851
0.0178072
0.0171806
0.0166445
0.0162113
0.0158978
0.0157187
0.0156888
0.0158227
0.0613392
0.0600532
0.058771
0.0574947
0.0562253
0.0549632
0.0537086
0.0524618
0.0512232
0.0499929
0.0487716
0.0475598
0.0463579
0.0451662
0.0439846
0.0428141
0.0416552
0.0405081
0.0393736
0.038252
0.0371451
0.0360533
0.0349778
0.0339199
0.0328816
0.0318643
0.0308698
0.0299012
0.0289608
0.028053
0.0271813
0.0263491
0.0255632
0.0248305
0.0241576
0.0235535
0.0230287
0.0225932
0.0222597
0.022037
0.0219349
0.0219599
0.0221146
0.0627365
0.0615922
0.0604529
0.0593188
0.0581894
0.057065
0.0559453
0.054831
0.0537218
0.0526182
0.0515206
0.050429
0.049344
0.0482659
0.0471952
0.0461321
0.045077
0.0440305
0.0429933
0.0419658
0.0409488
0.0399443
0.0389532
0.0379767
0.0370161
0.0360743
0.035153
0.0342555
0.0333848
0.0325442
0.0317389
0.0309735
0.0302529
0.0295849
0.028976
0.0284341
0.0279685
0.0275888
0.0273026
0.0271199
0.0270469
0.0270877
0.0272449
0.0639995
0.0629804
0.0619644
0.0609515
0.0599411
0.0589334
0.0579282
0.0569254
0.055925
0.0549275
0.0539334
0.0529424
0.0519549
0.0509714
0.0499921
0.0490179
0.0480493
0.0470862
0.0461294
0.0451795
0.0442376
0.0433048
0.0423829
0.0414734
0.0405773
0.0396971
0.0388351
0.0379945
0.0371785
0.0363915
0.0356379
0.0349226
0.0342511
0.0336299
0.0330657
0.0325656
0.0321391
0.0317937
0.0315369
0.0313767
0.0313193
0.0313676
0.031524
0.065142
0.0642322
0.0633225
0.0624131
0.0615044
0.0605961
0.059688
0.0587798
0.0578714
0.0569632
0.0560558
0.0551492
0.0542435
0.053339
0.0524361
0.0515354
0.0506379
0.0497445
0.048855
0.04797
0.0470899
0.0462162
0.045351
0.0444964
0.0436538
0.0428245
0.0420114
0.041217
0.0404448
0.0396991
0.0389856
0.038309
0.0376749
0.037089
0.0365574
0.0360876
0.0356877
0.0353651
0.0351275
0.0349815
0.034933
0.0349852
0.0351399
0.0661757
0.0653615
0.0645434
0.0637224
0.0629003
0.0620772
0.0612517
0.0604241
0.0595939
0.0587606
0.0579264
0.0570912
0.0562545
0.0554164
0.0545777
0.0537383
0.0528995
0.0520631
0.0512308
0.0504007
0.0495731
0.0487485
0.0479294
0.047119
0.0463205
0.0455345
0.0447625
0.0440067
0.0432702
0.0425576
0.0418749
0.0412272
0.040622
0.0400641
0.0395579
0.0391108
0.0387305
0.0384237
0.0381994
0.0380626
0.0380196
0.0380736
0.0382265
0.0671184
0.0663817
0.0656429
0.0648957
0.0641473
0.0633974
0.0626426
0.0618828
0.0611217
0.0603508
0.059578
0.0588032
0.0580257
0.0572436
0.0564599
0.0556728
0.0548831
0.0540909
0.0533054
0.0525231
0.0517412
0.0509597
0.0501799
0.049403
0.0486395
0.04789
0.0471539
0.0464323
0.0457263
0.0450409
0.044383
0.0437555
0.0431721
0.042637
0.0421524
0.0417227
0.0413582
0.0410621
0.0408473
0.0407171
0.0406772
0.0407323
0.0408829
0.0679877
0.0673075
0.0666399
0.0659488
0.0652598
0.0645727
0.0638818
0.0631693
0.0624743
0.0617569
0.0610376
0.0603098
0.0595866
0.0588474
0.0581135
0.0573698
0.0566306
0.0558653
0.0551141
0.0543719
0.053633
0.0528889
0.0521516
0.0513959
0.0506551
0.0499336
0.0492281
0.0485405
0.0478684
0.0472013
0.0465725
0.0459557
0.0453855
0.044868
0.0444088
0.0439884
0.0436436
0.0433508
0.0431443
0.0430194
0.0429792
0.0430354
0.0431847
0.00672022
0.00854667
0.00970613
0.0108422
0.012045
0.0133186
0.0146493
0.0160236
0.0174302
0.018862
0.0203129
0.0217793
0.0232591
0.02475
0.0262503
0.0277597
0.0292773
0.0308026
0.0323346
0.0338735
0.0354189
0.0369704
0.0385279
0.040091
0.0416594
0.043233
0.0448114
0.0463944
0.0479816
0.0495726
0.051167
0.0527643
0.0543641
0.0559658
0.0575691
0.0591729
0.0607771
0.0623809
0.0639836
0.0655844
0.0671826
0.0687771
0.0703694
0.016125
0.0165997
0.0172356
0.0180187
0.0189303
0.0199493
0.021056
0.0222332
0.0234656
0.0247419
0.026052
0.0273887
0.028746
0.0301189
0.0315043
0.0328998
0.034303
0.0357127
0.0371272
0.0385455
0.039967
0.0413913
0.042818
0.044246
0.0456755
0.0471065
0.0485384
0.0499713
0.051405
0.0528391
0.0542733
0.0557075
0.0571418
0.0585754
0.0600084
0.0614405
0.0628715
0.0643011
0.065729
0.0671548
0.068578
0.0699987
0.0714204
0.0223983
0.0228126
0.0233607
0.0240346
0.0248217
0.0257086
0.0266807
0.0277243
0.0288271
0.0299781
0.0311677
0.0323878
0.0336318
0.034894
0.0361707
0.0374582
0.0387536
0.0400549
0.0413597
0.0426672
0.0439762
0.0452856
0.0465948
0.0479032
0.0492105
0.0505166
0.051821
0.053124
0.0544252
0.0557241
0.0570207
0.058315
0.0596073
0.0608972
0.0621845
0.0634694
0.0647518
0.0660318
0.0673093
0.0685843
0.0698563
0.0711253
0.0723944
0.0275166
0.0279038
0.0284077
0.0290227
0.0297392
0.0305472
0.031435
0.0323912
0.0334055
0.0344669
0.0355667
0.0366977
0.0378528
0.0390269
0.0402151
0.0414134
0.0426193
0.0438299
0.0450431
0.0462575
0.047471
0.0486828
0.0498926
0.0510996
0.0523034
0.0535038
0.0547007
0.0558937
0.0570824
0.0582668
0.0594468
0.0606225
0.0617942
0.0629616
0.0641246
0.0652838
0.0664392
0.0675911
0.0687394
0.069884
0.0710248
0.0721622
0.0732989
0.0317874
0.0321571
0.0326336
0.0332117
0.0338831
0.0346391
0.0354697
0.0363646
0.0373146
0.0383103
0.0393427
0.0404048
0.0414902
0.0425938
0.0437102
0.0448358
0.0459683
0.0471046
0.0482419
0.0493781
0.050512
0.0516422
0.0527682
0.0538897
0.0550067
0.0561187
0.0572253
0.0583255
0.0594195
0.0605072
0.0615886
0.062664
0.0637332
0.0647963
0.0658537
0.0669056
0.0679525
0.0689946
0.0700319
0.0710637
0.0720903
0.0731123
0.0741316
0.0353961
0.0357535
0.036211
0.0367634
0.0374031
0.0381221
0.0389116
0.0397618
0.0406638
0.0416092
0.0425893
0.0435973
0.0446273
0.0456734
0.0467316
0.0477987
0.0488714
0.0499465
0.051021
0.0520923
0.0531589
0.0542202
0.0552759
0.0563263
0.057371
0.0584092
0.0594398
0.060462
0.0614759
0.062482
0.0634802
0.0644705
0.0654529
0.0664272
0.0673941
0.0683543
0.0693085
0.0702568
0.0711985
0.0721329
0.0730601
0.0739813
0.0748997
0.0384774
0.0388252
0.0392689
0.0398024
0.0404186
0.0411097
0.0418677
0.0426837
0.0435489
0.0444546
0.0453931
0.0463575
0.0473417
0.0483404
0.0493511
0.0503706
0.0513953
0.0524203
0.0534424
0.0544585
0.0554671
0.0564694
0.057466
0.0584579
0.0594431
0.0604196
0.0613859
0.0623411
0.063287
0.0642243
0.0651524
0.0660705
0.0669787
0.0678768
0.0687659
0.0696476
0.0705231
0.0713916
0.0722515
0.073101
0.0739411
0.0747743
0.0756029
0.0411285
0.0414695
0.0419026
0.0424221
0.0430206
0.0436881
0.0444218
0.0452111
0.0460469
0.0469206
0.047825
0.0487534
0.0496992
0.0506567
0.0516287
0.0526103
0.0535981
0.0545812
0.0555585
0.0565256
0.0574826
0.0584347
0.0593821
0.0603277
0.0612638
0.0621883
0.0630988
0.0639952
0.0648838
0.0657637
0.0666328
0.0674892
0.0683334
0.0691649
0.0699867
0.0708022
0.0716118
0.0724126
0.0732022
0.0739767
0.0747395
0.0754964
0.0762486
0.0434208
0.0437563
0.0441817
0.0446876
0.0452742
0.0459172
0.0466338
0.0474007
0.0482077
0.0490536
0.0499245
0.0508238
0.0517354
0.0526566
0.0536038
0.0545564
0.0555181
0.0564579
0.0573969
0.0583142
0.0592287
0.06014
0.0610473
0.0619623
0.0628508
0.0637329
0.0645904
0.0654365
0.0662817
0.0671151
0.0679342
0.0687366
0.0695263
0.0702986
0.0710643
0.0718276
0.0725844
0.0733269
0.0740549
0.0747593
0.0754546
0.0761469
0.0768297
0.0670066
0.0638463
0.0606903
0.0575837
0.0545712
0.0516799
0.0489162
0.046277
0.043757
0.041351
0.0390536
0.0368596
0.0347642
0.0327626
0.0308503
0.0290231
0.0272767
0.0256071
0.0240115
0.0224855
0.021026
0.0196298
0.0182945
0.0170165
0.0157948
0.0146259
0.0135082
0.0124381
0.0114138
0.0104331
0.00949356
0.0085952
0.00773618
0.00691589
0.00613553
0.00539514
0.00469641
0.00404224
0.0034415
0.00293394
0.00250259
0.00201383
0.00137634
0.0672568
0.0643504
0.0614499
0.0585913
0.0558104
0.0531285
0.0505518
0.0480789
0.0457063
0.0434298
0.0412454
0.0391491
0.0371373
0.0352064
0.0333525
0.0315724
0.0298629
0.0282215
0.0266445
0.02513
0.0236754
0.0222788
0.0209381
0.0196525
0.0184192
0.0172363
0.0161016
0.0150132
0.0139692
0.0129689
0.0120119
0.011098
0.0102272
0.00940197
0.00862501
0.00790183
0.00725483
0.00667114
0.00606792
0.00541149
0.0046789
0.00383088
0.00279806
0.0675016
0.064835
0.0621706
0.0595374
0.0569649
0.0544723
0.0520659
0.0497455
0.0475081
0.0453512
0.0432719
0.0412672
0.0393345
0.0374711
0.035674
0.033941
0.0322699
0.0306584
0.0291048
0.0276072
0.026164
0.0247745
0.0234381
0.0221546
0.0209215
0.0197369
0.0186003
0.0175108
0.0164684
0.0154727
0.0145256
0.0136287
0.0127854
0.012003
0.0112944
0.0106239
0.00994072
0.00922091
0.00844125
0.00757612
0.00659576
0.00546454
0.00413277
0.0677413
0.065297
0.0628474
0.0604174
0.0580325
0.0557105
0.053458
0.0512756
0.0491617
0.0471142
0.0451314
0.0432112
0.041352
0.0395516
0.0378083
0.0361204
0.0344866
0.0329052
0.0313751
0.0298953
0.0284659
0.0270859
0.0257569
0.0244777
0.0232476
0.0220662
0.0209335
0.01985
0.0188163
0.0178348
0.0169084
0.0160431
0.0152461
0.0145105
0.0137863
0.0130415
0.0122541
0.0114034
0.0104688
0.00942631
0.00824737
0.0068975
0.00533711
0.0679935
0.0657415
0.0634818
0.0612335
0.0590171
0.0568483
0.0547345
0.0526769
0.0506746
0.0487264
0.0468312
0.044988
0.0431955
0.0414531
0.0397593
0.0381134
0.0365144
0.0349614
0.0334539
0.0319921
0.0305755
0.0292056
0.0278838
0.0266098
0.0253834
0.0242061
0.0230785
0.0220019
0.0209799
0.0200154
0.019114
0.0182837
0.0175104
0.0167475
0.0159641
0.0151389
0.0142529
0.0132877
0.0122215
0.0110305
0.00968636
0.00815675
0.00640509
0.0682338
0.0661585
0.064071
0.0619865
0.0599216
0.0578909
0.0559021
0.0539573
0.0520557
0.0501971
0.0483809
0.0466067
0.0448746
0.043184
0.0415352
0.0399275
0.0383607
0.0368343
0.0353482
0.0339029
0.0324994
0.0311391
0.0298237
0.0285536
0.0273302
0.0261556
0.0250321
0.0239628
0.0229517
0.022004
0.0211272
0.020314
0.0195197
0.018712
0.017868
0.016969
0.0159973
0.0149328
0.0137543
0.0124367
0.0109517
0.00926681
0.00734739
0.0684547
0.0665441
0.0646134
0.0626774
0.0607496
0.0588431
0.0569674
0.0551247
0.0533146
0.0515363
0.049791
0.0480788
0.0464
0.0447557
0.0431465
0.0415732
0.0400359
0.0385342
0.0370679
0.0356385
0.0342472
0.0328961
0.0315872
0.03032
0.0290977
0.0279241
0.0268029
0.0257388
0.0247371
0.0238048
0.0229459
0.0221213
0.0212928
0.0204383
0.019539
0.0185761
0.0175301
0.0163808
0.0151057
0.0136785
0.0120711
0.0102502
0.00818099
0.0686708
0.0669027
0.0651119
0.0633097
0.0615055
0.0597099
0.0579364
0.0561879
0.0544607
0.0527546
0.0510728
0.0494155
0.0477845
0.0461802
0.0446051
0.0430616
0.0415515
0.0400735
0.0386251
0.0372112
0.035831
0.0344885
0.0331891
0.0319239
0.0307002
0.0295245
0.0284033
0.0273416
0.0263471
0.0254277
0.0245707
0.0237254
0.0228588
0.0219583
0.0210102
0.0199922
0.0188835
0.0176618
0.0163036
0.0147803
0.013066
0.0111273
0.00892528
0.0688705
0.0672329
0.0655703
0.0638875
0.0621955
0.0604962
0.0588128
0.0571547
0.0555054
0.0538618
0.0522379
0.0506286
0.0490405
0.047471
0.0459244
0.0444041
0.0429168
0.0414667
0.040032
0.0386339
0.0372674
0.035922
0.0346453
0.0333829
0.0321532
0.0309722
0.0298485
0.0287855
0.027794
0.0268844
0.0260136
0.0251487
0.0242466
0.0232964
0.0223073
0.0212428
0.0200814
0.0187991
0.0173713
0.015761
0.0139491
0.0119143
0.00961271
0.00065526
0.000550002
0.0007718
0.000991538
0.00119986
0.00139802
0.00158771
0.00177053
0.00194859
0.00212394
0.002299
0.00247744
0.00266408
0.00286586
0.00309251
0.00335429
0.00365466
0.0039919
0.00436187
0.00476204
0.00519054
0.00564704
0.00613111
0.0066431
0.00718344
0.00775278
0.00835145
0.00898011
0.00963949
0.0103301
0.0110525
0.0118076
0.0125962
0.0134193
0.0142775
0.0151721
0.0161041
0.0170741
0.0180835
0.0191334
0.0202248
0.0213599
0.0225408
0.001561
0.00087024
0.000958643
0.00117943
0.00139551
0.00160091
0.00179733
0.00198728
0.00217378
0.0023605
0.00255216
0.00275433
0.00297406
0.00321964
0.00349969
0.0038184
0.00417004
0.00455071
0.00495759
0.0053893
0.00584503
0.00632467
0.00682821
0.0073555
0.00790727
0.00848382
0.00908554
0.00971274
0.0103657
0.0110451
0.0117513
0.0124852
0.0132474
0.0140387
0.0148596
0.0157113
0.0165945
0.01751
0.0184586
0.0194416
0.0204599
0.0215149
0.0226071
0.00258761
0.00134365
0.00114897
0.00134928
0.00157207
0.00178526
0.0019901
0.00219027
0.00239042
0.00259618
0.00281396
0.00305066
0.00331284
0.00360704
0.00393909
0.00430523
0.00469808
0.00511448
0.00555261
0.0060117
0.00649136
0.00699126
0.00751171
0.00805252
0.00861399
0.00919637
0.00979961
0.010424
0.0110701
0.0117378
0.012428
0.0131411
0.0138775
0.0146378
0.0154227
0.016233
0.0170692
0.017932
0.0188223
0.0197407
0.0206883
0.0216658
0.0226739
0.00355282
0.00189749
0.00135045
0.00149957
0.00172673
0.00194843
0.00216371
0.00237779
0.00259716
0.00282887
0.00307972
0.00335568
0.00366169
0.00400197
0.0043788
0.00478304
0.00520928
0.00565519
0.00611968
0.00660208
0.00710201
0.00761935
0.00815403
0.00870599
0.00927509
0.00986146
0.0104651
0.0110862
0.0117248
0.0123811
0.0130557
0.013749
0.0144611
0.0151927
0.0159441
0.0167158
0.0175086
0.0183226
0.0191589
0.0200179
0.0209003
0.0218066
0.0227377
0.00441491
0.00245797
0.00156351
0.00163368
0.00186288
0.00209403
0.00232211
0.00255386
0.00279702
0.00305894
0.00334554
0.00366088
0.0040078
0.00439
0.00480343
0.0052391
0.00569327
0.00616444
0.0066515
0.00715379
0.00767124
0.00820343
0.00875017
0.00931128
0.00988632
0.0104755
0.0110786
0.0116956
0.0123267
0.0129721
0.0136321
0.0143066
0.0149963
0.0157012
0.0164217
0.0171582
0.0179111
0.0186808
0.0194677
0.0202725
0.0210952
0.0219362
0.0227949
0.00517612
0.00298187
0.00178006
0.00175464
0.00198406
0.00222585
0.00246908
0.00272144
0.00299116
0.00328497
0.0036069
0.003959
0.00434302
0.00476175
0.00520565
0.00566803
0.00614633
0.00663916
0.00714586
0.00766574
0.00819846
0.00874346
0.00930033
0.00986887
0.0104487
0.0110397
0.0116418
0.0122546
0.0128785
0.0135135
0.0141596
0.0148169
0.0154857
0.0161662
0.0168584
0.0175627
0.0182793
0.0190084
0.0197505
0.0205056
0.0212741
0.0220562
0.0228531
0.0058463
0.00345453
0.00199275
0.00186493
0.00209328
0.00234668
0.00260691
0.00288189
0.00317946
0.00350475
0.00386
0.00424557
0.0046632
0.00511226
0.00558185
0.00606752
0.00656711
0.00707952
0.00760351
0.00813876
0.00868463
0.00924087
0.00980653
0.0103814
0.010965
0.0115572
0.0121579
0.0127666
0.0133835
0.0140089
0.0146422
0.0152836
0.0159332
0.016591
0.0172572
0.0179322
0.0186158
0.0193081
0.0200091
0.0207191
0.021438
0.0221659
0.0229023
0.0064432
0.00387506
0.00219044
0.00196512
0.00219196
0.00245808
0.0027369
0.00303487
0.0033599
0.00371542
0.00410085
0.0045161
0.00496345
0.00543789
0.00593064
0.00643852
0.00695866
0.00748854
0.00802698
0.00857516
0.009133
0.00969908
0.0102728
0.0108531
0.0114403
0.0120334
0.0126321
0.0132365
0.0138469
0.0144632
0.0150848
0.0157108
0.0163419
0.0169787
0.0176213
0.0182698
0.0189239
0.0195826
0.0202458
0.0209144
0.0215881
0.0222665
0.0229503
0.0070188
0.00429106
0.0024053
0.00205914
0.0022849
0.00256694
0.00285909
0.00318311
0.00354031
0.00391953
0.00433249
0.0047759
0.0052517
0.00575902
0.00628773
0.00682541
0.00735939
0.00789002
0.00842549
0.00898574
0.00955637
0.0101323
0.0107129
0.0112983
0.011888
0.0124797
0.0130739
0.0136722
0.0142765
0.0148859
0.0154955
0.0161034
0.0167149
0.0173314
0.0179531
0.0185797
0.0192085
0.0198354
0.0204626
0.0210936
0.0217256
0.022358
0.0229915
0.000315192
0.00112983
0.00238656
0.00364772
0.00485457
0.00601411
0.0071308
0.00820978
0.00925582
0.0102739
0.0112686
0.012244
0.0132046
0.0141571
0.0151139
0.0160899
0.0170947
0.0181286
0.0191829
0.02025
0.0213758
0.0225985
0.0239016
0.0252661
0.0266784
0.0281318
0.0296218
0.0311441
0.0326957
0.0342736
0.0358762
0.0375011
0.0391469
0.0408125
0.0424962
0.0441969
0.0459136
0.0476448
0.0493896
0.0511466
0.0529156
0.0546968
0.0564963
0.000254553
0.000800528
0.00180384
0.00290245
0.00392462
0.00489483
0.00583796
0.00677057
0.00769747
0.0086209
0.00954216
0.0104623
0.011383
0.0123068
0.0132379
0.0141822
0.0151459
0.0161335
0.0171467
0.0181888
0.0192754
0.0204231
0.0216318
0.0228857
0.0241771
0.025561
0.0270314
0.028565
0.0301477
0.0317712
0.0334293
0.0351169
0.0368304
0.0385667
0.040323
0.0420976
0.0438886
0.0456942
0.0475133
0.0493445
0.0511868
0.0530412
0.0549099
0.000150347
0.000520545
0.00120152
0.00209025
0.00317752
0.00430253
0.00534427
0.00631214
0.00722651
0.00810336
0.0089549
0.00979109
0.0106204
0.0114501
0.012287
0.0131375
0.0140079
0.0149046
0.0158331
0.0168
0.0178124
0.0188781
0.0200015
0.0211811
0.0224164
0.0237186
0.0250832
0.0264954
0.0279907
0.0295782
0.0312325
0.0329383
0.0346849
0.0364647
0.038272
0.0401022
0.0419518
0.0438183
0.0456991
0.0475927
0.0494976
0.0514137
0.0533412
0.000157283
0.000438958
0.000999978
0.0017326
0.00263607
0.00370851
0.00482124
0.00588229
0.00688323
0.00782894
0.00872551
0.00957974
0.0103995
0.0111937
0.011972
0.0127445
0.0135217
0.014314
0.015132
0.0159855
0.016884
0.0178361
0.0188488
0.019927
0.0210735
0.0222897
0.0235736
0.024921
0.0263363
0.0278153
0.029353
0.0309944
0.0327171
0.0344998
0.0363281
0.0381918
0.0400838
0.0419981
0.0439308
0.0458786
0.0478393
0.0498111
0.0517927
0.000137048
0.000387885
0.000876309
0.0015177
0.00230616
0.0032428
0.00432297
0.00543692
0.00650997
0.00753001
0.00849886
0.00941943
0.0102944
0.0111273
0.011923
0.0126885
0.0134332
0.0141678
0.0149051
0.0156585
0.0164418
0.0172685
0.0181508
0.0190994
0.0201218
0.0212227
0.0224033
0.0236627
0.024998
0.0264041
0.0278767
0.0294199
0.0310258
0.0327354
0.0345323
0.0363931
0.0383013
0.0402448
0.0422156
0.0442072
0.0462155
0.0482369
0.0502677
0.000132186
0.000357921
0.000802109
0.00138556
0.00210113
0.00295007
0.00393585
0.00503376
0.00614368
0.00721872
0.00824844
0.00923231
0.010171
0.0110651
0.0119154
0.0127237
0.0134941
0.0142328
0.014949
0.0156545
0.0163636
0.0170923
0.0178572
0.0186746
0.0195591
0.0205219
0.0215709
0.0227101
0.023939
0.0252544
0.0266511
0.0281235
0.0296654
0.0312806
0.032965
0.0347593
0.0366394
0.0385816
0.0405687
0.0425888
0.0446336
0.0466964
0.0487716
0.000124678
0.000334543
0.000745782
0.00128772
0.00195106
0.00273683
0.00364819
0.00468618
0.00579978
0.00691146
0.00799021
0.00902778
0.0100229
0.0109754
0.0118844
0.0127498
0.0135714
0.0143512
0.0150929
0.0158034
0.0164925
0.0171737
0.0178634
0.0185799
0.0193424
0.0201691
0.0210755
0.0220734
0.0231693
0.0243651
0.0256586
0.0270439
0.0285141
0.0300624
0.0316822
0.0333779
0.0351578
0.0370472
0.0390158
0.0410406
0.0431049
0.0451973
0.0473097
0.000120447
0.000317995
0.000705131
0.00121634
0.00184077
0.00257919
0.00343477
0.00441138
0.00549633
0.00662159
0.00773508
0.00881661
0.00986024
0.0108642
0.0118272
0.012748
0.0136253
0.0144581
0.0152468
0.0159935
0.016703
0.0173835
0.0180469
0.018709
0.0193886
0.0201069
0.0208847
0.0217414
0.0226923
0.0237475
0.0249116
0.0261832
0.0275574
0.029026
0.0305803
0.0322129
0.0339194
0.0357022
0.0375979
0.0395888
0.0416467
0.0437513
0.0458871
0.000116625
0.000304842
0.000672913
0.00115992
0.00175408
0.0024557
0.00326766
0.00419401
0.00523526
0.00635406
0.00748862
0.00860511
0.00969017
0.0107393
0.0117505
0.0127219
0.0136518
0.0145381
0.0153793
0.0161746
0.0169254
0.0176347
0.0183094
0.0189601
0.0196015
0.0202525
0.0209353
0.0216729
0.0224876
0.023398
0.0244177
0.0255537
0.0268066
0.0281716
0.0296404
0.0312029
0.0328488
0.0345708
0.0363731
0.0382742
0.0402857
0.0423764
0.0445245
0.00011385
0.000294643
0.00064783
0.00111507
0.00168487
0.00235711
0.00313413
0.00401983
0.00501782
0.00611441
0.00725611
0.00839783
0.00951746
0.0106061
0.0116601
0.0126772
0.0136552
0.0145918
0.0154844
0.0163311
0.0171305
0.017883
0.018591
0.0192601
0.0198997
0.0205242
0.021152
0.0218059
0.0225105
0.0232906
0.0241677
0.0251585
0.026272
0.0275108
0.0288705
0.0303426
0.0319155
0.033578
0.0353216
0.0371447
0.0390595
0.0410958
0.0432214
0.000111593
0.000286325
0.000627527
0.00107814
0.00162798
0.002276
0.00302434
0.00387665
0.00483713
0.00590334
0.00704018
0.0081977
0.00934528
0.0104683
0.0115604
0.0126187
0.0136405
0.0146233
0.0155644
0.0164609
0.0173103
0.0181109
0.0188626
0.0195669
0.0202289
0.0208577
0.0214665
0.0220742
0.0227038
0.0233815
0.0241337
0.0249847
0.0259534
0.0270513
0.0282819
0.0296416
0.0311212
0.0327086
0.0343912
0.0361586
0.0380058
0.0399457
0.0420163
0.000109912
0.000279487
0.00061058
0.0010473
0.00158049
0.00220829
0.00293269
0.00375702
0.00468574
0.00572055
0.00684289
0.00800733
0.00917595
0.0103283
0.0114546
0.0125501
0.0136118
0.0146371
0.015623
0.0165664
0.0174642
0.0183135
0.0191124
0.0198602
0.0205583
0.0212113
0.0218278
0.0224212
0.0230104
0.0236189
0.0242743
0.0250047
0.0258366
0.0267906
0.0278801
0.0291095
0.0304752
0.0319677
0.0335741
0.0352803
0.0370747
0.0389528
0.0409297
0.00010864
0.000273808
0.000596165
0.00102099
0.00154006
0.00215078
0.00285488
0.00365555
0.00455692
0.00556271
0.00666491
0.0078281
0.00901133
0.0101881
0.0113445
0.0124738
0.0135721
0.0146365
0.0156638
0.016651
0.0175946
0.0184911
0.0193374
0.0201315
0.0208724
0.0215614
0.0222028
0.0228054
0.0233827
0.023954
0.0245438
0.0251809
0.0258952
0.0267146
0.0276616
0.0287504
0.0299859
0.0313645
0.0328759
0.0345062
0.0362409
0.0380688
0.0399887
0.000107785
0.000269284
0.000583709
0.000998318
0.00150521
0.00210128
0.00278794
0.00356826
0.00444616
0.00542586
0.00650574
0.00766134
0.00885287
0.0100492
0.0112321
0.012392
0.0135238
0.0146242
0.01569
0.0167179
0.0177044
0.0186458
0.0195384
0.020379
0.0211651
0.0218959
0.0225725
0.0231998
0.0237863
0.0243465
0.0249002
0.0254734
0.0260959
0.0267993
0.027613
0.0285606
0.0296567
0.0309062
0.0323049
0.0338417
0.0355018
0.0372702
0.0391327
0.000107439
0.000265981
0.000572942
0.000978626
0.00147499
0.00205825
0.00272974
0.00349227
0.0043499
0.00530667
0.00636408
0.00750755
0.00870174
0.0099128
0.0111185
0.0123061
0.0134688
0.0146025
0.0157039
0.0167698
0.0177966
0.0187803
0.019717
0.020603
0.0214346
0.0222096
0.022927
0.0235883
0.0241985
0.0247669
0.0253087
0.0258452
0.0264035
0.0270151
0.0277132
0.0285282
0.0294842
0.0305959
0.0318676
0.0332939
0.0348627
0.0365583
0.0383635
0.000107469
0.000263744
0.000563508
0.000961255
0.00144838
0.00202041
0.00267859
0.00342567
0.00426529
0.00520186
0.00623805
0.00736649
0.00855871
0.00977997
0.0110047
0.012217
0.0134082
0.014573
0.0157077
0.016809
0.0178735
0.0188971
0.0198757
0.0208051
0.0216815
0.0225011
0.0232616
0.0239623
0.024605
0.0251953
0.0257435
0.0262661
0.0267857
0.0273314
0.0279362
0.0286348
0.0294583
0.0304311
0.031567
0.0328692
0.0343309
0.0359391
0.0376791
0.000107694
0.000262252
0.00055509
0.000945838
0.00142467
0.00198687
0.00263329
0.00336666
0.00419041
0.0051088
0.00612563
0.00723772
0.00842412
0.00965158
0.0108917
0.012126
0.0133431
0.0145368
0.0157028
0.0168374
0.0179372
0.0189983
0.0200166
0.0209876
0.021907
0.0227707
0.0235749
0.0243176
0.0249982
0.0256191
0.0261868
0.026713
0.0272156
0.0277193
0.028255
0.0288578
0.0295633
0.0304033
0.0314015
0.0325706
0.0339118
0.0354169
0.037072
0.000108136
0.000261319
0.000547655
0.000932068
0.00140357
0.00195688
0.00259285
0.00331392
0.00412358
0.00502583
0.00602489
0.00712055
0.00829826
0.00952816
0.0107804
0.0120337
0.0132746
0.0144952
0.0156904
0.0168564
0.0179896
0.0190861
0.0201418
0.0211524
0.022113
0.0230194
0.023867
0.0246525
0.0253738
0.0260308
0.0266269
0.0271696
0.0276723
0.0281548
0.0286441
0.0291735
0.0297797
0.0304995
0.0313646
0.0323973
0.0336085
0.034997
0.0365518
0.000108697
0.000260745
0.000540974
0.000919632
0.0013846
0.00192994
0.00255645
0.00326654
0.00406351
0.00495136
0.00593422
0.00701385
0.00818095
0.00941005
0.0106713
0.0119409
0.0132034
0.014449
0.0156717
0.0168671
0.0180318
0.0191618
0.0202531
0.0213011
0.0223013
0.0232487
0.0241387
0.0249669
0.02573
0.0264263
0.0270565
0.0276249
0.0281405
0.0286187
0.0290818
0.0295593
0.0300869
0.0307031
0.0314454
0.0323447
0.0334214
0.0346834
0.0361263
0.000109245
0.000260377
0.000534916
0.000908392
0.00136732
0.00190551
0.00252355
0.0032237
0.00400915
0.00488384
0.00585207
0.00691646
0.00807185
0.00929759
0.0105648
0.0118482
0.01313
0.0143987
0.0156472
0.0168707
0.0180652
0.0192269
0.0203519
0.0214356
0.0224734
0.0234603
0.0243912
0.0252614
0.0260665
0.0268036
0.0274714
0.0280715
0.0286095
0.0290964
0.0295499
0.0299951
0.0304645
0.0309962
0.0316302
0.0324041
0.0333473
0.0344773
0.0357984
0.000109799
0.000260096
0.000529349
0.000898148
0.00135164
0.00188325
0.00249359
0.00318475
0.00395978
0.00482252
0.00577731
0.00682752
0.00797069
0.00919099
0.0104615
0.011756
0.013055
0.014345
0.0156178
0.0168679
0.0180907
0.0192827
0.0204396
0.0215573
0.022631
0.0236557
0.0246261
0.025537
0.0263837
0.027162
0.0278694
0.0285051
0.029072
0.0295774
0.0300347
0.0304642
0.0308943
0.0313606
0.0319036
0.0325645
0.03338
0.0343773
0.035571
0.000110429
0.000259903
0.000524321
0.000888704
0.00133729
0.00186294
0.00246615
0.00314904
0.00391464
0.00476656
0.00570904
0.00674591
0.00787685
0.00909013
0.0103617
0.0116651
0.012979
0.0142886
0.0155842
0.0168593
0.0181092
0.0193298
0.0205174
0.0216674
0.0227754
0.0238361
0.0248446
0.025795
0.0266824
0.0275018
0.0282494
0.0289231
0.0295234
0.0300545
0.0305257
0.0309531
0.0313606
0.0317798
0.0322496
0.0328127
0.0335105
0.0343783
0.0354382
0.000111031
0.000259794
0.000519703
0.000880084
0.00132405
0.00184426
0.00244098
0.00311628
0.0038731
0.00471516
0.00564634
0.0066708
0.00778975
0.00899489
0.0102654
0.0115755
0.0129025
0.01423
0.0155468
0.0168456
0.0181212
0.0193694
0.020586
0.021767
0.0229077
0.0240031
0.0250479
0.0260366
0.0269635
0.0278234
0.0286114
0.0293244
0.0299609
0.0305226
0.0310155
0.0314517
0.0318503
0.032239
0.0326532
0.0331348
0.0337282
0.0344748
0.0354083
0.000111585
0.000259674
0.000515401
0.000872118
0.00131184
0.00182698
0.00241775
0.00308611
0.00383487
0.00466763
0.00558853
0.00660152
0.00770885
0.00890521
0.010173
0.0114876
0.0128257
0.0141694
0.0155061
0.0168273
0.0181274
0.0194018
0.0206464
0.021857
0.023029
0.0241577
0.0252375
0.0262629
0.0272282
0.0281276
0.0289558
0.0297085
0.0303828
0.0309785
0.0314988
0.0319521
0.0323533
0.0327256
0.0331004
0.0335172
0.0340207
0.0346558
0.0354604
0.000112163
0.000259591
0.000511467
0.00086471
0.00130055
0.00181101
0.00239623
0.00305806
0.00379945
0.00462371
0.00553491
0.00653733
0.00763355
0.00882075
0.0100846
0.0114019
0.0127493
0.0141073
0.0154624
0.016805
0.0181285
0.0194279
0.0206993
0.0219383
0.0231404
0.0243008
0.0254143
0.0264751
0.0274775
0.0284153
0.0292831
0.0300754
0.0307885
0.0314203
0.0319719
0.0324486
0.0328616
0.0332294
0.0335794
0.0339472
0.0343762
0.0349126
0.0355994
0.000112722
0.000259552
0.000507827
0.000857816
0.00129001
0.00179614
0.00237617
0.00303203
0.00376646
0.00458296
0.00548522
0.00647757
0.00756338
0.00874119
0.00999988
0.0113184
0.0126733
0.0140443
0.0154163
0.0167789
0.0181246
0.0194482
0.0207452
0.0220114
0.0232425
0.0244335
0.0255793
0.0266743
0.0277124
0.0286877
0.0295939
0.0304256
0.0311777
0.0318471
0.0324327
0.0329375
0.0333691
0.0337424
0.0340798
0.0344133
0.034783
0.035235
0.0358151
0.00011323
0.000259495
0.000504442
0.000851488
0.00128022
0.00178222
0.00235748
0.00300781
0.0037358
0.00454486
0.00543888
0.00642192
0.00749772
0.0086663
0.00991906
0.0112373
0.012598
0.0139803
0.0153681
0.0167494
0.0181164
0.0194631
0.0207849
0.0220773
0.023336
0.0245565
0.0257334
0.0268612
0.027934
0.0289455
0.0298894
0.0307596
0.0315506
0.0322581
0.0328797
0.0334159
0.0338717
0.0342581
0.0345936
0.0349055
0.0352308
0.0356137
0.0361034
0.000113761
0.000259445
0.000501387
0.000845732
0.0012711
0.00176924
0.00234004
0.00298508
0.00370714
0.00450932
0.00539554
0.00636994
0.00743633
0.00859577
0.00984211
0.0111588
0.0125239
0.0139161
0.0153181
0.0167171
0.0181043
0.0194731
0.0208186
0.0221363
0.0234219
0.0246706
0.0258775
0.0270369
0.0281431
0.0291896
0.0301702
0.0310781
0.0319077
0.0326535
0.033312
0.033882
0.0343661
0.0347718
0.035114
0.0354157
0.0357095
0.0360371
0.0364471
0.00011428
0.000259418
0.000498538
0.000840311
0.00126254
0.00175709
0.00232364
0.00296381
0.00368015
0.004476
0.00535494
0.00632117
0.00737866
0.0085293
0.00976872
0.0110829
0.012451
0.0138517
0.0152666
0.0166822
0.0180886
0.0194786
0.0208469
0.0221889
0.0235004
0.0247764
0.0260121
0.0272022
0.0283406
0.0294211
0.0304371
0.031382
0.0322494
0.0330335
0.0337294
0.0343348
0.03485
0.03528
0.0356358
0.0359366
0.0362106
0.0364957
0.0368379
0.000114738
0.000259371
0.000495813
0.000835258
0.00125444
0.00174566
0.00230822
0.00294382
0.0036549
0.00444465
0.00531682
0.00627534
0.00732442
0.0084665
0.00969882
0.0110097
0.0123796
0.0137873
0.0152141
0.016645
0.0180696
0.0194799
0.0208703
0.0222358
0.0235721
0.0248746
0.0261382
0.0273578
0.0285274
0.0296407
0.0306912
0.0316721
0.0325765
0.0333983
0.034132
0.0347737
0.0353221
0.0357799
0.036155
0.0364626
0.0367268
0.0369812
0.0372685
0.000115192
0.000259344
0.000493307
0.000830536
0.00124687
0.00173482
0.00229373
0.00292501
0.00363117
0.00441522
0.00528089
0.00623228
0.00727342
0.00840727
0.00963239
0.0109392
0.0123099
0.0137235
0.0151607
0.016606
0.0180478
0.0194776
0.0208891
0.0222773
0.0236377
0.0249656
0.0262563