/*--------------------------------*- C++ -*----------------------------------*\
| =========                 |                                                 |
| \\      /  F ield         | OpenFOAM: The Open Source CFD Toolbox           |
|  \\    /   O peration     | Version:  2.3.0                                 |
|   \\  /    A nd           | Web:      www.OpenFOAM.org                      |
|    \\/     M anipulation  |                                                 |
\*---------------------------------------------------------------------------*/
FoamFile
{
    version     2.0;
    format      ascii;
    class       volScalarField;
    location    "10000";
    object      nut;
}
// * * * * * * * * * * * * * * * * * * * * * * * * * * * * * * * * * * * * * //

dimensions      [0 2 -1 0 0 0 0];

internalField   nonuniform List<scalar> 
42179
(
0.058303
0.0565198
0.0547418
0.0529728
0.051215
0.0494697
0.0477386
0.046023
0.0443245
0.0426449
0.0409853
0.0393484
0.0377359
0.0361497
0.0345941
0.0330712
0.0315863
0.0301453
0.0287534
0.0274156
0.0261325
0.024901
0.0237028
0.0225231
0.0213623
0.0202238
0.0191133
0.0180337
0.0169872
0.0159741
0.0149926
0.0140421
0.0131185
0.0122182
0.011338
0.0104728
0.00962033
0.00877861
0.00794885
0.00713553
0.00635156
0.00563853
0.00518725
0.0600202
0.0584513
0.0568905
0.0553385
0.053796
0.0522635
0.0507422
0.049233
0.0477365
0.0462535
0.0447846
0.0433318
0.0418947
0.0404753
0.039074
0.0376925
0.0363317
0.0349934
0.0336787
0.0323883
0.0311249
0.0298881
0.0286769
0.0274913
0.0263297
0.0251958
0.0240905
0.0230172
0.021979
0.0209789
0.0200211
0.0191099
0.0182507
0.0174489
0.0167115
0.0160478
0.0154676
0.0149826
0.0146047
0.0143481
0.0142285
0.0142591
0.0144516
0.0615723
0.060187
0.0588094
0.0574386
0.0560747
0.0547189
0.0533709
0.0520316
0.0507022
0.0493819
0.0480723
0.0467736
0.0454861
0.0442109
0.0429487
0.0417006
0.0404672
0.0392493
0.0380478
0.0368644
0.0356994
0.0345542
0.0334313
0.0323294
0.0312509
0.0301987
0.0291743
0.0281806
0.0272215
0.0262999
0.0254202
0.0245881
0.0238092
0.0230894
0.0224364
0.021858
0.0213647
0.0209655
0.0206696
0.0204868
0.0204261
0.0204917
0.020685
0.062974
0.0617463
0.060525
0.0593077
0.058095
0.0568868
0.0556838
0.0544869
0.0532962
0.0521117
0.0509341
0.0497638
0.0486009
0.0474462
0.0463004
0.0451642
0.0440385
0.0429242
0.041822
0.0407331
0.0396588
0.0385999
0.0375582
0.0365349
0.0355319
0.0345521
0.0335975
0.0326712
0.0317767
0.0309176
0.0300984
0.0293247
0.028602
0.0279371
0.0273364
0.0268075
0.0263596
0.0260002
0.0257382
0.0255816
0.0255354
0.0256035
0.0257859
0.064233
0.0631454
0.0620588
0.0609729
0.059888
0.0588047
0.0577237
0.0566458
0.0555713
0.0545004
0.0534333
0.0523701
0.0513113
0.0502573
0.049208
0.0481648
0.0471291
0.0461008
0.0450816
0.0440722
0.0430741
0.0420882
0.0411153
0.0401577
0.039218
0.0382977
0.0374004
0.0365289
0.0356862
0.0348766
0.0341041
0.0333751
0.0326946
0.0320686
0.0315046
0.0310092
0.0305902
0.0302551
0.0300127
0.0298686
0.0298278
0.0298938
0.0300666
0.0653699
0.0644016
0.0634302
0.0624565
0.0614808
0.0605036
0.0595257
0.058548
0.057571
0.0565954
0.0556207
0.0546471
0.0536758
0.0527063
0.0517384
0.0507724
0.0498106
0.0488541
0.0479037
0.0469606
0.0460257
0.0451
0.0441852
0.0432833
0.0423954
0.0415247
0.0406743
0.0398472
0.0390466
0.0382768
0.0375422
0.0368479
0.0361997
0.0356034
0.035066
0.0345948
0.0341963
0.0338778
0.0336465
0.0335085
0.0334689
0.0335313
0.0336955
0.0663983
0.0655289
0.0646566
0.0637797
0.0628974
0.0620105
0.0611201
0.0602266
0.0593319
0.058437
0.0575398
0.0566408
0.0557424
0.0548455
0.0539471
0.0530462
0.052145
0.0512477
0.0503545
0.0494669
0.0485852
0.0477098
0.0468435
0.0459884
0.0451451
0.0443153
0.0435025
0.0427117
0.0419468
0.0412098
0.0405051
0.0398385
0.0392164
0.0386437
0.0381264
0.0376732
0.0372906
0.0369846
0.0367602
0.0366255
0.0365854
0.0366434
0.0368007
0.0673206
0.0665384
0.0657522
0.06496
0.0641578
0.0633486
0.0625329
0.0617109
0.0608839
0.0600575
0.0592283
0.0583927
0.0575507
0.0567151
0.0558786
0.0550364
0.0541856
0.053335
0.0524895
0.0516483
0.0508119
0.049979
0.0491523
0.0483364
0.0475317
0.046738
0.0459563
0.0451938
0.0444578
0.04375
0.0430717
0.0424261
0.0418244
0.0412753
0.0407706
0.0403315
0.03996
0.039667
0.039447
0.0393139
0.0392726
0.039325
0.0394771
0.0681515
0.0674438
0.06673
0.0660161
0.0652814
0.0645391
0.0637844
0.0630267
0.0622498
0.0614786
0.0607091
0.0599381
0.0591332
0.0583461
0.0575575
0.0567776
0.055972
0.0551574
0.0543493
0.0535444
0.052747
0.0519536
0.0511579
0.0503694
0.0495978
0.0488399
0.0480922
0.0473487
0.0466357
0.0459537
0.0453047
0.0446803
0.0440799
0.0435678
0.0430658
0.0426445
0.0422698
0.0419991
0.0417814
0.0416456
0.0416054
0.0416481
0.0417949
0.00603771
0.00773049
0.00885977
0.00999654
0.0112014
0.0124696
0.013787
0.0151399
0.0165193
0.0179186
0.0193339
0.0207632
0.0222038
0.023654
0.0251133
0.0265806
0.0280553
0.0295372
0.0310257
0.0325205
0.0340215
0.0355285
0.0370412
0.0385595
0.0400831
0.041612
0.0431457
0.0446843
0.0462274
0.0477746
0.0493258
0.0508806
0.0524385
0.0539992
0.0555624
0.0571277
0.0586946
0.0602624
0.0618305
0.0633983
0.0649653
0.066531
0.0680931
0.0148118
0.0153392
0.0160172
0.0168306
0.0177613
0.0187912
0.0199009
0.0210741
0.0222974
0.023559
0.0248509
0.0261661
0.0274989
0.0288453
0.0302022
0.0315675
0.0329391
0.034316
0.0356967
0.0370807
0.0384671
0.0398558
0.0412462
0.042638
0.0440313
0.0454257
0.0468209
0.0482175
0.0496145
0.0510122
0.0524106
0.0538095
0.0552088
0.0566085
0.0580084
0.0594087
0.0608089
0.0622087
0.0636077
0.0650057
0.0664026
0.0677984
0.0691903
0.0210039
0.0214507
0.0220258
0.0227203
0.0235221
0.0244182
0.0253941
0.0264368
0.0275336
0.0286741
0.0298502
0.0310537
0.0322787
0.0335196
0.0347729
0.0360354
0.0373046
0.0385787
0.0398553
0.0411337
0.0424131
0.0436926
0.0449714
0.0462492
0.047526
0.0488012
0.0500746
0.0513461
0.0526159
0.0538839
0.0551499
0.056414
0.0576767
0.0589377
0.0601972
0.0614554
0.0627121
0.0639669
0.0652197
0.0664704
0.0677192
0.0689666
0.0702102
0.0260816
0.0264902
0.0270119
0.0276411
0.0283683
0.0291826
0.0300727
0.0310271
0.0320353
0.033088
0.0341764
0.0352932
0.0364319
0.0375873
0.0387551
0.0399319
0.041115
0.0423018
0.0434902
0.0446793
0.0458673
0.0470534
0.0482372
0.049418
0.0505952
0.0517688
0.0529382
0.0541036
0.055265
0.0564224
0.0575755
0.0587247
0.0598706
0.0610133
0.062153
0.0632898
0.0644233
0.0655534
0.06668
0.067803
0.0689224
0.0700379
0.0711425
0.030345
0.0307287
0.031216
0.0318021
0.032479
0.0332373
0.0340672
0.0349585
0.0359015
0.0368877
0.0379088
0.0389572
0.040027
0.0411131
0.0422111
0.0433172
0.0444287
0.0455429
0.0466579
0.0477716
0.0488828
0.0499902
0.0510938
0.0521924
0.0532855
0.0543733
0.0554551
0.0565307
0.0576001
0.0586633
0.0597205
0.060772
0.0618188
0.0628612
0.063899
0.0649322
0.0659605
0.0669835
0.0680011
0.0690136
0.0700213
0.0710243
0.0720267
0.0339609
0.0343258
0.0347883
0.0353435
0.0359839
0.0367012
0.0374867
0.0383311
0.0392247
0.0401596
0.0411278
0.042122
0.0431367
0.0441668
0.0452073
0.0462554
0.0473079
0.0483625
0.0494163
0.0504669
0.0515135
0.0525552
0.0535909
0.0546206
0.0556434
0.0566591
0.0576671
0.0586668
0.059658
0.0606409
0.0616165
0.0625854
0.0635483
0.0645057
0.0654572
0.0664023
0.0673404
0.0682711
0.0691945
0.0701113
0.0710219
0.0719268
0.0728283
0.0370557
0.0374055
0.0378489
0.0383806
0.0389937
0.0396797
0.040431
0.0412388
0.0420942
0.0429881
0.0439136
0.0448642
0.0458342
0.0468176
0.0478102
0.0488101
0.0498144
0.05082
0.0518227
0.0528196
0.0538118
0.0547981
0.055777
0.0567487
0.0577126
0.0586677
0.0596135
0.0605486
0.0614726
0.0623865
0.0632923
0.0641914
0.0650838
0.0659695
0.066848
0.0677182
0.0685789
0.0694293
0.070271
0.0711048
0.0719312
0.0727501
0.0735636
0.0397252
0.0400614
0.0404889
0.0410016
0.041594
0.0422544
0.0429785
0.0437576
0.0445827
0.0454431
0.0463335
0.047248
0.0481809
0.0491246
0.0500762
0.0510364
0.0520024
0.0529692
0.0539271
0.0548758
0.0558235
0.0567635
0.0576937
0.0586163
0.0595314
0.0604363
0.061329
0.062208
0.0630729
0.0639266
0.0647737
0.0656144
0.0664476
0.0672732
0.0680902
0.0688973
0.0696903
0.07047
0.0712405
0.0720026
0.0727562
0.0734995
0.0742347
0.0420428
0.042361
0.0427733
0.0432694
0.0438478
0.0444817
0.0451837
0.0459385
0.0467405
0.0475695
0.0484307
0.0493143
0.0502179
0.051123
0.0520392
0.0529703
0.0539061
0.0548415
0.0557526
0.0566566
0.0575752
0.0584725
0.059362
0.0602449
0.0611216
0.0619833
0.0628308
0.0636591
0.0644706
0.0652732
0.0660752
0.0668688
0.0676536
0.0684304
0.0691958
0.0699495
0.0706799
0.0713972
0.0721076
0.07281
0.0735011
0.0741766
0.0748435
0.0703746
0.067815
0.0652887
0.0627976
0.0603396
0.0579144
0.055522
0.0531628
0.050838
0.0485488
0.0462971
0.044085
0.0419137
0.0397856
0.0377022
0.0356647
0.033675
0.0317343
0.029843
0.0280033
0.0262149
0.0244783
0.0227953
0.0211647
0.0195879
0.0180642
0.0165951
0.0151803
0.0138194
0.0125132
0.0112636
0.0100689
0.0089306
0.007851
0.00683061
0.00587222
0.00497767
0.00415024
0.00339263
0.00272333
0.00220479
0.00166602
0.00101251
0.0716093
0.0693198
0.0670499
0.064802
0.0625743
0.0603664
0.0581779
0.0560088
0.0538602
0.051733
0.0496288
0.0475485
0.0454938
0.0434665
0.0414679
0.0394988
0.0375626
0.0356598
0.0337918
0.0319606
0.0301663
0.0284111
0.0266952
0.025021
0.0233885
0.0217986
0.0202533
0.0187536
0.0173002
0.0158959
0.0145406
0.0132371
0.0119888
0.0107985
0.00967136
0.00861146
0.00762926
0.00675979
0.00594806
0.0051111
0.00422259
0.00323142
0.00203824
0.0728481
0.0707918
0.0687527
0.0667247
0.0647066
0.0626973
0.060696
0.0587036
0.056721
0.0547476
0.0527847
0.0508341
0.0488966
0.0469735
0.0450669
0.0431777
0.0413081
0.0394595
0.0376334
0.0358315
0.0340556
0.0323063
0.0305862
0.0288966
0.0272391
0.0256155
0.0240289
0.0224789
0.0209703
0.0195038
0.0180845
0.0167153
0.0154003
0.0141473
0.01297
0.0118858
0.0108342
0.00976935
0.00866485
0.0074892
0.00620173
0.00474652
0.00304713
0.0740484
0.0722121
0.0703808
0.0685511
0.0667218
0.0648923
0.0630621
0.0612322
0.0594022
0.0575717
0.055743
0.0539156
0.0520913
0.0502709
0.0484559
0.0466484
0.0448498
0.043062
0.0412859
0.0395238
0.0377772
0.0360487
0.0343397
0.0326527
0.0309894
0.0293538
0.0277468
0.0261733
0.0246353
0.0231373
0.021684
0.0202827
0.0189466
0.017671
0.0164219
0.0151724
0.0138986
0.0125749
0.0111759
0.00966773
0.00801068
0.00614471
0.00400992
0.0752068
0.0735659
0.071921
0.0702685
0.0686086
0.0669411
0.0652658
0.0635832
0.0618927
0.0601953
0.0584904
0.0567787
0.0550612
0.0533395
0.0516142
0.0498868
0.0481603
0.046435
0.044713
0.0429969
0.0412883
0.0395886
0.0379013
0.0362282
0.034573
0.0329388
0.0313293
0.0297488
0.0282027
0.0266963
0.0252338
0.0238091
0.0224066
0.0210108
0.0196017
0.0181611
0.0166677
0.0151001
0.0134299
0.0116234
0.00963835
0.00741538
0.00490348
0.0763104
0.0748428
0.0733635
0.071869
0.0703599
0.0688368
0.0673005
0.0657507
0.0641879
0.0626117
0.0610214
0.059417
0.0577998
0.056171
0.0545308
0.0528815
0.0512247
0.0495626
0.0478974
0.0462313
0.0445641
0.0429
0.0412409
0.0395897
0.0379508
0.0363285
0.0347271
0.0331523
0.0316036
0.0300773
0.0285669
0.0270611
0.0255493
0.024017
0.0224498
0.0208305
0.0191391
0.0173516
0.0154401
0.0133694
0.0110952
0.00855956
0.00571727
0.0773485
0.076034
0.0747028
0.0733482
0.0719718
0.0705768
0.0691642
0.067734
0.0662861
0.0648205
0.063335
0.0618301
0.0603066
0.0587645
0.0572049
0.0556299
0.0540405
0.0524397
0.050831
0.049215
0.0475942
0.0459688
0.0443416
0.0427166
0.0410977
0.0394874
0.0378892
0.0363028
0.0347257
0.033151
0.031569
0.0299721
0.0283498
0.0266915
0.0249812
0.023203
0.0213353
0.0193543
0.0172296
0.0149257
0.0123965
0.00958489
0.00644818
0.0783084
0.0771317
0.0759369
0.0747049
0.073444
0.0721602
0.0708575
0.0695343
0.068189
0.0668253
0.065435
0.0640219
0.062585
0.0611236
0.0596383
0.058133
0.0566071
0.0550632
0.0535058
0.0519401
0.050368
0.048782
0.0471819
0.045577
0.0439707
0.0423632
0.0407543
0.039141
0.0375247
0.0358951
0.0342401
0.0325542
0.0308302
0.0290579
0.0272235
0.0253067
0.0232848
0.0211328
0.018822
0.0163147
0.0135618
0.0105065
0.0071064
0.0791846
0.0781283
0.0770721
0.0759431
0.0747787
0.0735882
0.0723816
0.0711576
0.0698958
0.0686331
0.067326
0.0659927
0.064637
0.0632525
0.0618301
0.0603878
0.0589203
0.0574251
0.0559112
0.0543857
0.0528654
0.0513299
0.0497364
0.0481349
0.0465367
0.0449355
0.0433081
0.0416668
0.0400063
0.0383362
0.0366095
0.0348387
0.0330167
0.0311432
0.0292035
0.0271693
0.0250121
0.0227099
0.0202378
0.0175588
0.0146089
0.0113425
0.00773465
0.00051305
0.000528023
0.000720361
0.000900869
0.0010731
0.00124286
0.00141799
0.0016092
0.00182921
0.00208672
0.00237845
0.00270113
0.00305183
0.00342942
0.00383323
0.00426308
0.00471902
0.00520183
0.00571166
0.00624944
0.00681565
0.00741094
0.00803577
0.00869086
0.00937717
0.010095
0.0108454
0.0116293
0.0124472
0.0133005
0.0141899
0.0151162
0.0160803
0.017083
0.0181255
0.0192083
0.0203325
0.0214986
0.0227074
0.0239596
0.025255
0.0265942
0.02798
0.000910571
0.000704406
0.000886744
0.00107871
0.00126998
0.00146979
0.00168871
0.00193612
0.00221847
0.00253989
0.00289266
0.00327192
0.003676
0.0041039
0.00455528
0.00503023
0.00552845
0.00605058
0.00659695
0.00716762
0.00776293
0.00838314
0.00902886
0.00970027
0.0103981
0.0111231
0.0118754
0.0126562
0.0134659
0.0143051
0.0151747
0.0160753
0.0170075
0.0179722
0.01897
0.0200015
0.0210676
0.0221686
0.0233052
0.024478
0.0256878
0.0269359
0.0282244
0.00139856
0.000881826
0.00104583
0.00125748
0.00147972
0.00172304
0.00199593
0.00230249
0.00264388
0.00302276
0.00342943
0.00385952
0.00431193
0.00478618
0.00528126
0.00579759
0.00633481
0.0068928
0.00747195
0.00807206
0.00869333
0.00933549
0.00999928
0.0106847
0.0113924
0.0121225
0.0128754
0.0136518
0.0144519
0.0152765
0.0161258
0.0170007
0.0179014
0.0188284
0.0197825
0.0207639
0.0217733
0.0228111
0.0238778
0.0249741
0.0261003
0.0272571
0.0284408
0.00191051
0.00106087
0.00119699
0.00143657
0.00169871
0.00199157
0.00231886
0.0026801
0.00307491
0.00350472
0.00395879
0.00443425
0.00493016
0.00544558
0.00598008
0.0065331
0.00710461
0.00769446
0.0083023
0.00892788
0.00957136
0.0102324
0.0109112
0.011608
0.0123231
0.0130565
0.0138086
0.0145796
0.0153699
0.0161797
0.0170095
0.0178594
0.0187301
0.0196217
0.0205347
0.0214694
0.0224261
0.0234053
0.0244074
0.025433
0.0264825
0.0275571
0.0286613
0.00240852
0.0012399
0.00134338
0.00161712
0.0019231
0.0022655
0.00264321
0.00305347
0.00349693
0.0039717
0.00446825
0.00498429
0.00551897
0.00607139
0.00664087
0.00722687
0.00782876
0.0084464
0.00907929
0.00972688
0.0103893
0.0110665
0.0117581
0.0124641
0.0131848
0.0139201
0.0146703
0.0154355
0.0162157
0.0170113
0.0178222
0.0186489
0.0194913
0.0203499
0.0212249
0.0221164
0.0230248
0.0239503
0.0248933
0.0258543
0.0268336
0.0278318
0.0288498
0.00287449
0.00141719
0.00148653
0.00179787
0.00214816
0.00253678
0.00295968
0.00341346
0.00390183
0.00441667
0.00495144
0.00550412
0.00607365
0.00665924
0.00725998
0.00787537
0.00850426
0.00914633
0.00980108
0.0104679
0.0111469
0.0118374
0.0125397
0.0132534
0.0139785
0.0147149
0.0154628
0.0162218
0.0169923
0.017774
0.0185672
0.0193719
0.0201882
0.0210162
0.0218562
0.0227082
0.0235723
0.0244489
0.025338
0.0262397
0.0271543
0.0280815
0.0290193
0.00329949
0.00159
0.00162716
0.00197709
0.00236935
0.00279985
0.00326335
0.0037574
0.00428541
0.00483627
0.00540529
0.00599105
0.0065922
0.00720757
0.00783634
0.00847777
0.00913075
0.00979453
0.0104686
0.0111525
0.0118459
0.0125484
0.0132597
0.0139797
0.0147082
0.015445
0.0161899
0.0169429
0.0177037
0.0184725
0.0192491
0.0200335
0.0208255
0.0216256
0.0224336
0.0232494
0.0240729
0.0249046
0.0257443
0.0265918
0.0274474
0.0283105
0.02918
0.0036805
0.00175301
0.00176502
0.00215069
0.00258098
0.00305001
0.00355086
0.00408264
0.00464576
0.0052288
0.00582887
0.00644466
0.0070744
0.0077166
0.00837069
0.00903588
0.00971075
0.0103942
0.011086
0.0117856
0.012492
0.0132045
0.0139232
0.0146486
0.0153802
0.0161173
0.0168587
0.0176048
0.0183564
0.0191128
0.0198733
0.0206385
0.0214084
0.0221826
0.0229613
0.0237441
0.0245308
0.0253214
0.0261158
0.0269138
0.0277157
0.0285213
0.029329
0.00409044
0.00192765
0.00189155
0.00231948
0.0027968
0.00329856
0.00382865
0.00439139
0.00498174
0.00559233
0.00622682
0.00687509
0.00752751
0.00819298
0.00887559
0.00956805
0.0102613
0.010962
0.0116725
0.0123873
0.0131021
0.0138197
0.0145423
0.0152724
0.0160086
0.0167445
0.0174782
0.0182155
0.0189588
0.0197031
0.0204463
0.0211923
0.0219424
0.0226936
0.0234456
0.0241978
0.0249509
0.0257043
0.026456
0.0272086
0.0279624
0.0287175
0.0294771
0.000217602
0.000856728
0.00183442
0.00283761
0.00382039
0.004789
0.00575641
0.00672646
0.00769818
0.00867119
0.00964788
0.0106312
0.011625
0.0126342
0.013663
0.014716
0.0157966
0.0169066
0.0180465
0.0192143
0.0204079
0.0216243
0.0228637
0.024126
0.0254074
0.0267271
0.0281432
0.029647
0.0312182
0.0328424
0.0345117
0.0362215
0.0379657
0.0397405
0.0415416
0.0433665
0.0452113
0.0470748
0.0489538
0.0508466
0.0527509
0.0546631
0.0565756
0.000173422
0.000560361
0.00126596
0.00219997
0.00315595
0.00407946
0.00497032
0.00583308
0.00668236
0.0075306
0.00838635
0.00925452
0.0101392
0.0110446
0.0119748
0.012934
0.0139262
0.0149548
0.0160217
0.0171281
0.0182731
0.0194553
0.0206719
0.0219209
0.0232015
0.0245228
0.0259054
0.0273532
0.0288538
0.0304002
0.0320367
0.0337548
0.035532
0.037356
0.0392192
0.0411137
0.0430341
0.0449763
0.046936
0.0489101
0.050896
0.0528891
0.0548834
2.68361e-05
0.000343115
0.000806207
0.00144489
0.00225047
0.00321809
0.00428015
0.00529201
0.00625104
0.00716594
0.00804498
0.00889807
0.00973504
0.0105651
0.0113975
0.0122417
0.0131065
0.0140005
0.0149312
0.0159049
0.0169259
0.0179969
0.0191189
0.0202912
0.0215142
0.022791
0.0241268
0.0255255
0.026985
0.0285032
0.0300884
0.0317334
0.033433
0.0352237
0.0370911
0.0390128
0.0409767
0.0429727
0.0449933
0.0470332
0.0490873
0.0511516
0.0532233
5.25499e-05
0.000306763
0.000693954
0.00122381
0.00189477
0.00270947
0.00367308
0.00472022
0.00575371
0.00675428
0.00772112
0.00865551
0.00955812
0.010431
0.0112781
0.0121056
0.0129219
0.0137369
0.0145624
0.0154099
0.0162911
0.0172162
0.0181939
0.0192306
0.0203313
0.0215001
0.0227403
0.0240548
0.0254441
0.0269076
0.0284427
0.0300451
0.0317096
0.0334397
0.0352278
0.0370983
0.0390527
0.041066
0.0431229
0.0452105
0.0473203
0.049447
0.0515875
4.22515e-05
0.000298643
0.000627583
0.00109983
0.0017002
0.00242585
0.00328161
0.00427042
0.00532577
0.00637566
0.00740039
0.00839685
0.00936441
0.0103027
0.0112112
0.0120896
0.0129393
0.0137637
0.0145696
0.0153662
0.0161654
0.0169811
0.0178277
0.0187196
0.0196699
0.0206896
0.0217882
0.0229722
0.0242458
0.0256102
0.027063
0.0286005
0.0302162
0.0319031
0.0336546
0.0354712
0.0373496
0.039313
0.04136
0.0434647
0.0456102
0.047787
0.0499949
5.51558e-05
0.00029754
0.000600952
0.00104472
0.00160738
0.00228438
0.00308025
0.00400101
0.0050263
0.00608519
0.00713877
0.00817384
0.00918623
0.0101741
0.011136
0.0120698
0.0129738
0.0138465
0.014688
0.015501
0.0162913
0.0170682
0.0178447
0.0186363
0.0194606
0.0203358
0.0212792
0.0223057
0.0234269
0.0246505
0.0259794
0.0274123
0.028944
0.0305665
0.0322704
0.0340475
0.0358895
0.0377971
0.0397711
0.0418388
0.0439837
0.0461852
0.0484373
6.40832e-05
0.000301745
0.000586013
0.00101338
0.00155497
0.00220368
0.00296317
0.00383905
0.00482824
0.00588143
0.00695025
0.00801165
0.00905658
0.0100813
0.0110835
0.0120613
0.0130118
0.0139329
0.0148221
0.0156774
0.0164993
0.0172906
0.0180575
0.0188106
0.0195649
0.020339
0.0211539
0.0220312
0.0229914
0.0240517
0.0252239
0.0265142
0.0279229
0.0294447
0.0310706
0.0327891
0.034589
0.0364606
0.0383965
0.0404006
0.0424859
0.044667
0.0469189
7.56062e-05
0.000303954
0.000580974
0.00100061
0.00153095
0.00216377
0.00290198
0.00375086
0.00471195
0.00575377
0.0068291
0.00790896
0.00897924
0.0100336
0.0110687
0.0120821
0.0130711
0.0140332
0.0149653
0.0158646
0.0167284
0.0175555
0.0183469
0.0191068
0.0198435
0.0205705
0.0213059
0.0220724
0.0228945
0.0237972
0.0248027
0.0259275
0.0271813
0.0285664
0.0300782
0.0317068
0.0334396
0.0352628
0.0371634
0.0391331
0.0411696
0.0432825
0.0455
8.63689e-05
0.000306895
0.00058014
0.000996319
0.00152109
0.0021452
0.00287106
0.00370336
0.00464537
0.00567777
0.00675793
0.00785376
0.00894715
0.0100286
0.0110933
0.0121383
0.0131609
0.0141585
0.0151281
0.0160666
0.0169707
0.0178373
0.0186647
0.0194527
0.0202039
0.0209251
0.0216286
0.0223318
0.023058
0.0238339
0.0246881
0.0256465
0.0267302
0.0279527
0.0293184
0.0308233
0.0324572
0.0342058
0.0360533
0.0379849
0.0399894
0.0420617
0.0442077
9.69577e-05
0.000309587
0.000582371
0.000997984
0.00152074
0.00214069
0.00285986
0.00368263
0.00461277
0.0056386
0.00672343
0.00783423
0.00894957
0.0100574
0.0111509
0.0122263
0.0132807
0.0143113
0.0153152
0.0162892
0.0172302
0.0181346
0.0189991
0.0198217
0.0206014
0.0213402
0.0220442
0.0227243
0.023398
0.0240886
0.024825
0.0256381
0.0265576
0.0276085
0.0288071
0.0301598
0.0316634
0.0333072
0.035075
0.0369497
0.0389149
0.0409577
0.0430745
0.000106871
0.000312268
0.000586157
0.00100284
0.00152566
0.00214432
0.00286038
0.00367791
0.00460106
0.00562288
0.00671322
0.00783878
0.00897608
0.0101105
0.0112333
0.0123394
0.0134253
0.0144883
0.0155253
0.0165333
0.0175089
0.0184489
0.0193496
0.0202075
0.0210202
0.0217869
0.022509
0.023192
0.0238472
0.0244915
0.025149
0.0258504
0.026629
0.0275177
0.0285441
0.0297276
0.0310757
0.0325854
0.0342451
0.0360379
0.0379444
0.0399482
0.0420382
0.000116169
0.000314742
0.000590866
0.00100967
0.00153383
0.00215288
0.00286817
0.00368336
0.00460277
0.00562267
0.00671878
0.00785905
0.00901823
0.0101794
0.0113321
0.0124697
0.0135879
0.0146837
0.015754
0.0167956
0.0178054
0.0187798
0.0197154
0.0206082
0.0214552
0.0222533
0.0230019
0.0237024
0.0243607
0.024988
0.0256018
0.0262277
0.0268976
0.0276475
0.0285129
0.0295244
0.0307023
0.0320554
0.03358
0.0352636
0.037088
0.039034
0.0410876
0.000124792
0.000317021
0.000596021
0.00101748
0.00154379
0.00216425
0.00288012
0.00369484
0.00461254
0.00563205
0.00673402
0.00788838
0.00906908
0.0102571
0.0114401
0.01261
0.0137616
0.0148911
0.0159953
0.0170711
0.0181153
0.0191242
0.0200943
0.0210219
0.0219029
0.0227342
0.023513
0.0242386
0.0249129
0.0255423
0.0261385
0.0267204
0.0273152
0.027957
0.0286841
0.0295346
0.0305406
0.0317236
0.033092
0.0346416
0.0363583
0.0382236
0.0402198
0.000132802
0.000319078
0.000601327
0.00102572
0.00155452
0.00217706
0.00289439
0.00370969
0.00462717
0.00564705
0.00675469
0.00792243
0.00912375
0.0103383
0.0115517
0.0127544
0.01394
0.0151042
0.0162434
0.0173543
0.0184335
0.0194776
0.0204827
0.0214451
0.0223608
0.0232257
0.0240368
0.0247914
0.0254891
0.0261325
0.0267287
0.0272907
0.0278395
0.0284042
0.0290215
0.0297321
0.0305764
0.0315874
0.0327868
0.0341821
0.0357675
0.0375278
0.0394443
0.000140177
0.000320886
0.000606552
0.00103399
0.00156545
0.00219036
0.00290953
0.00372615
0.00464412
0.00566499
0.00677771
0.0079578
0.00917875
0.0104189
0.0116624
0.012898
0.0141183
0.0153179
0.0164929
0.0176398
0.018755
0.019835
0.0208759
0.0218739
0.0228248
0.0237245
0.0245688
0.0253548
0.0260803
0.0267453
0.027353
0.0279121
0.0284373
0.0289522
0.0294884
0.0300857
0.0307874
0.0316351
0.0326627
0.033891
0.0353253
0.0369579
0.0387716
0.000146955
0.000322462
0.000611607
0.00104203
0.00157617
0.00220353
0.00292486
0.00374302
0.00466203
0.00568408
0.00680129
0.0079924
0.00923149
0.0104962
0.0117691
0.0130374
0.0142923
0.0155279
0.0167393
0.0179229
0.0190749
0.0201917
0.0212693
0.0223036
0.0232907
0.0242259
0.0251051
0.0259243
0.0266803
0.0273716
0.0279988
0.0285664
0.0290849
0.0295715
0.0300524
0.030563
0.0311461
0.0318475
0.0327101
0.0337669
0.0350369
0.0365226
0.0382123
0.000153211
0.000323767
0.000616358
0.00104965
0.00158645
0.00221624
0.00293965
0.00375956
0.00467975
0.00570308
0.00682416
0.00802482
0.00928054
0.0105683
0.0118694
0.0131697
0.0144591
0.0157306
0.0169789
0.0181997
0.0193891
0.0205433
0.0216584
0.02273
0.0237541
0.0247259
0.0256409
0.0264951
0.0272838
0.0280047
0.0286566
0.0292412
0.0297649
0.0302399
0.0306868
0.0311354
0.0316249
0.0322015
0.0329132
0.0338032
0.0349031
0.0362279
0.0377756
0.000158996
0.000324841
0.000620865
0.00105686
0.00159611
0.00222821
0.00295363
0.0037752
0.00469666
0.00572109
0.00684535
0.00805418
0.00932469
0.0106338
0.0119617
0.0132931
0.0146164
0.0159236
0.0172088
0.018467
0.0196942
0.0208864
0.0220395
0.0231493
0.0242111
0.0252206
0.0261727
0.0270627
0.0278862
0.0286393
0.0293197
0.0299271
0.0304647
0.0309408
0.0313705
0.0317781
0.0321978
0.0326727
0.0332526
0.0339871
0.0349188
0.0360758
0.0374686
0.000164315
0.000325676
0.000624995
0.00106353
0.00160505
0.00223923
0.00296658
0.00378965
0.00471222
0.00573762
0.00686424
0.00807985
0.00936335
0.010692
0.0120452
0.0134063
0.0147626
0.016105
0.0174267
0.0187224
0.0199875
0.0212181
0.0224097
0.0235579
0.0246583
0.0257061
0.0266961
0.0276235
0.0284831
0.0292707
0.0299827
0.0306172
0.0311751
0.0316615
0.0320872
0.0324711
0.0328417
0.0332377
0.033707
0.0343024
0.0350743
0.036063
0.0372924
0.000169191
0.000326304
0.000628773
0.0010696
0.00161313
0.00224919
0.00297819
0.00380262
0.00472605
0.0057522
0.00688054
0.00810149
0.00939619
0.0107423
0.0121189
0.0135083
0.0148966
0.0162734
0.0176312
0.018964
0.0202669
0.0215358
0.022766
0.0239532
0.0250925
0.0261791
0.027208
0.0281736
0.0290708
0.0298946
0.0306406
0.0313057
0.031889
0.0323929
0.0328247
0.0331986
0.0335374
0.0338751
0.0342554
0.0347309
0.0353568
0.036183
0.0372481
0.000173655
0.000326697
0.000632192
0.00107505
0.00162037
0.00225804
0.00298839
0.00381388
0.00473807
0.00576452
0.00689404
0.00811908
0.00942314
0.0107847
0.0121828
0.0135988
0.0150176
0.0164279
0.0178209
0.0191903
0.0205308
0.0218377
0.0231066
0.0243327
0.0255113
0.0266372
0.0277052
0.0287101
0.0296459
0.0305073
0.0312892
0.0319877
0.0326003
0.0331273
0.033573
0.0339477
0.0342695
0.0345666
0.0348782
0.035254
0.0357505
0.0364244
0.0373246
0.000177752
0.000326903
0.000635222
0.00107991
0.00162671
0.00226574
0.00299717
0.00382348
0.00474804
0.00577466
0.00690464
0.00813265
0.00944417
0.0108193
0.0122368
0.0136776
0.0151254
0.0165678
0.0179953
0.0194006
0.020778
0.0221227
0.0234298
0.0246948
0.0259127
0.0270781
0.0281858
0.0292302
0.0302054
0.0311056
0.031925
0.0326589
0.0333038
0.0338584
0.0343245
0.0347087
0.0350253
0.035297
0.035558
0.0358536
0.0362392
0.0367746
0.037517
0.000181485
0.000326906
0.000637862
0.00108412
0.00163222
0.00227232
0.00300458
0.00383135
0.00475602
0.00578228
0.00691224
0.00814209
0.00945954
0.0108461
0.0122811
0.0137446
0.0152198
0.0166929
0.0181536
0.019594
0.0210078
0.0223897
0.0237347
0.0250382
0.026295
0.0274999
0.0286475
0.029732
0.0307469
0.0316865
0.0325448
0.0333159
0.0339956
0.0345812
0.0350724
0.0354735
0.0357944
0.0360536
0.0362797
0.0365134
0.0368068
0.0372202
0.0378155
0.000184887
0.000326739
0.000640201
0.0010878
0.00163688
0.0022777
0.00301049
0.00383742
0.0047618
0.00578748
0.00691681
0.00814761
0.00946945
0.0108656
0.0123159
0.0138002
0.0153009
0.0168033
0.018296
0.0197704
0.0212195
0.0226379
0.0240203
0.0253617
0.0266573
0.0279015
0.0290888
0.0302132
0.0312685
0.032248
0.0331458
0.0339557
0.0346723
0.0352916
0.0358119
0.0362352
0.0365683
0.0368255
0.0370305
0.0372186
0.0374378
0.0377467
0.0382101
0.000187969
0.000326394
0.000642161
0.00109088
0.0016407
0.00228198
0.00301497
0.00384177
0.00476564
0.00579029
0.00691859
0.00814936
0.00947424
0.010878
0.0123415
0.0138447
0.0153691
0.016899
0.0184225
0.0199296
0.0214131
0.0228671
0.0242861
0.025665
0.0269986
0.0282816
0.0295083
0.0306727
0.0317683
0.0327884
0.0337264
0.0345758
0.0353307
0.0359859
0.0365386
0.0369887
0.0373403
0.0376041
0.0377995
0.0379564
0.0381178
0.0383388
0.0386828
0.000190763
0.000325916
0.000643813
0.0010934
0.0016437
0.00228524
0.00301813
0.00384442
0.00476734
0.0057907
0.00691753
0.0081475
0.00947418
0.0108839
0.0123586
0.0138783
0.0154245
0.0169805
0.0185329
0.0200717
0.0215885
0.0230771
0.0245318
0.0259474
0.0273185
0.0286398
0.0299054
0.0311094
0.0322452
0.0333058
0.0342844
0.0351741
0.0359682
0.0366613
0.0372489
0.0377293
0.0381047
0.0383824
0.0385775
0.0387156
0.038834
0.0389829
0.039223
0.000193234
0.00032525
0.000645086
0.00109532
0.00164588
0.00228738
0.00301988
0.00384544
0.00476706
0.00578871
0.00691362
0.00814215
0.00946936
0.0108835
0.0123675
0.013902
0.0154677
0.0170478
0.0186279
0.0201968
0.0217459
0.023268
0.0247575
0.0262088
0.0276166
0.0289755
0.0302796
0.0315227
0.0326982
0.0337993
0.0348187
0.035749
0.0365833
0.0373154
0.0379399
0.0384537
0.0388569
0.0391543
0.0393573
0.0394869
0.0395751
0.0396668
0.0398168
0.000195453
0.000324416
0.000646074
0.00109675
0.00164734
0.00228852
0.00302036
0.00384484
0.00476498
0.00578453
0.00690706
0.00813355
0.00946024
0.0108772
0.0123687
0.0139159
0.0154995
0.0171018
0.0187078
0.0203055
0.0218854
0.0234401
0.0249633
0.0264494
0.027893
0.0292887
0.0306305
0.0319122
0.0331271
0.0342683
0.0353282
0.0362993
0.0371744
0.0379464
0.0386092
0.0391587
0.0395932
0.0399149
0.0401326
0.0402626
0.0403321
0.0403803
0.0404564
0.00019744
0.000323476
0.000646797
0.00109769
0.00164806
0.00228872
0.00301962
0.0038427
0.00476108
0.00577831
0.00689799
0.00812183
0.00944725
0.0108656
0.0123628
0.0139207
0.0155201
0.0171428
0.0187731
0.0203981
0.0220075
0.0235936
0.0251495
0.0266694
0.0281478
0.0295795
0.0309581
0.0322776
0.0335314
0.0347122
0.0358124
0.0368244
0.0377403
0.0385529
0.0392551
0.039842
0.0403104
0.0406605
0.0408983
0.0410366
0.0410978
0.0411159
0.0411367
0.000199151
0.000322408
0.000647165
0.00109816
0.00164809
0.00228794
0.00301761
0.00383912
0.00475535
0.00576995
0.00688645
0.00810714
0.00943037
0.010849
0.0123503
0.013917
0.0155303
0.0171716
0.0188244
0.0204752
0.0221128
0.0237288
0.0253162
0.0268689
0.0283813
0.0298478
0.0312626
0.0326191
0.0339109
0.0351306
0.0362708
0.0373233
0.0382803
0.0391335
0.0398761
0.0405018
0.0410063
0.0413881
0.0416507
0.0418038
0.0418661
0.0418675
0.041852
0.00020063
0.000321206
0.00064729
0.00109815
0.00164744
0.00228625
0.00301452
0.00383411
0.00474798
0.00575957
0.00687263
0.00808965
0.00940995
0.0108278
0.0123315
0.0139054
0.0155307
0.0171887
0.0188624
0.0205372
0.0222017
0.0238464
0.0254641
0.0270486
0.0285938
0.0300943
0.031544
0.0329368
0.0342657
0.0355238
0.0367032
0.0377959
0.0387936