/*--------------------------------*- C++ -*----------------------------------*\
| =========                 |                                                 |
| \\      /  F ield         | OpenFOAM: The Open Source CFD Toolbox           |
|  \\    /   O peration     | Version:  2.3.0                                 |
|   \\  /    A nd           | Web:      www.OpenFOAM.org                      |
|    \\/     M anipulation  |                                                 |
\*---------------------------------------------------------------------------*/
FoamFile
{
    version     2.0;
    format      ascii;
    class       volScalarField;
    location    "3000";
    object      p;
}
// * * * * * * * * * * * * * * * * * * * * * * * * * * * * * * * * * * * * * //

dimensions      [0 2 -2 0 0 0 0];

internalField   nonuniform List<scalar> 
15443
(
-0.00311775
-1.32199
-2.35144
-3.39842
-4.39879
-5.35501
-6.24077
-7.02425
-7.67621
-8.13995
-8.37623
-8.3259
-7.91952
-7.11794
-5.83385
-3.95534
-1.29322
2.20098
6.58892
12.4484
20.0595
25.815
24.9912
33.4755
10.6237
10.7577
11.3425
12.0028
12.8452
13.9052
15.2486
16.9481
19.0984
21.7997
25.1635
29.3034
34.3366
40.3775
47.5376
55.9095
65.5931
76.6472
89.1043
102.998
118.257
134.565
151.714
169.65
19.7705
20.7578
22.1489
23.6389
25.3209
27.2121
29.3422
31.7335
34.4168
37.4232
40.7917
44.5666
48.7981
53.5357
58.8389
64.7473
71.3163
78.5662
86.507
95.1222
104.339
114.072
124.269
134.83
27.8125
29.3013
31.2225
33.277
35.555
38.0809
40.8966
44.0354
47.5287
51.4154
55.7283
60.4997
65.7501
71.5013
77.765
84.5451
91.8284
99.5889
107.779
116.321
125.107
134.011
142.884
151.55
34.6585
36.3683
38.5345
40.8081
43.2713
45.9391
48.8328
51.9762
55.3847
59.0897
63.1053
67.4625
72.1802
77.2809
82.7701
88.6602
94.9375
101.59
108.574
115.843
123.321
130.906
138.493
145.963
40.6368
42.3322
44.5997
46.9684
49.5258
52.2847
55.2602
58.4747
61.9375
65.674
69.6986
74.0286
78.671
83.6426
88.9393
94.5646
100.503
106.739
113.226
119.921
126.756
133.651
140.522
147.272
45.8681
47.3188
49.5691
51.9294
54.4554
57.166
60.0698
63.1912
66.5383
70.1212
73.9617
78.0725
82.463
87.1399
92.1122
97.3729
102.907
108.701
114.721
120.924
127.249
133.631
139.994
146.259
49.7508
51.3412
53.6
55.9605
58.4436
61.1002
63.9223
66.9496
70.2023
73.6641
77.3713
81.3189
85.5243
89.9759
94.7027
99.693
104.92
110.374
116.036
121.874
127.818
133.822
139.816
145.713
53.5
55.0256
57.1128
59.3703
61.7171
64.2689
66.9907
69.9407
73.0644
76.3352
79.8998
83.6952
87.7415
92.0095
96.5525
101.319
106.304
111.507
116.915
122.46
128.075
133.788
139.54
145.238
57.0837
58.6816
60.4083
62.4416
64.4959
66.7974
69.3013
72.2346
75.2656
78.1489
81.4225
85.0289
88.9632
93.1262
97.5783
102.167
106.935
112.036
117.539
123.075
128.458
133.892
139.479
145.16
92.7462
131.303
156.9
176.787
192.953
205.986
216.389
224.607
231.11
236.296
240.36
243.412
245.55
246.863
247.43
247.339
246.674
245.519
243.954
242.055
239.891
237.5
234.798
231.789
186.161
198.882
209.289
217.898
224.929
230.546
234.916
238.211
240.592
242.188
243.107
243.459
243.346
242.863
242.088
241.086
239.901
238.563
237.086
235.476
233.718
231.805
229.958
228.367
145.518
156.086
166.238
175.721
184.398
192.212
199.139
205.198
210.429
214.88
218.601
221.648
224.076
225.937
227.278
228.15
228.597
228.663
228.389
227.815
226.961
225.842
224.668
223.806
159.886
167.86
175.411
182.434
188.851
194.629
199.753
204.238
208.109
211.404
214.165
216.438
218.268
219.7
220.773
221.526
221.991
222.196
222.163
221.912
221.447
220.76
220.014
219.588
153.269
160.394
167.257
173.756
179.815
185.383
190.435
194.965
198.978
202.495
205.539
208.141
210.331
212.141
213.601
214.741
215.588
216.169
216.507
216.621
216.52
216.202
215.827
215.787
153.844
160.221
166.345
172.143
177.557
182.547
187.093
191.189
194.841
198.066
200.884
203.319
205.402
207.155
208.608
209.785
210.715
211.417
211.91
212.21
212.323
212.254
212.177
212.467
152.375
158.318
164.023
169.427
174.486
179.163
183.442
187.318
190.795
193.886
196.613
198.992
201.057
202.818
204.303
205.539
206.552
207.356
207.969
208.399
208.654
208.736
208.789
209.096
151.462
157.071
162.455
167.539
172.316
176.728
180.778
184.45
187.75
190.695
193.32
195.618
197.637
199.354
200.817
202.054
203.101
203.957
204.639
205.145
205.501
205.715
205.86
206.319
150.669
156.073
161.255
166.064
170.62
174.777
178.624
182.103
185.239
188.062
190.639
192.859
194.828
196.457
197.871
199.089
200.18
201.086
201.808
202.342
202.757
203.06
203.28
203.292
150.537
156.032
161.029
165.406
169.772
173.514
177.094
180.301
183.229
185.93
188.422
190.238
192.294
193.829
195.221
196.49
197.739
198.689
199.431
200.012
200.535
200.909
201.235
201.06
-68.2498
-68.3396
-68.3656
-68.3311
-68.2408
-68.0985
-67.9098
-67.6826
-67.4258
-67.1438
-66.841
-66.5217
-66.1896
-65.8471
-65.493
-65.1217
-64.7194
-64.2552
-63.6823
-62.9522
-62.0158
-60.7664
-58.7833
-54.5014
-68.9793
-68.995
-68.98
-68.9171
-68.8123
-68.675
-68.5118
-68.3265
-68.1219
-67.8996
-67.657
-67.3887
-67.0851
-66.7301
-66.3015
-65.7707
-65.1068
-64.2634
-63.1494
-61.6009
-59.3652
-56.0659
-51.3673
-45.3499
-69.439
-69.6345
-69.7639
-69.8421
-69.8771
-69.8701
-69.8195
-69.7232
-69.5761
-69.372
-69.1024
-68.7556
-68.3171
-67.7673
-67.0788
-66.2101
-65.1024
-63.6759
-61.8196
-59.3709
-56.1132
-51.8274
-46.4179
-40.1555
-69.8387
-69.9138
-70.0704
-70.1806
-70.232
-70.2292
-70.1714
-70.0532
-69.8671
-69.6045
-69.2544
-68.8008
-68.2242
-67.4995
-66.5948
-65.464
-64.0451
-62.2547
-59.9816
-57.0882
-53.4419
-48.9711
-43.7267
-37.9974
-70.0129
-69.9641
-70.1279
-70.2389
-70.2819
-70.2636
-70.1851
-70.0356
-69.8062
-69.485
-69.0603
-68.5157
-67.8288
-66.9712
-65.9097
-64.5927
-62.962
-60.9335
-58.4194
-55.3192
-51.542
-47.0651
-41.9903
-36.5929
-69.6088
-69.8528
-69.9866
-70.0673
-70.0842
-70.0361
-69.9315
-69.7529
-69.4888
-69.1213
-68.6384
-68.0274
-67.2657
-66.3152
-65.1465
-63.7133
-61.9577
-59.8008
-57.15
-53.9319
-50.1016
-45.6479
-40.6775
-35.4529
-69.6253
-69.6315
-69.728
-69.7817
-69.7628
-69.6717
-69.5453
-69.3428
-69.0573
-68.6544
-68.1229
-67.4583
-66.6395
-65.6229
-64.3791
-62.8689
-61.0474
-58.8249
-56.1185
-52.8644
-49.0395
-44.6027
-39.7384
-34.6613
-69.049
-69.2495
-69.3514
-69.4062
-69.3707
-69.2086
-69.068
-68.8411
-68.5593
-68.1467
-67.5672
-66.8511
-66.0172
-64.9484
-63.6326
-62.0479
-60.2187
-58.0224
-55.3074
-51.9977
-48.1331
-43.5153
-38.6148
-33.651
-68.3275
-68.6858
-68.9246
-69.055
-69.0123
-68.6471
-68.5239
-68.3106
-68.0729
-67.6526
-66.9777
-66.1674
-65.361
-64.2288
-62.8101
-61.1295
-59.4136
-57.3682
-54.7211
-51.3554
-47.9717
-43.3031
-38.5619
-33.8543
-65.191
-66.9553
-67.9329
-68.8044
-68.7084
-67.7873
-67.5969
-67.7111
-68.0143
-68.0585
-67.2867
-66.3223
-65.7997
-64.4952
-62.3424
-60.1389
-59.1162
-59.1524
-56.4312
-50.5005
-43.6833
-36.131
-31.8695
-29.5697
-45.1994
-40.0731
-35.9177
-32.0328
-28.3136
-24.8042
-21.5005
-18.3825
-15.4208
-12.5794
-9.8203
-7.11228
-4.43355
-1.76754
0.897735
3.56847
6.25032
8.94581
11.6574
14.3881
17.1406
19.892
22.6608
25.7365
-38.6947
-35.2275
-32.7734
-30.1826
-27.3984
-24.5041
-21.558
-18.6073
-15.6844
-12.8093
-9.99258
-7.23883
-4.54406
-1.90248
0.694914
3.25695
5.79515
8.31826
10.8352
13.3565
15.8901
18.4172
20.9657
23.7654
-34.0248
-29.7735
-27.3643
-25.1922
-22.9512
-20.6293
-18.2503
-15.8379
-13.4096
-10.9785
-8.55464
-6.14462
-3.75265
-1.3789
0.977984
3.32027
5.65156
7.97502
10.2959
12.6205
14.9537
17.2833
19.6398
22.187
-32.3783
-27.8786
-25.3667
-23.2801
-21.1599
-18.9913
-16.7923
-14.5772
-12.3562
-10.1345
-7.9174
-5.70575
-3.50215
-1.30522
0.885878
3.07245
5.25598
7.43904
9.62465
11.816
14.0144
16.2118
18.4287
20.7721
-31.2961
-26.8609
-24.2663
-22.2462
-20.1953
-18.1026
-15.9804
-13.8446
-11.7063
-9.57119
-7.4448
-5.32912
-3.2261
-1.13517
0.944283
3.01467
5.07767
7.13594
9.19125
11.2477
13.3092
15.375
17.4515
19.6
-30.3502
-25.9825
-23.2453
-21.2249
-19.2028
-17.1612
-15.0993
-13.0305
-10.9635
-8.90346
-6.85652
-4.82478
-2.8097
-0.811935
1.1685
3.13536
5.08871
7.03156
8.96424
10.889
12.8122
14.7379
16.6668
18.5977
-29.6899
-25.3482
-22.452
-20.3797
-18.3496
-16.3308
-14.307
-12.287
-10.2749
-8.27571
-6.29498
-4.33402
-2.39434
-0.477726
1.41798
3.2959
5.15629
6.99904
8.8229
10.6285
12.4236
14.211
15.9935
17.7601
-28.771
-24.4724
-21.5915
-19.5981
-17.6314
-15.6616
-13.6785
-11.6965
-9.72232
-7.76581
-5.83428
-3.92571
-2.04292
-0.191174
1.6365
3.44431
5.23019
6.99089
8.72313
10.4209
12.1054
13.7755
15.4348
17.1249
-28.9023
-24.3134
-21.1844
-19.127
-17.1104
-15.132
-13.153
-11.1817
-9.21994
-7.28264
-5.38569
-3.51033
-1.66566
0.125322
1.89427
3.65124
5.38268
7.0764
8.72159
10.2973
11.8827
13.4473
14.9938
16.6302
-24.7511
-20.4548
-19.0944
-18.1429
-16.5161
-14.6859
-12.7632
-10.8228
-8.87104
-6.95511
-5.12916
-3.28374
-1.47724
0.227819
1.96097
3.69428
5.38298
6.99235
8.56735
10.0329
11.5719
13.0872
14.5721
16.2468
-111.681
-110.188
-109.245
-107.777
-104.758
-100.405
-95.1428
-89.2458
-82.9424
-76.3422
-69.6824
-63.1513
-56.8371
-50.7942
-45.0855
-39.7684
-34.8783
-30.4366
-26.444
-22.8808
-19.7
-16.8384
-14.2587
-11.9928
-75.2428
-75.2456
-74.9445
-74.4243
-73.7581
-73.0795
-72.5106
-72.0869
-71.8239
-71.5864
-71.0618
-69.9561
-68.1629
-65.6793
-62.5324
-58.7895
-54.5632
-49.9784
-45.2102
-40.4183
-35.7567
-31.3415
-27.2166
-23.761
-82.9831
-82.9152
-82.9596
-83.0125
-83.0561
-83.05
-82.9144
-82.5447
-81.8431
-80.8033
-79.4815
-77.9559
-76.2561
-74.281
-71.8912
-69.0339
-65.7
-61.8871
-57.6416
-53.0491
-48.2465
-43.3838
-38.5876
-34.1615
-78.7648
-78.7512
-78.6978
-78.6234
-78.5351
-78.4364
-78.3264
-78.1963
-78.0268
-77.7901
-77.4515
-76.9608
-76.2466
-75.307
-74.1555
-72.6725
-70.73
-68.2479
-65.1892
-61.5605
-57.426
-52.8951
-48.1601
-43.1516
-79.268
-79.2688
-79.2757
-79.275
-79.265
-79.2405
-79.1953
-79.1215
-79.0092
-78.8419
-78.5958
-78.246
-77.7623
-77.1054
-76.2341
-75.133
-73.7645
-72.0324
-69.8439
-67.1345
-63.8608
-60.0251
-55.8166
-50.4399
-78.4222
-78.421
-78.4132
-78.398
-78.3757
-78.3452
-78.3052
-78.2531
-78.1847
-78.0934
-77.9686
-77.794
-77.5477
-77.2032
-76.7247
-76.0636
-75.1764
-74.0207
-72.5117
-70.5652
-68.1016
-65.0381
-61.5591
-56.0258
-78.2623
-78.2631
-78.2622
-78.2561
-78.2451
-78.2273
-78.2011
-78.1641
-78.1131
-78.0436
-77.9492
-77.8209
-77.6448
-77.4029
-77.0733
-76.6254
-76.018
-75.2048
-74.1319
-72.7205
-70.8853
-68.5063
-65.7495
-60.5817
-77.9837
-77.9835
-77.9807
-77.9734
-77.9616
-77.9446
-77.9214
-77.8906
-77.8504
-77.798
-77.7295
-77.639
-77.5182
-77.3545
-77.1313
-76.8273
-76.4131
-75.848
-75.0847
-74.0641
-72.7098
-70.8969
-68.7511
-64.237
-77.8416
-77.8418
-77.8401
-77.8346
-77.8249
-77.8107
-77.7911
-77.7648
-77.7306
-77.6865
-77.6294
-77.5555
-77.4594
-77.3332
-77.1647
-76.9386
-76.6344
-76.2232
-75.6649
-74.9108
-73.9033
-72.5359
-70.8805
-67.0815
-77.7253
-77.7251
-77.7232
-77.7177
-77.7084
-77.695
-77.6769
-77.6532
-77.6228
-77.5843
-77.5357
-77.474
-77.3951
-77.2938
-77.1618
-76.9873
-76.7552
-76.4444
-76.025
-75.4563
-74.6939
-73.6615
-72.3849
-69.4443
-77.6616
-77.6611
-77.659
-77.6538
-77.6451
-77.6327
-77.6161
-77.5944
-77.5668
-77.532
-77.4886
-77.4343
-77.3659
-77.2796
-77.1697
-77.0278
-76.8422
-76.597
-76.2701
-75.8302
-75.2417
-74.4481
-73.4435
-71.2359
-77.6294
-77.6288
-77.6267
-77.6218
-77.6137
-77.6022
-77.5869
-77.567
-77.5417
-77.5102
-77.4712
-77.4228
-77.3628
-77.2877
-77.1936
-77.0744
-76.9211
-76.722
-76.4606
-76.1131
-75.6512
-75.0314
-74.23
-72.5313
-77.6315
-77.6304
-77.628
-77.6233
-77.6157
-77.605
-77.5908
-77.5726
-77.5496
-77.5211
-77.486
-77.4429
-77.3898
-77.3239
-77.2421
-77.1401
-77.0114
-76.8468
-76.6337
-76.3544
-75.9874
-75.4983
-74.8574
-73.5538
-77.6566
-77.6554
-77.6531
-77.6489
-77.642
-77.6324
-77.6197
-77.6034
-77.5829
-77.5576
-77.5266
-77.4887
-77.4424
-77.3853
-77.315
-77.2281
-77.1201
-76.9842
-76.8113
-76.5885
-76.3012
-75.9251
-75.4394
-74.4412
-77.7037
-77.7023
-77.6999
-77.6961
-77.69
-77.6813
-77.6699
-77.6555
-77.6375
-77.6154
-77.5885
-77.5558
-77.5162
-77.4677
-77.4083
-77.3353
-77.2458
-77.1351
-76.9968
-76.8216
-76.6
-76.3189
-75.9763
-75.2316
-77.7652
-77.7637
-77.7614
-77.7579
-77.7525
-77.7449
-77.7349
-77.7224
-77.7069
-77.6879
-77.665
-77.6373
-77.6039
-77.5634
-77.514
-77.4539
-77.3809
-77.2917
-77.1821
-77.0462
-76.8776
-76.6649
-76.3914
-75.8515
-77.8364
-77.8351
-77.833
-77.83
-77.8253
-77.8187
-77.8102
-77.7994
-77.7861
-77.77
-77.7506
-77.7273
-77.6993
-77.6656
-77.6248
-77.575
-77.5146
-77.4414
-77.3516
-77.2398
-77.0986
-76.9126
-76.6532
-76.0688
-77.9155
-77.9142
-77.9121
-77.9095
-77.9054
-77.8996
-77.8921
-77.8828
-77.8713
-77.8575
-77.841
-77.8214
-77.7979
-77.7697
-77.7356
-77.6942
-77.644
-77.5831
-77.5085
-77.4153
-77.2968
-77.1396
-76.9127
-76.3288
-77.9982
-77.9967
-77.9947
-77.9923
-77.9886
-77.9835
-77.9769
-77.9688
-77.9589
-77.9471
-77.933
-77.9162
-77.8962
-77.8724
-77.8437
-77.8088
-77.7664
-77.7147
-77.6513
-77.5721
-77.4717
-77.3391
-77.15
-76.7539
-78.0809
-78.0797
-78.0778
-78.0758
-78.0726
-78.0682
-78.0624
-78.0553
-78.0467
-78.0364
-78.0242
-78.0097
-77.9926
-77.9721
-77.9475
-77.9174
-77.8805
-77.8353
-77.7793
-77.7081
-77.6157
-77.4954
-77.3259
-76.8261
-78.1642
-78.163
-78.1612
-78.1593
-78.1564
-78.1524
-78.1472
-78.1409
-78.1333
-78.1242
-78.1135
-78.1009
-78.086
-78.0682
-78.0468
-78.0208
-77.9887
-77.9493
-77.9004
-77.8388
-77.759
-77.6521
-77.5081
-77.3424
-78.2451
-78.2439
-78.2422
-78.2405
-78.238
-78.2344
-78.2297
-78.2241
-78.2173
-78.2092
-78.1997
-78.1886
-78.1754
-78.1598
-78.1411
-78.1183
-78.09
-78.055
-78.0115
-77.9563
-77.8845
-77.7861
-77.6435
-77.4301
-78.3238
-78.3226
-78.321
-78.3194
-78.3171
-78.3137
-78.3095
-78.3043
-78.2982
-78.2909
-78.2823
-78.2724
-78.2607
-78.2469
-78.2303
-78.2103
-78.1854
-78.1546
-78.1163
-78.0679
-78.0057
-77.9229
-77.801
-77.5331
-78.3985
-78.3974
-78.3959
-78.3945
-78.3924
-78.3894
-78.3855
-78.3808
-78.3751
-78.3685
-78.3607
-78.3517
-78.3411
-78.3288
-78.314
-78.2963
-78.2745
-78.2474
-78.214
-78.1722
-78.1192
-78.0491
-77.9507
-77.7804
-78.4702
-78.4692
-78.4678
-78.4664
-78.4644
-78.4615
-78.4579
-78.4534
-78.4481
-78.4419
-78.4346
-78.4262
-78.4165
-78.4051
-78.3917
-78.3756
-78.3561
-78.3321
-78.3026
-78.2662
-78.2213
-78.1653
-78.0935
-77.9689
-78.5381
-78.5371
-78.5357
-78.5344
-78.5325
-78.5297
-78.5262
-78.5219
-78.5168
-78.5108
-78.5039
-78.4958
-78.4865
-78.4757
-78.463
-78.4479
-78.4296
-78.4072
-78.3795
-78.3451
-78.302
-78.2499
-78.1785
-77.9057
-78.6021
-78.6012
-78.5999
-78.5986
-78.5969
-78.5942
-78.5908
-78.5866
-78.5816
-78.5757
-78.5688
-78.5609
-78.5517
-78.541
-78.5286
-78.5138
-78.4961
-78.4744
-78.448
-78.4157
-78.3756
-78.3234
-78.2531
-78.2648
-78.6637
-78.6628
-78.6615
-78.6602
-78.6584
-78.6558
-78.6523
-78.6481
-78.643
-78.6371
-78.6301
-78.622
-78.6127
-78.6018
-78.5891
-78.5741
-78.5561
-78.534
-78.5067
-78.4725
-78.4282
-78.3707
-78.2906
-78.1092
-78.7227
-78.7218
-78.7204
-78.7191
-78.7173
-78.7146
-78.7111
-78.7068
-78.7016
-78.6955
-78.6883
-78.68
-78.6704
-78.6592
-78.6462
-78.6308
-78.6124
-78.5902
-78.5632
-78.5305
-78.49
-78.4409
-78.3939
-78.4462
-78.779
-78.7782
-78.7769
-78.7756
-78.7739
-78.7712
-78.7677
-78.7633
-78.758
-78.7517
-78.7444
-78.7357
-78.7257
-78.714
-78.7003
-78.6841
-78.6648
-78.6413
-78.6126
-78.5768
-78.5311
-78.4704
-78.3865
-78.2897
-78.8349
-78.8341
-78.8327
-78.8314
-78.8296
-78.8268
-78.8232
-78.8187
-78.8133
-78.8068
-78.7991
-78.7902
-78.7798
-78.7676
-78.7534
-78.7366
-78.7166
-78.6924
-78.663
-78.6269
-78.582
-78.5242
-78.4472
-78.3679
-78.8901
-78.8892
-78.8878
-78.8864
-78.8845
-78.8817
-78.8779
-78.8733
-78.8677
-78.8611
-78.8532
-78.844
-78.8333
-78.8207
-78.806
-78.7887
-78.7681
-78.7434
-78.7134
-78.6768
-78.6315
-78.574
-78.4995
-78.4228
-78.9442
-78.9434
-78.942
-78.9407
-78.9388
-78.936
-78.9323
-78.9276
-78.922
-78.9152
-78.9072
-78.8978
-78.8868
-78.874
-78.8591
-78.8414
-78.8206
-78.7957
-78.7658
-78.7297
-78.6858
-78.6319
-78.5642
-78.4959
-78.9994
-78.9986
-78.9971
-78.9957
-78.9937
-78.9909
-78.9871
-78.9824
-78.9766
-78.9697
-78.9616
-78.9521
-78.9409
-78.9279
-78.9128
-78.8949
-78.8739
-78.8489
-78.8191
-78.7832
-78.74
-78.687
-78.6201
-78.5472
-79.0547
-79.0539
-79.0524
-79.051
-79.049
-79.0461
-79.0423
-79.0375
-79.0317
-79.0248
-79.0166
-79.007
-78.9958
-78.9827
-78.9674
-78.9495
-78.9285
-78.9036
-78.8741
-78.8388
-78.7968
-78.746
-78.6837
-78.6118
-79.1107
-79.1099
-79.1084
-79.1069
-79.1049
-79.1021
-79.0983
-79.0935
-79.0877
-79.0807
-79.0725
-79.0629
-79.0516
-79.0385
-79.0232
-79.0053
-78.9844
-78.9597
-78.9305
-78.8959
-78.8551
-78.8066
-78.7492
-78.6818
-79.1676
-79.1668
-79.1653
-79.1638
-79.1618
-79.159
-79.1551
-79.1503
-79.1445
-79.1375
-79.1293
-79.1197
-79.1084
-79.0953
-79.0801
-79.0622
-79.0414
-79.0169
-78.9879
-78.9538
-78.9137
-78.8668
-78.8123
-78.7471
-79.2256
-79.2247
-79.2232
-79.2217
-79.2197
-79.2168
-79.213
-79.2082
-79.2024
-79.1954
-79.1872
-79.1776
-79.1664
-79.1534
-79.1382
-79.1204
-79.0997
-79.0753
-79.0466
-79.0126
-78.9725
-78.9253
-78.8665
-78.7601
-79.2845
-79.2837
-79.2821
-79.2806
-79.2785
-79.2757
-79.2719
-79.2671
-79.2613
-79.2544
-79.2463
-79.2367
-79.2256
-79.2127
-79.1976
-79.18
-79.1595
-79.1356
-79.1074
-79.0743
-79.0356
-78.9907
-78.9373
-78.867
-79.3444
-79.3436
-79.342
-79.3404
-79.3384
-79.3356
-79.3318
-79.327
-79.3213
-79.3145
-79.3064
-79.2969
-79.2859
-79.2731
-79.2582
-79.2408
-79.2206
-79.197
-79.1694
-79.137
-79.0996
-79.058
-79.0139
-78.9257
-79.4053
-79.4045
-79.4029
-79.4013
-79.3993
-79.3965
-79.3928
-79.388
-79.3824
-79.3756
-79.3676
-79.3582
-79.3473
-79.3346
-79.3199
-79.3027
-79.2828
-79.2594
-79.2321
-79.2001
-79.1627
-79.1194
-79.0697
-78.9971
-79.4673
-79.4665
-79.4649
-79.4634
-79.4613
-79.4586
-79.4548
-79.4501
-79.4445
-79.4378
-79.4298
-79.4206
-79.4098
-79.3973
-79.3827
-79.3658
-79.3461
-79.3232
-79.2964
-79.265
-79.2287
-79.1868
-79.1382
-79.0786
-79.5306
-79.5298
-79.5281
-79.5265
-79.5244
-79.5216
-79.5178
-79.5132
-79.5076
-79.5009
-79.4931
-79.4839
-79.4733
-79.4609
-79.4465
-79.4299
-79.4105
-79.3879
-79.3615
-79.3308
-79.295
-79.2533
-79.2043
-79.1413
-79.594
-79.5932
-79.5916
-79.59
-79.588
-79.5853
-79.5816
-79.577
-79.5715
-79.5649
-79.5572
-79.5481
-79.5376
-79.5254
-79.5113
-79.4948
-79.4757
-79.4535
-79.4277
-79.3977
-79.3632
-79.3235
-79.2797
-79.2578
-79.659
-79.6582
-79.6565
-79.6549
-79.6529
-79.6501
-79.6464
-79.6419
-79.6364
-79.6299
-79.6222
-79.6133
-79.6029
-79.5908
-79.5768
-79.5605
-79.5417
-79.5197
-79.494
-79.4638
-79.4285
-79.3883
-79.3396
-79.2137
-79.7246
-79.7238
-79.7221
-79.7204
-79.7184
-79.7156
-79.712
-79.7074
-79.702
-79.6955
-79.688
-79.6791
-79.6689
-79.657
-79.6432
-79.6272
-79.6086
-79.5871
-79.5622
-79.5334
-79.5005
-79.4624
-79.4175
-79.3993
-79.7903
-79.7896
-79.7879
-79.7863
-79.7844
-79.7817
-79.7781
-79.7736
-79.7683
-79.7619
-79.7544
-79.7457
-79.7355
-79.7238
-79.7101
-79.6943
-79.676
-79.6547
-79.63
-79.6012
-79.5678
-79.5259
-79.4696
-79.4658
-79.8578
-79.857
-79.8552
-79.8536
-79.8515
-79.8488
-79.8452
-79.8407
-79.8354
-79.829
-79.8216
-79.813
-79.8029
-79.7913
-79.7778
-79.7621
-79.744
-79.723
-79.6986
-79.6703
-79.6377
-79.6021
-79.5657
-79.4725
-79.9254
-79.9246
-79.9228
-79.9211
-79.919
-79.9163
-79.9127
-79.9083
-79.903
-79.8967
-79.8893
-79.8808
-79.8708
-79.8593
-79.8459
-79.8304
-79.8124
-79.7916
-79.7673
-79.7391
-79.7063
-79.6691
-79.6304
-79.5882
-79.9929
-79.9923
-79.9905
-79.9889
-79.9869
-79.9842
-79.9807
-79.9763
-79.9711
-79.9649
-79.9576
-79.9491
-79.9393
-79.9279
-79.9146
-79.8993
-79.8814
-79.8607
-79.8365
-79.8083
-79.7752
-79.7361
-79.6897
-79.6353
-80.0618
-80.0612
-80.0593
-80.0577
-80.0556
-80.0529
-80.0494
-80.045
-80.0398
-80.0337
-80.0264
-80.018
-80.0083
-79.997
-79.9839
-79.9687
-79.9511
-79.9306
-79.9068
-79.879
-79.8468
-79.8093
-79.7662
-79.7198
-80.1311
-80.1304
-80.1285
-80.1267
-80.1247
-80.122
-80.1184
-80.1141
-80.1089
-80.1028
-80.0957
-80.0874
-80.0778
-80.0666
-80.0537
-80.0387
-80.0213
-80.001
-79.9775
-79.95
-79.9178
-79.8804
-79.839
-79.774
-80.1998
-80.1992
-80.1973
-80.1957
-80.1937
-80.1911
-80.1877
-80.1834
-80.1783
-80.1723
-80.1653
-80.1571
-80.1476
-80.1366
-80.1238
-80.1091
-80.092
-80.0722
-80.0493
-80.0226
-79.9919
-79.9569
-79.9176
-79.8679
-80.2698
-80.2693
-80.2674
-80.2657
-80.2637
-80.2611
-80.2576
-80.2534
-80.2483
-80.2423
-80.2353
-80.2272
-80.2177
-80.2069
-80.1943
-80.1797
-80.1628
-80.1433
-80.1208
-80.0948
-80.065
-80.0303
-79.9874
-79.9253
-80.3408
-80.3401
-80.338
-80.3361
-80.334
-80.3312
-80.3276
-80.3233
-80.3183
-80.3123
-80.3054
-80.2973
-80.288
-80.2772
-80.2647
-80.2502
-80.2336
-80.2144
-80.1925
-80.1675
-80.1394
-80.107
-80.0687
-80.0623
-80.4087
-80.4083
-80.4066
-80.405
-80.4031
-80.4006
-80.3973
-80.3932
-80.3883
-80.3824
-80.3756
-80.3675
-80.3582
-80.3474
-80.3349
-80.3205
-80.3038
-80.2845
-80.2623
-80.2369
-80.2078
-80.1738
-80.1345
-80.1155
-80.4811
-80.4806
-80.4785
-80.4768
-80.4746
-80.4719
-80.4684
-80.4641
-80.459
-80.4531
-80.4462
-80.4381
-80.4288
-80.4179
-80.4053
-80.3907
-80.3738
-80.3543
-80.3316
-80.3053
-80.2749
-80.242
-80.2088
-80.1004
-80.5522
-80.5515
-80.5493
-80.5474
-80.5452
-80.5424
-80.5389
-80.5346
-80.5295
-80.5236
-80.5167
-80.5086
-80.4993
-80.4884
-80.4758
-80.4612
-80.4442
-80.4244
-80.4014
-80.3747
-80.3436
-80.308
-80.2665
-80.1963
-80.6211
-80.6208
-80.6189
-80.6173
-80.6153
-80.6127
-80.6093
-80.6051
-80.6002
-80.5943
-80.5875
-80.5795
-80.5701
-80.5593
-80.5467
-80.532
-80.5148
-80.495
-80.4719
-80.4452
-80.4144
-80.3789
-80.3369
-80.288
-80.6938
-80.6934
-80.6912
-80.6893
-80.6871
-80.6843
-80.6808
-80.6765
-80.6715
-80.6655
-80.6587
-80.6506
-80.6413
-80.6304
-80.6178
-80.6031
-80.5859
-80.566
-80.5428
-80.5159
-80.4847
-80.4484
-80.4066
-80.3519
-80.765
-80.7644
-80.7622
-80.7603
-80.7581
-80.7553
-80.7518
-80.7475
-80.7426
-80.7367
-80.7299
-80.7219
-80.7126
-80.7018
-80.6892
-80.6745
-80.6574
-80.6376
-80.6146
-80.5881
-80.5577
-80.523
-80.4832
-80.4368
-80.8355
-80.8352
-80.8331
-80.8313
-80.8292
-80.8265
-80.8231
-80.8189
-80.8139
-80.8081
-80.8013
-80.7933
-80.7841
-80.7733
-80.7607
-80.7461
-80.7289
-80.709
-80.6859
-80.6593
-80.629
-80.5949
-80.5579
-80.5319
-80.9081
-80.9076
-80.9052
-80.9032
-80.9008
-80.898
-80.8944
-80.8902
-80.8852
-80.8794
-80.8727
-80.8648
-80.8557
-80.845
-80.8324
-80.8178
-80.8007
-80.7806
-80.7571
-80.7294
-80.6969
-80.6589
-80.613
-80.5158
-80.9769
-80.9767
-80.9747
-80.973
-80.971
-80.9684
-80.9651
-80.9611
-80.9564
-80.9507
-80.9441
-80.9364
-80.9274
-80.9168
-80.9045
-80.89
-80.873
-80.8532
-80.8299
-80.8027
-80.771
-80.7341
-80.6924
-80.6711
-81.0501
-81.0497
-81.0474
-81.0455
-81.0433
-81.0405
-81.037
-81.0328
-81.028
-81.0224
-81.0158
-81.0082
-80.9993
-80.9889
-80.9767
-80.9624
-80.9457
-80.926
-80.903
-80.8759
-80.8442
-80.8083
-80.7694
-80.6927
-81.1215
-81.1209
-81.1184
-81.1164
-81.1141
-81.1112
-81.1078
-81.1037
-81.099
-81.0935
-81.0871
-81.0796
-81.0709
-81.0608
-81.0489
-81.035
-81.0187
-80.9995
-80.9769
-80.9505
-80.9197
-80.8844
-80.8447
-80.801
-81.1898
-81.1897
-81.1875
-81.1857
-81.1837
-81.1811
-81.1778
-81.1739
-81.1694
-81.164
-81.1579
-81.1506
-81.1422
-81.1324
-81.1209
-81.1074
-81.0915
-81.0728
-81.0509
-81.0251
-80.9947
-80.959
-80.9162
-80.8585
-81.2605
-81.2601
-81.2576
-81.2557
-81.2535
-81.2507
-81.2474
-81.2436
-81.2391
-81.2339
-81.228
-81.221
-81.2129
-81.2035
-81.1924
-81.1794
-81.1642
-81.1463
-81.1253
-81.1008
-81.0725
-81.0398
-81.0023
-80.9744
-81.3269
-81.3267
-81.3246
-81.3228
-81.3208
-81.3184
-81.3153
-81.3117
-81.3076
-81.3027
-81.297
-81.2904
-81.2826
-81.2736
-81.263
-81.2506
-81.236
-81.2187
-81.1984
-81.1746
-81.1464
-81.1132
-81.0754
-81.0342
-81.3949
-81.3946
-81.3923
-81.3905
-81.3885
-81.3859
-81.3829
-81.3793
-81.3752
-81.3704
-81.365
-81.3586
-81.3513
-81.3427
-81.3326
-81.3208
-81.3069
-81.2905
-81.2713
-81.2487
-81.222
-81.191
-81.1559
-81.1103
-81.4605
-81.46
-81.4576
-81.4557
-81.4536
-81.4511
-81.4481
-81.4447
-81.4407
-81.4362
-81.4311
-81.4251
-81.4182
-81.4101
-81.4006
-81.3895
-81.3764
-81.3611
-81.343
-81.322
-81.2975
-81.2692
-81.2364
-81.2104
-81.5217
-81.5216
-81.5194
-81.5178
-81.5159
-81.5137
-81.5109
-81.5078
-81.5041
-81.5
-81.4951
-81.4895
-81.4831
-81.4755
-81.4667
-81.4562
-81.444
-81.4296
-81.4126
-81.3928
-81.3697
-81.3429
-81.3117
-81.2847
-81.5829
-81.5827
-81.5805
-81.5788
-81.577
-81.5747
-81.572
-81.5689
-81.5654
-81.5614
-81.5569
-81.5517
-81.5457
-81.5386
-81.5304
-81.5207
-81.5092
-81.4958
-81.4799
-81.4613
-81.4395
-81.4142
-81.3859
-81.3617
-81.6412
-81.6407
-81.6383
-81.6365
-81.6346
-81.6324
-81.6298
-81.6269
-81.6236
-81.6199
-81.6157
-81.6109
-81.6054
-81.5989
-81.5914
-81.5825
-81.572
-81.5595
-81.5447
-81.5273
-81.5069
-81.4834
-81.4571
-81.4321
-81.6941
-81.694
-81.6918
-81.6902
-81.6885
-81.6865
-81.6841
-81.6814
-81.6784
-81.6751
-81.6713
-81.6669
-81.6619
-81.6561
-81.6492
-81.6411
-81.6315
-81.62
-81.6064
-81.5903
-81.5714
-81.5494
-81.5241
-81.5009
-81.7448
-81.7445
-81.7423
-81.7406
-81.7389
-81.7369
-81.7346
-81.7321
-81.7294
-81.7264
-81.723
-81.7192
-81.7148
-81.7096
-81.7035
-81.6963
-81.6877
-81.6773
-81.6649
-81.65
-81.6322
-81.6113
-81.5871
-81.5653
-81.789
-81.789
-81.7871
-81.7857
-81.7843
-81.7826
-81.7807
-81.7786
-81.7763
-81.7737
-81.7708
-81.7675
-81.7636
-81.7592
-81.7539
-81.7477
-81.7401
-81.731
-81.7198
-81.7062
-81.6896
-81.6692
-81.6442
-81.6176
-81.8328
-81.8325
-81.8303
-81.8287
-81.8271
-81.8253
-81.8234
-81.8213
-81.8191
-81.8168
-81.8142
-81.8114
-81.8082
-81.8045
-81.8001
-81.7948
-81.7885
-81.7808
-81.7714
-81.7598
-81.7456
-81.7284
-81.7081
-81.6867
-81.8688
-81.8684
-81.8661
-81.8646
-81.863
-81.8614
-81.8597
-81.858
-81.8562
-81.8543
-81.8522
-81.85
-81.8475
-81.8445
-81.8411
-81.8371
-81.8321
-81.826
-81.8186
-81.8094
-81.7979
-81.7841
-81.7673
-81.7488
-81.8975
-81.8974
-81.8955
-81.8942
-81.893
-81.8917
-81.8904
-81.889
-81.8876
-81.8862
-81.8847
-81.8831
-81.8813
-81.8792
-81.8768
-81.8738
-81.8702
-81.8658
-81.8603
-81.8536
-81.8455
-81.8357
-81.8239
-81.8258
-81.9225
-81.9223
-81.9205
-81.9192
-81.918
-81.9168
-81.9155
-81.9144
-81.9133
-81.9122
-81.9112
-81.9101
-81.909
-81.9077
-81.9062
-81.9044
-81.9021
-81.8991
-81.8954
-81.8908
-81.8851
-81.8786
-81.8724
-81.8743
-81.9412
-81.9407
-81.9386
-81.9372
-81.9359
-81.9348
-81.9337
-81.9328
-81.932
-81.9314
-81.9309
-81.9304
-81.93
-81.9295
-81.929
-81.9282
-81.927
-81.9254
-81.9231
-81.92
-81.9162
-81.9117
-81.9065
-81.9295
-81.95
-81.9497
-81.948
-81.9469
-81.9461
-81.9453
-81.9446
-81.9441
-81.9437
-81.9436
-81.9436
-81.9437
-81.9441
-81.9444
-81.9448
-81.945
-81.9449
-81.9443
-81.9429
-81.9402
-81.9351
-81.9259
-81.9093
-81.8878
-81.9563
-81.9555
-81.9533
-81.9519
-81.9507
-81.9497
-81.9489
-81.9484
-81.9482
-81.9484
-81.9489
-81.9496
-81.9507
-81.952
-81.9535
-81.955
-81.9564
-81.9575
-81.958
-81.9575
-81.9554
-81.951
-81.9434
-81.9401
-81.949
-81.9484
-81.9462
-81.9448
-81.9438
-81.9431
-81.9428
-81.9428
-81.9432
-81.9441
-81.9453
-81.947
-81.9491
-81.9516
-81.9544
-81.9574
-81.9606
-81.9637
-81.9663
-81.9682
-81.9687
-81.9667
-81.9608
-81.9591
-81.9284
-81.9288
-81.9276
-81.927
-81.9267
-81.9268
-81.9271
-81.9279
-81.9291
-81.9307
-81.9329
-81.9356
-81.9389
-81.9428
-81.9471
-81.9519
-81.9572
-81.9626
-81.9682
-81.9735
-81.9782
-81.9819
-81.9847
-81.9928
-81.9054
-81.9051
-81.9035
-81.9028
-81.9025
-81.9026
-81.9032
-81.9044
-81.9061
-81.9084
-81.9114
-81.9151
-81.9196
-81.9248
-81.9308
-81.9376
-81.9452
-81.9534
-81.9621
-81.9711
-81.9802
-81.9894
-81.9982
-82.0167
-81.8688
-81.8689
-81.8676
-81.8672
-81.8672
-81.8677
-81.8687
-81.8704
-81.8727
-81.8758
-81.8797
-81.8845
-81.8902
-81.8969
-81.9047
-81.9136
-81.9235
-81.9345
-81.9465
-81.9595
-81.9734
-81.9879
-82.0001
-81.9977
-81.823
-81.8228
-81.8213
-81.821
-81.8211
-81.8218
-81.8232
-81.8253
-81.8283
-81.8321
-81.8369
-81.8428
-81.8499
-81.8582
-81.8678
-81.8789
-81.8914
-81.9054
-81.9209
-81.938
-81.9565
-81.9764
-81.9993
-82.053
-81.7623
-81.7625
-81.7615
-81.7615
-81.762
-81.7632
-81.7651
-81.7679
-81.7716
-81.7763
-81.7822
-81.7893
-81.7978
-81.8077
-81.8194
-81.8327
-81.8478
-81.8649
-81.8839
-81.9046
-81.9271
-81.9517
-81.977
-81.9533
-81.6919
-81.6915
-81.6906
-81.6907
-81.6915
-81.693
-81.6953
-81.6985
-81.7028
-81.7083
-81.7151
-81.7234
-81.7332
-81.7449
-81.7585
-81.7741
-81.792
-81.8124
-81.8353
-81.861
-81.89
-81.9225
-81.9625
-82.0452
-81.6088
-81.6081
-81.6068
-81.6068
-81.6076
-81.6091
-81.6117
-81.6153
-81.6201
-81.6264
-81.6342
-81.6436
-81.655
-81.6683
-81.684
-81.702
-81.7227
-81.7461
-81.7723
-81.8014
-81.8331
-81.8675
-81.9059
-81.9231
-81.5068
-81.5064
-81.5053
-81.5054
-81.5065
-81.5085
-81.5117
-81.5161
-81.5219
-81.5292
-81.5382
-81.5491
-81.5622
-81.5775
-81.5954
-81.616
-81.6396
-81.6663
-81.6964
-81.7299
-81.7668
-81.8071
-81.8506
-81.8821
-81.3842
-81.3849
-81.3849
-81.386
-81.3881
-81.3911
-81.3953
-81.4008
-81.4078
-81.4164
-81.4268
-81.4393
-81.4542
-81.4716
-81.4918
-81.5152
-81.5419
-81.5722
-81.6063
-81.6443
-81.6864
-81.7325
-81.7825
-81.8255
-81.254
-81.2539
-81.2536
-81.2546
-81.2568
-81.26
-81.2647
-81.2708
-81.2786
-81.2882
-81.3
-81.314
-81.3307
-81.3502
-81.3729
-81.3991
-81.4291
-81.4632
-81.5016
-81.5444
-81.5919
-81.644
-81.7009
-81.744
-81.1028
-81.103
-81.103
-81.1045
-81.1072
-81.1112
-81.1165
-81.1235
-81.1323
-81.1431
-81.1562
-81.1719
-81.1904
-81.2122
-81.2376
-81.2668
-81.3003
-81.3384
-81.3815
-81.4298
-81.4836
-81.5426
-81.6069
-81.6612
-80.9377
-80.9374
-80.9373
-80.9385
-80.9413
-80.9454
-80.9512
-80.9588
-80.9685
-80.9804
-80.9949
-81.0123
-81.0328
-81.0569
-81.085
-81.1175
-81.1547
-81.1972
-81.2454
-81.2997
-81.3607
-81.4288
-81.5058
-81.59
-80.7477
-80.7476
-80.7482
-80.7503
-80.7539
-80.759
-80.7658
-80.7746
-80.7855
-80.7988
-80.8149
-80.8341
-80.8568
-80.8834
-80.9143
-80.9501
-80.9912
-81.038
-81.0911
-81.1507
-81.2173
-81.2915
-81.376
-81.4389
-80.5457
-80.5451
-80.5454
-80.5473
-80.5509
-80.5561
-80.5632
-80.5725
-80.5841
-80.5985
-80.616
-80.6369
-80.6617
-80.6908
-80.7248
-80.7641
-80.8092
-80.8607
-80.9192
-80.9849
-81.0585
-81.1402
-81.2317
-81.3117
-80.3196
-80.3186
-80.3184
-80.3201
-80.3239