/*--------------------------------*- C++ -*----------------------------------*\
| =========                 |                                                 |
| \\      /  F ield         | OpenFOAM: The Open Source CFD Toolbox           |
|  \\    /   O peration     | Version:  2.3.0                                 |
|   \\  /    A nd           | Web:      www.OpenFOAM.org                      |
|    \\/     M anipulation  |                                                 |
\*---------------------------------------------------------------------------*/
FoamFile
{
    version     2.0;
    format      ascii;
    class       surfaceScalarField;
    location    "350";
    object      phi;
}
// * * * * * * * * * * * * * * * * * * * * * * * * * * * * * * * * * * * * * //

dimensions      [0 3 -1 0 0 0 0];

internalField   nonuniform List<scalar> 
15873
(
-0.00186827
-0.019807
0.0214828
0.000192515
-0.00310637
-0.0166702
0.0179084
-0.00398054
-0.0140559
0.0149301
-0.00455189
-0.0118774
0.0124488
-0.00487085
-0.0100616
0.0103805
-0.00497767
-0.00854878
0.00865559
-0.00490647
-0.00728797
0.00721677
-0.00468508
-0.00623706
0.00601566
-0.00433717
-0.00536124
0.00501333
-0.0038827
-0.00463116
0.00417669
-0.00333873
-0.00402235
0.00347838
-0.00271939
-0.00351483
0.00289549
-0.00203643
-0.00309165
0.00240869
-0.00129892
-0.00273879
0.00200128
-0.00244457
-0.000498841
0.00164449
-0.00169145
-0.0182896
0.000174101
-0.00280704
-0.0155547
-0.00358788
-0.0132751
-0.00408995
-0.0113753
-0.00435969
-0.00979183
-0.00443619
-0.00847227
-0.00435176
-0.00737239
-0.00413271
-0.00645611
-0.00380163
-0.00569232
-0.00337664
-0.00505615
-0.00287311
-0.00452588
-0.00230386
-0.00408408
-0.00167956
-0.00371596
-0.00100912
-0.00340922
-0.00315368
-0.000300006
-0.00153401
-0.0169124
0.000156714
-0.00254643
-0.0145422
-0.00325418
-0.0125674
-0.00370822
-0.0109213
-0.00395014
-0.00954991
-0.00401521
-0.0084072
-0.00393299
-0.00745461
-0.00372807
-0.00666103
-0.00342044
-0.00599995
-0.00302792
-0.00544867
-0.00256423
-0.00498957
-0.00204142
-0.00460689
-0.00146937
-0.00428801
-0.000856337
-0.00402225
-0.00380077
-0.000209246
-0.0013879
-0.015663
0.000138516
-0.00230527
-0.0136249
-0.00294584
-0.0119268
-0.00335562
-0.0105115
-0.0035732
-0.00933233
-0.00363076
-0.00834964
-0.00355463
-0.00753074
-0.00336716
-0.00684851
-0.00308725
-0.00627986
-0.00272979
-0.00580612
-0.00230829
-0.00541107
-0.00183312
-0.00508206
-0.00131333
-0.0048078
-0.000756373
-0.00457921
-0.0043887
-0.00016845
-0.00125694
-0.0145284
0.000122413
-0.00208933
-0.0127925
-0.00267057
-0.0113455
-0.00304185
-0.0101402
-0.00323874
-0.00913544
-0.00328999
-0.00829839
-0.00321994
-0.00760079
-0.00304889
-0.00701956
-0.00279375
-0.00653501
-0.00246859
-0.00613129
-0.00208471
-0.00579495
-0.00165247
-0.0055143
-0.00117966
-0.00528061
-0.000673142
-0.00508573
-0.00492333
-0.00013851
-0.00113818
-0.0134983
0.000108008
-0.0018942
-0.0120364
-0.0024215
-0.0108182
-0.00275866
-0.00980308
-0.00293684
-0.00895726
-0.00298296
-0.00825227
-0.00291893
-0.00766482
-0.00276324
-0.00717525
-0.00253115
-0.0067671
-0.00223531
-0.00642712
-0.00188658
-0.00614368
-0.00149354
-0.00590734
-0.00106372
-0.00571043
-0.000603213
-0.00554623
-0.00540934
-0.000117205
-0.00103149
-0.0125624
9.5624e-05
-0.00171823
-0.0113497
-0.00219724
-0.0103392
-0.00250309
-0.00949724
-0.00266509
-0.00879526
-0.00270674
-0.00821062
-0.00264833
-0.00772324
-0.00250672
-0.00731686
-0.00229555
-0.00697826
-0.00202649
-0.00669619
-0.00170934
-0.00646083
-0.00135199
-0.00626469
-0.000961189
-0.00610123
-0.000542532
-0.00596489
-0.00585122
-0.000100652
-0.000935059
-0.0117121
8.47957e-05
-0.00155903
-0.0107257
-0.00199402
-0.00990422
-0.00227216
-0.0092191
-0.00241894
-0.00864848
-0.00245685
-0.00817271
-0.00240375
-0.00777634
-0.00227489
-0.00744572
-0.00208292
-0.00717023
-0.00183826
-0.00694085
-0.00154994
-0.00674914
-0.00122503
-0.00658961
-0.000869745
-0.00645651
-0.00048913
-0.0063455
-0.00625294
-8.74101e-05
-0.000848039
-0.0109393
7.52082e-05
-0.00141485
-0.0101589
-0.00181038
-0.0095087
-0.00206293
-0.00896655
-0.00219639
-0.00851502
-0.00223082
-0.00813828
-0.00218248
-0.00782468
-0.00206521
-0.00756299
-0.00189064
-0.0073448
-0.00166841
-0.00716308
-0.00140612
-0.00701143
-0.0011107
-0.00688503
-0.000787798
-0.00677942
-0.000441762
-0.00669154
-0.00661816
-7.65408e-05
-0.000769412
-0.0102369
6.69879e-05
-0.00128454
-0.0096438
-0.00164408
-0.00914916
-0.0018735
-0.00873713
-0.00199487
-0.00839365
-0.00202586
-0.00810729
-0.0019819
-0.00786863
-0.00187544
-0.00766946
-0.00171669
-0.00750354
-0.00151448
-0.00736529
-0.00127623
-0.00724968
-0.00100775
-0.00715351
-0.000714011
-0.00707316
-0.000399434
-0.00700612
-0.00695018
-6.74111e-05
-0.000698121
-0.00959853
5.97654e-05
-0.00116646
-0.00917546
-0.00149306
-0.00882257
-0.00170159
-0.00852859
-0.00181191
-0.00828332
-0.00184028
-0.00807893
-0.00180032
-0.0079086
-0.00170326
-0.00776651
-0.00155893
-0.00764787
-0.00137536
-0.00754886
-0.00115854
-0.00746649
-0.000914503
-0.00739755
-0.00064752
-0.00734014
-0.000361521
-0.00729212
-0.00725203
-5.9674e-05
-0.000633582
-0.00901838
5.34368e-05
-0.00105937
-0.00874967
-0.00135626
-0.00852567
-0.00154594
-0.00833892
-0.00164603
-0.00818323
-0.00167158
-0.00805338
-0.00163542
-0.00794475
-0.00154738
-0.00785455
-0.00141628
-0.00777897
-0.00124893
-0.00771621
-0.00105215
-0.00766327
-0.000830146
-0.00761955
-0.000587461
-0.00758283
-0.000327457
-0.00755212
-0.00752646
-5.3024e-05
-0.000575245
-0.00849102
4.78864e-05
-0.000962109
-0.00836281
-0.00123213
-0.00825565
-0.00140436
-0.00816669
-0.00149543
-0.00809216
-0.00151898
-0.00802983
-0.00148583
-0.00797791
-0.0014058
-0.00793458
-0.00128632
-0.00789846
-0.00113459
-0.00786793
-0.00095545
-0.00784241
-0.000753684
-0.00782132
-0.000533116
-0.00780339
-0.000296742
-0.00778849
-0.00777594
-4.72604e-05
-0.000522356
4.29127e-05
-0.00801158
-0.000874157
-0.00801101
-0.00111931
-0.0080105
-0.00127609
-0.00800991
-0.00135898
-0.00800927
-0.00138013
-0.00800868
-0.00134998
-0.00800806
-0.00127717
-0.00800739
-0.0011689
-0.00800673
-0.0010308
-0.00800603
-0.000867889
-0.00800533
-0.00068455
-0.00800466
-0.000483949
-0.008004
-0.000269054
-0.00800339
-4.22376e-05
-0.00800276
0.000319307
-0.00244187
0.00162372
0.00107677
-0.00272983
0.00197236
0.00178254
-0.00307584
0.00237008
0.00242978
-0.00349157
0.00284433
0.0030085
-0.00399103
0.00341232
0.0035058
-0.00459124
0.00409393
0.00390519
-0.00531223
0.00491285
0.00418626
-0.0061785
0.00589742
0.0043237
-0.00721932
0.00708188
0.00428684
-0.00846926
0.00850613
0.0040379
-0.00997004
0.010219
0.00353307
-0.0117724
0.0122772
0.00271941
-0.0139356
0.0147493
0.00153504
-0.0165331
0.0177175
-0.0196517
0.0212796
-9.29021e-05
0.000410733
-0.00315261
0.00108659
-0.00340569
0.0017202
-0.00370946
0.00230264
-0.00407402
0.00282317
-0.00451156
0.00326864
-0.00503671
0.00362319
-0.00566678
0.003868
-0.00642331
0.00397972
-0.00733104
0.00393143
-0.00842097
0.00369056
-0.00972917
0.00321814
-0.0112999
0.00246817
-0.0131857
0.00138509
-0.01545
-0.0181686
-9.79733e-05
0.000438024
-0.00379988
0.00105171
-0.00401937
0.00162508
-0.00428283
0.00215008
-0.00459902
0.00261707
-0.00497854
0.00301428
-0.00543393
0.00332834
-0.00598083
0.00354179
-0.00663676
0.00363501
-0.00742427
0.00358376
-0.00836972
0.00335869
-0.0095041
0.00292457
-0.0108658
0.00223958
-0.0125007
0.00125239
-0.0144628
-0.0168185
-9.76992e-05
0.000419604
-0.00438793
0.000977012
-0.00457678
0.00149769
-0.0048035
0.00197428
-0.00507562
0.00239791
-0.00540217
0.00275834
-0.00579436
0.00304227
-0.00626476
0.00323499
-0.00682948
0.0033178
-0.00750708
0.00326861
-0.00832052
0.00306127
-0.00929677
0.00266386
-0.0104684
0.00203796
-0.0118748
0.00113776
-0.0135626
-0.0155889
-9.18356e-05
0.000396169
-0.00492261
0.000902867
-0.00508348
0.00137604
-0.00527668
0.00180893
-0.0055085
0.00219382
-0.00578706
0.00252048
-0.00612102
0.00277775
-0.00652203
0.00295172
-0.00700345
0.00302568
-0.00758104
0.00297954
-0.00827438
0.0027892
-0.00910643
0.00242615
-0.0101053
0.00185507
-0.0113037
0.00103498
-0.0127425
-0.014469
-8.49254e-05
0.000368833
-0.00540865
0.000829448
-0.00554409
0.00125951
-0.00570673
0.00165296
-0.00590196
0.00200235
-0.00613645
0.00229916
-0.00641783
0.00253265
-0.00675551
0.00269027
-0.00716107
0.00275689
-0.00764767
0.0027142
-0.00823169
0.00254048
-0.0089327
0.00220901
-0.00977387
0.00168886
-0.0107836
0.000941708
-0.0119954
-0.0134497
-7.76631e-05
0.000341245
-0.00585054
0.000759968
-0.00596282
0.00115092
-0.00609768
0.00150853
-0.00625957
0.00182611
-0.00645402
0.00209583
-0.00668755
0.00230793
-0.00696762
0.00245087
-0.007304
0.00251109
-0.00770789
0.00247185
-0.00819245
0.00231303
-0.00877388
0.00201128
-0.00947213
0.00153749
-0.0103098
0.00085734
-0.0113152
-0.012522
-7.02713e-05
0.00031432
-0.00625227
0.000694981
-0.00634348
0.00105036
-0.00645307
0.00137547
-0.00658468
0.00166409
-0.00674264
0.00190922
-0.00693268
0.00210187
-0.00716028
0.00223169
-0.00743382
0.00228611
-0.00776231
0.00224998
-0.00815632
0.00210554
-0.00862944
0.00183046
-0.00919705
0.00139939
-0.00987872
0.000780397
-0.0106962
-0.0116779
-6.36966e-05
0.000288687
-0.0066175
0.000634754
-0.00668955
0.000957729
-0.00677604
0.00125328
-0.00688023
0.0015158
-0.00700515
0.00173838
-0.00715526
0.00191346
-0.00733535
0.00203145
-0.00755182
0.00208079
-0.00781165
0.00204771
-0.00812324
0.00191605
-0.00849778
0.00166584
-0.00894684
0.00127335
-0.00948623
0.000710425
-0.0101333
-0.01091
-5.74912e-05
0.000264617
-0.00694953
0.000579214
-0.00700414
0.00087301
-0.00706984
0.00114159
-0.00714882
0.00138002
-0.00724358
0.00158249
-0.00735774
0.00174163
-0.0074945
0.00184866
-0.00765885
0.0018934
-0.00785639
0.00186346
-0.00809331
0.00174349
-0.0083778
0.00151591
-0.00871926
0.00115876
-0.00912908
0.000646696
-0.00962123
-0.0102115
-5.18305e-05
0.000242175
-0.00725138
0.000528188
-0.00729016
0.000795211
-0.00733686
0.00103933
-0.00739294
0.00125628
-0.00746053
0.00144007
-0.00754153
0.00158471
-0.00763914
0.00168222
-0.00775635
0.00172279
-0.00789697
0.00169527
-0.00806578
0.00158607
-0.0082686
0.00137901
-0.0085122
0.00105432
-0.00880439
0.000588449
-0.00915536
-0.00957627
-4.6786e-05
0.000221409
-0.00752581
0.000481418
-0.00755017
0.000724134
-0.00757958
0.0009462
-0.007615
0.00114309
-0.00765742
0.00131061
-0.00770905
0.00144197
-0.00777049
0.00153037
-0.00784475
0.00156703
-0.00793362
0.00154216
-0.00804091
0.00144298
-0.00816942
0.00125451
-0.00832373
0.000959172
-0.00850906
0.000535398
-0.00873158
-0.0089987
-4.21759e-05
0.000202217
-0.00777529
0.000438584
-0.00778653
0.000659175
-0.00780017
0.000860995
-0.00781682
0.00104024
-0.00783666
0.00119211
-0.00786092
0.00131179
-0.00789018
0.00139212
-0.00792508
0.00142568
-0.00796718
0.00140269
-0.00801793
0.00131237
-0.0080791
0.00114114
-0.00815249
0.0008724
-0.00824032
0.000487181
-0.00834637
-0.00847341
-3.80996e-05
0.000184559
-0.00800209
0.000399452
-0.00800143
0.000600085
-0.0080008
0.000783455
-0.00800019
0.000946467
-0.00799968
0.00108468
-0.00799913
0.00119312
-0.00799862
0.00126618
-0.00799814
0.00129666
-0.00799766
0.00127599
-0.00799725
0.00119376
-0.00799687
0.00103779
-0.00799653
0.000793711
-0.00799624
0.000443314
-0.00799597
-3.44012e-05
-0.0079957
0.00164474
0.019802
-0.021462
1.5205e-05
0.00285576
0.0166359
-0.0178469
0.00368701
0.0139828
-0.0148141
0.00419594
0.0117537
-0.0122626
0.00443232
0.00987508
-0.0101115
0.00444098
0.00829164
-0.0083003
0.004265
0.00695841
-0.00678244
0.00394322
0.00583841
-0.00551663
0.00351036
0.00489956
-0.00446671
0.00299648
0.00411266
-0.00359879
0.00242773
0.00345085
-0.00288212
0.00182739
0.00288882
-0.00228849
0.0012174
0.00240113
-0.00179115
0.00061272
0.00196662
-0.00136195
0.0016078
-5.31163e-06
-0.00098978
0.00149695
0.0182938
1.12529e-05
0.00259831
0.0155346
0.00335787
0.0132233
0.00382917
0.0112824
0.00405672
0.00964753
0.00408027
0.00826809
0.00393582
0.00710286
0.00365571
0.00611852
0.00326979
0.00528549
0.00280396
0.00457849
0.00228167
0.00397314
0.00172443
0.00344606
0.00115192
0.00297364
0.000576867
0.00254167
0.00219086
-6.2036e-06
0.00136647
0.0169213
6.10244e-06
0.00237071
0.0145303
0.00306536
0.0125286
0.00349953
0.0108482
0.00371327
0.0094338
0.00374192
0.00823944
0.00361727
0.00722751
0.00336795
0.00636784
0.00301928
0.00563416
0.00259509
0.00500269
0.00211589
0.00445235
0.00160133
0.00396063
0.0010694
0.00350558
0.000533067
0.003078
0.0027307
-6.76122e-06
0.00124573
0.0156733
2.24996e-06
0.00215895
0.0136171
0.00279137
0.0118962
0.00318757
0.010452
0.00338501
0.00923637
0.00341569
0.00820876
0.0033073
0.00733592
0.00308486
0.00659028
0.00277118
0.00594786
0.00238601
0.00538787
0.00194857
0.00488979
0.00147614
0.00443306
0.000985464
0.00399626
0.000489928
0.00357355
0.00322762
-6.98367e-06
0.00113391
0.014539
3.73607e-07
0.00196366
0.0127874
0.00253906
0.0113208
0.0029004
0.0100907
0.00308243
0.00905435
0.0031136
0.0081776
0.00301887
0.00743065
0.00282027
0.0067889
0.00253745
0.00623068
0.00218834
0.00573699
0.00178916
0.00528897
0.00135643
0.0048658
0.000905339
0.00444736
0.000449365
0.00402953
0.00368396
-6.96534e-06
0.00103132
0.0135085
-8.01971e-07
0.00178582
0.0120329
0.00230906
0.0107976
0.00263893
0.00976081
0.00280594
0.00888734
0.00283667
0.00814686
0.00275329
0.00751404
0.00257533
0.00696686
0.00232009
0.00648593
0.00200325
0.00605384
0.00163983
0.0056524
0.00124401
0.00526162
0.000830312
0.00486106
0.000411708
0.00444814
0.00410246
-6.78991e-06
0.000938011
0.0125717
-1.24201e-06
0.00162398
0.0113469
0.0021001
0.0103214
0.00240043
0.00946048
0.00255381
0.00873396
0.00258343
0.00811724
0.00250961
0.00758786
0.00234985
0.00712662
0.00211923
0.00671654
0.00183179
0.00634128
0.00150088
0.00598331
0.00113937
0.00562314
0.00076056
0.00523987
0.000376897
0.00483181
0.00448589
-6.52753e-06
0.000852895
0.0117204
-1.5924e-06
0.00147648
0.0107233
0.00190934
0.00988858
0.00218323
0.00918658
0.0023233
0.00859389
0.00235172
0.00808883
0.00228626
0.00765331
0.00214253
0.00727035
0.00193416
0.00692492
0.00167344
0.006602
0.00137238
0.00628437
0.00104248
0.00595304
0.000696054
0.0055863
0.000344794
0.00518307
0.00483686
-6.17141e-06
0.000775322
0.0109463
-1.26312e-06
0.00134201
0.0101566
0.00173596
0.00949463
0.00198525
0.00893729
0.00211346
0.00846567
0.00214038
0.0080619
0.00208211
0.00771158
0.00195263
0.00739982
0.00176424
0.0071133
0.001528
0.00683823
0.00125405
0.00655832
0.000953186
0.0062539
0.000636669
0.00590281
0.000315274
0.00550446
0.00515797
-5.8366e-06
0.000704788
0.010243
-1.4159e-06
0.00121991
0.00964148
0.00157828
0.00913626
0.00180518
0.00871039
0.00192245
0.0083484
0.0019475
0.00803685
0.00189558
0.0077635
0.00177911
0.00751628
0.00160875
0.00728365
0.00139443
0.00705255
0.00114566
0.00680709
0.000871644
0.00652791
0.000582437
0.00619202
0.000288493
0.0057984
0.00545174
-5.27761e-06
0.000640328
0.00960355
-9.12815e-07
0.00110876
0.00917305
0.00143449
0.00881053
0.00164108
0.00850381
0.0017482
0.00824127
0.0017719
0.00801315
0.0017256
0.0078098
0.00162043
0.00762146
0.00146642
0.00743766
0.00127248
0.00724648
0.00104632
0.00703324
0.000796797
0.00677743
0.000532761
0.00645605
0.000263875
0.00606728
0.0057207
-5.08876e-06
0.000581681
0.00902264
-7.70274e-07
0.0010076
0.00874713
0.00130382
0.00851432
0.00149191
0.00831571
0.00158947
0.00814372
0.00161135
0.00799126
0.00157027
0.00785088
0.00147576
0.00771597
0.00133659
0.00757683
0.00116043
0.00742264
0.000955921
0.00723775
0.00072949
0.00700386
0.000488683
0.00669685
0.00024261
0.00631335
0.0059667
-3.39694e-06
0.00052845
0.00849444
-2.42641e-07
0.000915497
0.00836008
0.00118492
0.0082449
0.00135586
0.00814477
0.00144492
0.00805467
0.00146555
0.00797063
0.00142867
0.00788777
0.00134375
0.0078009
0.00121749
0.00770309
0.00105841
0.00758172
0.000872459
0.0074237
0.000667342
0.00720897
0.000447384
0.00691681
0.000221774
0.00653896
0.00619236
-3.89056e-06
0.000479946
0.00801435
1.46177e-07
0.000832021
0.00800801
0.0010766
0.00800032
0.00123207
0.00798931
0.00131323
0.0079735
0.00133176
0.00795211
0.00129932
0.00792021
0.00122336
0.00787686
0.00110898
0.00781747
0.000963921
0.00772678
0.00079698
0.00759065
0.000615292
0.00739066
0.000413451
0.00711865
0.000205777
0.00674663
6.45346e-06
0.00639169
-0.000623211
0.00161412
-0.000996246
-0.00123141
0.0019801
-0.0013719
-0.00184593
0.00241877
-0.00180426
-0.00245077
0.00290985
-0.00230501
-0.00302356
0.00347538
-0.00290259
-0.00354072
0.00414096
-0.0036238
-0.00397574
0.00493173
-0.0044967
-0.00429827
0.00587423
-0.0055517
-0.00447339
0.00699719
-0.00682208
-0.00446233
0.00833211
-0.00834316
-0.0042224
0.00991544
-0.0101554
-0.0037097
0.011792
-0.0123047
-0.00287521
0.0140179
-0.0148523
-0.00166187
0.0166671
-0.0178804
0.0198287
-0.02149
-6.51124e-07
-0.000590094
0.002198
-0.00116843
0.00255843
-0.00174516
0.00299549
-0.00230653
0.00347122
-0.00283237
0.00400122
-0.00330087
0.00460945
-0.00368833
0.00531919
-0.00396864
0.00615454
-0.00411189
0.00714044
-0.00408591
0.00830613
-0.00385514
0.00968467
-0.00338055
0.0113174
-0.00261809
0.0132554
-0.00151446
0.0155635
0.018319
-4.73889e-06
-0.000547778
0.00273902
-0.00108724
0.0030979
-0.00162305
0.0035313
-0.00214132
0.00398949
-0.0026236
0.0044835
-0.00304996
0.00503581
-0.0033997
0.00566893
-0.00364887
0.00640371
-0.00377218
0.00726375
-0.00374119
0.00827515
-0.00352456
0.00946804
-0.00308747
0.0108803
-0.00239022
0.0125581
-0.00138386
0.0145571
0.0169449
-9.78176e-06
-0.000505199
0.00323724
-0.00100375
0.00359645
-0.00149798
0.00402553
-0.00197371
0.00446521
-0.00241378
0.00492357
-0.00280069
0.00542272
-0.00311508
0.00598331
-0.00333714
0.00662578
-0.00344418
0.00737079
-0.00341138
0.00824235
-0.00321144
0.00926811
-0.00281271
0.0104816
-0.00217798
0.0119234
-0.0012628
0.0136419
0.0156955
-1.3358e-05
-0.000464597
0.00369488
-0.000923433
0.00405529
-0.00137777
0.00447988
-0.00181344
0.00490088
-0.00221485
0.00532498
-0.00256534
0.00577321
-0.00284859
0.00626656
-0.0030467
0.00682389
-0.00314014
0.00746423
-0.00310711
0.00820932
-0.00292294
0.00908395
-0.00255944
0.0101181
-0.001982
0.011346
-0.00115046
0.0128104
0.0145598
-1.47374e-05
-0.000426543
0.00411464
-0.000847838
0.0044766
-0.00126451
0.00489655
-0.00166292
0.0052993
-0.00202824
0.00569031
-0.00234617
0.00609114
-0.00260165
0.00652204
-0.00277905
0.0070013
-0.00286125
0.00754643
-0.00282889
0.00817697
-0.00266006
0.00891511
-0.00232832
0.00978632
-0.00180329
0.010821
-0.00104713
0.0120542
0.0135278
-1.51816e-05
-0.000391141
0.00449926
-0.000777309
0.00486277
-0.00115882
0.00527807
-0.00152263
0.00566311
-0.00185515
0.00602284
-0.00214346
0.00637944
-0.00237418
0.00675276
-0.00253338
0.0071605
-0.00260613
0.00761918
-0.00257511
0.00814595
-0.00242015
0.00876016
-0.00211821
0.00948438
-0.00164051
0.0103433
-0.000953056
0.0113668
0.0125897
-1.49469e-05
-0.000358267
0.00485136
-0.000711867
0.00521637
-0.00106077
0.00562697
-0.00139271
0.00599505
-0.00169516
0.00632529
-0.00195656
0.00664085
-0.00216495
0.00696115
-0.00230814
0.00730369
-0.00237265
0.00768368
-0.00234302
0.00811632
-0.0022016
0.00861874
-0.00192629
0.00920907
-0.00149202
0.00990898
-0.000867037
0.0107418
0.011737
-1.43609e-05
-0.000327983
0.00517351
-0.000651521
0.00553991
-0.000970268
0.00594571
-0.00127294
0.00629773
-0.0015481
0.00660045
-0.0017849
0.00687764
-0.00197326
0.00714951
-0.00210224
0.00743267
-0.00215968
0.00774112
-0.00213171
0.00808835
-0.00200233
0.00848935
-0.0017518
0.00895854
-0.00135659
0.00951376
-0.000788679
0.0101739
0.0109619
-1.35758e-05
-0.00030012
0.00546835
-0.000596162
0.00583595
-0.00088748
0.00623703
-0.00116317
0.00657341
-0.00141301
0.0068503
-0.00162779
0.00709242
-0.00179809
0.00731981
-0.00191412
0.0075487
-0.00196534
0.00779233
-0.00193937
0.00806238
-0.00182106
0.00837104
-0.00159305
0.00873053
-0.00123354
0.00915425
-0.000717265
0.0096576
0.0102574
-1.27022e-05
-0.000274976
0.00573823
-0.000545723
0.00610669
-0.000811445
0.00650275
-0.00106239
0.00682435
-0.00128957
0.00707747
-0.00148393
0.00728677
-0.00163789
0.00747377
-0.0017427
0.00765351
-0.00178839
0.00783801
-0.00176389
0.00803789
-0.00165583
0.00826298
-0.00144824
0.00852294
-0.00112147
0.00882748
-0.000652014
0.00918814
0.00961703
-1.16734e-05
-0.000251841
0.00598667
-0.000500449
0.0063553
-0.000742613
0.00674491
-0.000970807
0.00705255
-0.00117647
0.00728314
-0.00135277
0.00746307
-0.00149171
0.00761271
-0.00158608
0.00774789
-0.00162676
0.00787869
-0.00160412
0.00801525
-0.00150568
0.00816454
-0.0013166
0.00833386
-0.00101941
0.00853029
-0.000592572
0.00876131
0.00903516
-1.06969e-05
-0.000233269
0.00621605
-0.000460743
0.00658277
-0.000678587
0.00696275
-0.00088585
0.00725981
-0.00107337
0.00747066
-0.00123218
0.00762187
-0.00135838
0.00773891
-0.00144358
0.00783308
-0.00147989
0.00791501
-0.00145852
0.00799388
-0.00136856
0.00807458
-0.00119674
0.00816204
-0.000926353
0.0082599
-0.000538546
0.0083735
0.00850625
-9.63922e-06
-0.000212544
0.00643504
-0.000426695
0.00679692
-0.00062078
0.00715684
-0.000810131
0.00744916
-0.000979326
0.00763986
-0.00112236
0.00776491
-0.00123553
0.00785207
-0.00131314
0.0079107
-0.00134579
0.00794765
-0.00132603
0.00797412
-0.00124405
0.00799261
-0.00108746
0.00800545
-0.00084195
0.00801439
-0.000489375
0.00802093
-8.74635e-06
0.00802562
0.000114638
0.00152985
0.000129459
0.00198646
0.000142491
0.00239565
0.000154948
0.00288304
0.000166899
0.00346643
0.000178269
0.00416532
0.000188751
0.00500285
0.000197775
0.00600664
0.000204544
0.00721
0.000208201
0.00865194
0.000208103
0.0103806
0.000204127
0.0124527
0.000196833
0.0149374
0.000187334
0.0179178
0.0214932
0.000176943
0.000139241
0.0013906
0.000134476
0.00199122
0.000133224
0.00239691
0.000136431
0.00287983
0.000141554
0.00346131
0.000147468
0.0041594
0.000153533
0.00499678
0.000159283
0.00600089
0.000164349
0.00720494
0.000168404
0.00864788
0.000171126
0.0103779
0.000172183
0.0124517
0.000171297
0.0149383
0.000168381
0.0179208
0.0214978
0.000163728
0.000145301
0.0012453
0.000154387
0.00198214
0.000151259
0.00240004
0.000149579
0.00288151
0.000149422
0.00346146
0.000150273
0.00415855
0.000151723
0.00499533
0.000153445
0.00599917
0.000155135
0.00720325
0.000156502
0.00864651
0.000157301
0.0103771
0.000157369
0.0124516
0.000156613
0.014939
0.000154969
0.0179224
0.0215004
0.000152412
6.93737e-05
0.00117593
0.000109108
0.0019424
0.000117393
0.00239175
0.000118897
0.00288001
0.000119959
0.0034604
0.000121722
0.00415679
0.000124258
0.0049928
0.000127418
0.00599601
0.000130967
0.0071997
0.000134594
0.00864288
0.000137926
0.0103738
0.000140585
0.012449
0.000142286
0.0149373
0.000142885
0.0179218
0.0215009
0.000142367
-2.2741e-05
0.00119867
4.76725e-05
0.00187199
7.49251e-05
0.0023645
8.44726e-05
0.00287046
8.93259e-05
0.00345555
9.34414e-05
0.00415268
9.79092e-05
0.00498833
0.000102915
0.005991
0.000108339
0.00719427
0.000113935
0.00863729
0.000119384
0.0103683
0.00012432
0.012444
0.000128384
0.0149333
0.00013129
0.0179189
0.0214993
0.000132859
-4.21033e-05
0.00124077
2.23598e-05
0.00180752
5.9429e-05
0.00232743
7.56066e-05
0.00285428
8.30679e-05
0.00344809
8.76338e-05
0.00414811
9.16121e-05
0.00498435
9.57973e-05
0.00598682
0.000100359
0.00718971
0.000105208
0.00863244
0.000110139
0.0103634
0.000114885
0.0124393
0.000119156
0.014929
0.000122661
0.0179154
0.0214969
0.000125137
-1.71275e-05
0.0012579
2.31399e-05
0.00176726
5.86636e-05
0.00229191
7.83935e-05
0.00283455
8.7878e-05
0.0034386
9.26425e-05
0.00414334
9.56574e-05
0.00498134
9.82923e-05
0.00598418
0.000101088
0.00718692
0.000104184
0.00862934
0.000107525
0.01036
0.000110955
0.0124358
0.000114265
0.0149257
0.000117215
0.0179124
0.0214946
0.000119534
3.79622e-06
0.0012541
2.87003e-05
0.00174235
5.84662e-05
0.00226214
7.90522e-05
0.00281397
9.02669e-05
0.00342739
9.59207e-05
0.00413769
9.88805e-05
0.00497838
0.000100812
0.00598225
0.00010255
0.00718518
0.000104443
0.00862745
0.000106576
0.0103579
0.000108894
0.0124335
0.000111263
0.0149233
0.000113494
0.0179102
0.0214927
0.000115319
1.32824e-05
0.00124082
3.23777e-05
0.00172326
5.70053e-05
0.00223751
7.68225e-05
0.00279415
8.91116e-05
0.0034151
9.587e-05
0.00413093
9.93954e-05
0.00497485
0.000101353
0.0059803
0.000102738
0.00718379
0.000104061
0.00862613
0.000105524
0.0103565
0.00010716
0.0124319
0.000108904
0.0149216
0.00011064
0.0179085
0.0214912
0.000112212
1.53492e-05
0.00122548
3.33776e-05
0.00170523
5.47892e-05
0.0022161
7.34986e-05
0.00277544
8.63366e-05
0.00340226
9.40493e-05
0.00412322
9.83279e-05
0.00497057
0.00010066
0.00597796
0.000102081
0.00718237
0.000103204
0.00862501
0.000104328
0.0103553
0.000105561
0.0124307
0.000106899
0.0149202
0.000108282
0.0179071
0.0214898
0.000109608
1.46367e-05
0.00121084
3.23051e-05
0.00168756
5.18432e-05
0.00219656
6.97484e-05
0.00275754
8.29298e-05
0.00338908
9.13829e-05
0.00411477
9.63843e-05
0.00496557
9.92094e-05
0.00597514
0.000100858
0.00718072
0.000101991
0.00862387
0.00010298
0.0103543
0.000103991
0.0124296
0.000105064
0.0149192
0.000106171
0.017906
0.0214888
0.000107244
1.32771e-05
0.00119756
3.01778e-05
0.00167066
4.8528e-05
0.00217821
6.59173e-05
0.00274015
7.93516e-05
0.00337565
8.83702e-05
0.00410575
9.39883e-05
0.00495996
9.7303e-05
0.00597182
9.92462e-05
0.00717878
0.000100494
0.00862263
0.000101464
0.0103534
0.00010237
0.0124287
0.000103289
0.0149183
0.000104219
0.0179051
0.0214879
0.000105122
1.20301e-05
0.00118554
2.7891e-05
0.0016548
4.53504e-05
0.00216075
6.23288e-05
0.00272317
7.59218e-05
0.00336205
8.53743e-05
0.0040963
9.15008e-05
0.00495383
9.52573e-05
0.00596807
9.75022e-05
0.00717654
9.89035e-05
0.00862123
9.99103e-05
0.0103524
0.000100776
0.0124279
0.000101614
0.0149174
0.000102452
0.0179042
0.021487
0.000103279
1.10705e-05
0.00117447
2.58831e-05
0.00163999
4.25346e-05
0.0021441
5.90647e-05
0.00270664
7.27288e-05
0.00334839
8.25274e-05
0.0040865
8.90733e-05
0.00494728
9.32162e-05
0.00596393
9.57463e-05
0.00717401
9.73121e-05
0.00861966
9.83788e-05
0.0103513
9.92324e-05
0.012427
0.000100016
0.0149166
0.00010078
0.0179035
0.0214863
0.000101523
1.03228e-05
0.00116414
2.41777e-05
0.00162613
4.00069e-05
0.00212827
5.59958e-05
0.00269065
6.97024e-05
0.00333468
7.98329e-05
0.00407637
8.67442e-05
0.00494037
9.12273e-05
0.00595944
9.40212e-05
0.00717121
9.5751e-05
0.00861793
9.68885e-05
0.0103502
9.77423e-05
0.0124262
9.848e-05
0.0149159
9.91663e-05
0.0179028
0.0214856
9.98028e-05
9.65094e-06
0.0011545
2.2619e-05
0.00161317
3.76057e-05
0.00211329
5.30133e-05
0.00267525
6.67611e-05
0.00332094
7.72392e-05
0.00406589
8.4498e-05
0.00493311
8.9294e-05
0.00595465
9.23366e-05
0.00716817
9.42313e-05
0.00861604
9.54508e-05
0.0103489
9.63217e-05
0.0124253
9.70344e-05
0.0149152
9.76742e-05
0.0179021
0.0214851
9.82605e-05
8.98965e-06
0.00114551
2.11183e-05
0.00160104
3.52933e-05
0.00209911
5.016e-05
0.00266038
6.39145e-05
0.00330718
7.4716e-05
0.00405509
8.23134e-05
0.00492552
8.74086e-05
0.00594955
9.06913e-05
0.00716489
9.27534e-05
0.00861397
9.40663e-05
0.0103476
9.49701e-05
0.0124244
9.56761e-05
0.0149145
9.62909e-05
0.0179015
0.0214845
9.68565e-05
8.36391e-06
0.00113714
1.97128e-05
0.00158969
3.31494e-05
0.00208568
4.75316e-05
0.002646
6.1227e-05
0.00329349
7.22842e-05
0.00404403
8.01983e-05
0.0049176
8.55797e-05
0.00594417
8.90944e-05
0.00716137
9.1323e-05
0.00861174
9.27351e-05
0.0103462
9.36805e-05
0.0124234
9.43865e-05
0.0149138
9.49758e-05
0.0179009
0.021484
9.55004e-05
7.81929e-06
0.00112932
1.84725e-05
0.00157904
3.12488e-05
0.0020729
4.51726e-05
0.00263207
5.87249e-05
0.00327993
6.99614e-05
0.0040328
7.81639e-05
0.0049094
8.38157e-05
0.00593852
8.75528e-05
0.00715763
8.9944e-05
0.00860935
9.14567e-05
0.0103447
9.2447e-05
0.0124225
9.3155e-05
0.0149131
9.37159e-05
0.0179004
0.0214835
9.41745e-05
7.37029e-06
0.00112195
1.74199e-05
0.00156899
2.95961e-05
0.00206072
4.30504e-05
0.00261862
5.63719e-05
0.00326661
6.77378e-05
0.00402143
7.6219e-05
0.00490092
8.21278e-05
0.00593261
8.60771e-05
0.00715368
8.86262e-05
0.0086068
9.02408e-05
0.0103431
9.12832e-05
0.0124214
9.2007e-05
0.0149123
9.25685e-05
0.0178998
0.021483
9.30538e-05
6.98647e-06
0.00111496
1.65049e-05
0.00155947
2.81134e-05
0.00204911
4.10742e-05
0.00260566
5.41035e-05
0.00325358
6.55748e-05
0.00400996
7.43405e-05
0.00489215
8.05031e-05
0.00592645
8.46584e-05
0.00714953
8.73623e-05
0.0086041
8.90793e-05
0.0103414
9.01772e-05
0.0124203
9.09202e-05
0.0149116
9.14754e-05
0.0178993
0.0214826
9.1928e-05
6.62679e-06
0.00110832
1.5657e-05
0.00155044
2.67208e-05
0.00203805
3.91853e-05
0.00259319
5.19151e-05
0.00324085
6.34661e-05
0.00399841
7.25088e-05
0.0048831
7.89254e-05
0.00592003
8.32847e-05
0.00714517
8.61412e-05
0.00860124
8.79609e-05
0.0103395
8.91157e-05
0.0124192
8.98784e-05
0.0149108
9.04279e-05
0.0178987
0.0214821
9.08713e-05
6.27251e-06
0.00110204
1.4838e-05
0.00154187
2.53835e-05
0.0020275
3.73771e-05
0.0025812
4.98275e-05
0.00322839
6.14217e-05
0.00398681
7.07102e-05
0.00487381
7.73772e-05
0.00591336
8.19405e-05
0.0071406
8.49505e-05
0.00859823
8.68747e-05
0.0103376
8.80891e-05
0.0124179
8.88734e-05
0.01491
8.94125e-05
0.0178982
0.0214817
8.98016e-05
5.93202e-06
0.00109609
1.40582e-05
0.00153374
2.4124e-05
0.00201743
3.56871e-05
0.00256963
4.78806e-05
0.0032162
5.94736e-05
0.00397522
6.89635e-05
0.00486432
7.58679e-05
0.00590646
8.06331e-05
0.00713584
8.37965e-05
0.00859507
8.58277e-05
0.0103356
8.71065e-05
0.0124167
8.79202e-05
0.0149092
8.84669e-05
0.0178976
0.0214813
8.88709e-05
5.62349e-06
0.00109046
1.33437e-05
0.00152602
2.29717e-05
0.0020078
3.41402e-05
0.00255846
4.60814e-05
0.00320425
5.76245e-05
0.00396367
6.7271e-05
0.00485468
7.43983e-05
0.00589933
7.93612e-05
0.00713087
8.26779e-05
0.00859175
8.48176e-05
0.0103334
8.61637e-05
0.0124153
8.70105e-05
0.0149084
8.75648e-05
0.0178971
0.021481
8.7955e-05
5.35766e-06
0.00108508
1.27153e-05
0.00151866
2.19473e-05
0.00199856
3.27458e-05
0.00254766
4.44236e-05
0.00319258
5.58647e-05
0.00395223
6.56362e-05
0.0048449
7.29788e-05
0.00589198
7.81333e-05
0.00712572
8.15997e-05
0.00858828
8.38461e-05
0.0103312
8.52588e-05
0.0124139
8.61376e-05
0.0149075
8.66969e-05
0.0178965
0.0214806
8.7071e-05
5.1341e-06
0.00107994
1.21708e-05
0.00151162
2.10396e-05
0.00198969
3.14786e-05
0.00253721
4.28713e-05