/*--------------------------------*- C++ -*----------------------------------*\
| =========                 |                                                 |
| \\      /  F ield         | OpenFOAM: The Open Source CFD Toolbox           |
|  \\    /   O peration     | Version:  2.3.0                                 |
|   \\  /    A nd           | Web:      www.OpenFOAM.org                      |
|    \\/     M anipulation  |                                                 |
\*---------------------------------------------------------------------------*/
FoamFile
{
    version     2.0;
    format      ascii;
    class       surfaceScalarField;
    location    "5000";
    object      phi;
}
// * * * * * * * * * * * * * * * * * * * * * * * * * * * * * * * * * * * * * //

dimensions      [0 3 -1 0 0 0 0];

internalField   nonuniform List<scalar> 
79042
(
-0.00656088
-0.0049273
0.00540523
0.00608295
-0.00699924
-0.00470984
0.0051482
-0.00739651
-0.00450047
0.00489773
-0.0077595
-0.00430053
0.00466352
-0.00808769
-0.00410654
0.00443474
-0.00837927
-0.00392479
0.00421636
-0.0086379
-0.00374659
0.00400523
-0.00886901
-0.00357508
0.00380619
-0.00907011
-0.00341217
0.00361327
-0.00924041
-0.00325441
0.00342471
-0.00938383
-0.00310345
0.00324687
-0.00950052
-0.00295618
0.00307287
-0.00959752
-0.00281297
0.00290997
-0.00966594
-0.00268031
0.00274873
-0.00971194
-0.00254885
0.00259485
-0.0097377
-0.00242189
0.00244764
-0.00974009
-0.00230108
0.00230348
-0.00972587
-0.00217997
0.00216574
-0.00968715
-0.00207073
0.00203202
-0.00963206
-0.00195634
0.00190124
-0.00955628
-0.00185165
0.00177587
-0.00946446
-0.00174668
0.00165486
-0.00935197
-0.0016475
0.00153501
-0.00922516
-0.00154778
0.00142097
-0.0090779
-0.00145381
0.00130654
-0.00891654
-0.00135873
0.00119737
-0.00873889
-0.00126734
0.00108969
-0.00854515
-0.00117939
0.000985654
-0.00834023
-0.00109008
0.000885159
-0.00812176
-0.00100284
0.000784369
-0.00789658
-0.000914944
0.000689772
-0.00766311
-0.000829862
0.000596391
-0.0074269
-0.000743381
0.00050717
-0.00719204
-0.00065546
0.000420604
-0.00696162
-0.000568529
0.000338112
-0.00674569
-0.000475704
0.000259767
-0.00654366
-0.00038687
0.000184842
-0.00636972
-0.00029185
0.000117912
-0.00622711
-0.000197441
5.48341e-05
-0.00612752
-9.90672e-05
-5.15323e-07
-0.00607009
-6.53833e-06
-5.0883e-05
-0.00606168
8.26932e-05
-9.10957e-05
0.00017249
-0.0061788
-5.5356e-05
-0.00592522
-0.00450078
0.0054987
-0.0063154
-0.00431965
-0.0066723
-0.00414356
-0.00699442
-0.00397842
-0.0072841
-0.00381686
-0.00754733
-0.00366156
-0.00778223
-0.00351169
-0.00798604
-0.00337127
-0.00816773
-0.00323048
-0.00832529
-0.00309685
-0.00846043
-0.00296831
-0.00857108
-0.00284553
-0.00865893
-0.00272512
-0.00872973
-0.00260951
-0.00878125
-0.00249733
-0.00881525
-0.00238788
-0.00883412
-0.00228222
-0.00883178
-0.0021823
-0.00882093
-0.00208158
-0.00879131
-0.00198596
-0.00875092
-0.00189204
-0.00869699
-0.00180061
-0.00863484
-0.00170965
-0.00856036
-0.00162226
-0.00847743
-0.00153674
-0.00838683
-0.00144932
-0.00828577
-0.0013684
-0.00818288
-0.00128228
-0.00807242
-0.00120054
-0.00795546
-0.0011198
-0.00783245
-0.00103796
-0.00770591
-0.000956401
-0.00757379
-0.000875504
-0.00743412
-0.000795129
-0.00728856
-0.000714091
-0.00713041
-0.000633851
-0.00696238
-0.000554899
-0.00677845
-0.000475776
-0.006575
-0.000400896
-0.006348
-0.000326067
-0.00609825
-0.000256287
-0.00581948
-0.000196075
-0.000140283
-0.00550671
-0.00534912
-0.0041201
0.00496843
-0.00569718
-0.0039716
-0.00601196
-0.00382878
-0.00630127
-0.00368911
-0.00656231
-0.00355582
-0.00679435
-0.00342952
-0.00700301
-0.00330303
-0.0071867
-0.00318758
-0.00734862
-0.00306856
-0.00748595
-0.00295952
-0.00760277
-0.00285148
-0.00770182
-0.00274648
-0.00778076
-0.00264618
-0.00784268
-0.00254759
-0.00788792
-0.00245209
-0.00791627
-0.00235954
-0.00792927
-0.00226922
-0.00792807
-0.00218351
-0.00791354
-0.00209611
-0.00788783
-0.00201167
-0.00784806
-0.00193181
-0.00779952
-0.00184915
-0.00773889
-0.00177028
-0.00766686
-0.00169429
-0.00758884
-0.00161476
-0.0074965
-0.00154167
-0.00740011
-0.00146479
-0.00729347
-0.00138892
-0.00717995
-0.00131406
-0.00705987
-0.00123988
-0.00693141
-0.00116642
-0.00679882
-0.00108899
-0.00665813
-0.0010162
-0.00651392
-0.00093934
-0.00636315
-0.000864856
-0.00620569
-0.000791315
-0.00604338
-0.000717214
-0.00587231
-0.000646843
-0.00569872
-0.000574486
-0.00551372
-0.000511066
-0.00531991
-0.000450096
-0.00511953
-0.000396454
-0.000351927
-0.00490789
-0.00482863
-0.00378118
0.00448971
-0.0051406
-0.00365963
-0.00542417
-0.0035452
-0.0056808
-0.00343249
-0.00591312
-0.00332349
-0.00612339
-0.00321925
-0.00630788
-0.00311854
-0.0064742
-0.00302126
-0.00661512
-0.00292765
-0.00673968
-0.00283497
-0.00684538
-0.00274578
-0.00693299
-0.00265886
-0.00700359
-0.00257559
-0.00705559
-0.00249559
-0.00709447
-0.0024132
-0.00711933
-0.00233468
-0.00713051
-0.00225804
-0.0071289
-0.00218512
-0.00711423
-0.00211077
-0.00708914
-0.00203676
-0.00705349
-0.00196747
-0.00700438
-0.00189826
-0.00694745
-0.00182721
-0.00688434
-0.0017574
-0.00680864
-0.00169046
-0.00672922
-0.00162109
-0.00663795
-0.00155606
-0.00654129
-0.00148559
-0.00643801
-0.00141733
-0.00632655
-0.00135135
-0.00621163
-0.00128134
-0.00608709
-0.00121352
-0.00595994
-0.00114335
-0.00582228
-0.00107701
-0.00568195
-0.00100519
-0.00553475
-0.000938514
-0.00538072
-0.000871244
-0.00522309
-0.000804473
-0.00505586
-0.000741716
-0.00488392
-0.000683
-0.00470647
-0.000627546
-0.0045259
-0.000577029
-0.000536631
-0.00434119
-0.00436184
-0.00347461
0.00405527
-0.00464124
-0.00338023
-0.00489609
-0.00329035
-0.00512786
-0.00320072
-0.00533582
-0.00311553
-0.00552234
-0.00303273
-0.00568663
-0.00295426
-0.00583414
-0.00287374
-0.00596238
-0.00279942
-0.00607405
-0.0027233
-0.00616657
-0.00265326
-0.00624456
-0.00258087
-0.00630668
-0.00251347
-0.00635634
-0.00244593
-0.0063887
-0.00238084
-0.00640911
-0.00231426
-0.0064179
-0.00224926
-0.00641536
-0.00218766
-0.00640046
-0.00212566
-0.00637527
-0.00206195
-0.00634134
-0.0020014
-0.00629759
-0.00194201
-0.0062429
-0.0018819
-0.00618058
-0.00181972
-0.00611084
-0.0017602
-0.00603356
-0.00169836
-0.00595102
-0.0016386
-0.00585878
-0.00157783
-0.0057615
-0.00151461
-0.00565912
-0.00145373
-0.00554908
-0.00139137
-0.00543585
-0.00132676
-0.00531495
-0.00126425
-0.00519246
-0.0011995
-0.00506038
-0.00113726
-0.0049271
-0.0010718
-0.00478732
-0.00101102
-0.0046429
-0.000948894
-0.00449521
-0.000889406
-0.00434357
-0.000834637
-0.00418839
-0.000782728
-0.00402907
-0.000736348
-0.00069595
-0.00386975
-0.0039421
-0.00319911
0.0036666
-0.00419141
-0.00313092
-0.00442097
-0.0030608
-0.00462698
-0.0029947
-0.00481384
-0.00292867
-0.00498071
-0.00286586
-0.00513208
-0.00280289
-0.00526402
-0.0027418
-0.00537973
-0.00268371
-0.00547856
-0.00262447
-0.00556499
-0.00256683
-0.00563254
-0.00251332
-0.00568961
-0.00245641
-0.00573062
-0.00240492
-0.00576163
-0.00234983
-0.00577967
-0.00229623
-0.00578622
-0.00224271
-0.00578287
-0.00219101
-0.00576862
-0.00213992
-0.00574427
-0.00208631
-0.00571181
-0.00203385
-0.0056714
-0.00198241
-0.00562331
-0.00193
-0.00556592
-0.0018771
-0.00550162
-0.0018245
-0.00543011
-0.00176987
-0.00535204
-0.00171668
-0.00527021
-0.00165965
-0.00518039
-0.00160443
-0.00508453
-0.00154959
-0.00498536
-0.00149054
-0.00488014
-0.00143198
-0.00476907
-0.00137531
-0.00465508
-0.00131349
-0.00453685
-0.00125549
-0.00441266
-0.00119599
-0.00428637
-0.00113731
-0.00415612
-0.00107914
-0.0040211
-0.00102442
-0.00388427
-0.000971474
-0.00374338
-0.000923618
-0.00360194
-0.000877784
-0.000839784
-0.00345811
-0.00356211
-0.00295265
0.00331565
-0.00378758
-0.00290545
-0.00399393
-0.00285445
-0.00418124
-0.00280739
-0.00434882
-0.0027611
-0.00449998
-0.0027147
-0.00463578
-0.00266708
-0.00475335
-0.00262423
-0.00485842
-0.00257864
-0.00494595
-0.00253694
-0.005022
-0.00249078
-0.00508578
-0.00244953
-0.00513355
-0.00240864
-0.00517514
-0.00236333
-0.0052008
-0.00232417
-0.00521869
-0.00227834
-0.00522272
-0.00223867
-0.00521938
-0.00219434
-0.00520591
-0.00215339
-0.0051844
-0.00210781
-0.00515367
-0.00206459
-0.00511621
-0.00201987
-0.00506989
-0.00197631
-0.00501794
-0.00192905
-0.0049592
-0.00188325
-0.0048949
-0.00183417
-0.00482245
-0.00178913
-0.00474659
-0.00173552
-0.00466285
-0.00168816
-0.0045763
-0.00163614
-0.00448511
-0.00158174
-0.00438669
-0.0015304
-0.00428825
-0.00147375
-0.00418295
-0.00141879
-0.004075
-0.00136344
-0.00396318
-0.00130782
-0.0038481
-0.0012524
-0.00372947
-0.00119776
-0.00360816
-0.00114574
-0.00348424
-0.00109539
-0.00335819
-0.00104967
-0.00322797
-0.00100801
-0.000968421
-0.00309933
-0.00322111
-0.00273002
0.00299848
-0.00342546
-0.0027011
-0.00360806
-0.00267185
-0.00377733
-0.00263812
-0.00392935
-0.00260907
-0.00406634
-0.00257771
-0.00418832
-0.0025451
-0.0042954
-0.00251715
-0.00438771
-0.00248633
-0.00447004
-0.00245461
-0.00453629
-0.00242454
-0.00459455
-0.00239127
-0.0046406
-0.00236258
-0.00467472
-0.00232921
-0.00469948
-0.0022994
-0.00471252
-0.0022653
-0.00471876
-0.00223244
-0.00471564
-0.00219747
-0.0047036
-0.00216543
-0.00468312
-0.0021283
-0.00465566
-0.00209204
-0.00462019
-0.00205534
-0.00458059
-0.00201591
-0.00453122
-0.00197842
-0.00447774
-0.00193673
-0.00441612
-0.00189579
-0.00435248
-0.00185276
-0.00428116
-0.00180684
-0.00420696
-0.00176236
-0.00412772
-0.00171538
-0.00404328
-0.00166618
-0.00395737
-0.00161631
-0.00386284
-0.00156828
-0.0037686
-0.00151303
-0.00366921
-0.00146283
-0.00356613
-0.0014109
-0.00346246
-0.00135606
-0.00335501
-0.00130521
-0.00324432
-0.00125643
-0.00313171
-0.001208
-0.00301726
-0.00116413
-0.00290211
-0.00112316
-0.00108814
-0.00278239
-0.00291448
0.00271455
-0.00253008
-0.00309735
-0.00251823
-0.00326617
-0.00250303
-0.00341695
-0.00248733
-0.00355693
-0.0024691
-0.00367917
-0.00245547
-0.0037868
-0.00243748
-0.00388368
-0.00242027
-0.00397009
-0.00239992
-0.00404104
-0.00238366
-0.00410347
-0.00236212
-0.00415312
-0.00234162
-0.0041974
-0.00231831
-0.0042274
-0.00229921
-0.00424973
-0.00227708
-0.00426497
-0.00225006
-0.00427005
-0.00222735
-0.00426528
-0.00220223
-0.00425375
-0.00217696
-0.00423558
-0.00214647
-0.00421111
-0.00211651
-0.00418
-0.00208646
-0.00414085
-0.00205506
-0.00409739
-0.00202188
-0.0040482
-0.00198591
-0.00399335
-0.00195065
-0.0039341
-0.00191202
-0.00386909
-0.00187184
-0.00380047
-0.00183098
-0.00372745
-0.0017884
-0.00365173
-0.0017419
-0.00357104
-0.001697
-0.0034872
-0.00165212
-0.00339797
-0.00160225
-0.00330967
-0.00155113
-0.00321713
-0.00150343
-0.00311898
-0.00145422
-0.00302101
-0.00140318
-0.00292273
-0.0013547
-0.00282129
-0.00130944
-0.00271841
-0.001267
-0.00261113
-0.00123043
-0.00250425
-0.00119502
-0.00560898
0.000228181
-0.000798
-0.00522396
0.000214301
-0.000599321
-0.00491551
0.000185607
-0.000494061
-0.00465005
0.000151837
-0.000417294
-0.00441273
0.000114024
-0.000351347
-0.00419626
7.44543e-05
-0.000290923
-0.00399531
3.26966e-05
-0.000233651
-0.00380545
-1.07887e-05
-0.00017907
-0.00362471
-5.45213e-05
-0.000126217
-0.00345145
-9.95581e-05
-7.37035e-05
-0.00328479
-0.000145608
-2.10529e-05
-0.00312409
-0.000191927
3.12249e-05
-0.00296821
-0.000239358
8.34794e-05
-0.00281825
-0.000287397
0.000137442
-0.00267264
-0.000336929
0.000191314
-0.0025322
-0.000387206
0.000246772
-0.00239687
-0.000439287
0.00030395
-0.00226624
-0.000492478
0.000361848
-0.00214139
-0.00054701
0.000422164
-0.00202121
-0.000604471
0.000484292
-0.0019076
-0.000663463
0.000549847
-0.00180038
-0.000723672
0.000616452
-0.00169953
-0.000787181
0.000686333
-0.00160632
-0.000852845
0.000759639
-0.00152137
-0.000920408
0.000835452
-0.00144498
-0.000991638
0.000915251
-0.00137789
-0.00106512
0.000998027
-0.00132191
-0.00114166
0.00108569
-0.00127611
-0.00122232
0.00117651
-0.00124282
-0.00130543
0.00127215
-0.00122247
-0.00139325
0.0013729
-0.00121547
-0.00148424
0.00147723
-0.00122397
-0.0015795
0.001588
-0.00124789
-0.00167953
0.00170345
-0.00128948
-0.00178313
0.00182473
-0.00134941
-0.00189258
0.0019525
-0.00142815
-0.0020066
0.00208534
-0.00152846
-0.00212585
0.00222615
-0.0016505
-0.00225066
0.0023727
-0.0017961
-0.00238113
0.00252673
-0.00196683
-0.00251767
0.00268839
-0.00216449
-0.00266045
0.00285811
-0.00280994
0.00303507
-0.00238962
-0.00517391
-0.000104616
-0.0048705
-8.91093e-05
-0.00459689
-8.80071e-05
-0.00434865
-9.63999e-05
-0.00412153
-0.000113095
-0.0039109
-0.000136172
-0.00371414
-0.000164071
-0.00353006
-0.00019487
-0.00335468
-0.000229902
-0.00318962
-0.00026461
-0.00303068
-0.000304554
-0.00287888
-0.000343719
-0.0027335
-0.000384745
-0.00259173
-0.000429161
-0.00245671
-0.000471946
-0.00232518
-0.000518745
-0.00219961
-0.00056485
-0.00207866
-0.000613433
-0.0019619
-0.000663769
-0.0018526
-0.000713769
-0.00174892
-0.000767141
-0.00165076
-0.000821837
-0.00155988
-0.000878056
-0.0014763
-0.000936426
-0.00140055
-0.000996162
-0.0013333
-0.00105889
-0.00127467
-0.00112375
-0.00122619
-0.00119014
-0.00118771
-0.0012608
-0.00116038
-0.00133276
-0.00114541
-0.00140822
-0.00114318
-0.00148647
-0.00115409
-0.00156859
-0.00117981
-0.0016538
-0.00122069
-0.00174226
-0.0012784
-0.00183487
-0.00135362
-0.00193137
-0.00144689
-0.00203258
-0.00156048
-0.00213707
-0.00169488
-0.00224673
-0.00185102
-0.00236152
-0.00203073
-0.00248074
-0.00260526
-0.00223541
-0.0046904
-0.000322105
-0.00447292
-0.000306583
-0.0042619
-0.000299029
-0.0040558
-0.000302502
-0.00385832
-0.000310573
-0.00366964
-0.000324853
-0.00348939
-0.000344327
-0.00331607
-0.000368186
-0.00315122
-0.000394749
-0.00299054
-0.000425288
-0.00283856
-0.000456536
-0.00269024
-0.000492045
-0.00254833
-0.000526651
-0.00241242
-0.000565069
-0.00228113
-0.000603238
-0.00215589
-0.000643989
-0.0020353
-0.000685439
-0.00192038
-0.000728354
-0.00181201
-0.000772138
-0.00170833
-0.00081745
-0.00161103
-0.000864441
-0.00152058
-0.000912285
-0.00143732
-0.00096132
-0.00136098
-0.00101276
-0.00129169
-0.00106545
-0.00123169
-0.0011189
-0.00117985
-0.00117559
-0.00113654
-0.00123345
-0.00110389
-0.00129344
-0.00108128
-0.00135537
-0.00106945
-0.00142005
-0.00106968
-0.00148624
-0.00108245
-0.00155583
-0.00110873
-0.00162752
-0.00114819
-0.0017028
-0.00120309
-0.00177997
-0.00127354
-0.00186092
-0.0013612
-0.00194492
-0.00146589
-0.00203238
-0.00158951
-0.00212311
-0.00173328
-0.00221775
-0.00189775
-0.00231627
-0.00241908
-0.00208393
-0.00415599
-0.000507305
-0.0039725
-0.000490079
-0.00379259
-0.000478936
-0.00361746
-0.000477637
-0.00344782
-0.000480208
-0.00328381
-0.000488862
-0.00312458
-0.000503559
-0.00297122
-0.000521544
-0.00282367
-0.000542298
-0.00268076
-0.000568197
-0.00254344
-0.000593858
-0.00241172
-0.000623771
-0.00228356
-0.000654807
-0.00216103
-0.000687594
-0.00204309
-0.00072118
-0.00193079
-0.000756288
-0.00182261
-0.00079362
-0.00172028
-0.00083069
-0.0016233
-0.000869113
-0.00153175
-0.000908996
-0.00144551
-0.000950688
-0.00136614
-0.00099165
-0.00129202
-0.00103544
-0.00122562
-0.00107916
-0.00116597
-0.00112509
-0.00111315
-0.00117172
-0.00106931
-0.00121943
-0.0010341
-0.00126866
-0.00100767
-0.00131987
-0.000990256
-0.00137279
-0.000983589
-0.00142672
-0.000986745
-0.00148308
-0.00100174
-0.00154084
-0.00102816
-0.0016011
-0.0010681
-0.00166286
-0.00112088
-0.00172719
-0.00118791
-0.0017939
-0.00127002
-0.00186281
-0.00136828
-0.00193412
-0.00148304
-0.00200835
-0.00161545
-0.00208535
-0.00176669
-0.00216503
-0.00224758
-0.00193819
-0.00370903
-0.000668029
-0.00355112
-0.000647993
-0.00339407
-0.000635984
-0.0032415
-0.000630202
-0.00309246
-0.000629248
-0.00294646
-0.000634862
-0.00280575
-0.000644274
-0.00266845
-0.000658842
-0.00253475
-0.000676001
-0.00240768
-0.000695261
-0.0022825
-0.000719042
-0.00216307
-0.0007432
-0.00204848
-0.000769392
-0.00193787
-0.000798209
-0.00183148
-0.000827569
-0.00173001
-0.00085776
-0.00163308
-0.000890543
-0.00154139
-0.000922387
-0.00145376
-0.000956745
-0.00137131
-0.000991446
-0.00129569
-0.00102631
-0.00122428
-0.00106305
-0.00115906
-0.00110066
-0.00110019
-0.00113803
-0.00104833
-0.00117696
-0.00100366
-0.00121639
-0.000966174
-0.00125691
-0.000936265
-0.00129857
-0.000914503
-0.00134163
-0.00090239
-0.0013849
-0.000898349
-0.00143076
-0.000905105
-0.00147633
-0.000921281
-0.00152466
-0.000948861
-0.00157352
-0.000987485
-0.00162423
-0.00103816
-0.00167652
-0.00110145
-0.00173061
-0.00117867
-0.00178559
-0.00127022
-0.00184257
-0.00137665
-0.00190192
-0.00149866
-0.00196333
-0.00163735
-0.00202634
-0.00209154
-0.00179338
-0.00331616
-0.000809971
-0.0031745
-0.000789655
-0.00303501
-0.000775474
-0.00289921
-0.000766001
-0.00276529
-0.000763169
-0.00263558
-0.000764578
-0.00250828
-0.000771569
-0.00238578
-0.000781346
-0.00226704
-0.000794738
-0.0021505
-0.000811802
-0.00203996
-0.000829583
-0.00193276
-0.000850397
-0.00182899
-0.000873169
-0.00172958
-0.000897619
-0.00163454
-0.000922611
-0.00154251
-0.000949784
-0.00145671
-0.000976342
-0.00137351
-0.00100558
-0.00129614
-0.00103412
-0.00122341
-0.00106418
-0.0011548
-0.00109493
-0.0010921
-0.00112575
-0.00103558
-0.00115718
-0.000983601
-0.00119001
-0.000938579
-0.00122198
-0.000900224
-0.00125475
-0.000868268
-0.00128887
-0.000843815
-0.00132302
-0.000827032
-0.00135842
-0.000817971
-0.00139396
-0.00081778
-0.00143095
-0.000825671
-0.00146844
-0.00084339
-0.00150695
-0.000870789
-0.00154612
-0.000908281
-0.00158674
-0.000956803
-0.001628
-0.00101761
-0.0016698
-0.0010899
-0.0017133
-0.00117513
-0.00175734
-0.00127391
-0.00180314
-0.00138703
-0.00185022
-0.00151462
-0.00189875
-0.0019488
-0.00165736
-0.00297032
-0.000938978
-0.00284424
-0.000915739
-0.00271994
-0.000899772
-0.00259658
-0.000889362
-0.00247703
-0.000882714
-0.00236003
-0.000881582
-0.00224599
-0.000885611
-0.00213492
-0.000892412
-0.00202746
-0.000902198
-0.0019235
-0.000915762
-0.00182321
-0.000929874
-0.00172585
-0.000947758
-0.0016332
-0.00096582
-0.00154414
-0.00098668
-0.00145847
-0.00100828
-0.00137693
-0.00103133
-0.00129868
-0.00105459
-0.00122495
-0.00107932
-0.00115514
-0.00110393
-0.00108945
-0.00112987
-0.00102964
-0.00115474
-0.0009738
-0.00118158
-0.000923483
-0.0012075
-0.000878693
-0.0012348
-0.000839551
-0.00126112
-0.000806502
-0.00128779
-0.000779316
-0.00131605
-0.00075911
-0.00134323
-0.000745957
-0.00137157
-0.000739236
-0.00140069
-0.000741201
-0.00142898
-0.00075076
-0.00145888
-0.00076908
-0.00148863
-0.000796245
-0.00151895
-0.000832522
-0.00155046
-0.000879072
-0.00158145
-0.000936206
-0.00161266
-0.00100467
-0.00164484
-0.00108396
-0.00167805
-0.00117544
-0.00171166
-0.00127948
-0.00174618
-0.00139724
-0.00178099
-0.00181734
-0.00152871
-0.00266632
-0.00105505
-0.00255209
-0.00102997
-0.00243954
-0.00101232
-0.00232969
-0.000999215
-0.00222154
-0.000990861
-0.00211534
-0.000987784
-0.00201235
-0.000988595
-0.00191227
-0.000992493
-0.00181537
-0.000999107
-0.00172265
-0.00100848
-0.00163116
-0.00102136
-0.00154408
-0.00103483
-0.0014603
-0.0010496
-0.00137895
-0.00106803
-0.00130222
-0.00108501
-0.00122913
-0.00110441
-0.00115831
-0.00112541
-0.00109213
-0.00114549
-0.00103008
-0.00116598
-0.000972066
-0.00118788
-0.000918051
-0.00120875
-0.000868776
-0.00123086
-0.000823899
-0.00125238
-0.000784619
-0.00127408
-0.000750652
-0.00129509
-0.000722142
-0.0013163
-0.000699645
-0.00133855
-0.000682618
-0.00136025
-0.000671677
-0.00138251
-0.000668021
-0.00140434
-0.000671343
-0.00142566
-0.000682024
-0.0014482
-0.000699981
-0.00147067
-0.00072607
-0.00149287
-0.000761451
-0.00151508
-0.000805911
-0.00153699
-0.000859363
-0.00155921
-0.000923216
-0.00158098
-0.000997296
-0.00160397
-0.00108174
-0.00162722
-0.00117831
-0.00164961
-0.00128639
-0.00167291
-0.00169648
-0.00140725
-0.00239803
-0.00116127
-0.00229409
-0.00113392
-0.00219164
-0.00111476
-0.00209043
-0.00110043
-0.00199543
-0.00108586
-0.00190083
-0.00108238
-0.00180699
-0.00108244
-0.00171521
-0.00108427
-0.00162738
-0.00108694
-0.00154328
-0.00109257
-0.00146149
-0.00110316
-0.00138222
-0.00111411
-0.00130595
-0.00112586
-0.0012328
-0.00114118
-0.00116418
-0.00115363
-0.00109724
-0.00117135
-0.00103332
-0.00118933
-0.000973987
-0.00120483
-0.000917424
-0.00122254
-0.000865812
-0.0012395
-0.000817157
-0.00125741
-0.000773207
-0.00127481
-0.000733862
-0.00129172
-0.000699965
-0.00130798
-0.000670569
-0.00132449
-0.000644855
-0.00134202
-0.000625629
-0.00135778
-0.000611897
-0.00137399
-0.00060322
-0.00139119
-0.000602419
-0.00140514
-0.00060692
-0.00142116
-0.000617576
-0.00143754
-0.000635886
-0.00145236
-0.00066184
-0.00146691
-0.0006943
-0.00148262
-0.000736898
-0.00149439
-0.000787964
-0.00150814
-0.000847102
-0.00152185
-0.000915275
-0.0015358
-0.000994345
-0.00154815
-0.001083
-0.00156095
-0.00118249
-0.00157342
-0.00129299
-0.00158598
0.00123319
-0.000826808
0.000913999
-0.00132038
0.00116
-0.000748102
0.000821285
0.00109981
-0.000672597
0.000732794
0.00105119
-0.000600548
0.000649167
0.00101341
-0.000532474
0.000570253
0.000985203
-0.000468011
0.000496218
0.000965672
-0.000407482
0.000427013
0.00095411
-0.000350463
0.000362025
0.000948857
-0.000296649
0.000301902
0.000949012
-0.00024595
0.000245795
0.00095379
-0.000198976
0.000194199
0.00096263
-0.000154902
0.000146062
0.000974724
-0.000113799
0.000101705
0.000988881
-7.52293e-05
6.1072e-05
0.00100426
-3.93458e-05
2.39653e-05
0.00102089
-6.16313e-06
-1.0464e-05
0.00103748
2.47968e-05
-4.13905e-05
0.00105346
5.36978e-05
-6.96779e-05
0.00106885
8.0008e-05
-9.53954e-05
0.00108259
0.000104938
-0.000118682
0.00109423
0.000127523
-0.00013916
0.00110352
0.000148756
-0.000158046
0.00111034
0.000167917
-0.000174737
0.00111408
0.000185911
-0.00018965
0.00111401
0.000202398
-0.000202333
0.00111053
0.00021759
-0.00021411
0.00110317
0.000231538
-0.000224177
0.00109158
0.000244347
-0.00023275
0.00107535
0.000256304
-0.000240081
0.00105466
0.000267021
-0.000246326
0.0010293
0.000277008
-0.000251648
0.000998646
0.000286356
-0.000255705
0.000963065
0.000294713
-0.000259132
0.000921316
0.000303341
-0.000261592
0.00087427
0.00031093
-0.000263885
0.000820435
0.000318981
-0.000265146
0.000758165
0.000327746
-0.000265477
0.000685778
0.000338724
-0.000266337
0.000597776
0.00035435
-0.000266347
0.000485533
0.000380703
-0.000268461
0.000328199
0.000431576
-0.000274241
7.86362e-05
0.000543736
-0.000294173
0.000820641
-0.000395281
-0.000346722
0.00112121
-0.00075114
-0.00119688
0.00105627
-0.000683155
0.00100225
-0.000618577
0.000958361
-0.000556664
0.000924166
-0.000498279
0.000898396
-0.000442242
0.000879937
-0.000389023
0.000868326
-0.000338852
0.000862822
-0.000291144
0.000862417
-0.000245545
0.000866264
-0.000202823
0.000873631
-0.000162269
0.000884228
-0.000124396
0.000897014
-8.80151e-05
0.000911507
-5.3839e-05
0.000926999
-2.16555e-05
0.000942841
8.95499e-06
0.000959124
3.74146e-05
0.000974695
6.44369e-05
0.000989278
9.03548e-05
0.00100244
0.000114364
0.00101399
0.000137203
0.00102297
0.000158937
0.00102944
0.000179442
0.00103288
0.000198963
0.00103307
0.000217397
0.00102935
0.000235258
0.00102194
0.00025176
0.00101002
0.000268215
0.000993325
0.000283721
0.000971363
0.00029897
0.000943743
0.000313975
0.000909592
0.000328864
0.00086867
0.000344264
0.000819007
0.000360593
0.000759499
0.000378489
0.000686761
0.000400485
0.000596914
0.000428571
0.000482398
0.000468866
0.000332288
0.000530813
0.000128431
0.000635434
-0.000151701
0.000823869
0.0011679
-0.000498962
0.00101764
-0.000682341
-0.00108644
0.000959583
-0.000625098
0.000911471
-0.000570464
0.000872067
-0.00051726
0.000841293
-0.000467504
0.000818124
-0.000419073
0.000801373
-0.000372272
0.000790954
-0.000328432
0.000785165
-0.000285356
0.000784722
-0.000245102
0.000787692
-0.000205792
0.00079458
-0.000169157
0.000803366
-0.000133182
0.000814799
-9.94488e-05
0.000828071
-6.7111e-05
0.000842236
-3.58204e-05
0.000857255
-6.06353e-06
0.000872204
2.24647e-05
0.000886447
5.01943e-05
0.000900496
7.63063e-05
0.000913264
0.000101595
0.00092433
0.000126137
0.000933302
0.000149965
0.000940063
0.000172681
0.000944192
0.000194834
0.000945141
0.000216448
0.000942727
0.000237672
0.00093606
0.000258427
0.000925016
0.000279259
0.000909159
0.000299579
0.000887684
0.000320444
0.000859994
0.000341665
0.000824709
0.000364149
0.000781462
0.00038751
0.000728141
0.000413914
0.00066211
0.000444519
0.000581128
0.000481467
0.000479937
0.000529762
0.000352826
0.000595977
0.000190578
0.000693061
-1.58943e-05
0.000841906
-0.000269548
0.00107752
0.00144474
-0.000546386
0.000920736
-0.000621274
-0.000981803
0.000868927
-0.000573289
0.000825726
-0.000527264
0.000790909
-0.000482443
0.000762416
-0.000439012
0.000740596
-0.000397253
0.000725173
-0.000356849
0.000714774
-0.000318033
0.000709387
-0.000279969
0.000707703
-0.000243419
0.000710297
-0.000208386
0.000715117
-0.000173977
0.000722967
-0.000141032
0.000732772
-0.000109254
0.000743852
-7.81904e-05
0.000756172
-4.81412e-05
0.000769427
-1.93178e-05
0.000782536
9.35544e-06
0.000795974
3.67562e-05
0.000808647
6.36333e-05
0.000819983
9.02584e-05
0.00083031
0.00011581
0.000838992
0.000141283
0.000845385
0.000166289
0.000849529
0.00019069
0.000850582
0.000215395
0.00084831
0.000239944
0.000842103
0.000264634
0.00083174
0.000289621
0.000816441
0.000314878
0.000795305
0.00034158
0.000767858
0.000369112
0.000732989
0.000399018
0.000688595
0.000431904
0.000633704
0.000468805
0.000566378
0.000511846
0.00048339
0.000564455
0.000380988
0.000632164
0.000254785
0.00072218
9.80025e-05
0.000849844
-9.17954e-05
0.0010317
-0.000315599
0.00130133
0.00168624
-0.000557098
0.000832552
-0.000566915
-0.000886911
0.000786321
-0.000527058
0.000746926
-0.000487869
0.000714664
-0.000450181
0.000689229
-0.000413577
0.00066933
-0.000377353
0.000654755
-0.000342274
0.000644509
-0.000307787
0.000638701
-0.000274161
0.000637138
-0.000241856
0.000637831
-0.000209079
0.000642123
-0.000178269
0.000648185
-0.000147094
0.000656448
-0.000117517
0.000665866
-8.76077e-05
0.000676672
-5.89474e-05
0.000687915
-3.05608e-05
0.000700063
-2.79232e-06
0.00071164
2.51783e-05
0.000722677
5.25971e-05
0.000733119
7.98165e-05
0.000742205
0.000106723
0.000750002
0.000133486
0.00075562
0.000160671
0.000759001
0.000187309
0.000759994
0.000214402
0.000757821
0.000242116
0.000752185
0.00027027
0.000742092
0.000299715
0.000727295
0.000329674
0.000707082
0.000361793
0.000680196
0.000395999
0.0006463
0.000432913
0.000603408
0.000474796
0.000550335
0.000521878
0.000485249
0.000576932
0.000404478
0.000645226
0.000306509
0.000730132
0.000186244
0.000842444
4.15906e-05
0.000994498
-0.000131621
0.00120491
-0.000330313
0.00150002
0.00190102
-0.000545097
0.000751733
-0.00051808
-0.000800568
0.000709756
-0.00048508
0.000674208
-0.000452321
0.000645316
-0.000421289
0.000621779
-0.00039004
0.000603266
-0.000358841
0.000589619
-0.000328627
0.000579954
-0.000298122
0.000574163
-0.000268371
0.000571345
-0.000239038
0.000572137
-0.000209871
0.000574909
-0.000181041
0.000580021
-0.000152206
0.000586433
-0.000123929
0.000594624
-9.57989e-05
0.000603906
-6.8229e-05
0.000613719
-4.03738e-05
0.000623961
-1.30346e-05
0.000634238
1.4901e-05
0.000644111
4.27244e-05
0.000653363
7.0565e-05
0.000661502
9.85835e-05
0.000668205
0.000126783
0.000673356
0.000155519
0.000676407
0.000184258
0.000676764
0.000214045
0.000674768
0.000244112
0.000668923
0.000276116
0.000659689
0.000308948
0.00064587
0.000343493
0.00062688
0.000380783
0.000602076
0.000420803
0.000569879
0.00046511
0.000529736
0.000514939
0.000479669
0.000571945
0.000417311
0.00063929
0.000342146
0.000720391
0.000249948
0.000822331
0.000137781
0.000954611
4.91847e-06
0.00112736
-0.000152137
0.00136197
-0.000328903
0.00167678
0.0020969
-0.000524777
0.000677846
-0.000474026
-0.0007219
0.000640016
-0.00044725
0.000608176
-0.000420481
0.000581712
-0.000394825
0.000560092
-0.00036842
0.000543306
-0.000342055
0.000529937
-0.000315258
0.000521016
-0.000289201
0.000515413
-0.000262767
0.000512366
-0.000235991
0.000512526
-0.000210032
0.000514592
-0.000183107
0.000518587
-0.0001562
0.000523935
-0.000129277
0.000531035
-0.000102898
0.000538408
-7.5602e-05
0.000546968
-4.89343e-05
0.00055559
-2.16568e-05
0.00056463
5.86167e-06
0.000573573
3.37808e-05
0.000581553
6.25853e-05
0.00058894
9.11962e-05
0.000595026
0.000120698
0.000599282
0.000151262
0.000601472
0.000182069
0.00060198
0.000213536
0.000599681
0.000246411
0.000594664
0.000281132
0.000585812
0.0003178
0.000572534
0.000356772
0.000555324
0.000397993
0.000532295
0.000443832
0.000502981
0.000494424
0.000465614
0.000552305
0.000419361
0.000618198
0.000362462
0.000696189
0.000292355
0.000790498
0.000207123
0.000907562
0.000104428
0.00105731
-1.95163e-05
0.0012513
-0.000163019
0.00150547
-0.000323834
0.0018376
0.00227285
-0.000499789
0.000611166
-0.0004344
-0.000650792
0.000577199
-0.000413283
0.000548156
-0.000391438
0.000524263
-0.000370932
0.000504586
-0.000348742
0.00048877
-0.000326239
0.000476583
-0.000303071
0.000467767
-0.000280385
0.000462061
-0.000257061
0.000459229
-0.000233159
0.000458511
-0.000209314
0.000460165
-0.000184761
0.00046342
-0.000159456
0.000468283
-0.00013414
0.000473723
-0.000108338
0.000480453
-8.23328e-05
0.000487581
-5.60618e-05
0.000495542
-2.96174e-05
0.000503543
-2.13933e-06
0.000510944
2.63792e-05
0.000518408
5.51212e-05
0.000524559
8.50456e-05
0.000529958
0.000115298
0.000534125
0.000147095
0.000536115
0.000180079
0.000536028
0.000213624
0.000534083
0.000248355
0.000529082
0.000286134
0.000520809
0.000326073
0.000508399
0.000369182
0.000492079
0.000414313
0.000471364
0.000464547
0.000444365
0.000521423
0.000410744
0.000585926
0.000368029
0.000660913
0.000315521
0.000748697
0.000251782
0.000854238
0.000175345
0.000983999
8.04402e-05
0.00115221
-3.33752e-05
0.00136512
-0.000165378
0.00163748
-0.000310867
0.00198309
0.002432
-0.000470016
0.000551005
-0.000399479
-0.000585925
0.000520672
-0.00038295
0.000492728
-0.000363494
0.000471938
-0.000350142
0.000454058
-0.000330863
0.000439501
-0.000311682
0.000428227
-0.000291797
0.000420032
-0.00027219
0.000414184
-0.000251214
0.000411063
-0.000230037
0.000409824
-0.000208075
0.000411087
-0.000186024
0.000413606
-0.000161975
0.000417297
-0.000137831
0.000421873
-0.000112915
0.000427357
-8.78164e-05
0.00043336
-6.20644e-05
0.000439991