/*--------------------------------*- C++ -*----------------------------------*\
| =========                 |                                                 |
| \\      /  F ield         | OpenFOAM: The Open Source CFD Toolbox           |
|  \\    /   O peration     | Version:  2.3.0                                 |
|   \\  /    A nd           | Web:      www.OpenFOAM.org                      |
|    \\/     M anipulation  |                                                 |
\*---------------------------------------------------------------------------*/
FoamFile
{
    version     2.0;
    format      ascii;
    class       volScalarField;
    location    "1000";
    object      nuTilda;
}
// * * * * * * * * * * * * * * * * * * * * * * * * * * * * * * * * * * * * * //

dimensions      [0 2 -1 0 0 0 0];

internalField   nonuniform List<scalar> 
36444
(
0.0691619
0.0676466
0.0661266
0.0646035
0.0630788
0.0615533
0.0600278
0.0585031
0.0569793
0.0554572
0.0539371
0.0524194
0.0509044
0.0493927
0.0478845
0.04638
0.0448798
0.0433847
0.0418946
0.0404101
0.0389317
0.0374597
0.0359948
0.0345368
0.033087
0.0316456
0.0302131
0.0287905
0.0273787
0.0259792
0.0245928
0.0232227
0.0218712
0.0205423
0.0192397
0.017969
0.0167362
0.0155463
0.0143987
0.0132735
0.0121026
0.0107203
0.00900711
0.0703428
0.0690011
0.0676558
0.0663085
0.0649603
0.0636116
0.0622629
0.0609146
0.0595669
0.0582198
0.0568738
0.0555291
0.0541856
0.0528436
0.0515034
0.050165
0.0488285
0.0474944
0.0461634
0.0448359
0.043512
0.0421924
0.0408782
0.0395701
0.0382686
0.0369757
0.0356926
0.0344204
0.0331616
0.0319198
0.0306978
0.0295002
0.0283328
0.0272037
0.0261222
0.025099
0.0241495
0.0232898
0.0225391
0.0219165
0.0214388
0.0211177
0.0209616
0.0714382
0.0702431
0.0690464
0.0678484
0.0666496
0.06545
0.0642497
0.063049
0.0618481
0.0606467
0.0594452
0.0582436
0.0570416
0.0558398
0.0546378
0.0534361
0.0522348
0.0510336
0.049833
0.0486337
0.0474365
0.0462418
0.0450506
0.0438643
0.0426843
0.0415116
0.0403486
0.0391971
0.0380603
0.036942
0.0358462
0.0347778
0.0337432
0.0327498
0.0318072
0.0309261
0.0301179
0.0293965
0.0287747
0.0282668
0.0278849
0.0276373
0.0275296
0.0724446
0.0713782
0.07031
0.0692402
0.0681688
0.0670957
0.0660212
0.0649452
0.0638675
0.0627882
0.0617075
0.0606251
0.0595411
0.0584554
0.0573681
0.0562796
0.0551896
0.0540983
0.0530058
0.0519125
0.050819
0.0497264
0.0486357
0.0475482
0.0464659
0.0453906
0.0443235
0.0432677
0.0422262
0.0412031
0.0402032
0.0392309
0.0382925
0.0373956
0.0365486
0.0357608
0.0350429
0.034406
0.0338609
0.0334188
0.0330886
0.0328772
0.0327885
0.0733665
0.0724133
0.0714565
0.0704967
0.0695343
0.0685693
0.0676018
0.0666314
0.0656577
0.0646808
0.0637011
0.0627183
0.0617324
0.0607434
0.0597512
0.0587562
0.0577584
0.0567578
0.0557548
0.054749
0.053741
0.0527318
0.0517227
0.0507153
0.0497114
0.0487133
0.0477229
0.0467426
0.0457755
0.0448262
0.043899
0.0429986
0.0421311
0.0413039
0.0405244
0.0398011
0.0391436
0.0385622
0.0380661
0.0376649
0.0373664
0.0371762
0.0370978
0.0742125
0.073356
0.0724951
0.0716299
0.070761
0.0698883
0.069012
0.0681317
0.067246
0.0663554
0.0654604
0.0645611
0.0636574
0.062749
0.0618357
0.0609178
0.0599957
0.0590706
0.0581421
0.0572094
0.0562724
0.055332
0.0543896
0.0534471
0.0525067
0.0515711
0.050642
0.0497217
0.0488136
0.0479219
0.0470511
0.0462061
0.0453931
0.0446178
0.0438878
0.0432115
0.0425972
0.0420547
0.0415924
0.0412188
0.0409413
0.0407652
0.0406933
0.0749864
0.0742133
0.073435
0.0726513
0.0718626
0.0710691
0.0702698
0.0694668
0.0686572
0.0678393
0.0670153
0.0661858
0.0653512
0.0645109
0.0636637
0.0628098
0.06195
0.0610863
0.0602198
0.0593488
0.0584726
0.05759
0.0567029
0.0558135
0.0549241
0.0540391
0.0531601
0.052289
0.0514284
0.0505818
0.049755
0.0489539
0.0481832
0.0474487
0.0467571
0.0461162
0.0455339
0.0450198
0.0445822
0.0442293
0.043967
0.0438005
0.0437329
0.0756936
0.0749915
0.0742848
0.0735715
0.072851
0.0721274
0.0713915
0.0706549
0.0699135
0.0691566
0.0683923
0.0676205
0.0668438
0.0660617
0.0652708
0.0644712
0.0636636
0.0628476
0.062032
0.0612126
0.0603899
0.0595578
0.0587168
0.0578741
0.0570239
0.0561793
0.0553412
0.0545112
0.0536909
0.052881
0.0520873
0.0513221
0.0505853
0.0498844
0.0492228
0.0486106
0.0480514
0.047559
0.0471404
0.0468044
0.0465529
0.0463949
0.0463288
0.0763461
0.0757007
0.0750526
0.0744007
0.0737332
0.07308
0.072392
0.0717077
0.071034
0.070328
0.0696155
0.0688885
0.0681565
0.0674222
0.0666806
0.065925
0.0651678
0.0643842
0.063611
0.0628278
0.0620508
0.0612701
0.0604651
0.0596772
0.0588521
0.0580376
0.057231
0.0564344
0.0556508
0.0548789
0.0541049
0.0533724
0.0526623
0.0519936
0.051353
0.0507713
0.0502244
0.0497505
0.0493447
0.0490276
0.0487797
0.0486339
0.0485623
0.0093932
0.0115273
0.012724
0.0138025
0.0149313
0.016135
0.017403
0.0187198
0.0200732
0.0214533
0.0228537
0.0242702
0.0256996
0.0271391
0.028587
0.0300427
0.0315055
0.0329739
0.0344478
0.035927
0.0374108
0.0388991
0.0403918
0.0418884
0.0433888
0.0448928
0.0464003
0.0479111
0.0494249
0.0509414
0.0524603
0.0539812
0.0555035
0.0570268
0.0585506
0.0600742
0.061597
0.0631182
0.064637
0.0661529
0.0676652
0.0691735
0.0706781
0.020973
0.0211656
0.0215461
0.0221042
0.0228182
0.0236636
0.024617
0.0256561
0.0267634
0.027924
0.0291259
0.0303605
0.0316201
0.0328993
0.0341937
0.0355004
0.0368164
0.0381398
0.0394694
0.0408033
0.0421412
0.0434822
0.0448255
0.0461708
0.0475181
0.0488668
0.0502168
0.051568
0.0529202
0.054273
0.0556265
0.0569801
0.0583336
0.0596866
0.0610388
0.0623901
0.0637398
0.0650874
0.0664326
0.067775
0.0691142
0.0704496
0.0717791
0.0275596
0.0277301
0.028046
0.0285012
0.0290854
0.0297847
0.0305833
0.0314657
0.0324189
0.0334297
0.0344869
0.0355815
0.0367058
0.0378537
0.0390204
0.0402013
0.0413933
0.0425936
0.0437998
0.0450106
0.0462244
0.0474407
0.048658
0.0498762
0.0510947
0.0523131
0.0535314
0.0547493
0.0559666
0.0571827
0.0583979
0.0596117
0.0608238
0.0620339
0.063242
0.0644479
0.0656513
0.0668519
0.0680495
0.069244
0.0704354
0.0716234
0.0728073
0.032821
0.0329766
0.0332568
0.0336567
0.0341697
0.034786
0.0354929
0.0362782
0.0371311
0.0380405
0.0389965
0.0399906
0.0410146
0.0420634
0.0431313
0.044214
0.0453075
0.0464089
0.0475158
0.0486265
0.0497394
0.0508532
0.0519672
0.0530806
0.0541929
0.0553041
0.0564138
0.0575215
0.0586269
0.0597296
0.0608295
0.0619263
0.0630199
0.0641101
0.0651968
0.0662798
0.0673591
0.0684346
0.0695063
0.0705741
0.0716384
0.0726993
0.0737566
0.0371311
0.0372766
0.0375349
0.0379017
0.0383706
0.0389337
0.0395809
0.0403011
0.0410849
0.0419228
0.0428059
0.0437257
0.0446748
0.0456476
0.0466391
0.0476443
0.0486593
0.0496817
0.0507085
0.051738
0.0527684
0.0537983
0.0548274
0.055855
0.0568806
0.0579037
0.0589241
0.0599408
0.0609534
0.0619614
0.062965
0.0639641
0.0649583
0.0659477
0.0669319
0.067911
0.0688852
0.0698542
0.0708178
0.0717768
0.0727313
0.0736821
0.0746297
0.0407266
0.0408649
0.041108
0.0414522
0.0418908
0.0424168
0.0430215
0.0436952
0.0444291
0.0452146
0.0460432
0.0469068
0.0477983
0.0487123
0.0496433
0.0505869
0.0515392
0.0524975
0.0534591
0.0544221
0.0553848
0.0563459
0.0573054
0.0582628
0.0592174
0.0601684
0.0611151
0.0620562
0.0629912
0.0639201
0.0648433
0.0657607
0.0666714
0.0675752
0.0684727
0.069364
0.0702487
0.0711267
0.0719977
0.0728626
0.0737221
0.0745765
0.0754258
0.0437659
0.0438989
0.0441314
0.044459
0.0448754
0.0453735
0.0459459
0.0465847
0.0472809
0.0480265
0.0488134
0.0496335
0.0504798
0.0513468
0.0522293
0.0531229
0.0540244
0.0549304
0.0558383
0.0567461
0.0576521
0.0585563
0.0594587
0.0603587
0.0612556
0.0621477
0.0630329
0.0639102
0.0647797
0.0656424
0.0664984
0.0673475
0.0681873
0.0690181
0.0698419
0.0706592
0.0714675
0.0722674
0.0730581
0.073842
0.0746193
0.0753904
0.0761555
0.046362
0.0464901
0.0467151
0.0470294
0.0474295
0.0479042
0.0484513
0.0490631
0.0497301
0.0504447
0.0511994
0.0519843
0.0527941
0.0536226
0.0544657
0.0553181
0.0561773
0.0570409
0.057904
0.058764
0.0596222
0.0604796
0.0613357
0.0621895
0.0630392
0.0638831
0.064716
0.0655377
0.0663517
0.0671595
0.0679601
0.0687522
0.0695297
0.0702974
0.0710595
0.0718162
0.0725572
0.0732911
0.0740101
0.0747249
0.0754307
0.0761295
0.0768201
0.0485986
0.048717
0.0489388
0.0492383
0.0496269
0.0500761
0.0506018
0.0511911
0.0518345
0.0525249
0.0532532
0.0540045
0.0547851
0.0555806
0.0563911
0.0572085
0.0580337
0.0588623
0.059685
0.0605017
0.0613233
0.0621457
0.0629678
0.0637869
0.0645993
0.065404
0.0661874
0.0669614
0.0677323
0.0684979
0.0692521
0.0699946
0.0707125
0.07143
0.0721426
0.0728532
0.0735273
0.0742132
0.0748603
0.0755217
0.0761638
0.076804
0.0774362
0.0179186
0.0170487
0.0162436
0.0155041
0.0148231
0.0141903
0.0135967
0.0130351
0.0125
0.0119874
0.011494
0.0110174
0.0105554
0.0101065
0.00966932
0.00924272
0.00882577
0.00841768
0.00801772
0.00762539
0.00724014
0.00686161
0.00648936
0.00612313
0.0057627
0.00540776
0.00505825
0.00471398
0.00437486
0.00404092
0.0037121
0.00338849
0.00307023
0.00275744
0.00245045
0.0021495
0.00185498
0.00156735
0.00128706
0.00101483
0.00075163
0.000496368
0.000260853
0.0179366
0.0171215
0.0163689
0.0156742
0.015031
0.0144309
0.0138664
0.0133312
0.0128204
0.0123302
0.0118576
0.0114003
0.0109561
0.0105237
0.0101016
0.00968866
0.00928396
0.00888668
0.00849609
0.00811158
0.00773255
0.00735859
0.00698926
0.0066242
0.00626304
0.00590559
0.00555158
0.00520089
0.00485331
0.00450882
0.00416737
0.00382894
0.00349372
0.00316187
0.00283363
0.00250924
0.00218919
0.00187395
0.00156409
0.00126049
0.000964039
0.000672617
0.000390483
0.0179398
0.0171931
0.0164936
0.0158428
0.0152364
0.0146679
0.0141312
0.0136209
0.0131327
0.0126632
0.0122097
0.0117698
0.0113418
0.010924
0.0105152
0.0101143
0.00972025
0.00933226
0.00894959
0.00857159
0.0081977
0.00782737
0.00746015
0.00709565
0.00673353
0.00637341
0.00601502
0.00565816
0.0053026
0.00494827
0.00459506
0.00424291
0.00389185
0.00354201
0.00319361
0.00284686
0.00250221
0.00216017
0.00182143
0.00148715
0.00115811
0.000830915
0.000516138
0.0179524
0.0172608
0.0166105
0.0160011
0.0154292
0.0148903
0.0143791
0.0138914
0.0134235
0.0129724
0.0125356
0.012111
0.0116969
0.0112917
0.0108943
0.0105034
0.0101183
0.00973797
0.00936178
0.00898903
0.00861914
0.00825156
0.00788581
0.00752139
0.00715795
0.00679512
0.00643259
0.00607003
0.00570722
0.00534396
0.0049801
0.00461551
0.00425021
0.00388418
0.00351761
0.00315063
0.00278363
0.00241716
0.00205214
0.00168979
0.00133079
0.000970529
0.000628585
0.0179514
0.0173208
0.0167182
0.0161477
0.0156083
0.0150966
0.0146089
0.0141417
0.013692
0.0132572
0.012835
0.0124236
0.0120214
0.0116269
0.011239
0.0108566
0.0104788
0.0101047
0.00973376
0.00936514
0.00899828
0.00863263
0.00826769
0.00790297
0.00753803
0.00717247
0.00680595
0.00643808
0.00606863
0.00569728
0.00532385
0.00494815
0.00457009
0.00418958
0.00380672
0.00342166
0.00303468
0.00264644
0.00225783
0.00187024
0.00148416
0.0010941
0.000727786
0.0179629
0.017377
0.016817
0.0162828
0.0157737
0.0152874
0.0148213
0.0143728
0.0139394
0.0135191
0.0131097
0.0127098
0.0123178
0.0119324
0.0115525
0.011177
0.0108052
0.0104363
0.0100694
0.00970398
0.00933937
0.008975
0.00861036
0.00824498
0.00787834
0.00751007
0.00713971
0.0067669
0.00639133
0.00601264
0.00563056
0.00524487
0.00485537
0.00446198
0.00406466
0.00366351
0.00325877
0.00285103
0.00244136
0.00203117
0.00162061
0.00120346
0.00081501
0.0179642
0.0174275
0.0169073
0.0164068
0.015926
0.0154635
0.0150175
0.0145861
0.0141675
0.0137599
0.0133619
0.012972
0.0125888
0.0122112
0.0118381
0.0114684
0.0111014
0.0107365
0.0103729
0.0100099
0.00964681
0.00928317
0.00891839
0.00855205
0.00818361
0.00781258
0.00743852
0.00706109
0.00667986
0.0062945
0.00590465
0.00550994
0.00511023
0.00470532
0.00429504
0.00387954
0.00345901
0.00303406
0.00260578
0.00217552
0.00174331
0.00130224
0.000892993
0.0179778
0.0174757
0.0169904
0.0165202
0.0160657
0.0156259
0.0151991
0.0147834
0.0143779
0.0139816
0.0135934
0.0132124
0.0128373
0.0124669
0.0121
0.011735
0.0113716
0.0110097
0.0106486
0.0102876
0.00992567
0.00956237
0.00919692
0.00882914
0.00845883
0.00808541
0.00770758
0.00732507
0.00693823
0.00654682
0.00615002
0.00574741
0.00533856
0.00492329
0.00450138
0.00407275
0.00363745
0.00319613
0.00275005
0.00230095
0.0018484
0.00138442
0.000958863
0.0179789
0.0175192
0.0170678
0.0166232
0.0161917
0.0157745
0.0153687
0.0149687
0.0145745
0.0141879
0.0138064
0.0134329
0.0130654
0.0127028
0.0123453
0.0119866
0.0116245
0.0112633
0.010904
0.0105453
0.0101856
0.00982375
0.00945762
0.00908731
0.0087131
0.00834095
0.00796203
0.00757193
0.00717501
0.00677574
0.00637255
0.005964
0.0055489
0.00512686
0.00469876
0.00426443
0.00382249
0.00337309
0.00291482
0.00244828
0.00197735
0.00149647
0.0010329
0.000318464
0.000513956
0.000755195
0.000988526
0.00121368
0.00143038
0.00163906
0.00184035
0.00203515
0.00222451
0.00240959
0.00259168
0.00277212
0.0029524
0.00313416
0.00331926
0.00350994
0.00370908
0.00392071
0.00415057
0.00440696
0.00470031
0.00503677
0.00541433
0.00582835
0.00627592
0.0067552
0.00726528
0.00780594
0.00837731
0.00897987
0.0096142
0.0102811
0.0109813
0.0117153
0.0124839
0.0132877
0.0141277
0.015005
0.0159205
0.0168754
0.0178705
0.0189074
0.000438686
0.000673219
0.00092802
0.00117482
0.00141146
0.00163757
0.00185385
0.00206145
0.00226169
0.00245605
0.00264604
0.00283334
0.00301963
0.00320689
0.00339729
0.00359347
0.00379876
0.00401745
0.00425512
0.00451886
0.00481713
0.00515469
0.00552823
0.00593358
0.00636787
0.00682942
0.0073172
0.0078309
0.00837048
0.00893622
0.0095285
0.0101479
0.010795
0.0114702
0.012174
0.012907
0.0136699
0.0144635
0.0152886
0.0161461
0.017037
0.0179624
0.0189241
0.000553969
0.000810938
0.00107947
0.00133918
0.001587
0.00182243
0.0020465
0.00226081
0.00246715
0.00266748
0.00286374
0.00305808
0.00325276
0.00345033
0.00365386
0.00386689
0.00409373
0.00433945
0.00461
0.00491218
0.00525145
0.00562432
0.00602561
0.0064521
0.0069019
0.00737404
0.00786803
0.00838373
0.00892116
0.00948054
0.0100622
0.0106666
0.011294
0.0119448
0.0126191
0.0133177
0.014041
0.0147898
0.0155646
0.0163663
0.0171957
0.018054
0.0189437
0.000657681
0.000928467
0.0012093
0.00148043
0.00173826
0.00198229
0.00221378
0.00243483
0.0026477
0.00285482
0.00305869
0.003262
0.00346768
0.00367908
0.00390003
0.00413473
0.00438783
0.00466421
0.00496929
0.00530862
0.00568118
0.00608044
0.00650229
0.00694452
0.00740596
0.00788596
0.00838411
0.00890035
0.00943468
0.00998727
0.0105584
0.0111481
0.0117567
0.0123842
0.0130311
0.0136976
0.0143842
0.0150915
0.0158199
0.0165701
0.0173427
0.0181378
0.0189539
0.000749194
0.00102952
0.00132107
0.00160218
0.00186886
0.00212065
0.00235914
0.00258691
0.00280667
0.0030214
0.00323417
0.00344834
0.00366755
0.00389586
0.00413753
0.00439686
0.00467809
0.00498542
0.00532345
0.00569481
0.00609293
0.00651229
0.00695005
0.00740457
0.00787499
0.00836073
0.00886158
0.00937738
0.00990809
0.0104538
0.0110145
0.0115903
0.0121811
0.012787
0.0134084
0.0140454
0.0146984
0.0153677
0.0160537
0.0167567
0.0174773
0.0182155
0.0189721
0.000829642
0.00111718
0.00141808
0.0017079
0.00198243
0.00224128
0.00248643
0.00272085
0.00294783
0.00317091
0.00339382
0.00362057
0.00385543
0.00410287
0.00436714
0.00465208
0.00496109
0.00529765
0.00566568
0.00606257
0.00648075
0.00691612
0.00736662
0.00783093
0.00830847
0.00879864
0.00930125
0.00981601
0.0103429
0.0108817
0.0114325
0.011995
0.0125693
0.0131553
0.0137531
0.014363
0.0149852
0.0156198
0.0162671
0.0169272
0.0176004
0.0182866
0.0189861
0.000900277
0.00119368
0.00150277
0.00180029
0.00208181
0.00234716
0.0025987
0.00283983
0.00307438
0.0033065
0.00354059
0.00378129
0.0040333
0.00430105
0.00458838
0.00489833
0.00523345
0.0055968
0.00599064
0.00640787
0.00684225
0.0072908
0.00775191
0.00822446
0.00870782
0.00920148
0.00970513
0.0102185
0.0107414
0.0112736
0.0118149
0.0123651
0.0129241
0.0134917
0.014068
0.014653
0.015247
0.0158499
0.0164618
0.0170827
0.0177127
0.0183518
0.0189994
0.000963983
0.00126209
0.00157803
0.00188217
0.00216998
0.00244127
0.00269867
0.00294602
0.00318811
0.00342984
0.00367603
0.00393173
0.0042016
0.00448961
0.00479905
0.00513267
0.00549236
0.00588046
0.00629575
0.00672979
0.00717791
0.00763798
0.00810823
0.00858771
0.00907586
0.00957222
0.0100761
0.0105877
0.0111069
0.0116329
0.0121653
0.0127048
0.0132498
0.0137999
0.0143558
0.014918
0.0154864
0.0160605
0.0166398
0.0172247
0.0178153
0.0184115
0.0190137
0.00101261
0.00131634
0.00163995
0.00195069
0.00224428
0.00252101
0.00278397
0.0030409
0.00329446
0.00354782
0.00380728
0.00407823
0.00436441
0.00467165
0.00500691
0.00537045
0.00575474
0.00616472
0.00659613
0.00704226
0.00750186
0.00797198
0.00844819
0.008931
0.00942187
0.00991828
0.0104194
0.0109294
0.0114469
0.0119657
0.0124899
0.0130242
0.0135541
0.0140836
0.0146195
0.0151611
0.0157072
0.016255
0.0168031
0.0173538
0.0179079
0.0184649
0.019026
0.000868532
0.00274002
0.00455532
0.00627168
0.00790402
0.00948011
0.0110219
0.0125446
0.0140578
0.0155678
0.017079
0.0185935
0.0201126
0.0216377
0.0231688
0.0247063
0.02625
0.0278004
0.0293574
0.0309206
0.0324905
0.0340665
0.0356485
0.0372364
0.0388301
0.0404292
0.0420332
0.0436422
0.0452556
0.0468728
0.0484937
0.0501177
0.0517443
0.0533732
0.0550039
0.0566358
0.0582681
0.0599005
0.0615322
0.0631623
0.0647899
0.0664138
0.0680335
0.0002889
0.00137817
0.00243033
0.00368782
0.00511311
0.00658481
0.0080741
0.00957547
0.0110876
0.012611
0.014146
0.0156925
0.0172507
0.0188205
0.0204013
0.0219925
0.0235936
0.0252042
0.0268234
0.0284508
0.0300857
0.0317278
0.0333765
0.0350315
0.0366921
0.0383579
0.0400287
0.0417039
0.0433826
0.0450647
0.0467497
0.0484369
0.0501258
0.0518159
0.0535067
0.0551975
0.0568877
0.0585768
0.0602639
0.0619481
0.0636288
0.0653047
0.0669747
0.000269132
0.00125974
0.00208845
0.00300656
0.00402791
0.00518811
0.00648417
0.00784962
0.00925938
0.0107041
0.0121791
0.0136813
0.0152086
0.0167587
0.0183295
0.0199196
0.0215275
0.0231515
0.0247899
0.0264416
0.0281054
0.0297799
0.0314643
0.0331575
0.0348585
0.0365666
0.038281
0.0400007
0.0417251
0.0434534
0.0451848
0.0469187
0.0486545
0.0503915
0.0521287
0.0538656
0.0556016
0.0573357
0.0590673
0.0607956
0.0625198
0.0642392
0.0659543
0.000248455
0.00109175
0.0019768
0.00281489
0.00367539
0.00460448
0.00563739
0.00681184
0.00808479
0.00942077
0.0108054
0.0122319
0.0136958
0.0151937
0.0167227
0.0182803
0.0198641
0.0214716
0.0231009
0.0247501
0.0264171
0.0281002
0.0297977
0.0315082
0.0332304
0.0349627
0.0367039
0.0384529
0.0402087
0.04197
0.043736
0.0455057
0.0472783
0.0490526
0.0508277
0.0526031
0.0543776
0.0561504
0.0579206
0.0596876
0.0614503
0.0632087
0.0649643
0.000229698
0.000937931
0.00184597
0.00269176
0.00351012
0.00434258
0.00522518
0.00620019
0.00730957
0.00852475
0.009811
0.0111529
0.0125428
0.013976
0.015449
0.0169587
0.018502
0.0200765
0.0216798
0.0233093
0.0249627
0.0266379
0.0283328
0.0300455
0.0317741
0.0335169
0.0352722
0.0370386
0.0388143
0.0405982
0.0423891
0.0441855
0.0459862
0.0477901
0.0495962
0.0514033
0.0532103
0.0550163
0.0568202
0.058621
0.0604176
0.0622086
0.0639904
0.000217735
0.000846318
0.00171381
0.00256109
0.00337313
0.00417184
0.00498576
0.00584712
0.00679917
0.00788156
0.00906628
0.0103234
0.0116387
0.0130052
0.0144182
0.0158741
0.0173701
0.0189034
0.0204713
0.0220712
0.0237008
0.0253574
0.0270389
0.028743
0.0304674
0.0322103
0.0339697
0.0357436
0.0375303
0.0393282
0.0411354
0.0429507
0.0447726
0.0465994
0.04843
0.050263
0.0520972
0.0539313
0.0557642
0.0575945
0.0594212
0.0612431
0.0630588
0.000219867
0.000781831
0.0015957
0.00242543
0.0032332
0.00402006
0.00480352
0.00560743
0.00646346
0.00741712
0.00849608
0.00966899
0.010912
0.0122135
0.0135673
0.0149692
0.016416
0.0179048
0.0194331
0.0209983
0.0225979
0.0242294
0.0258903
0.0275784
0.0292913
0.0310266
0.0327823
0.0345563
0.0363465
0.0381509
0.0399679
0.0417956
0.0436322
0.045476
0.0473255
0.0491793
0.0510357
0.0528934
0.054751
0.0566071
0.0584605
0.0603105
0.062158
0.000230408
0.000733564
0.00149684
0.00229784
0.00309465
0.00387367
0.00464183
0.00541545
0.00621779
0.00708266
0.00805597
0.00914412
0.0103168
0.0115561
0.0128532
0.0142026
0.0156008
0.0170448
0.0185322
0.0200603
0.0216269
0.0232293
0.0248653
0.0265325
0.0282284
0.0299508
0.0316971
0.0334655
0.0352533
0.0370588
0.0388798
0.0407142
0.0425602
0.0444159
0.0462795
0.0481493
0.0500235
0.0519007
0.053779
0.0556572
0.0575336
0.0594067
0.0612737
0.000237223
0.000695935
0.00141538
0.00218449
0.00296454
0.0037339
0.00449141
0.00524694
0.00601724
0.00682744
0.00771533
0.00871863
0.00982223
0.011002
0.0122451
0.0135444
0.0148957
0.0162961
0.0177428
0.0192333
0.0207655
0.022337
0.0239455
0.0255887
0.0272642
0.0289696
0.0307026
0.0324607
0.0342419
0.0360438
0.0378642
0.0397009
0.0415518
0.043415
0.0452884
0.04717
0.0490582
0.050951
0.0528467
0.0547434
0.0566396
0.0585329
0.0604206
0.00023982
0.000665031
0.00134692
0.0020851
0.00284541
0.00360267
0.00435025
0.00509278
0.00584223
0.00661741
0.00744684
0.0083714
0.0094068
0.0105291
0.0117207
0.0129725
0.0142794
0.0156376
0.0170447
0.0184983
0.019996
0.0215359
0.0231157
0.0247332
0.0263859
0.0280717
0.0297882
0.0315331
0.0333041
0.0350988
0.0369148
0.03875
0.0406021
0.042469
0.0443485
0.0462387
0.0481374
0.0500424
0.0519522
0.0538646
0.0557779
0.0576898
0.0595985
0.000239906
0.000638328
0.00128796
0.00199755
0.00273727
0.00348079
0.00421801
0.0049497
0.00568397
0.00643496
0.00722465
0.00808659
0.00905532
0.0101214
0.0112639
0.0124707
0.0137353
0.0150535
0.0164225
0.0178401
0.019304
0.0208124
0.022363
0.0239537
0.0255825
0.0272471
0.0289451
0.0306744
0.0324326
0.0342171
0.036026
0.0378567
0.0397069
0.0415744
0.0434569
0.0453524
0.0472582
0.0491729
0.0510939
0.0530195
0.0549476
0.056877
0.0588072
0.00023882
0.000615013
0.00123656
0.00191999
0.00263932
0.00336822
0.00409452
0.00481616
0.00553815
0.00627123
0.00703261
0.00784875
0.00875617
0.00976747
0.0108626
0.0120265
0.0132509
0.0145311
0.0158639
0.0172468
0.0186779
0.0201551
0.0216767
0.0232406
0.0248446
0.0264868
0.0281652
0.0298772
0.0316206
0.0333931
0.0351925
0.0370162
0.0388619
0.0407274
0.0426103
0.0445083
0.046419
0.0483404
0.0502702
0.0522064
0.0541473
0.0560912
0.0580381
0.000237297
0.00059458
0.00119143
0.00185098
0.00255053
0.00326449
0.00397947
0.00469128
0.00540262
0.00612158
0.00686164
0.00764392
0.00850021
0.00945831
0.0105076
0.0116304
0.0128167
0.0140608
0.0153589
0.0167087
0.018108
0.0195551
0.021048
0.0225851
0.0241644
0.0257838
0.0274415
0.0291351
0.0308624
0.0326213
0.0344092
0.036224
0.0380633
0.0399247
0.0418056
0.0437038
0.0456171
0.0475429
0.0494792
0.0514238
0.0533748
0.0553303
0.0572887
0.000235712
0.000576571
0.00115149
0.00178923
0.00246997
0.003169
0.00387235
0.00457442
0.00527605
0.00598312
0.00670638
0.00746289
0.00827898
0.00918703
0.0101915
0.011275
0.012425
0.0136346
0.0148998
0.0162179
0.0175867
0.0190046
0.0204697
0.0219803
0.0235349
0.0251314
0.026768
0.0284424
0.0301528
0.0318967
0.033672
0.0354764
0.0373075
0.0391628
0.0410399
0.0429366
0.0448502
0.0467786
0.0487193
0.0506702
0.0526289
0.0545934
0.0565613
0.000234201
0.000560665
0.00111591
0.00173365
0.00239652
0.00308088
0.00377259
0.00446499
0.00515741
0.00585398
0.00656346
0.00729968
0.00808433
0.00894803
0.0099091
0.0109543
0.0120695
0.0132464
0.0144803
0.0157681
0.0171077
0.0184973
0.0199354
0.0214203
0.0229504
0.0245241
0.0261393
0.0277944
0.029487
0.0312153
0.032977
0.0347697
0.0365911
0.038439
0.0403108
0.0422041
0.0441164
0.0460454
0.0479887
0.0499438
0.0519082
0.0538792
0.0558541
0.000232812
0.00054655
0.00108404
0.00168339
0.00232937
0.00299948
0.0036796
0.00436237
0.0050459
0.0057331
0.00643073
0.00715035
0.00790991
0.00873635
0.00965574
0.0106638
0.0117454
0.0128911
0.014095
0.0153539
0.0166656
0.0180281
0.01944
0.0208998
0.022406
0.023957
0.0255511
0.0271864
0.0288611
0.0305732
0.0323203
0.0341004
0.0359113
0.0377505
0.0396156
0.041504
0.0434137
0.0453418
0.0472859
0.0492433
0.0512114
0.0531868
0.0551645
0.000231567
0.000534055
0.00105541
0.0016378
0.00226787
0.00292421
0.00359289
0.00426603
0.00494101
0.00561943
0.00630667
0.00701233
0.00775151
0.00854717
0.00942757
0.0103995
0.0114489
0.0125644
0.0137397
0.0149711
0.0162558
0.0175924
0.0189791
0.0204145
0.0218974
0.0234262
0.0249992
0.0266148
0.0282713
0.0299666
0.0316988
0.0334658
0.0352652
0.0370947
0.0389519
0.0408346
0.0427401
0.0446659
0.0466094
0.0485679
0.0505384
0.0525177
0.0545009
0.000230443
0.000522877
0.00102954
0.00159624
0.00221131
0.00285438
0.00351186
0.00417558
0.00484217
0.00551223
0.00619011
0.00688377
0.00760595
0.00837624
0.00922167
0.0101585
0.0111764
0.012263
0.013411
0.0146158
0.015875
0.0171865
0.0185488
0.0199607
0.0214208
0.0229278
0.0244801
0.0260763
0.0277145
0.029393
0.0311099
0.032863
0.0346502
0.0364693
0.0383179
0.0401936
0.0420938
0.0440163
0.045958
0.0479166
0.0498892
0.0518734
0.0538682
0.000229425
0.000512853
0.00100606
0.00155822
0.00215917
0.00278951
0.00343604
0.00409046
0.00474878
0.005411
0.00608024
0.00676335
0.00747101
0.00822013
0.00903511
0.00993803
0.0109252
0.011984
0.0131056
0.0142852
0.0155197
0.0168072
0.0181461
0.0195352
0.0209732
0.0224588
0.0239909
0.0255676
0.0271877
0.0288494
0.0305506
0.0322896
0.0340642
0.0358723
0.0377114
0.0395792
0.0414735
0.0433915
0.0453306
0.0472883
0.0492622
0.0512503
0.0532532
0.000228507
0.000503878
0.000984722
0.00152337
0.002111
0.00272917
0.00336507
0.00401029
0.00466059
0.00531516
0.00597642
0.00664991
0.00734501
0.0080762
0.00886504
0.009736
0.0106934
0.0117249
0.0128212
0.0139764
0.0151873
0.0164517
0.017768
0.0191351
0.0205517
0.0220166
0.0235286
0.0250864
0.0266885
0.0283333
0.0300188
0.0317434
0.033505
0.0353015
0.0371306
0.0389901
0.0408776
0.0427902
0.0447258
0.0466816
0.0486553
0.0506445
0.0526464
0.000227676
0.000495733
0.000965213
0.00149128
0.00206635
0.00267286
0.00329846
0.00393477
0.00457716
0.00522428
0.00587795
0.00654278
0.00722681
0.00794252
0.00870892
0.00955045
0.0104786
0.0114838
0.0125555
0.0136873
0.0148755
0.0161177
0.0174123
0.018758
0.0201539
0.0215987
0.0230911
0.0246303
0.0262146
0.0278424
0.0295123
0.0312224
0.0329708
0.0347554
0.0365741
0.0384246
0.0403043
0.0422112
0.0441423
0.0460955
0.0480677
0.0500563
0.0520566
0.000226915
0.00048837
0.000947333
0.00146166
0.00202487
0.00262024
0.00323586
0.00386341
0.00449805
0.00513803
0.0057845
0.00644133
0.00711535
0.00781759
0.00856471
0.00937962
0.0102795
0.0112589
0.0123068
0.013416
0.0145823
0.0158031
0.0170768
0.018402
0.0197776
0.0212027
0.0226763
0.0241971
0.0257638
0.0273751
0.0290293
0.0307248
0.0324598
0.0342322
0.0360401
0.037881
0.0397528
0.041653
0.0435793
0.0455288
0.0474994
0.049488
0.0514925
0.000226219
0.00048169
0.000930914
0.00143427
0.00198626
0.00257102
0.00317702
0.00379601
0.00442305
0.00505609
0.00569564
0.0063449
0.0070099
0.00770023
0.00843053
0.00922183
0.0100946
0.0110488
0.0120735
0.0131608
0.014306
0.0155062
0.0167596
0.0180649
0.0194211
0.0208272
0.0222822
0.0237851
0.0253345
0.0269294
0.028568
0.0302489
0.0319704
0.0337305
0.0355272
0.0373583
0.0392217
0.0411148
0.0430355
0.0449811
0.0469495
0.0489385
0.0509475
0.00022558
0.000475555
0.00091577
0.00140886
0.00195029
0.00252489
0.00312155
0.00373225
0.0043519
0.00497807
0.00561097
0.00625316
0.00690988
0.00758951
0.00830502
0.00907549
0.00992257
0.010852
0.0118541
0.0129203
0.0140451
0.0152254
0.0164593
0.0177453
0.0190827
0.0204703
0.0219071
0.0233925
0.0249251
0.0265036
0.0281269
0.0297933
0.0315013
0.0332488
0.0350341
0.0368552
0.0387096
0.0405955
0.0425101
0.0444514
0.046417
0.0484053
0.0504148
0.000224991
0.000469961
0.000901767
0.00138521
0.00191662
0.0024815
0.00306919
0.00367182
0.00428421
0.00490374
0.00553022
0.00616572
0.00681474
0.00748469
0.00818713
0.00893916
0.00976229
0.0106676
0.0116476
0.0126932
0.0137982
0.0149593
0.0161743
0.0174419
0.0187608
0.0201304
0.0215497
0.0230179
0.0245339
0.0260965
0.0277045
0.0293565
0.0310509
0.032786
0.0345599
0.0363706
0.0382159
0.0400939
0.0420022
0.0439385
0.0459008
0.0478871
0.0498966
0.000224447
0.000464822
0.000888804
0.00136319
0.00188511
0.00244072
0.00301975
0.00361454
0.00421982
0.00483289
0.00545313
0.00608221
0.00672399
0.00738516
0.0080759
0.00881155
0.00961272
0.0104946
0.011453
0.0124783
0.0135642
0.0147067
0.0159034
0.017153
0.0184543
0.0198064
0.0212087
0.0226601
0.0241597
0.0257067
0.0272997
0.0289374
0.0306183
0.0323408
0.0341032
0.0359033
0.0377394
0.0396093
0.0415107
0.0434415
0.0453995
0.0473824
0.0493864
0.000223948
0.000460116
0.000876789
0.00134266
0.00185558
0.00240232
0.00297302
0.00356014
0.00415855
0.00476526
0.00537946
0.00600237
0.00663741
0.0072904
0.00797052
0.0086916
0.00947287
0.010332
0.0112692
0.0122749
0.0133421
0.0144666
0.0156457
0.0168777
0.0181618
0.019497
0.0208826
0.0223177
0.0238015
0.025333
0.0269112
0.0285348
0.0302023
0.0319122
0.0336629
0.0354525
0.037279
0.0391405
0.0410348
0.0429597
0.0449129
0.0468923
0.0488958
0.000223479
0.00045573
0.000865588
0.00132343
0.00182781
0.00236607
0.00292871
0.00350846
0.00410013
0.00470059
0.00530893
0.00592594
0.00655457
0.0072
0.00787049
0.00857846
0.00934166
0.0101792
0.0110954
0.0120819
0.013131
0.0142379
0.0153999
0.0166151
0.0178825
0.0192012
0.0205705
0.0219897
0.023458
0.0249744
0.026538
0.0281476
0.0298018
0.0314992
0.0332383
0.0350172
0.036834
0.0386869
0.0405736
0.0424921
0.0444401
0.0464151
0.0484148
0.000223029
0.000451658
0.00085513
0.00130541
0.00180167
0.00233182
0.00288672
0.0034593
0.00404435
0.00463882
0.00524137
0.0058527
0.00647518
0.00711358
0.00777525
0.00847136
0.00921825
0.0100353
0.0109311
0.0118987
0.0129301
0.01402
0.0151652
0.0163641
0.0176153
0.018918
0.0202716
0.0216752
0.0231282
0.0246299
0.0261791
0.0277749
0.029416
0.031101
0.0328284
0.0345965
0.0364035
0.0382475
0.0401265
0.0420381
0.0439802
0.0459502
0.0479452
0.000222616
0.000447919
0.000845377
0.00128851
0.00177705
0.00229944
0.00284688
0.00341246
0.00399114
0.00457969
0.00517669
0.00578242
0.00639911
0.00703084
0.00768429
0.00836966
0.00910184
0.00989976
0.0107755
0.0117245
0.0127385
0.0138119
0.014941
0.0161239
0.0173594
0.0186466
0.0199847
0.0213732
0.0228114
0.0242985
0.0258337
0.0274159
0.029044
0.0307166
0.0324323
0.0341897
0.0359867
0.0378217
0.0396926
0.0415971
0.0435327
0.0454968
0.047485
0.00022223
0.000444415
0.00083624
0.00127261
0.00175381
0.00226875