/*--------------------------------*- C++ -*----------------------------------*\
| =========                 |                                                 |
| \\      /  F ield         | OpenFOAM: The Open Source CFD Toolbox           |
|  \\    /   O peration     | Version:  2.3.0                                 |
|   \\  /    A nd           | Web:      www.OpenFOAM.org                      |
|    \\/     M anipulation  |                                                 |
\*---------------------------------------------------------------------------*/
FoamFile
{
    version     2.0;
    format      ascii;
    class       surfaceScalarField;
    location    "1000";
    object      phi;
}
// * * * * * * * * * * * * * * * * * * * * * * * * * * * * * * * * * * * * * //

dimensions      [0 3 -1 0 0 0 0];

internalField   nonuniform List<scalar> 
12435
(
-0.0192553
-0.0262223
0.0299209
0.0155572
-0.0223059
-0.0217864
0.0248371
-0.0247805
-0.0180911
0.0205656
-0.0266669
-0.0149986
0.016885
-0.027929
-0.0123996
0.0136616
-0.028569
-0.0102021
0.0108421
-0.0286361
-0.00834619
0.00841317
-0.0282201
-0.00678039
0.00636433
-0.0274265
-0.0054698
0.00467611
-0.0263535
-0.00438326
0.00331012
-0.0250975
-0.00349285
0.00223688
-0.00276822
-0.0239005
0.0015711
-0.0165941
-0.0233609
0.0137327
-0.0187376
-0.0196429
-0.0202881
-0.0165406
-0.0213375
-0.0139492
-0.0219456
-0.0117915
-0.0221517
-0.00999603
-0.0219912
-0.00850669
-0.0214964
-0.00727526
-0.0207068
-0.0062594
-0.0196604
-0.0054297
-0.0184022
-0.00475105
-0.00420583
-0.0169646
-0.0144845
-0.0209986
0.0121222
-0.0161752
-0.0179523
-0.0173
-0.0154158
-0.0179468
-0.0133024
-0.0181985
-0.0115398
-0.0181211
-0.0100735
-0.0177747
-0.00885311
-0.0172121
-0.00783785
-0.0164739
-0.00699759
-0.0156035
-0.00630007
-0.0146274
-0.00572722
-0.00525667
-0.0135766
-0.012655
-0.0190122
0.0106685
-0.0140502
-0.0165571
-0.0149525
-0.0145135
-0.0154483
-0.0128066
-0.0156063
-0.0113817
-0.015488
-0.0101918
-0.0151436
-0.0091975
-0.0146159
-0.00836562
-0.013943
-0.00767055
-0.0131528
-0.00709028
-0.0122744
-0.00660556
-0.00620316
-0.0113279
-0.0110984
-0.0173112
0.00939742
-0.0122765
-0.015379
-0.0130253
-0.0137647
-0.0134198
-0.0124121
-0.0135225
-0.011279
-0.0133896
-0.0103247
-0.0130644
-0.00952272
-0.0125851
-0.0088449
-0.0119809
-0.00827469
-0.0112801
-0.00779111
-0.0105015
-0.00738421
-0.00704108
-0.00966355
-0.00977476
-0.015832
0.00829556
-0.0107978
-0.0143559
-0.0114415
-0.013121
-0.0117745
-0.0120791
-0.0118533
-0.0112003
-0.0117237
-0.0104543
-0.0114269
-0.00981955
-0.0109926
-0.00927919
-0.0104499
-0.00881745
-0.00981881
-0.00842216
-0.0091178
-0.00808523
-0.00779586
-0.00836302
-0.00864638
-0.0145291
0.00734348
-0.00954408
-0.0134582
-0.0101091
-0.0125561
-0.0103981
-0.0117901
-0.0104624
-0.0111359
-0.0103425
-0.0105743
-0.0100725
-0.0100895
-0.00968081
-0.00967092
-0.00919109
-0.00930716
-0.00862224
-0.00899101
-0.00799059
-0.00871688
-0.00847928
-0.00730717
-0.00767527
-0.0133688
0.00651496
-0.0084741
-0.0126594
-0.00897382
-0.0120563
-0.0092309
-0.011533
-0.00928627
-0.0110805
-0.00917673
-0.0106838
-0.00893103
-0.0103352
-0.00857705
-0.0100249
-0.00813489
-0.00974933
-0.00762107
-0.00950483
-0.00704873
-0.00928922
-0.00909744
-0.00643057
-0.00683199
-0.0123339
0.0057971
-0.00754809
-0.0119433
-0.0079974
-0.011607
-0.00822576
-0.0113046
-0.00827484
-0.0110314
-0.00817576
-0.0107829
-0.00795566
-0.0105553
-0.00763448
-0.0103461
-0.00723348
-0.0101503
-0.00676733
-0.00997098
-0.00625049
-0.00980606
-0.00965926
-0.00568867
-0.00610175
-0.0114043
0.00517212
-0.00674968
-0.0112954
-0.00714968
-0.011207
-0.00735458
-0.0110997
-0.00739844
-0.0109876
-0.00731007
-0.0108713
-0.00711173
-0.0107536
-0.00682032
-0.0106375
-0.00645558
-0.0105151
-0.00603273
-0.0103938
-0.00556187
-0.0102769
-0.00505195
-0.0101692
-0.0210964
-0.00253531
-0.000268835
-0.0187261
-0.00275872
0.00038843
-0.0165031
-0.0031074
0.000884363
-0.0143791
-0.00358737
0.00146337
-0.0123747
-0.00421046
0.00220609
-0.0105418
-0.00500706
0.00317411
-0.0089518
-0.0060123
0.00442233
-0.00769085
-0.00726973
0.00600879
-0.00684381
-0.00883637
0.00798932
-0.00648849
-0.0107805
0.0104252
-0.00669836
-0.0131874
0.0133973
-0.0161697
0.0170192
-0.0075479
-0.0154392
-0.00406074
-0.013916
-0.0042819
-0.0124413
-0.00458206
-0.0110541
-0.00497467
-0.00978025
-0.00548426
-0.00865327
-0.00613406
-0.00770715
-0.00695841
-0.00698035
-0.00799653
-0.00652212
-0.00929461
-0.00639312
-0.0109095
-0.00667291
-0.0129076
-0.0153805
-0.00746207
-0.0125007
-0.00513659
-0.0114418
-0.00534083
-0.0104125
-0.00561138
-0.00942852
-0.00595863
-0.0085108
-0.00640197
-0.00768282
-0.00696205
-0.0069788
-0.00766243
-0.00644121
-0.00853412
-0.00612293
-0.00961289
-0.00608644
-0.010946
-0.00640627
-0.0125878
-0.0146166
-0.00717018
-0.0103722
-0.00609234
-0.00945681
-0.00625621
-0.00859283
-0.00647536
-0.00779217
-0.00675929
-0.0070703
-0.00712384
-0.00644745
-0.0075849
-0.00594907
-0.00816082
-0.0056053
-0.00887789
-0.00545624
-0.00976195
-0.00555038
-0.0108519
-0.00594968
-0.0121885
-0.0138348
-0.00673149
-0.00882142
-0.00693448
-0.00802524
-0.00705239
-0.00728452
-0.00721609
-0.00660847
-0.00743533
-0.00601138
-0.00772093
-0.00551151
-0.00808478
-0.00513041
-0.00854191
-0.00489615
-0.00911215
-0.00484092
-0.00981718
-0.00500924
-0.0106836
-0.00545328
-0.0117444
-0.0130488
-0.00623929
-0.0076059
-0.00769159
-0.0068956
-0.0077627
-0.00624102
-0.00787066
-0.00565178
-0.00802458
-0.00514179
-0.00823092
-0.00472699
-0.00849958
-0.00442594
-0.00884297
-0.00426519
-0.00927289
-0.00427356
-0.00980881
-0.00448884
-0.0104683
-0.0049565
-0.0112768
-0.012269
-0.00573626
-0.00662379
-0.00837497
-0.00598742
-0.00839907
-0.00540387
-0.00845422
-0.00488375
-0.0085447
-0.00443979
-0.00867488
-0.00408545
-0.00885392
-0.00384112
-0.0090873
-0.00372792
-0.00938609
-0.00377494
-0.00976179
-0.00401477
-0.0102285
-0.00448754
-0.010804
-0.0115108
-0.00524571
-0.00581231
-0.00899324
-0.00523824
-0.00897313
-0.00471502
-0.00897743
-0.00425169
-0.00900803
-0.00385906
-0.00906751
-0.00355262
-0.00916036
-0.00334887
-0.00929105
-0.00326917
-0.0094658
-0.00333791
-0.00969305
-0.00358651
-0.00997988
-0.00405166
-0.0103389
-0.0107864
-0.00477612
-0.00512799
-0.00955391
-0.00460974
-0.00949138
-0.00413977
-0.00944741
-0.00372495
-0.00942286
-0.00337551
-0.00941695
-0.00310673
-0.00942915
-0.00293277
-0.009465
-0.00287501
-0.00952356
-0.00295602
-0.00961204
-0.00320448
-0.00973143
-0.00365228
-0.00989107
-0.0101004
-0.00433831
-0.00454311
-0.0100628
-0.00407421
-0.00996028
-0.00364984
-0.00987178
-0.00327611
-0.00979659
-0.00296807
-0.00972499
-0.00272935
-0.00966787
-0.00257864
-0.00961571
-0.00253566
-0.00956653
-0.00262262
-0.00952508
-0.00286546
-0.00948859
-0.00329198
-0.00946455
-0.00393414
-0.00945819
0.00187115
0.00758523
-0.00831824
-0.00113815
0.00224541
0.00551065
-0.00588491
0.00240604
0.00402229
-0.00418293
0.00243988
0.00295043
-0.00298427
0.00239978
0.00217902
-0.00213892
0.00231181
0.00163124
-0.00154327
0.00217742
0.00125983
-0.00112544
0.00197363
0.0010418
-0.000838013
0.00164945
0.000977768
-0.00065359
0.00111798
0.00109545
-0.000563973
0.000230057
0.00145601
-0.00056809
0.00218162
-0.00130963
-0.000641925
0.00175251
0.00693598
-0.00110327
0.00209744
0.00516572
0.00224343
0.0038763
0.00225928
0.00293458
0.00218573
0.00225257
0.00203936
0.0017776
0.00181563
0.00148356
0.00149099
0.00136644
0.0010282
0.00144056
0.00038458
0.00173907
-0.000472348
0.00231293
0.00320179
-0.00149252
0.00159697
0.00635071
-0.00101169
0.00190141
0.00486128
0.00201871
0.003759
0.00200669
0.00294659
0.00189857
0.0023607
0.00170809
0.00196808
0.00143405
0.00175761
0.00106613
0.00173436
0.000589569
0.00191712
-1.08873e-05
0.00233953
-0.000740203
0.00304224
0.00403066
-0.00156907
0.00142339
0.00582891
-0.000901587
0.00169217
0.0045925
0.00178624
0.00366492
0.00175571
0.00297713
0.00163097
0.00248543
0.001427
0.00217205
0.00114871
0.00203589
0.000794093
0.00208897
0.000355338
0.00235587
-0.00017788
0.00287274
-0.000815724
0.00368009
0.00477949
-0.00156455
0.00125461
0.00536402
-0.000789727
0.00149288
0.00435423
0.00157022
0.00358758
0.00153206
0.00301529
0.00140578
0.0026117
0.00120795
0.00236988
0.000946198
0.00229764
0.000621046
0.00241413
0.000226194
0.00275072
-0.000250085
0.00334902
-0.000821173
0.00425117
0.00546869
-0.00151038
0.00110082
0.00494415
-0.00068096
0.00131214
0.00414291
0.0013792
0.00352052
0.00134072
0.00305377
0.00122204
0.00273038
0.00103907
0.00255285
0.000799731
0.00253698
0.00050502
0.00270883
0.000149016
0.00310672
-0.000280548
0.00377858
-0.000802403
0.00477303
0.00610447
-0.00143818
0.000966791
0.00458303
-0.000605672
0.00115615
0.00395355
0.00121596
0.00346071
0.00118017
0.00308955
0.00107227
0.00283828
0.000906312
0.00271881
0.000689607
0.00275368
0.000422708
0.00297573
9.93095e-05
0.00343012
-0.000291973
0.00416986
-0.000770602
0.00525165
0.00668744
-0.00135357
0.000848962
0.00425436
-0.000520292
0.00102003
0.00378248
0.00107552
0.00340523
0.0010445
0.00312056
0.000948035
0.00293474
0.000799613
0.00286723
0.000605081
0.00294821
0.000363968
0.00321684
6.91546e-05
0.00372493
-0.000291311
0.00453033
-0.000730978
0.00569132
0.0072293
-0.00127284
0.000741803
0.00395631
-0.000443749
0.00090036
0.00362392
0.000954283
0.0033513
0.000928024
0.00314682
0.00084198
0.00302079
0.000709244
0.00299997
0.000533727
0.00312373
0.000316037
0.00343453
4.55767e-05
0.00399539
-0.000287763
0.00486367
-0.000691492
0.00609505
0.00772004
-0.00118224
0.000652258
0.00369951
-0.000395465
0.000796897
0.00347928
0.000849304
0.0032989
0.000826929
0.0031692
0.000750429
0.00309728
0.000633429
0.00311697
0.000477733
0.00327942
0.000283845
0.00362842
3.51507e-05
0.00424408
-0.000281021
0.00517984
-0.000670736
0.00648476
-0.00113247
0.00818177
-0.00212245
0.00366192
-0.00284911
-0.00324174
0.0050406
-0.00392131
-0.00433367
0.00610413
-0.0050122
-0.00528563
0.00718237
-0.00623041
-0.00604
0.00839383
-0.00763946
-0.00654987
0.00977852
-0.00926865
-0.00676117
0.0113811
-0.0111698
-0.00663324
0.0132623
-0.0133903
-0.00610368
0.015482
-0.0160115
-0.00510929
0.018115
-0.0191094
-0.00356689
0.0212466
-0.022789
0.0249707
-0.0271597
-0.00137792
-0.0023889
0.00455829
-0.00342403
0.00607573
-0.00441306
0.00709317
-0.0052534
0.00802271
-0.00589554
0.00903596
-0.00630882
0.0101918
-0.00645683
0.0115291
-0.00629549
0.013101
-0.00577827
0.0149647
-0.00484231
0.0171791
-0.00340909
0.0198134
0.0229557
-0.0013941
-0.00244979
0.005439
-0.00338511
0.00701105
-0.00427153
0.00797959
-0.00501097
0.00876215
-0.00557688
0.00960186
-0.0059327
0.0105476
-0.00605085
0.0116472
-0.00589173
0.0129419
-0.00540895
0.014482
-0.00454283
0.016313
-0.00322666
0.0184972
0.0211014
-0.00137234
-0.00240224
0.00627669
-0.00325258
0.00786139
-0.00404547
0.00877248
-0.00470519
0.00942186
-0.00520262
0.0100993
-0.00551675
0.0108617
-0.00561692
0.0117474
-0.00546775
0.0127927
-0.00502163
0.0140358
-0.0042309
0.0155222
-0.00302833
0.0172946
0.0194083
-0.0013352
-0.00229081
0.00705713
-0.00306953
0.0086401
-0.00378004
0.00948298
-0.00436972
0.0100115
-0.0048155
0.0105451
-0.00509419
0.0111404
-0.00518082
0.011834
-0.00504313
0.012655
-0.00463892
0.0136316
-0.0039193
0.0148026
-0.00282207
0.0161974
0.0178698
-0.00128363
-0.00215611
0.00777507
-0.00286519
0.00934917
-0.00350554
0.0101233
-0.00403549
0.0105415
-0.00443496
0.0109446
-0.00468543
0.0113909
-0.00476474
0.0119133
-0.00463839
0.0125287
-0.00427095
0.0132642
-0.00361522
0.0141469
-0.00262056
0.0152028
0.0164685
-0.00121918
-0.00201464
0.00843613
-0.00265658
0.00999112
-0.00323498
0.0107017
-0.00370907
0.0110156
-0.00406839
0.0113039
-0.00429581
0.0116183
-0.00436468
0.0119822
-0.00424978
0.0124138
-0.0039175
0.0129319
-0.00332408
0.0135535
-0.0024199
0.0142986
0.0151928
-0.00114425
-0.00187657
0.00903986
-0.00245914
0.0105737
-0.00297484
0.0112174
-0.0034019
0.0114426
-0.00372586
0.0116278
-0.00393051
0.011823
-0.00399299
0.0120447
-0.00388961
0.0123104
-0.00358834
0.0126306
-0.00304879
0.0130139
-0.0022272
0.013477
0.0140362
-0.00107059
-0.00173443
0.00959205
-0.00226199
0.0111012
-0.00272529
0.0116807
-0.00311062
0.011828
-0.00340332
0.0119205
-0.0035888
0.0120084
-0.00364744
0.0121033
-0.00355541
0.0122183
-0.00328034
0.0123556
-0.00279239
0.012526
-0.00204935
0.0127339
0.0129843
-0.000997412
-0.00162825
0.0100878
-0.00209239
0.0115654
-0.00249798
0.0120863
-0.00284238
0.0121724
-0.00310556
0.0121837
-0.00327303
0.0121759
-0.00332538
0.0121557
-0.00324216
0.0121351
-0.00299758
0.012111
-0.00255467
0.0120831
-0.00187935
0.0120586
-0.000924722
0.0120297
0.00323577
-0.00166463
0.00621308
-0.000740831
0.00915633
0.000367014
0.011988
0.0018443
0.014516
0.00383641
0.016541
0.00638819
0.0178945
0.00948859
0.0184802
0.013076
0.0183114
0.0170539
0.0175335
0.0213435
0.0163923
0.0259783
0.0311634
0.0151498
5.79958e-05
-0.00172265
0.00101289
-0.00169541
0.00262245
-0.00124254
0.00477628
-0.000309524
0.00737891
0.00123381
0.0101798
0.00358729
0.012804
0.00686436
0.014857
0.011023
0.0160488
0.0158621
0.016303
0.0210894
0.0157876
0.0264937
0.0321023
0.0148486
-6.79664e-05
-0.00165465
-4.92679e-05
-0.00171385
0.000256967
-0.00154887
0.00107585
-0.0011283
0.00259205
-0.000282474
0.00484735
0.00133198
0.0076378
0.00407387
0.0105106
0.00815013
0.0128927
0.01348
0.0143276
0.0196544
0.0146906
0.0261307
0.0325647
0.0142282
1.33992e-05
-0.00166801
0.000109752
-0.00181003
0.000312261
-0.0017514
0.000687039
-0.00150297
0.00134985
-0.000945322
0.0025233
0.000158564
0.0044047
0.00219244
0.00693155
0.00562327
0.00966489
0.0107466
0.0119309
0.0173884
0.0131983
0.0248633
0.0323747
0.0133883
5.20242e-06
-0.00167309
3.66572e-05
-0.00184137
0.000128055
-0.00184274
0.000317894
-0.00169273
0.000678654
-0.00130605
0.0013473
-0.000510032
0.0025297
0.00101004
0.0044029
0.00375008
0.00688539
0.00826414
0.00947113
0.0148027
0.0114287
0.0229057
0.0315453
0.0122581
-5.61129e-06
-0.00166747
1.83355e-05
-0.00186528
8.57699e-05
-0.00191017
0.000219062
-0.00182598
0.000457289
-0.00154427
0.000877124
-0.000929836
0.00161563
0.000271548
0.00288273
0.00248299
0.00483375
0.00631314
0.00729125
0.0123452
0.00962224
0.0205748
0.0300722
0.0110953
-6.61005e-06
-0.00166081
4.22371e-06
-0.00187608
4.38365e-05
-0.00194976
0.000128483
-0.0019106
0.000285807
-0.00170158
0.000568035
-0.00121204
0.00107172
-0.000232125
0.00195411
0.00160062
0.00341438
0.00485288
0.0055188
0.0102408
0.00789925
0.0181943
0.0282106
0.00976087
-1.0233e-05
-0.00165057
-6.78955e-06
-0.00187951
1.83216e-05
-0.00197487
7.76144e-05
-0.00196989
0.000189643
-0.00181361
0.000390442
-0.00141283
0.000748194
-0.000589869
0.00138027
0.000968558
0.00246441
0.00376875
0.00416884
0.00853636
0.00638726
0.0159759
0.0260606
0.0085373
-1.22624e-05
-0.0016383
-1.53014e-05
-0.00187647
-2.54896e-06
-0.00198761
3.55745e-05
-0.00200801
0.000113898
-0.00189192
0.000258379
-0.00155731
0.000520048
-0.00085153
0.000988169
0.000500445
0.00180523
0.0029517
0.00315285
0.00718875
0.00508514
0.0140436
0.0239288
0.0072169
-1.48245e-05
-0.00162346
-2.36246e-05
-0.00186766
-2.00857e-05
-0.00199115
2.89494e-06
-0.00203098
5.67918e-05
-0.00194581
0.000161558
-0.00166207
0.000355174
-0.00104514
0.000707079
0.000148546
0.00133173
0.00232706
0.00239281
0.00612768
0.00402154
0.0124149
0.0218859
0.00606452
-1.71101e-05
-0.00160634
-3.04203e-05
-0.00185434
-3.51468e-05
-0.00198641
-2.46956e-05
-0.00204143
9.97253e-06
-0.00198048
8.42674e-05
-0.00173636
0.000227885
-0.00118876
0.00049575
-0.000119314
0.000980479
0.00184233
0.00182316
0.005285
0.00318127
0.0110568
0.0200372
0.00502997
-1.95883e-05
-0.00158673
-3.7315e-05
-0.0018366
-4.86019e-05
-0.00197512
-4.86961e-05
-0.00204133
-2.96803e-05
-0.00199949
2.06942e-05
-0.00178673
0.0001258
-0.00129386
0.000329834
-0.000323344
0.000708601
0.00146357
0.00138153
0.00461207
0.00250301
0.00993531
0.0184001
0.0041401
-2.15753e-05
-0.00156515
-4.2898e-05
-0.00181527
-6.00861e-05
-0.00195793
-6.87346e-05
-0.00203268
-6.24151e-05
-0.00200581
-3.12133e-05
-0.00181793
4.37514e-05
-0.00136882
0.000198697
-0.000478285
0.000496725
0.00116555
0.00103982
0.00406898
0.00197204
0.0090031
0.0169633
0.00340882
-2.34128e-05
-0.00154172
-4.77688e-05
-0.0017909
-6.95336e-05
-0.00193616
-8.51981e-05
-0.002017
-8.93187e-05
-0.00200168
-7.34133e-05
-0.00183383
-2.21238e-05
-0.0014201
9.43664e-05
-0.000594771
0.000329329
0.000930592
0.000770409
0.00362791
0.00154739
0.00822612
0.0157255
0.00278516
-2.46807e-05
-0.00151703
-5.13978e-05
-0.00176417
-7.69869e-05
-0.00191056
-9.81567e-05
-0.00199583
-0.00011027
-0.00198957
-0.000106224
-0.00183787
-7.30249e-05
-0.0014533
1.4554e-05
-0.000682345
0.000202344
0.000742808
0.000567107
0.00326315
0.00122711
0.00756612
0.0146191
0.00233357
-2.58835e-05
-0.00149113
-5.46801e-05
-0.00173536
-8.33647e-05
-0.00188187
-0.00010933
-0.00196985
-0.000128472
-0.00197042
-0.000134648
-0.00183169
-0.000116811
-0.00147113
-5.36102e-05
-0.00074554
9.42224e-05
0.000594981
0.000393505
0.00296387
0.000949344
0.00701029
0.0136783
0.00189011
-2.70024e-05
-0.00146412
-5.75584e-05
-0.00170479
-8.90586e-05
-0.00185037
-0.000119071
-0.00193983
-0.000144273
-0.00194521
-0.000159117
-0.00181684
-0.000154488
-0.00147575
-0.000112188
-0.000787835
1.60102e-06
0.000481198
0.000244461
0.00272102
0.000707343
0.00654741
0.0128678
0.0015179
-2.76762e-05
-0.00143642
-5.95763e-05
-0.00167288
-9.31551e-05
-0.00181678
-0.000126433
-0.00190655
-0.000156241
-0.0019154
-0.000177982
-0.00179509
-0.000183566
-0.00147017
-0.000157146
-0.000814248
-6.89463e-05
0.000393004
0.000132699
0.00251938
0.000531616
0.0061485
0.012146
0.00125345
-2.83861e-05
-0.00140802
-6.14473e-05
-0.0016398
-9.68802e-05
-0.00178134
-0.000132941
-0.00187048
-0.000167044
-0.00188129
-0.000194962
-0.00176717
-0.000209744
-0.00145538
-0.000197869
-0.000826118
-0.000133338
0.00032848
2.91771e-05
0.00235687
0.000363538
0.00581415
0.0115448
0.00096465
-2.87275e-05
-0.00137928
-6.25281e-05
-0.00160599
-9.92654e-05
-0.0017446
-0.0001374
-0.00183233
-0.000174609
-0.00184408
-0.000207258
-0.00173451
-0.000229179
-0.00143345
-0.000228405
-0.000826886
-0.000181812
0.000281894
-4.87132e-05
0.00222378
0.000238182
0.00552726
0.0109919
0.000791098
-2.89943e-05
-0.00135027
-6.33836e-05
-0.00157159
-0.000101147
-0.00170683
-0.000140977
-0.0017925
-0.000180857
-0.00180419
-0.000217567
-0.0016978
-0.000245607
-0.00140541
-0.000254508
-0.000817979
-0.000223821
0.000251213
-0.000116868
0.00211683
0.000127471
0.00528293
0.0105225
0.000596911
-2.89668e-05
-0.00132129
-6.3561e-05
-0.00153698
-0.000101935
-0.00166845
-0.000142923
-0.0017515
-0.000184763
-0.00176235
-0.000224504
-0.00165805
-0.00025727
-0.00137263
-0.000273599
-0.000801643
-0.000254926
0.000232547
-0.000167934
0.00202985
4.32933e-05
0.00507171
0.0100889
0.000476898
-2.90281e-05
-0.00129224
-6.38957e-05
-0.0015021
-0.000102812
-0.00162953
-0.000144845
-0.00170946
-0.000188538
-0.00171865
-0.000231406
-0.00161517
-0.000269211
-0.00133482
-0.000293802
-0.000777046
-0.00028921
0.000227962
-0.000226267
0.00196691
-5.63436e-05
0.00490179
0.00974933
0.00028324
-2.87356e-05
-0.00126349
-6.34448e-05
-0.00146737
-0.000102371
-0.00159059
-0.000144681
-0.00166714
-0.000189113
-0.00167421
-0.00023351
-0.00157077
-0.000274096
-0.00129423
-0.000303675
-0.00074746
-0.000307715
0.00023201
-0.000259548
0.00191875
-0.000114366
0.00475662
0.00943322
0.000201758
-2.83955e-05
-0.00123508
-6.29091e-05
-0.00143285
-0.000101776
-0.00155172
-0.000144121
-0.00162479
-0.000188817
-0.00162951
-0.000233868
-0.00152571
-0.000275875
-0.00125222
-0.000308212
-0.000715117
-0.000317575
0.00024138
-0.000278913
0.00188009
-0.000148826
0.00462654
0.0091385
0.000145893
-2.84359e-05
-0.00120663
-6.31359e-05
-0.00139813
-0.000102364
-0.00151249
-0.000145318
-0.00158182
-0.000190861
-0.00158396
-0.000237185
-0.00147938
-0.000281173
-0.00120822
-0.000316965
-0.00067932
-0.000332609
0.000257031
-0.00030533
0.00185282
-0.000195428
0.00451664
0.00888978
5.33056e-05
-2.85268e-05
-0.00117809
-6.38522e-05
-0.0013628
-0.000103981
-0.00147235
-0.000148097
-0.0015377
-0.000195311
-0.00153674
-0.000243777
-0.00143091
-0.000290636
-0.00116136
-0.000330472
-0.000639477
-0.000352566
0.00027913
-0.000336778
0.00183704
-0.00024808
0.00442795
0.00865147
-9.75992e-06
-2.97068e-05
-0.00114837
-6.61588e-05
-0.00132633
-0.000107936
-0.00143057
-0.000154434
-0.0014912
-0.000204708
-0.00148646
-0.000257576
-0.00137804
-0.000310612
-0.00110832
-0.000359625
-0.000590459
-0.000395973
0.000315485
-0.000403329
0.0018444
-0.000356194
0.00438082
0.00855004
-0.000254758
-2.99735e-05
-0.00111838
-6.7057e-05
-0.00128924
-0.000109489
-0.00138813
-0.000156998
-0.00144368
-0.000208948
-0.00143451
-0.000263965
-0.00132302
-0.00031994
-0.00105234
-0.000372728
-0.000537665
-0.00041393
0.000356694
-0.000427503
0.00185798
-0.000382696
0.00433602
0.00835004
-0.000182691
-3.04326e-05
-0.00108794
-6.798e-05
-0.00125168
-0.000111347
-0.00134476
-0.000160008
-0.00139501
-0.000213471
-0.00138104
-0.000270874
-0.00126561
-0.00033025
-0.000992957
-0.00038808
-0.00047983
-0.00043696
0.00040558
-0.000461824
0.00188285
-0.000436761
0.00431096
0.00826055
-0.000347266
-3.02074e-05
-0.00105771
-6.76528e-05
-0.00121422
-0.00011066
-0.00130174
-0.000159224
-0.00134644
-0.000212814
-0.00132745
-0.000270324
-0.00120809
-0.000329969
-0.000933307
-0.0003881
-0.000421694
-0.000437136
0.000454622
-0.000462211
0.00190793
-0.000435948
0.0042847
0.00811263
-0.00028802
-3.02058e-05
-0.0010275
-6.75737e-05
-0.00117685
-0.000110963
-0.00125835
-0.000159766
-0.00129763
-0.00021381
-0.0012734
-0.00027224
-0.00114966
-0.000333311
-0.000872231
-0.000393826
-0.000361174
-0.000447208
0.000508009
-0.000479988
0.00194072
-0.000468914
0.00427363
0.00805068
-0.00040696
-2.99948e-05
-0.00099749
-6.72339e-05
-0.0011396
-0.000110258
-0.00121532
-0.000159034
-0.00124885
-0.000213041
-0.00121939
-0.000271613
-0.00109108
-0.000333078
-0.000810762
-0.000394299
-0.000299948
-0.000448671
0.000562386
-0.000483267
0.00197532
-0.000474131
0.0042645
0.00793838
-0.000361828
-2.95565e-05
-0.000967927
-6.64246e-05
-0.00110272
-0.000109227
-0.00117251
-0.000157637
-0.00120043
-0.000211483
-0.00116554
-0.00026979
-0.00103276
-0.000330988
-0.000749559
-0.000391839
-0.000239092
-0.000445739
0.000616291
-0.000478889
0.00200847
-0.000464016
0.00424964
0.00781739
-0.000343019
-2.93362e-05
-0.000938579
-6.58998e-05
-0.00106615
-0.000108585
-0.00112982
-0.000157247
-0.00115176
-0.00021153
-0.00111125
-0.000270844
-0.000973444
-0.000333659
-0.00068674
-0.000397164
-0.000175582
-0.000455662
0.000674795
-0.000497479
0.00205029
-0.000501904
0.00425406
0.007764
-0.000448508
-2.91089e-05
-0.000909467
-6.53494e-05
-0.0010299
-0.000107563
-0.0010876
-0.0001559
-0.00110342
-0.000210346
-0.0010568
-0.000270241
-0.000913543
-0.000334462
-0.000622514
-0.000400597
-0.000109442
-0.000463726
0.000737929
-0.000514025
0.0021006
-0.000532815
0.00427286
0.00771874
-0.000487557
-2.80706e-05
-0.000881384
-6.30942e-05
-0.000994868
-0.00010422
-0.00104647
-0.000151366
-0.00105626
-0.000204426
-0.00100374
-0.000263099
-0.000854863
-0.000326134
-0.000559474
-0.000391085
-4.44864e-05
-0.000452987
0.000799836
-0.000501456
0.00214907
-0.000516736
0.00428815
0.00764757
-0.000445562
-2.7369e-05
-0.000854014
-6.14903e-05
-0.000960741
-0.000101295
-0.00100666
-0.000147134
-0.00101042
-0.000199015
-0.00095185
-0.000256506
-0.000797366
-0.000318668
-0.000497307
-0.000383333
2.01836e-05
-0.000445867
0.000862374
-0.000496787
0.0022
-0.000519302
0.00431066
0.00764168
-0.000513401
-2.61556e-05
-0.000827844
-5.89386e-05
-0.000927947
-9.74196e-05
-0.000968168
-0.000141494
-0.000966331
-0.000191364
-0.000901974
-0.000246758
-0.000741965
-0.000306704
-0.000437358
-0.000369071
8.25549e-05
-0.000429483
0.000922792
-0.000478801
0.00224932
-0.000498657
0.00433052
0.0075796
-0.000436581
-2.54685e-05
-0.000802375
-5.73232e-05
-0.000896086
-9.45704e-05
-0.000930917
-0.000137422
-0.000923471
-0.00018583
-0.000853563
-0.000239668
-0.000688121
-0.000298075
-0.000378947
-0.000359249
0.000143733
-0.000419279
0.000982825
-0.00047033
0.00230037
-0.000498114
0.00435831
0.00757248
-0.000490989
-2.5009e-05
-0.000777349
-5.63164e-05
-0.000864764
-9.29867e-05
-0.000894238
-0.000134979
-0.000881469
-0.000182525
-0.000806013
-0.000235394
-0.000635247
-0.000293022
-0.000321314
-0.00035384
0.000204554
-0.000414593
0.00104358
-0.000468686
0.00235447
-0.000504221
0.00439385
0.00756956
-0.000501298
-2.45796e-05
-0.000752769
-5.54941e-05
-0.000833842
-9.17353e-05
-0.000857996
-0.000133315
-0.000839883
-0.000180225
-0.0007591
-0.00023238
-0.000583088
-0.000289163
-0.000264528
-0.000349157
0.000264551
-0.000409246
0.00110367
-0.00046279
0.00240801
-0.000496509
0.00442757
0.00755244
-0.000479381
-2.45888e-05
-0.000728157
-5.55762e-05
-0.000802838
-9.17714e-05
-0.000821792
-0.000133444
-0.000798203
-0.000180639
-0.000711901
-0.000233174
-0.000530548
-0.000290594
-0.000207107
-0.000351715
0.000325674
-0.000413973
0.00116593
-0.000471659
0.0024657
-0.000514279
0.00447019
0.00757311
-0.000534954
-2.44851e-05
-0.000703671
-5.52822e-05
-0.000772033
-9.15406e-05
-0.000785535
-0.000133169
-0.000756571
-0.000180429
-0.00066464
-0.000233271
-0.000477704
-0.000291253
-0.000149123
-0.000353301
0.000387724
-0.000417134
0.00122977
-0.000477609
0.00252618
-0.000523157
0.00451574
0.00757468
-0.00052473
-2.38838e-05
-0.000679762
-5.40859e-05
-0.000741813
-8.94946e-05
-0.000750119
-0.000130453
-0.000715607
-0.00017697
-0.000618121
-0.000229031
-0.000425641
-0.000286111
-9.20409e-05
-0.000347062
0.000448676
-0.000409225
0.00129193
-0.000467212
0.00258416
-0.000509856
0.00455839
0.00756846
-0.000503629
-2.34603e-05
-0.000656301
-5.30699e-05
-0.000712197
-8.79454e-05
-0.000715245
-0.000128156
-0.000675395
-0.000174056
-0.00057222
-0.000225602
-0.000374094
-0.000282409
-3.5233e-05
-0.000343435
0.000509704
-0.000406648
0.00135515
-0.000467412
0.00264493
-0.000518511
0.00460949
0.00762841
-0.000578459
-2.247e-05
-0.000633807
-5.08111e-05
-0.000683841
-8.41654e-05
-0.000681885
-0.000122699
-0.000636859
-0.000166556
-0.000528363
-0.000215747
-0.000324902
-0.000269798
1.8819e-05
-0.000327337
0.000567243
-0.000385391
0.0014132
-0.000438109
0.00269765
-0.000472081
0.00464346
0.00759143
-0.000435105
-2.1711e-05
-0.000612098
-4.92564e-05
-0.000656292
-8.1536e-05
-0.000649609
-0.000118791
-0.000599605
-0.000161216
-0.000485938
-0.000208716
-0.000277403
-0.000260846
7.09492e-05
-0.000316381
0.000622779
-0.000372685
0.00146951
-0.000423996
0.00274896
-0.000459599
0.00467906
0.00760508
-0.000473249
-2.12294e-05
-0.000590847
-4.82059e-05
-0.000629304
-7.99532e-05
-0.000617857
-0.000116567
-0.00056299
-0.00015822
-0.000444285
-0.000204993
-0.00023063
-0.000256525
0.000122481
-0.000311845
0.000678099
-0.000368925
0.00152659
-0.000423619
0.00280366
-0.000468199
0.00472365
0.007625
-0.000488118
-2.08118e-05
-0.000570039
-4.73483e-05
-0.000602769
-7.84184e-05
-0.00058679
-0.000114324
-0.000527088
-0.000155215
-0.000403396
-0.000201107
-0.00018474
-0.00025172
0.000173094
-0.000306141
0.00073252
-0.000362317
0.00158277
-0.000416045
0.00285738
-0.000458612
0.00476621
0.00763491
-0.000468519
-2.04647e-05
-0.000549557
-4.66124e-05
-0.000576614
-7.74216e-05
-0.000555977
-0.00011293
-0.000491581
-0.000153418
-0.000362908
-0.000198936
-0.000139224
-0.000249225
0.000223382
-0.000303521
0.000786816
-0.000360078
0.00163932
-0.000414945
0.00291225
-0.000460976
0.00481225
0.00766965
-0.00049572
-2.02469e-05
-0.000529315
-4.61808e-05
-0.000550685
-7.65135e-05
-0.000525649
-0.000111552
-0.000456549
-0.000151479
-0.000322982
-0.000196426
-9.42788e-05
-0.000246154
0.00027311
-0.000299874
0.000840535
-0.000355764
0.00169521
-0.00041006
0.00296655
-0.000453419
0.00485561
0.00767585
-0.000459615
-1.96158e-05
-0.000509687
-4.49998e-05
-0.000525299
-7.48388e-05
-0.000495807
-0.000109222
-0.000422169
-0.000148386
-0.000283818
-0.000192415
-5.02527e-05
-0.000241112
0.000321806
-0.000293637
0.000893059
-0.000348266
0.00174984
-0.000400982
0.00301926
-0.000443887
0.00489851
0.00768378
-0.000451815
-1.98467e-05
-0.000489844
-4.53546e-05
-0.000499797
-7.53635e-05
-0.0004658
-0.000110072
-0.000387466
-0.000149711
-0.00024418
-0.00019444
-5.52559e-06
-0.000244222
0.000371587
-0.000298861
0.000947698
-0.000357544
0.00180852
-0.000418845
0.00308057
-0.000481744
0.00496141
0.00778204
-0.000580006
-1.9363e-05
-0.000470473
-4.43094e-05
-0.000474852
-7.35539e-05
-0.000436553
-0.000107444
-0.00035358
-0.000146192
-0.000205431
-0.000189941
3.82207e-05
-0.000238503
0.000420149
-0.000291186
0.00100038
-0.000346492
0.00186383
-0.000401089
0.00313516
-0.000446048
0.00500637
0.00776438
-0.000428388
-1.88607e-05
-0.000451618
-4.31256e-05
-0.000450592
-7.16792e-05
-0.000408001
-0.000104644
-0.000320619
-0.000142281
-0.000167793
-0.000184686
8.0623e-05
-0.000231662
0.000467125
-0.000282462
0.00105118
-0.000335232
0.0019166
-0.000385678
0.00318561
-0.000425404
0.0050461
0.00779229
-0.000453312
-1.85622e-05
-0.000433051
-4.2439e-05
-0.000426717
-7.04055e-05
-0.000380032
-0.000102791
-0.000288236
-0.000139793
-0.00013079
-0.000181549
0.000122378
-0.000227889
0.000513465
-0.000278188
0.00110148
-0.000331072
0.00196948
-0.000383835
0.00323837
-0.000431492
0.00509376
0.00782619
-0.000465391
-1.83432e-05
-0.000414714
-4.19037e-05
-0.00040316
-6.95442e-05
-0.000352393
-0.000101449
-0.000256333
-0.000137924
-9.43156e-05
-0.0001791
0.000163553
-0.000224908
0.000559273
-0.000274822
0.00115139
-0.000327664
0.00202232
-0.000380827
0.00329153
-0.000429266
0.00514219
0.0078615
-0.000464579
-1.82972e-05
-0.000396408
-4.16685e-05
-0.000379787
-6.90086e-05
-0.000325049
-0.00010058
-0.000224761
-0.000136622
-5.82729e-05
-0.000177299
0.00020423
-0.00022252
0.000604495
-0.000271807
0.00120068
-0.00032375
0.00207427
-0.000375712
0.00334349
-0.000421675
0.00518816
0.0078853
-0.000445476
-1.84559e-05
-0.000377956
-4.18724e-05
-0.000356373
-6.92846e-05
-0.000297637
-0.000100915
-0.000193131
-0.000137003
-2.21849e-05
-0.000177743
0.00024497
-0.000223054
0.000649805
-0.000272541
0.00125016
-0.000325107
0.00212683
-0.000378241
0.00339663
-0.000427378
0.00523729
0.00792855
-0.000470623
-1.88214e-05
-0.000359127