/*--------------------------------*- C++ -*----------------------------------*\
| =========                 |                                                 |
| \\      /  F ield         | OpenFOAM: The Open Source CFD Toolbox           |
|  \\    /   O peration     | Version:  2.3.0                                 |
|   \\  /    A nd           | Web:      www.OpenFOAM.org                      |
|    \\/     M anipulation  |                                                 |
\*---------------------------------------------------------------------------*/
FoamFile
{
    version     2.0;
    format      ascii;
    class       volScalarField;
    location    "3000";
    object      nuTilda;
}
// * * * * * * * * * * * * * * * * * * * * * * * * * * * * * * * * * * * * * //

dimensions      [0 2 -1 0 0 0 0];

internalField   nonuniform List<scalar> 
39559
(
0.0469131
0.0453105
0.0437342
0.0421829
0.0406574
0.039159
0.0376895
0.0362498
0.0348427
0.0334716
0.0321397
0.0308468
0.0295965
0.0283893
0.0272175
0.0260679
0.0249388
0.0238312
0.0227502
0.0216982
0.020676
0.0196859
0.0187268
0.0177979
0.0168969
0.0160216
0.0151681
0.0143336
0.0135172
0.0127183
0.0119388
0.0111792
0.0104407
0.00972427
0.00902928
0.00835332
0.00769421
0.00705056
0.00642431
0.00582186
0.00525532
0.00475934
0.00449047
0.0489728
0.047565
0.0461766
0.0448076
0.0434579
0.0421284
0.0408196
0.0395318
0.0382657
0.0370224
0.035802
0.0346053
0.0334332
0.0322845
0.0311586
0.0300539
0.0289699
0.0279067
0.0268654
0.0258473
0.0248536
0.023887
0.0229481
0.0220392
0.021162
0.0203177
0.0195044
0.0187174
0.0179504
0.0172011
0.0164702
0.0157622
0.0150835
0.0144469
0.0138689
0.0133697
0.0129599
0.0126424
0.0124224
0.0123095
0.0123174
0.0124565
0.0127404
0.0508431
0.0496037
0.0483771
0.0471646
0.0459674
0.0447853
0.0436192
0.0424687
0.0413342
0.0402163
0.0391149
0.0380307
0.0369637
0.0359152
0.0348836
0.0338694
0.0328728
0.0318934
0.0309325
0.02999
0.0290669
0.0281641
0.0272831
0.0264249
0.0255913
0.0247834
0.0240028
0.0232508
0.022529
0.0218396
0.0211853
0.0205717
0.0200029
0.0194861
0.0190295
0.0186406
0.018329
0.0181022
0.017969
0.0179368
0.0180137
0.0182051
0.0185114
0.0525437
0.0514444
0.0503552
0.0492769
0.0482102
0.0471551
0.0461116
0.0450798
0.0440601
0.0430523
0.042056
0.0410726
0.0401023
0.0391449
0.038202
0.037273
0.036358
0.0354577
0.0345722
0.0337021
0.0328483
0.0320109
0.0311914
0.0303913
0.0296131
0.0288578
0.0281269
0.0274245
0.0267514
0.0261119
0.025509
0.0249475
0.024433
0.02397
0.023566
0.0232282
0.0229629
0.0227783
0.0226822
0.0226805
0.0227795
0.0229823
0.0232898
0.0540815
0.0531033
0.0521319
0.0511683
0.0502129
0.049266
0.0483273
0.0473971
0.0464754
0.0455621
0.0446568
0.0437598
0.0428715
0.0419934
0.0411258
0.0402692
0.0394236
0.0385906
0.0377696
0.0369615
0.0361668
0.035386
0.0346198
0.0338705
0.0331399
0.0324293
0.0317422
0.0310807
0.0304479
0.0298469
0.0292821
0.0287575
0.0282786
0.0278509
0.0274801
0.0271726
0.0269356
0.0267764
0.0267012
0.0267163
0.0268265
0.0270336
0.0273391
0.0554714
0.0545973
0.0537274
0.0528621
0.052002
0.0511471
0.0502973
0.0494534
0.0486151
0.0477826
0.0469555
0.0461325
0.0453146
0.0445027
0.0436983
0.042902
0.0421148
0.0413372
0.0405697
0.0398134
0.0390684
0.038336
0.0376156
0.0369092
0.0362185
0.0355459
0.0348939
0.0342656
0.0336648
0.0330939
0.0325584
0.0320622
0.0316097
0.0312071
0.0308597
0.0305734
0.0303551
0.030212
0.03015
0.0301747
0.0302901
0.0304987
0.0308017
0.0567264
0.0559425
0.0551599
0.0543789
0.0536005
0.0528243
0.0520506
0.0512794
0.0505116
0.0497477
0.0489872
0.0482296
0.0474726
0.0467168
0.0459648
0.0452191
0.0444803
0.043749
0.0430252
0.0423107
0.0416075
0.0409157
0.0402347
0.0395653
0.0389085
0.0382678
0.0376457
0.0370449
0.0364688
0.0359225
0.0354095
0.0349349
0.0345031
0.0341192
0.0337897
0.0335195
0.0333151
0.0331831
0.0331297
0.0331599
0.0332781
0.0334863
0.0337865
0.0578598
0.0571543
0.0564467
0.0557382
0.0550298
0.0543214
0.0536126
0.0529032
0.0521939
0.051487
0.0507833
0.0500825
0.0493811
0.0486741
0.0479656
0.047262
0.046564
0.0458716
0.0451839
0.0445027
0.0438322
0.0431734
0.0425276
0.0418913
0.0412642
0.0406505
0.040054
0.039477
0.0389219
0.0383936
0.0378988
0.0374418
0.0370257
0.0366563
0.0363408
0.0360837
0.0358902
0.0357664
0.0357189
0.0357539
0.0358742
0.0360809
0.0363774
0.0588887
0.0582448
0.0575993
0.0569506
0.0563007
0.0556498
0.054997
0.054341
0.0536806
0.0530187
0.052359
0.051704
0.0510547
0.0503986
0.049723
0.0490544
0.0483878
0.0477292
0.0470749
0.0464215
0.045775
0.0451404
0.044521
0.0439181
0.0433182
0.042728
0.0421536
0.0416008
0.0410657
0.0405506
0.0400703
0.0396288
0.039228
0.0388697
0.0385663
0.0383211
0.0381396
0.0380226
0.0379789
0.0380195
0.038146
0.0383491
0.0386411
0.00532605
0.00690242
0.00799229
0.00910438
0.0102908
0.0115456
0.0128547
0.0142051
0.0155871
0.0169946
0.018423
0.0198698
0.0213322
0.0228097
0.0243009
0.0258043
0.02732
0.0288473
0.0303853
0.0319338
0.0334925
0.0350612
0.0366396
0.0382271
0.0398235
0.0414284
0.0430413
0.0446619
0.04629
0.0479247
0.0495658
0.0512125
0.0528642
0.0545203
0.0561804
0.0578436
0.059509
0.0611756
0.0628426
0.0645088
0.0661731
0.0678341
0.0694955
0.0131845
0.0137868
0.0145266
0.0153916
0.0163669
0.0174351
0.0185801
0.019788
0.0210464
0.0223449
0.0236762
0.0250331
0.0264107
0.0278052
0.0292138
0.0306334
0.0320623
0.0334998
0.0349445
0.036395
0.0378508
0.0393116
0.0407769
0.042246
0.0437187
0.0451951
0.0466741
0.0481558
0.0496401
0.0511265
0.052615
0.0541052
0.0555969
0.0570896
0.0585832
0.0600773
0.0615714
0.0630649
0.0645573
0.066048
0.0675364
0.0690216
0.0705073
0.0189326
0.0194724
0.0201319
0.0209041
0.0217767
0.0227383
0.0237768
0.02488
0.0260369
0.0272375
0.0284743
0.0297398
0.0310281
0.0323345
0.0336552
0.0349872
0.0363273
0.037674
0.0390258
0.0403809
0.0417386
0.0430981
0.0444586
0.0458193
0.0471802
0.0485409
0.0499008
0.0512597
0.0526176
0.0539741
0.0553294
0.0566834
0.0580361
0.0593875
0.0607372
0.0620851
0.063431
0.0647749
0.066116
0.0674545
0.0687898
0.0701216
0.0714533
0.0237
0.024216
0.0248385
0.0255616
0.026377
0.0272755
0.0282468
0.0292802
0.0303658
0.0314949
0.0326596
0.0338532
0.0350694
0.0363031
0.0375501
0.0388073
0.0400713
0.0413398
0.0426113
0.0438841
0.0451571
0.0464289
0.047699
0.0489663
0.0502307
0.0514919
0.0527492
0.0540025
0.0552519
0.0564972
0.0577382
0.0589755
0.060209
0.0614389
0.0626651
0.0638875
0.0651059
0.0663205
0.0675309
0.0687371
0.0699391
0.071137
0.072334
0.0277415
0.0282424
0.0288421
0.0295349
0.0303131
0.0311687
0.0320932
0.0330766
0.0341096
0.0351844
0.0362934
0.0374298
0.0385877
0.0397621
0.0409481
0.0421429
0.043343
0.0445459
0.0457496
0.0469524
0.0481531
0.0493503
0.0505433
0.0517312
0.0529134
0.0540899
0.0552597
0.0564229
0.0575793
0.0587294
0.0598731
0.0610105
0.0621422
0.0632686
0.0643892
0.0655038
0.0666127
0.0677156
0.0688128
0.0699044
0.0709903
0.0720707
0.0731494
0.0311981
0.0316881
0.0322713
0.0329422
0.0336938
0.0345185
0.0354081
0.0363541
0.0373471
0.0383796
0.0394447
0.0405357
0.0416462
0.0427718
0.0439079
0.0450513
0.0461985
0.0473463
0.048493
0.0496368
0.0507766
0.0519109
0.0530387
0.0541591
0.0552717
0.0563766
0.0574721
0.058558
0.0596348
0.0607036
0.0617644
0.0628171
0.0638619
0.0648996
0.06593
0.0669522
0.0679666
0.0689732
0.0699725
0.0709644
0.0719494
0.072927
0.0738994
0.0341782
0.0346597
0.0352298
0.0358838
0.0366149
0.037416
0.0382792
0.0391956
0.0401567
0.0411553
0.0421848
0.0432391
0.0443112
0.0453965
0.0464912
0.047592
0.0486944
0.0497957
0.0508942
0.0519887
0.0530771
0.0541579
0.0552301
0.0562935
0.0573478
0.058392
0.0594235
0.060442
0.0614504
0.0624503
0.0634405
0.0644207
0.0653918
0.0663541
0.0673069
0.0682501
0.069183
0.0701059
0.07102
0.071926
0.0728231
0.0737108
0.0745896
0.0367643
0.037239
0.0377974
0.0384382
0.0391535
0.0399357
0.0407775
0.0416706
0.042604
0.0435743
0.0445755
0.0456003
0.0466401
0.0476911
0.0487512
0.0498171
0.0508818
0.051943
0.0530008
0.0540543
0.0550988
0.0561336
0.0571577
0.0581731
0.0591793
0.0601735
0.0611458
0.0621041
0.0630546
0.0639984
0.0649273
0.0658446
0.0667531
0.0676527
0.0685377
0.0694135
0.0702753
0.0711249
0.0719652
0.0727968
0.0736186
0.0744277
0.0752251
0.0390247
0.0394941
0.0400378
0.0406688
0.0413711
0.0421377
0.0429635
0.0438381
0.0447426
0.0456889
0.0466685
0.0476688
0.0486775
0.0496985
0.0507312
0.0517696
0.0527981
0.0538236
0.0548487
0.0558706
0.0568746
0.0578715
0.058853
0.0598326
0.0607998
0.061754
0.0626593
0.0635676
0.064472
0.0653728
0.0662411
0.0671064
0.067965
0.0688151
0.0696347
0.0704557
0.0712515
0.0720373
0.072816
0.0735858
0.0743443
0.0750862
0.0758129
0.0808036
0.0777764
0.0748012
0.0718732
0.0689921
0.0661576
0.0633708
0.0606315
0.0579412
0.0553005
0.0527103
0.0501724
0.0476869
0.045256
0.0428798
0.0405596
0.0382958
0.03609
0.0339424
0.0318535
0.0298229
0.027853
0.0259434
0.0240928
0.0223034
0.020574
0.0189041
0.0172966
0.0157482
0.0142615
0.0128374
0.0114754
0.0101768
0.00894298
0.00777722
0.00668053
0.00565664
0.00471025
0.00384624
0.00308109
0.00248555
0.00188619
0.00118637
0.0825086
0.0797686
0.0770669
0.0743999
0.0717659
0.069166
0.066599
0.0640655
0.0615667
0.0591014
0.0566716
0.0542776
0.0519203
0.0496014
0.0473206
0.0450791
0.0428776
0.0407175
0.0385985
0.0365219
0.0344882
0.0324991
0.030554
0.0286553
0.0268032
0.0249979
0.0232427
0.0215365
0.0198817
0.0182805
0.0167338
0.0152441
0.0138148
0.0124497
0.0111532
0.00993077
0.00879004
0.00775347
0.00684281
0.00592337
0.00495358
0.0038851
0.00263016
0.0841994
0.0817177
0.079264
0.0768338
0.074427
0.0720425
0.0696797
0.0673392
0.0650205
0.0627235
0.0604491
0.0581975
0.0559701
0.0537661
0.0515873
0.0494343
0.0473084
0.0452097
0.0431397
0.0410985
0.0390879
0.0371078
0.0351606
0.0332472
0.0313691
0.029528
0.0277261
0.0259641
0.024246
0.0225743
0.0209519
0.0193834
0.0178746
0.0164314
0.0150642
0.013795
0.0126083
0.0114274
0.010214
0.00893163
0.0075404
0.00599416
0.00422385
0.0858625
0.0836134
0.0813832
0.0791684
0.0769677
0.0747802
0.0726051
0.0704419
0.068291
0.0661514
0.0640236
0.0619081
0.0598047
0.057714
0.0556378
0.0535759
0.0515291
0.0494983
0.0474854
0.0454903
0.0435144
0.0415593
0.0396269
0.0377177
0.0358345
0.0339797
0.0321549
0.0303652
0.0286122
0.0269003
0.0252349
0.0236239
0.0220764
0.0206034
0.0191906
0.0177994
0.0163947
0.0149473
0.0134249
0.0117956
0.010024
0.00806387
0.00585861
0.0874849
0.0854455
0.0834174
0.0813969
0.0793828
0.0773738
0.075369
0.0733682
0.0713709
0.0693766
0.0673852
0.0653964
0.0634102
0.0614276
0.0594493
0.0574765
0.0555088
0.0535485
0.0515956
0.0496522
0.0477181
0.0457963
0.0438885
0.0419957
0.0401212
0.0382665
0.0364379
0.0346364
0.0328673
0.031138
0.0294545
0.0278209
0.0262298
0.0246637
0.0231
0.0215145
0.0198833
0.0181799
0.0163759
0.0144409
0.0123382
0.0100234
0.00744741
0.0890571
0.0872064
0.0853598
0.0835144
0.0816679
0.0798198
0.0779688
0.0761151
0.0742575
0.0723955
0.0705291
0.0686576
0.066781
0.0648994
0.063014
0.0611249
0.0592342
0.0573424
0.0554506
0.0535593
0.051671
0.0497872
0.0479096
0.0460411
0.044183
0.0423403
0.0405153
0.0387133
0.0369386
0.035192
0.0334722
0.0317726
0.0300812
0.0283816
0.0266551
0.0248826
0.0230421
0.0211099
0.0190577
0.0168542
0.0144627
0.0118402
0.00894077
0.0905725
0.08889
0.0872057
0.0855166
0.0838206
0.0821166
0.080404
0.0786818
0.0769505
0.0752086
0.0734563
0.0716923
0.0699163
0.0681275
0.0663277
0.0645174
0.0626989
0.0608735
0.0590412
0.0572019
0.0553584
0.0535127
0.0516674
0.0498247
0.0479868
0.0461554
0.0443335
0.0425232
0.0407231
0.0389341
0.0371497
0.0353627
0.0335612
0.03173
0.0298528
0.0279116
0.0258859
0.0237522
0.0214813
0.0190424
0.0163982
0.0135054
0.01032
0.0920279
0.0904926
0.0889513
0.0874017
0.0858396
0.0842646
0.0826749
0.0810693
0.0794508
0.0778173
0.0761677
0.0745006
0.0728163
0.0711118
0.0693907
0.0676514
0.0658971
0.0641343
0.0623601
0.0605705
0.0587644
0.0569542
0.0551328
0.053312
0.0514876
0.0496597
0.0478288
0.0459995
0.0441601
0.0423145
0.04046
0.0385867
0.0366809
0.0347294
0.032718
0.0306271
0.0284383
0.0261282
0.0236693
0.0210225
0.0181567
0.0150266
0.0115861
0.0934268
0.0920123
0.0905938
0.089169
0.087723
0.0862626
0.0847845
0.0832777
0.0817587
0.0802198
0.0786643
0.0770824
0.075484
0.0738487
0.0721997
0.0705225
0.0688205
0.0671106
0.0653967
0.0636639
0.0618743
0.0601035
0.0582865
0.0564743
0.054656
0.05283
0.0509701
0.0491423
0.0472528
0.0453432
0.0434201
0.0414748
0.0394716
0.0374127
0.0352809
0.0330567
0.0307217
0.0282597
0.0256505
0.0228159
0.0197529
0.0164247
0.0127566
0.000570719
0.000578702
0.000806784
0.00102191
0.00122395
0.00141601
0.00160096
0.00178228
0.00196494
0.00215553
0.00236361
0.00260154
0.00287929
0.00319644
0.00354966
0.00393451
0.00434896
0.00479167
0.00526247
0.00576121
0.00628837
0.00684438
0.00743001
0.00804555
0.00869182
0.00936917
0.0100783
0.01082
0.0115949
0.0124038
0.0132478
0.0141274
0.0150438
0.0159975
0.0169897
0.018021
0.0190925
0.0202048
0.0213582
0.0225533
0.0237909
0.0250716
0.0263963
0.00126771
0.00080999
0.00098902
0.00121003
0.00142038
0.00162189
0.00181978
0.00202058
0.00223259
0.00246499
0.00272722
0.00302792
0.00337072
0.00374666
0.00415144
0.00458258
0.00503877
0.00551959
0.00602491
0.00655488
0.00710941
0.007689
0.00829407
0.00892498
0.0095817
0.0102649
0.010975
0.0117126
0.0124782
0.0132725
0.0140963
0.0149502
0.015835
0.016751
0.0176991
0.01868
0.0196945
0.020743
0.021826
0.0229439
0.0240977
0.0252874
0.0265103
0.00227878
0.00114159
0.00115945
0.00138164
0.0016025
0.00181877
0.00203828
0.00227053
0.00252488
0.00280912
0.0031288
0.00348855
0.00388618
0.00431127
0.00476057
0.00523253
0.00572636
0.00624164
0.00677826
0.00733611
0.00791544
0.00851603
0.00913832
0.00978221
0.0104477
0.0111352
0.0118452
0.012578
0.0133338
0.0141134
0.0149172
0.0157456
0.0165993
0.0174787
0.0183841
0.0193164
0.0202757
0.0212628
0.022278
0.023322
0.0243958
0.0255014
0.026646
0.0034355
0.00160337
0.00132316
0.00153478
0.00176899
0.00200592
0.00225527
0.00252698
0.0028288
0.0031648
0.00353724
0.00394963
0.00439309
0.00485981
0.00534753
0.00585516
0.00638193
0.00692767
0.0074917
0.00807417
0.00867476
0.00929337
0.00992983
0.0105843
0.0112565
0.011947
0.0126556
0.0133829
0.0141288
0.014894
0.0156785
0.0164829
0.0173074
0.0181525
0.0190181
0.019905
0.0208136
0.021744
0.0226971
0.0236733
0.0246736
0.0256994
0.026751
0.00461809
0.00217584
0.00149251
0.00167333
0.00192403
0.00218683
0.00247102
0.00278536
0.0031341
0.00351802
0.00393795
0.00439528
0.00487782
0.00538085
0.00590235
0.00644144
0.00699732
0.00756964
0.00815789
0.00876169
0.00938078
0.0100146
0.0106631
0.0113262
0.0120038
0.0126957
0.0134024
0.0141238
0.0148601
0.0156114
0.0163779
0.0171595
0.0179568
0.0187701
0.0195993
0.0204448
0.0213069
0.0221857
0.023082
0.0239962
0.0249288
0.0258799
0.0268476
0.00575974
0.00281206
0.00167685
0.00180099
0.00207045
0.0023627
0.00268421
0.00304063
0.00343291
0.0038598
0.00432247
0.00481798
0.00533491
0.00586999
0.00642157
0.00698867
0.00757051
0.0081664
0.00877599
0.00939833
0.0100331
0.0106801
0.0113389
0.0120092
0.0126908
0.0133837
0.0140879
0.0148035
0.0155303
0.0162685
0.017018
0.0177789
0.0185512
0.0193352
0.020131
0.0209385
0.0217583
0.0225902
0.0234348
0.0242924
0.0251631
0.0260465
0.0269431
0.00682974
0.00346505
0.00187769
0.00192162
0.00221128
0.00253475
0.00289315
0.00328896
0.00372037
0.00418515
0.00468634
0.0052149
0.00576237
0.00632597
0.00690414
0.00749615
0.00810125
0.00871831
0.00934663
0.00998547
0.0106343
0.0112927
0.0119603
0.0126368
0.0133218
0.0140153
0.0147171
0.015427
0.0161451
0.0168708
0.0176044
0.0183456
0.0190948
0.019852
0.0206172
0.0213903
0.0221713
0.0229604
0.0237578
0.0245637
0.0253779
0.0262001
0.0270302
0.00781915
0.00410565
0.0021008
0.0020315
0.00233994
0.00269394
0.00308719
0.00351992
0.00398731
0.00448782
0.00502419
0.00558322
0.00615856
0.00674797
0.00735089
0.00796694
0.00859461
0.00923147
0.00987667
0.0105301
0.0111917
0.0118607
0.0125363
0.0132182
0.0139058
0.0145993
0.0152986
0.0160035
0.016713
0.0174265
0.0181438
0.0188661
0.0195939
0.0203269
0.021064
0.0218051
0.0225497
0.0232989
0.024053
0.0248118
0.0255751
0.0263421
0.0271128
0.00873365
0.00466995
0.00225972
0.00215893
0.00249493
0.0028861
0.00332489
0.0037905
0.0042911
0.00482707
0.00539174
0.00597035
0.00656194
0.00717323
0.00780757
0.0084556
0.00910559
0.00975293
0.010406
0.0110691
0.0117403
0.0124177
0.0130977
0.0137815
0.0144691
0.0151601
0.0158558
0.0165548
0.017254
0.0179504
0.018646
0.0193483
0.0200577
0.0207692
0.0214804
0.0221891
0.0228975
0.0236087
0.0243228
0.0250394
0.0257571
0.0264755
0.0271962
0.000190656
0.000667333
0.00144635
0.00224845
0.00303282
0.00379891
0.00455144
0.00529642
0.00604221
0.00679146
0.00754632
0.00830947
0.00908319
0.00986975
0.0106713
0.0114893
0.0123247
0.013179
0.0140541
0.0149524
0.0158767
0.0168299
0.0178147
0.0188333
0.0198865
0.0209743
0.0220958
0.0232484
0.024429
0.0256356
0.0268703
0.0281329
0.0294219
0.0307484
0.0321418
0.033596
0.035098
0.0366404
0.0382212
0.0398384
0.0414887
0.0431699
0.0448799
0.000123126
0.000396516
0.000881311
0.0015225
0.00230666
0.0030713
0.00382351
0.00456536
0.00528692
0.00599252
0.00668937
0.00738437
0.00808369
0.00879119
0.00951029
0.0102443
0.0109964
0.0117694
0.0125659
0.0133887
0.0142409
0.0151254
0.0160454
0.0170037
0.0180027
0.0190437
0.0201272
0.0212522
0.0224164
0.0236174
0.0248532
0.026122
0.0274232
0.0287613
0.0301478
0.0315829
0.0330574
0.0345718
0.0361511
0.0377869
0.039467
0.0411878
0.0429455
5.39994e-05
0.000249287
0.000560033
0.000987307
0.00153271
0.00218862
0.00295502
0.00382727
0.00467617
0.00549061
0.00627374
0.00702985
0.00776284
0.00847843
0.00918219
0.00987964
0.0105762
0.0112775
0.0119889
0.0127164
0.0134656
0.0142422
0.0150518
0.0158997
0.0167905
0.0177284
0.0187164
0.0197562
0.0208476
0.0219895
0.0231799
0.0244164
0.0256973
0.0270232
0.0283963
0.0298178
0.0312843
0.0327944
0.0343531
0.0359546
0.0376029
0.0393192
0.0410901
6.09229e-05
0.00022366
0.000480903
0.000828086
0.00126887
0.0018034
0.00243439
0.00316575
0.00400149
0.0048801
0.00574522
0.00658657
0.00740334
0.00819658
0.00896746
0.00971722
0.0104481
0.0111634
0.0118671
0.0125647
0.0132622
0.0139667
0.0146862
0.0154289
0.016203
0.0170167
0.0178773
0.0187909
0.0197623
0.0207939
0.0218868
0.0230405
0.0242539
0.0255259
0.0268555
0.0282422
0.0296838
0.031178
0.032723
0.0343152
0.035953
0.0376396
0.0393714
5.77151e-05
0.000204169
0.000420584
0.000720744
0.00109876
0.00155947
0.00210298
0.00273215
0.00345066
0.00426223
0.00516248
0.00607221
0.00696279
0.00782952
0.00867274
0.0094931
0.0102909
0.0110666
0.011821
0.0125555
0.0132726
0.0139765
0.0146727
0.0153685
0.0160726
0.0167948
0.0175455
0.0183353
0.0191739
0.0200699
0.0210298
0.0220584
0.0231585
0.0243308
0.025575
0.0268906
0.0282749
0.0297251
0.0312378
0.0328083
0.0344324
0.0361063
0.0378197
5.80857e-05
0.00019486
0.000385471
0.000654849
0.000992356
0.00140193
0.00188652
0.00244805
0.00309006
0.00381681
0.00463295
0.00553876
0.00647375
0.00739904
0.00830476
0.00918926
0.0100523
0.0108934
0.011712
0.0125076
0.01328
0.0140297
0.0147582
0.0154688
0.0161665
0.0168587
0.0175543
0.0182643
0.0190008
0.0197766
0.0206035
0.0214929
0.0224535
0.0234917
0.0246121
0.0258169
0.0271053
0.0284756
0.0299243
0.0314463
0.0330357
0.0346855
0.0363852
5.70248e-05
0.000189866
0.000357195
0.000603639
0.000911523
0.0012837
0.00172492
0.00223667
0.00282178
0.00348416
0.00422819
0.00505843
0.00597682
0.00693579
0.00789139
0.00883075
0.00975098
0.010651
0.0115301
0.012387
0.0132208
0.0140302
0.0148144
0.0155733
0.0163081
0.0170215
0.0177185
0.0184067
0.0190957
0.0197979
0.020527
0.0212977
0.0221248
0.0230207
0.0239971
0.0250621
0.0262208
0.0274751
0.028824
0.0302638
0.0317888
0.0333921
0.0350698
5.64714e-05
0.000184584
0.000336323
0.000565134
0.00085036
0.00119416
0.00160071
0.00207346
0.00261428
0.00322663
0.00391462
0.00468276
0.00553581
0.00647499
0.00745605
0.00843776
0.0094062
0.0103575
0.01129
0.0122028
0.0130942
0.0139627
0.0148063
0.0156236
0.0164131
0.0171747
0.0179092
0.0186199
0.0193119
0.0199936
0.0206762
0.0213733
0.0221011
0.0228763
0.023716
0.0246351
0.0256463
0.0267583
0.0279757
0.0292994
0.0307266
0.0322528
0.0338743
5.57887e-05
0.000180465
0.000319833
0.00053399
0.000801036
0.0011222
0.0015011
0.00194228
0.0024475
0.00301965
0.00366251
0.00438034
0.00517773
0.00605946
0.00702462
0.00802866
0.00903464
0.0100293
0.0110084
0.0119703
0.0129133
0.0138358
0.0147356
0.0156104
0.0164581
0.0172765
0.0180644
0.0188214
0.0195488
0.0202505
0.0209327
0.0216053
0.0222814
0.0229774
0.0237117
0.0245039
0.0253728
0.0263348
0.0274024
0.0285839
0.0298831
0.0313004
0.0328398
5.52598e-05
0.000177302
0.000308076
0.00050897
0.000761007
0.00106374
0.00142027
0.00183482
0.00231054
0.00284952
0.00345515
0.00413147
0.00488285
0.00571394
0.00662962
0.00762393
0.00865098
0.00967974
0.0106986
0.0117032
0.0126917
0.0136622
0.0146129
0.015541
0.0164441
0.0173195
0.0181645
0.0189768
0.0197553
0.0204999
0.021213
0.0218994
0.0225677
0.0232301
0.0239027
0.0246047
0.0253578
0.0261838
0.0271025
0.0281308
0.029281
0.0305605
0.0319744
5.48127e-05
0.000175324
0.000300434
0.000488431
0.000727694
0.00101497
0.00135283
0.00174511
0.002196
0.00270715
0.0032815
0.00392288
0.00463548
0.00542384
0.00629273
0.00724655
0.00827071
0.00932067
0.0103713
0.0114126
0.0124409
0.0134539
0.0144497
0.015426
0.0163799
0.0173087
0.0182091
0.0190779
0.0199123
0.0207103
0.0214709
0.0221953
0.0228872
0.0235539
0.0242066
0.024861
0.0255372
0.0262581
0.027048
0.0279303
0.0289261
0.0300523
0.0313238
5.44543e-05
0.000174112
0.000295547
0.000471462
0.000699734
0.000974018
0.00129623
0.00166988
0.00209913
0.0025864
0.00313413
0.00374575
0.00442519
0.00517695
0.00600556
0.00691597
0.00791068
0.00896396
0.0100362
0.0111076
0.0121703
0.0132207
0.0142565
0.0152757
0.0162755
0.0172529
0.0182047
0.0191274
0.0200175
0.0208714
0.0216865
0.022461
0.0231953
0.023892
0.0245575
0.0252022
0.0258419
0.0264966
0.0271907
0.0279508
0.028804
0.0297753
0.0308836
5.41389e-05
0.000173288
0.000292093
0.000457343
0.000676053
0.000939198
0.00124802
0.00160575
0.0020163
0.00248301
0.0030078
0.00359381
0.00424477
0.0049648
0.00575851
0.00663066
0.00758608
0.00862174
0.00970244
0.0107961
0.0118877
0.0129707
0.0140419
0.0150992
0.0161399
0.0171612
0.01816
0.0191326
0.0200752
0.0209837
0.0218543
0.0226836
0.0234696
0.0242115
0.0249113
0.0255748
0.026212
0.0268381
0.0274742
0.0281459
0.0288823
0.0297137
0.0306673
5.38781e-05
0.000172783
0.000289582
0.000445973
0.000656023
0.000909491
0.00120681
0.00155079
0.00194516
0.00239399
0.00289887
0.00346263
0.00408881
0.00478135
0.00554462
0.00638332
0.00730243
0.00830567
0.00937918
0.0104854
0.0115996
0.0127105
0.013813
0.014904
0.0159813
0.017042
0.0180832
0.0191013
0.0200924
0.0210523
0.0219765
0.0228609
0.0237016
0.024496
0.0252427
0.0259433
0.0266031
0.0272316
0.0278448
0.0284642
0.0291169
0.0298339
0.030645
5.36588e-05
0.000172559
0.000287913
0.000437344
0.00063909
0.000883968
0.00117134
0.00150358
0.00188415
0.00231703
0.00280443
0.00334874
0.00395327
0.00462173
0.00535838
0.00616772
0.00705452
0.00802376
0.00907522
0.0101824
0.011312
0.0124458
0.0135755
0.0146966
0.0158064
0.0169025
0.0179819
0.0190411
0.0200765
0.0210838
0.0220585
0.0229957
0.0238909
0.0247399
0.0255394
0.0262878
0.0269863
0.0276399
0.0282584
0.0288581
0.0294615
0.030097
0.0307952
5.34866e-05
0.000172589
0.000287033
0.000431353
0.000624828
0.000861994
0.00114062
0.00146264
0.00183118
0.0022501
0.00272223
0.00324951
0.00383504
0.00448238
0.00519557
0.005979
0.00683732
0.00777552
0.00879769
0.00989369
0.0110302
0.0121815
0.0133342
0.0144818
0.0156208
0.0167486
0.0178623
0.0189588
0.0200345
0.0210852
0.0221064
0.0230933
0.0240407
0.0249437
0.0257976
0.0265987
0.0273453
0.0280384
0.028683
0.0292894
0.0298745
0.0304615
0.0310789
5.33666e-05
0.000172876
0.000286754
0.000427332
0.000612721
0.000842971
0.00111392
0.00142701
0.0017851
0.00219179
0.0026505
0.00316281
0.0037316
0.00436035
0.00505283
0.00581337
0.00664647
0.00755701
0.00854989
0.00962503
0.0107594
0.0119217
0.0130932
0.014264
0.0154291
0.0165853
0.01773
0.0188601
0.0199723
0.0210626
0.0221266
0.0231595
0.0241559
0.0251106
0.026018
0.0268732
0.0276724
0.0284135
0.0290977
0.02973
0.0303215
0.0308893
0.0314553
5.32837e-05
0.000173319
0.000286809
0.000424599
0.000602522
0.000826514
0.00109069
0.00139594
0.00174486
0.00214079
0.00258762
0.00308679
0.00364085
0.0042532
0.00492745
0.00566765
0.00647839
0.00736434
0.0083304
0.00938023
0.0105037
0.0116705
0.012856
0.0140465
0.0152348
0.0164168
0.0175894
0.01875
0.0198953
0.0210217
0.0221248
0.0231999
0.024242
0.0252452
0.026204
0.0271124
0.0279653
0.0287585
0.0294903
0.0301616
0.0307781
0.0313512
0.0318991
5.32245e-05
0.000173859
0.000287119
0.00042273
0.000594029
0.000812265
0.00107042
0.00136877
0.0017097
0.00209636
0.00253246
0.00301996
0.00356108
0.00415884
0.00481695
0.00553922
0.00633002
0.00719401
0.00813602
0.00916078
0.0102668
0.0114313
0.0126258
0.0138324
0.015041
0.0162461
0.0174442
0.0186326
0.0198081
0.0209672
0.0221061
0.0232201
0.0243042
0.0253527
0.0263599
0.0273194
0.0282251
0.0290718
0.0298552
0.0305734
0.0312277
0.0318244
0.0323757
5.31908e-05
0.000174484
0.000287599
0.000421501
0.000587195
0.000799919
0.00105263
0.00134484
0.0016787
0.00205718
0.00248383
0.00296099
0.00349065
0.00407562
0.00471939
0.00542577
0.00619885
0.00704325
0.00796375
0.00896536
0.0100505
0.0112066
0.0124052
0.013624
0.0148501
0.0160759
0.0172974
0.018511
0.0197141
0.0209033
0.0220749
0.0232246
0.0243474
0.025438
0.0264903
0.0274982
0.0284549
0.0293543
0.0301907
0.0309599
0.0316602
0.0322936
0.0328676
5.31857e-05
0.000175193
0.000288272
0.00042084
0.000581943
0.000789265
0.00103697
0.00132374
0.0016513
0.00202251
0.0024408
0.0029088
0.0034283
0.00400193
0.004633
0.00532522
0.0060826
0.00690958
0.00781093
0.00879151
0.00985559
0.0109983
0.0121961
0.0134235
0.0146641
0.0159085
0.017151
0.0183881
0.0196165
0.0208333
0.022035
0.0232175
0.0243761
0.0255055
0.0266
0.0276533
0.0286583
0.0296087
0.0304976
0.0313195
0.0320701
0.0327483
0.0333576
5.32165e-05
0.000175982
0.000289074
0.000420617
0.000578002
0.000780034
0.00102315
0.00130505
0.00162707
0.00199185
0.00240267
0.00286256
0.00337298
0.00393656
0.00455635
0.00523599
0.00597938
0.00679082
0.00767501
0.00863678
0.0096808
0.0108073
0.0119998
0.0132321
0.0144845
0.0157451
0.0170069
0.0182655
0.0195174
0.0207599
0.0219893
0.0232022
0.0243937
0.0255592
0.0266928
0.0277885
0.0288392
0.0298381
0.0307781
0.0316522
0.0324548
0.033182
0.0338328
5.32775e-05
0.000176812
0.000289937
0.000420688
0.00057511
0.00077203
0.00101093
0.00128841
0.00160545
0.00196453
0.00236876
0.00282142
0.00332378
0.0038784
0.00448818
0.00515655
0.0058875
0.00668509
0.00755387
0.00849868
0.0095244
0.0106338
0.0118174
0.013051
0.0143125
0.0155871
0.0168663
0.0181447
0.0194186
0.0206848
0.0219403
0.0231812
0.0244035
0.0256022
0.0267723
0.0279074
0.029001
0.0300459
0.0310347
0.03196
0.0328145
0.0335924
0.0342891
5.33501e-05
0.000177643
0.000290808
0.000420927
0.00057295
0.000765055
0.00100008
0.00127359
0.00158619
0.00194018
0.00233853
0.00278468
0.00327991
0.00382641
0.0044272
0.00508563
0.00580542
0.00659065
0.00744566
0.00837521
0.00938432
0.0104769
0.011649
0.0128808
0.0141485
0.0154351
0.01673
0.0180268
0.0193212
0.0206097
0.0218894
0.0231566
0.0244075
0.0256374
0.0268413
0.0280134
0.0291471
0.0302353
0.0312706
0.0322451
0.0331509
0.033981
0.0347308
5.34424e-05
0.00017846
0.000291672
0.000421285
0.000571323
0.000758965
0.00099044
0.00126033
0.00156896
0.00191841
0.00231156
0.00275175
0.0032405
0.00377982
0.00437257
0.00502203
0.00573183
0.00650588
0.00734854
0.0082645
0.00925857
0.0103354
0.0114946
0.0127217
0.0139931
0.0152895
0.0165985
0.0179123
0.0192258
0.0205354
0.0218379
0.0231298
0.0244075
0.0256667
0.0269023
0.028109
0.0292803
0.0304093
0.0314886
0.0325101
0.0334657
0.0343476
0.0351499
5.35515e-05
0.000179273
0.000292553
0.000421739
0.000570089
0.000753635
0.000981768
0.00124839
0.00155342
0.00189877
0.00228723
0.00272205
0.00320496
0.00373781
0.00432337
0.0049648
0.00566555
0.00642959
0.00726121
0.00816485
0.00914543
0.0102076
0.0113536
0.0125737
0.0138463
0.0151506
0.0164721
0.0178016
0.0191331
0.0204626
0.0217866
0.0231019
0.0244049
0.0256916
0.0269572
0.0281962
0.0294029
0.0305704
0.0316912
0.0327573
0.0337605
0.0346921
0.0355441
5.36985e-05
0.000180092
0.000293475
0.000422303
0.000569194
0.000749035
0.000973979
0.00123762
0.00153938
0.00188107
0.00226525
0.00269519
0.00317278
0.00369983
0.00427884
0.00491297
0.00560561
0.00636062
0.00718223
0.00807479
0.00904305
0.010092
0.0112249
0.0124364
0.0137082
0.0150183
0.0163508
0.0176947
0.0190431
0.0203914
0.0217359
0.0230736
0.0244005
0.0257132
0.027007
0.0282768
0.0295166
0.0307203
0.0318804
0.0329885
0.0340368
0.0350155
0.0359144
5.38672e-05
0.000180916
0.000294383
0.000422871
0.000568453
0.00074503
0.000966989
0.00122785
0.00152662
0.00186491
0.00224528
0.00267081
0.00314356
0.00366531
0.00423841
0.00486588
0.00555121
0.00629805
0.00711051
0.00799295
0.00895007
0.00998681
0.0111072
0.0123094
0.0135783
0.0148925
0.0162342
0.0175913
0.0189556
0.0203219
0.0216862
0.0230449
0.0243948
0.0257321
0.0270527
0.0283514
0.0296228
0.0308606
0.0320576
0.0332057
0.0342968
0.0353209
0.0362676
5.40382e-05
0.000181712
0.00029524
0.000423435
0.000567905
0.00074159
0.000960681
0.00121893
0.00151495
0.00185013
0.00222697
0.0026485
0.00311693
0.00363375
0.00420143
0.00482292
0.00550154
0.00624096
0.00704509
0.00791829
0.00886523
0.00989081
0.0109995
0.0121917
0.0134562
0.0147727
0.0161223
0.0174913
0.0188706
0.0202539
0.0216369
0.023016
0.0243879
0.0257488
0.0270947
0.028421
0.0297222
0.0309923
0.0322243
0.0334105
0.0345425
0.0356109
0.0366064
5.42262e-05
0.000182507
0.000296081
0.000424012
0.000567493
0.000738658
0.000955003
0.00121079
0.00150423
0.00183658
0.0022102
0.00262803
0.00309247
0.00360487
0.00416759
0.00478354
0.00545602
0.00618853
0.00698505
0.00784989
0.00878748
0.00980279
0.0109005
0.0120826
0.0133415
0.0146588
0.0160147
0.0173945
0.0187876
0.0201871
0.0215881
0.0229868
0.0243797
0.0257633
0.0271336
0.0284861
0.0298157
0.0311165
0.0323818
0.0336042
0.0347752
0.0358861
0.0369282
5.44189e-05
0.000183271
0.000296874
0.000424575
0.000567212
0.000736158
0.000949873
0.00120333
0.00149439