/*--------------------------------*- C++ -*----------------------------------*\
| =========                 |                                                 |
| \\      /  F ield         | OpenFOAM: The Open Source CFD Toolbox           |
|  \\    /   O peration     | Version:  2.3.0                                 |
|   \\  /    A nd           | Web:      www.OpenFOAM.org                      |
|    \\/     M anipulation  |                                                 |
\*---------------------------------------------------------------------------*/
FoamFile
{
    version     2.0;
    format      ascii;
    class       volScalarField;
    location    "4000";
    object      p;
}
// * * * * * * * * * * * * * * * * * * * * * * * * * * * * * * * * * * * * * //

dimensions      [0 2 -2 0 0 0 0];

internalField   nonuniform List<scalar> 
6523
(
0.000880156
-1.14209
-1.47183
-0.87257
0.677616
3.41774
7.93139
15.2414
25.9419
38.077
49.3054
69.8741
19.5349
21.9021
25.4931
30.7026
37.8984
47.2346
58.7299
72.3001
87.6881
104.456
122.341
140.818
35.759
40.2231
45.6588
51.9489
59.0809
66.9986
75.6239
84.8234
94.4098
104.176
113.935
123.491
47.5677
52.5709
58.3796
64.8439
71.9466
79.5904
87.6603
96.0097
104.473
112.876
121.034
128.784
56.6102
61.4622
66.9153
72.7216
78.886
85.339
92.0171
98.8342
105.697
112.504
119.148
125.538
63.596
67.9643
72.9725
78.2206
83.7448
89.4861
95.3924
101.4
107.435
113.426
119.292
124.961
69.0921
72.7408
77.2498
81.9317
86.8432
91.9478
97.202
102.561
107.958
113.333
118.634
123.797
72.8204
76.1997
80.3687
84.6284
89.0435
93.6246
98.3901
103.326
108.348
113.351
118.244
122.998
76.336
79.1294
82.7897
86.6229
90.6808
94.8894
99.3139
103.837
108.402
113.07
117.655
122.144
79.5985
81.7024
84.4963
87.7447
91.68
96.2064
100.485
104.475
108.217
111.841
116.294
121.22
123.282
151.134
170.623
186.593
199.715
209.691
216.367
219.798
220.261
218.251
214.524
210.081
157.438
170.925
181.927
190.689
197.307
201.885
204.619
205.773
205.628
204.44
202.453
199.62
132.819
142.102
151.156
159.697
167.49
174.337
180.072
184.576
187.789
189.713
190.426
190.023
136.119
143.17
149.924
156.249
162.026
167.16
171.587
175.27
178.183
180.299
181.704
182.896
131.696
137.712
143.556
149.125
154.325
159.077
163.321
167.011
170.106
172.568
174.504
176.36
130.422
135.723
140.841
145.703
150.247
154.42
158.185
161.518
164.394
166.789
168.792
170.543
128.79
133.634
138.297
142.726
146.86
150.668
154.121
157.215
159.932
162.268
164.279
166.274
127.613
132.118
136.452
140.562
144.359
147.85
151.024
153.898
156.432
158.648
160.612
162.428
126.543
130.814
134.865
138.752
142.351
145.595
148.542
151.24
153.638
155.689
157.483
159.156
125.664
129.693
133.355
137.064
140.507
143.795
146.509
149.017
151.246
153.2
154.765
156.299
43.1037
42.2164
41.305
40.4019
39.5779
38.9114
38.5016
38.4249
38.7084
39.4045
40.8942
44.7649
46.1184
45.3651
44.6289
43.9565
43.4081
43.0561
43.0256
43.5141
44.7506
46.9463
50.149
54.0052
49.1246
48.581
48.0526
47.5981
47.2965
47.2592
47.6234
48.5164
50.052
52.2935
55.1726
58.383
51.8996
51.5545
51.2221
50.968
50.8869
51.0863
51.6585
52.6775
54.1966
56.2137
58.6416
61.2759
54.499
54.2759
54.0666
53.9565
54.0274
54.3578
55.0151
56.0531
57.5028
59.3513
61.5249
63.8682
56.6409
56.6551
56.5377
56.5364
56.7099
57.116
57.8076
58.8308
60.2088
61.9345
63.9577
66.1393
58.7238
58.6814
58.7022
58.7788
59.0043
59.4414
60.1357
61.1328
62.4488
64.0691
65.9603
68.0118
60.4598
60.5772
60.6201
60.7226
60.9684
61.4124
62.0944
63.0924
64.4082
65.9828
67.8273
69.8615
61.6176
62.1546
62.2709
62.3978
62.6381
63.0505
63.6571
64.6316
65.9208
67.3266
68.9537
70.8243
62.9163
63.4975
63.7407
63.9204
64.1874
64.575
65.1429
66.6139
68.4386
69.878
71.7657
74.313
53.3899
57.5419
60.5668
63.5767
66.5788
69.4966
72.3356
75.1434
77.9682
80.8368
83.7316
86.5801
58.1648
60.5675
62.3371
64.3724
66.6709
69.1813
71.8244
74.5334
77.2662
80.015
82.7489
85.3371
61.5139
64.2951
66.1983
67.9438
69.7563
71.6842
73.7148
75.8343
78.0279
80.2977
82.6163
84.823
63.9103
66.5035
68.3781
70.0093
71.6705
73.3826
75.1403
76.9475
78.8042
80.7218
82.7302
84.7353
66.2137
68.4761
70.1918
71.646
73.1361
74.6684
76.2408
77.8529
79.501
81.1821
82.9314
84.8141
68.3134
70.368
71.9769
73.2931
74.6292
75.9915
77.3862
78.8119
80.2672
81.7447
83.2598
84.9013
70.0646
71.997
73.5424
74.766
75.9891
77.223
78.4769
79.7476
81.0357
82.3354
83.6519
85.0526
71.8972
73.7179
75.0762
76.0955
77.1738
78.2905
79.4328
80.582
81.7373
82.8957
84.0648
85.2946
72.8203
74.687
76.0748
77.0699
78.1091
79.1794
80.2536
81.3116
82.3615
83.4038
84.4573
85.5571
76.8666
78.2838
78.3522
78.1893
78.9737
79.9897
81.0224
81.9864
82.9315
83.8696
84.8406
85.8639
-233.901
-214.036
-190.96
-172.262
-153.043
-131.88
-110.216
-89.1445
-69.4787
-52.1929
-37.8155
-26.9884
-132.573
-132.164
-130.367
-128.307
-126.247
-122.552
-116.235
-106.967
-94.6567
-79.918
-64.0195
-49.7096
-137.697
-137.533
-137.379
-136.335
-133.883
-130.048
-124.624
-117.062
-107.104
-94.7938
-80.3856
-65.9014
-125.765
-125.682
-125.447
-125.032
-124.291
-122.921
-120.664
-117.088
-111.313
-102.645
-90.8721
-77.7029
-123.137
-123.105
-123.038
-122.847
-122.413
-121.529
-119.935
-117.332
-113.174
-106.732
-97.267
-85.8883
-118.551
-118.521
-118.45
-118.302
-118.028
-117.533
-116.635
-115.071
-112.385
-107.852
-100.487
-91.1169
-115.334
-115.314
-115.273
-115.179
-114.992
-114.64
-113.995
-112.865
-110.941
-107.628
-101.901
-94.32
-112.046
-112.031
-111.997
-111.923
-111.783
-111.528
-111.072
-110.262
-108.871
-106.462
-102.116
-96.1021
-109.068
-109.055
-109.03
-108.975
-108.867
-108.671
-108.321
-107.7
-106.63
-104.803
-101.508
-96.7654
-106.185
-106.175
-106.155
-106.111
-106.026
-105.873
-105.601
-105.118
-104.273
-102.832
-100.251
-96.3274
-103.416
-103.408
-103.393
-103.359
-103.292
-103.17
-102.954
-102.568
-101.885
-100.715
-98.6412
-95.4447
-100.713
-100.707
-100.695
-100.667
-100.613
-100.513
-100.336
-100.02
-99.4585
-98.4882
-96.79
-94.1137
-98.0714
-98.0665
-98.0568
-98.0342
-97.9891
-97.9061
-97.7584
-97.495
-97.0262
-96.2112
-94.8047
-92.6674
-95.4865
-95.4824
-95.4746
-95.4561
-95.4187
-95.349
-95.2246
-95.0024
-94.6056
-93.9106
-92.7233
-90.9571
-92.9427
-92.9397
-92.9346
-92.9214
-92.8931
-92.8384
-92.7388
-92.558
-92.2292
-91.6422
-90.6371
-89.1618
-90.4146
-90.4125
-90.4089
-90.3989
-90.3761
-90.3307
-90.2463
-90.0909
-89.8042
-89.2878
-88.3897
-86.9077
-87.9109
-87.9094
-87.907
-87.8994
-87.8808
-87.8426
-87.7704
-87.636
-87.386
-86.9315
-86.1365
-84.8988
-85.4293
-85.4286
-85.4281
-85.424
-85.4111
-85.3819
-85.3238
-85.2124
-84.9997
-84.6055
-83.9145
-82.8782
-82.9525
-82.9529
-82.9546
-82.9545
-82.9481
-82.9288
-82.886
-82.7982
-82.6217
-82.2779
-81.649
-80.7676
-80.4676
-80.4688
-80.4724
-80.4756
-80.4742
-80.4625
-80.4308
-80.3591
-80.2073
-79.9084
-79.3364
-78.203
-77.9656
-77.9679
-77.9744
-77.9826
-77.9889
-77.9888
-77.9741
-77.9278
-77.8129
-77.5701
-77.1328
-76.4604
-75.4231
-75.4262
-75.4348
-75.4467
-75.4585
-75.4664
-75.463
-75.4323
-75.339
-75.1275
-74.7286
-73.947
-72.8423
-72.8462
-72.8569
-72.8723
-72.8895
-72.9054
-72.9134
-72.8996
-72.8317
-72.6528
-72.2765
-71.5718
-70.2204
-70.225
-70.2374
-70.2559
-70.2777
-70.3002
-70.3179
-70.318
-70.2699
-70.1238
-69.8175
-69.1612
-67.5642
-67.5693
-67.583
-67.6036
-67.6286
-67.656
-67.6809
-67.6917
-67.6591
-67.5307
-67.24
-66.6844
-64.8836
-64.8891
-64.9038
-64.9261
-64.9537
-64.9851
-65.0162
-65.0368
-65.0198
-64.9139
-64.6435
-64.0849
-62.19
-62.1957
-62.2109
-62.2342
-62.2633
-62.2971
-62.3323
-62.36
-62.3556
-62.2691
-62.025
-61.5051
-59.4975
-59.5033
-59.5186
-59.5422
-59.5718
-59.6066
-59.6438
-59.6757
-59.6798
-59.6063
-59.3796
-58.9202
-56.8108
-56.8171
-56.8333
-56.8579
-56.8889
-56.926
-56.9672
-57.007
-57.0277
-56.9885
-56.8177
-56.4365
-54.1412
-54.1472
-54.1626
-54.186
-54.2148
-54.2482
-54.2839
-54.3153
-54.3254
-54.2797
-54.1071
-53.4631
-51.5115
-51.5177
-51.5337
-51.5581
-51.5885
-51.624
-51.6625
-51.6987
-51.7174
-51.6811
-51.5427
-51.448
-48.9097
-48.9162
-48.9332
-48.9596
-48.993
-49.0328
-49.0766
-49.1184
-49.1445
-49.1308
-49.0369
-48.5992
-46.3164
-46.3242
-46.344
-46.3749
-46.4155
-46.4659
-46.5251
-46.589
-46.6454
-46.6606
-46.5817
-46.5255
-43.7028
-43.7107
-43.7318
-43.765
-43.8092
-43.8653
-43.933
-44.009
-44.0817
-44.1199
-44.0482
-43.6504
-41.077
-41.085
-41.1061
-41.1394
-41.1837
-41.2401
-41.3082
-41.385
-41.457
-41.4887
-41.4293
-41.189
-38.459
-38.4672
-38.4885
-38.5221
-38.5671
-38.6246
-38.6954
-38.7776
-38.8613
-38.9168
-38.9075
-38.9089
-35.8607
-35.8686
-35.8888
-35.9206
-35.9627
-36.0162
-36.0809
-36.1541
-36.2262
-36.2744
-36.2471
-35.803
-33.3065
-33.3145
-33.335
-33.3672
-33.4097
-33.4641
-33.531
-33.6093
-33.6909
-33.745
-33.7299
-33.8747
-30.7922
-30.8
-30.82
-30.8515
-30.8932
-30.9462
-31.0108
-31.0856
-31.1629
-31.224
-31.2279
-30.9319
-28.3239
-28.3318
-28.3522
-28.3844
-28.4273
-28.4824
-28.5507
-28.6315
-28.7184
-28.7905
-28.8263
-28.9199
-25.8876
-25.8955
-25.9158
-25.9482
-25.9914
-26.0473
-26.1169
-26.1996
-26.2899
-26.3704
-26.4188
-26.3939
-23.4862
-23.4942
-23.5145
-23.5464
-23.5892
-23.6447
-23.7141
-23.7974
-23.8899
-23.9766
-24.0321
-23.9908
-21.1264
-21.1343
-21.154
-21.1851
-21.2266
-21.2804
-21.3479
-21.4291
-21.5199
-21.6051
-21.6572
-21.6407
-18.8123
-18.8201
-18.8395
-18.8701
-18.9109
-18.9637
-19.0302
-19.1111
-19.2038
-19.295
-19.3557
-19.3759
-16.5452
-16.553
-16.5718
-16.6013
-16.6405
-16.691
-16.7539
-16.8297
-16.9158
-17.0016
-17.052
-16.9113
-14.3304
-14.3382
-14.3573
-14.3872
-14.4271
-14.4786
-14.543
-14.6208
-14.7092
-14.7946
-14.8638
-15.0121
-12.1473
-12.1556
-12.1759
-12.2077
-12.2504
-12.306
-12.3761
-12.4615
-12.5607
-12.6635
-12.7605
-12.9421
-9.98304
-9.99138
-10.0119
-10.0443
-10.088
-10.145
-10.2167
-10.3037
-10.4045
-10.5133
-10.6092
-10.5088
-7.84115
-7.8496
-7.87033
-7.90319
-7.94779
-8.00624
-8.08035
-8.17121
-8.27683
-8.38518
-8.48121
-8.65297
-5.72018
-5.72865
-5.74943
-5.78225
-5.82691
-5.88571
-5.96071
-6.0532
-6.16217
-6.27719
-6.37181
-6.43711
-3.62726
-3.63574
-3.65612
-3.68811
-3.73139
-3.78835
-3.86106
-3.95095
-4.05751
-4.17371
-4.26793
-4.2018
-1.57714
-1.58538
-1.6052
-1.63629
-1.6782
-1.73318
-1.80336
-1.89036
-1.99301
-2.10247
-2.2085
-2.34652
0.431383
0.422856
0.402889
0.371455
0.329092
0.273549
0.202499
0.113809
0.00707851
-0.110513
-0.22857
-0.446846
2.40533
2.39657
2.37654
2.34519
2.30303
2.24811
2.17849
2.09274
1.98994
1.87151
1.75768
1.84641
4.34515
4.33597
4.31495
4.28212
4.2377
4.17952
4.10533
4.0128
3.90092
3.77813
3.66252
3.42927
6.27241
6.26275
6.24082
6.20663
6.16045
6.1
6.0231
5.92761
5.81305
5.68994
5.59079
5.4567
8.18274
8.17285
8.15036
8.11527
8.06783
8.00589
7.92739
7.83042
7.71349
7.57976
7.46116
7.51802
10.0784
10.0679
10.0444
10.0075
9.95749
9.89202
9.80882
9.70562
9.58072
9.44021
9.31082
9.15688
11.9667
11.9558
11.9314
11.8934
11.842
11.7745
11.6888
11.5829
11.4554
11.3155
11.2113
11.1938
13.839
13.8277
13.8027
13.7639
13.7115
13.643
13.5561
13.4488
13.3198
13.1757
13.064
13.11
15.6897
15.6778
15.6517
15.6114
15.5568
15.4855
15.3949
15.2831
15.1488
14.9972
14.8469
14.6888
17.5232
17.5108
17.4836
17.4416
17.3849
17.3108
17.2171
17.1021
16.9653
16.8119
16.6656
16.583
19.3415
19.3285
19.2999
19.2556
19.1956
19.117
19.0173
18.8948
18.7484
18.5837
18.4316
18.3361
21.1529
21.1383
21.1079
21.0614
20.9988
20.9172
20.8144
20.689
20.5411
20.3753
20.227
20.2917
22.9417
22.926
22.8933
22.8435
22.7763
22.6887
22.5782
22.4429
22.2834
22.1092
21.944
21.6953
24.7299
24.7125
24.6768
24.6224
24.549
24.454
24.335
24.191
24.0234
23.8377
23.6625
23.6621
26.5256
26.5048
26.4636
26.4016
26.3182
26.2107
26.0771
25.9171
25.7343
25.537
25.338
25.1522
28.3446
28.3204
28.2721
28.1997
28.1026
27.9775
27.8233
27.6414
27.4388
27.2284
27.0184
26.8003
30.2042
30.1762
30.1195
30.0348
29.9207
29.7742
29.5951
29.3881
29.1649
28.945
28.7584
28.7371
32.1099
32.0761
32.0058
31.902
31.7625
31.585
31.3708
31.1284
30.8756
30.6387
30.4593
30.4334
34.0726
34.0329
33.942
33.8072
33.6286
33.4054
33.1436
32.8594
32.5815
32.3459
32.1969
32.3048
35.9961
35.9541
35.8479
35.6789
35.4519
35.1723
34.8548
34.5279
34.2338
34.023
33.949
34.1027
37.9556
37.858
37.7001
37.4494
37.1264
36.7563
36.3741
36.0259
35.7663
35.6488
35.7169
36.0387
40.5946
40.2089
39.8491
39.4214
38.9299
38.41
37.9272
37.5511
37.3456
37.3562
37.6048
38.1329
41.6941
39.7138
38.4041
37.7131
37.4386
37.3868
37.494
37.7434
38.1366
38.6852
39.3979
40.306
393.48
385.459
372.864
356.527
337.48
316.707
295.597
275.599
257.812
242.683
230.264
220.132
281.121
282.42
281.915
280.313
277.813
274.136
268.929
262.02
253.529
243.884
233.959
225.07
259.279
260.35
260.361
260.028
259.096
257.38
254.72
250.98
246.034
239.804
232.556
225.237
263.265
262.842
261.553
259.935
257.831
255.157
251.824
247.767
242.936
237.275
230.873
224.286
251.469
251.118
250.497
249.653
248.448
246.8
244.596
241.721
238.067
233.546
228.199
222.487
239.642
239.502
239.303
238.944
238.36
237.478
236.193
234.378
231.899
228.615
224.464
219.79
232.292
232.192
232.029
231.721
231.253
230.563
229.574
228.187
226.286
223.734
220.406
216.442
226.235
226.151
226.006
225.74
225.347
224.777
223.967
222.838
221.293
219.212
216.465
213.101
220.453
220.394
220.287
220.088
219.792
219.355
218.727
217.839
216.606
214.922
212.661
209.842
215.266
215.224
215.142
214.99
214.76
214.417
213.921
213.214
212.223
210.856
208.995
206.626
210.688
210.656
210.589
210.463
210.272
209.989
209.578
208.992
208.168
207.028
205.456
203.376
206.534
206.509
206.453
206.348
206.188
205.95
205.603
205.109
204.412
203.444
202.102
200.303
202.714
202.694
202.647
202.558
202.423
202.221
201.927
201.507
200.913
200.085
198.93
197.345
199.178
199.165
199.126
199.051
198.936
198.763
198.512
198.152
197.644
196.935
195.946
194.556
195.897
195.889
195.856
195.792
195.692
195.543
195.325
195.014
194.575
193.963
193.122
191.911
192.831
192.827
192.798
192.742
192.654
192.523
192.332
192.058
191.669
191.124
190.364
189.288
189.949
189.947
189.922
189.873
189.795
189.679
189.509
189.266
188.922
188.44
187.771
186.844
187.231
187.23
187.207
187.164
187.095
186.991
186.839
186.622
186.314
185.882
185.275
184.397
184.657
184.656
184.636
184.597
184.535
184.441
184.304
184.108
183.828
183.434
182.881
182.061
182.212
182.211
182.193
182.158
182.102
182.018
181.894
181.716
181.463
181.106
180.608
179.873
179.884
179.883
179.867
179.836
179.785
179.709
179.597
179.436
179.208
178.886
178.439
177.783
177.658
177.657
177.644
177.616
177.571
177.502
177.4
177.255
177.049
176.758
176.354
175.76
175.524
175.524
175.513
175.489
175.448
175.385
175.293
175.161
174.975
174.712
174.349
173.818
173.473
173.473
173.464
173.443
173.405
173.348
173.265
173.145
172.976
172.739
172.409
171.915
171.494
171.495
171.488
171.469
171.435
171.383
171.306
171.196
171.041
170.824
170.522
170.039
169.583
169.584
169.577
169.56
169.529
169.481
169.41
169.309
169.167
168.968
168.696
168.25
167.731
167.732
167.726
167.711
167.681
167.637
167.571
167.477
167.344
167.158
166.905
166.477
165.933
165.934
165.929
165.914
165.887
165.845
165.784
165.696
165.571
165.396
165.168
164.814
164.186
164.186
164.181
164.167
164.142
164.102
164.045
163.962
163.845
163.678
163.458
163.189
162.479
162.48
162.475
162.463
162.44
162.404
162.35
162.273
162.164
162.008
161.794
161.583
160.819
160.819
160.815
160.803
160.781
160.747
160.697
160.626
160.525
160.381
160.177
160.026
159.196
159.197
159.192
159.181
159.161
159.129
159.082
159.015
158.922
158.792
158.599
158.469
157.608
157.608
157.603
157.593
157.573
157.543
157.499
157.436
157.347
157.223
157.033
156.898
156.042
156.042
156.039
156.031
156.014
155.986
155.944
155.884
155.799
155.682
155.499
155.342
154.512
154.512
154.509
154.501
154.485
154.458
154.419
154.363
154.283
154.174
154.005
153.874
153.008
153.009
153.006
152.999
152.984
152.959
152.922
152.87
152.795
152.694
152.537
152.411
151.528
151.528
151.525
151.519
151.506
151.483
151.449
151.4
151.331
151.238
151.098
151.024
150.068
150.068
150.065
150.06
150.048
150.026
149.994
149.949
149.885
149.799
149.665
149.599
148.621
148.622
148.62
148.616
148.605
148.585
148.555
148.512
148.452
148.371
148.241
148.169
147.194
147.195
147.193
147.189
147.178
147.159
147.13
147.089
147.032
146.954
146.828
146.756
145.782
145.783
145.781
145.777
145.766
145.748
145.721
145.681
145.626
145.552
145.43
145.354
144.382
144.383
144.381
144.377
144.367
144.35
144.324
144.287
144.236
144.168
144.059
144.008
142.988
142.988
142.987
142.984
142.976
142.96
142.937
142.904
142.857
142.796
142.699
142.685
141.603
141.604
141.602
141.6
141.592
141.578
141.556
141.525
141.483
141.428
141.334
141.323
140.225
140.226
140.224
140.221
140.214
140.2
140.179
140.151
140.11
140.059
139.971
139.949
138.849
138.849
138.847
138.844
138.837
138.824
138.805
138.777
138.739
138.69
138.604
138.582
137.473
137.473
137.471
137.468
137.462
137.449
137.431
137.405
137.369
137.324
137.245
137.213
136.093
136.093
136.092
136.09
136.084
136.073
136.056
136.033
136
135.959
135.888
135.878
134.714
134.714
134.712
134.71
134.705
134.695
134.68
134.658
134.629
134.593
134.531
134.521
133.33
133.33
133.328
133.326
133.321
133.312
133.298
133.278
133.251
133.22
133.165
133.159
131.937
131.937
131.935
131.933
131.929
131.921
131.908
131.89
131.866
131.838
131.788
131.791
130.529
130.529
130.528
130.527
130.525
130.518
130.507
130.493
130.473
130.451
130.412
130.45
129.113
129.114
129.112
129.111
129.109
129.104
129.095
129.083
129.067
129.051
129.019
129.069
127.682
127.682
127.68
127.679
127.678
127.674
127.666
127.656
127.644
127.633
127.607
127.667
126.227
126.227
126.226
126.226
126.225
126.222
126.216
126.209
126.2
126.195
126.177
126.255
124.752
124.752
124.75
124.75
124.75
124.748
124.744
124.739
124.734
124.735
124.722
124.816
123.246
123.246
123.246
123.246
123.247
123.247
123.245
123.244
123.244
123.252
123.249
123.374
121.713
121.713
121.712
121.713
121.715
121.716
121.717
121.719
121.725
121.742
121.748
121.883
120.144
120.144
120.143
120.144
120.147
120.15
120.153
120.159
120.171
120.197
120.217
120.369
118.532
118.532
118.531
118.532
118.536
118.541
118.548
118.559
118.578
118.615
118.652
118.837
116.869
116.869
116.869
116.871
116.876
116.884
116.894
116.912
116.94
116.992
117.049
117.279
115.144
115.145
115.146
115.149
115.156
115.168
115.183
115.208
115.247
115.313
115.389
115.672
113.359
113.359
113.359
113.363
113.372
113.386
113.407
113.439
113.491
113.577
113.677
114.023
111.505
111.502
111.499
111.501
111.511
111.527
111.553
111.595
111.66
111.766
111.883
112.251
109.512
109.515
109.519
109.527
109.543
109.568
109.604
109.659
109.743
109.876
110.028
110.386
107.439
107.44
107.442
107.45
107.47
107.501
107.549
107.621
107.73
107.901
108.11
108.496
105.246
105.243
105.242
105.25
105.272
105.311
105.371
105.464
105.604
105.82
106.104
106.521
102.838
102.841
102.848
102.863
102.896
102.95
103.032
103.155
103.337
103.61
103.98
104.444
100.245
100.247
100.253
100.273
100.316
100.389
100.499
100.664
100.906
101.26
101.75
102.333
97.3909
97.3902
97.3972
97.4232
97.4806
97.5783
97.7285
97.9536
98.2812
98.7469
99.39
100.13
94.1323
94.1397
94.1581
94.2027
94.2899
94.4336
94.6503
94.9681
95.4206
96.0449
96.8925
97.8411
90.3959
90.4006
90.4282
90.4954
90.629
90.8471
91.1727
91.6389
92.2811
93.1308
94.2497
95.5243
85.9116
85.9433
85.9866
86.1057
86.3311
86.6888
87.2069
87.9182
88.8525
90.0209
91.4601
93.1639
80.1817
80.0855
80.2297
80.5239
80.9974
81.682
82.5934
83.7451
85.1463
86.7822
88.6422
90.74
71.8747
72.2738
72.8236
73.5417
74.5825
75.9315
77.5475
79.3969
81.4547
83.687
86.0595
88.5778
93.3739
37.5866
12.0007
56.8734
105.594
101.14
-62.623
111.577
62.5552
33.5556
52.4753
102.384
97.9276
61.2663
48.0597
122.237
-15.4497
75.6828
13.1164
138.7
83.6202
109.954
62.8252
118.734
99.1685
124.793
31.3736
110.952
87.7819
82.1153
23.65
144.756
58.9006
102.277
91.4737
101.504
95.459
119.062
52.9478
96.225
99.4196
111.083
-32.3912
54.3645
40.9477
-51.5732
37.4952
82.325
94.9805
102.348
89.565
148.204
-57.0527
111.024
29.3369
61.988
90.9697
117.569
35.9891
85.5524
93.9669
102.396
98.1124
155.983
145.992
62.3457
55.1337
54.4214
96.5553
105.684
101.197
153.382
121.224
34.1687
84.3062
-21.2527
87.3712
34.8656
76.4248
90.5798
61.629
16.9733
-19.0875
90.1626
100.061
-18.0841
11.9539
102.705
93.0934
17.7524
30.3645
16.4542
150.53
88.0511
116.02
151.858
93.8922
103.649
20.9898
62.3048
101.796
111.777
71.4776
-53.2304
-2.24691
108.754
71.4827
106.23
94.543
4.63256
-69.993
89.7302
107.253
110.201
67.9283
71.2815
92.8152
99.8638
109.6
-39.8187
109.654
108.89
139.218
97.3466
98.7495
82.5279
42.5658
56.9268
7.93446
141.843
-19.7413
89.0644
-6.85705
64.4123
34.1333
89.1253
-50.574
115.439
73.7886
111.889
167.664
-11.949
16.4879
106.598
109.212
83.3017
105.615
-9.45383
54.3471
85.1971
52.3292
-4.3807
-76.7359
98.1296
-44.6403
82.3759
101.493
124.586
61.1998
94.972
58.3091
88.1683
103.125
-12.459
76.0943
110.966
-27.364
102.832
108.709
129.711
104.862
90.9363
108.354
103.247
127.221
107.213
110.319
115.175
82.5776
61.6719
93.4218
75.0431
147.071
108.642
97.7124
25.0614
78.9048
-51.4456
89.026
101.848
124.564
-21.6086
26.1249
88.3662
109.471
90.8348
117.832
89.9289
185.145
28.8383
78.5543
10.3242
42.612
6.12031
96.8874
1.36874
24.0966
79.6683
-0.572336
138.979
-2.1216
119.696
106.736
107.638
88.1501
92.9981
29.3303
57.6267
47.2732
-12.9238
38.6608
100.671
34.3073
79.3267
14.0185
114.241
108.348
99.7151
141.086
113.111
96.5715
92.0119
98.9699
-45.3855
196.851
145.624
94.9747
105.623
97.1819
15.8099
123.81
95.0723
101.071
113.086
76.7268
102.825
102.386
64.0811
163.29
-46.8715
-16.4902
167.01
121.081
131.807
68.2808
121.84
42.277
107.464
125.536
-12.9607
8.34353
-6.39905
15.336
92.2335
-30.3015
49.4251
37.2103
100.043
87.4161
79.7679
20.4116
23.2203
106.109
107.458
92.2661
93.2884
-38.5311
120.343
109.115
92.0676
107.373
-6.14257
98.4859
102.382
125.482
91.4828
106.211
95.5267
49.5205
113.97
49.4441
129.663
85.6578
109.203
92.6032
98.6248
88.2837
113.651
125.696
119.458
84.1969
104.672
102.29
100.912
150.394
97.5142
88.751
92.6198
115.224
106.005
164.321
105.159
103.701
-20.7081
15.671
78.0784
81.7463
88.2143
78.5905
76.4863
0.617327
-40.1071
102.418
96.0111
57.9687
98.7276
46.8932
137.773
50.3489
95.9139
88.5608
100.311
106.571
80.8732
74.4788
55.4452
114.108
80.695
116.324
-55.3196
24.8804
25.0811
96.2664
120.806
91.2131
-18.8263
106.663
47.6249
105.867
99.3425
26.9067
160.603
108.292
196.423
-21.0721
91.2404
99.059
108.159
49.4194
-13.6173
-49.8501
87.7766
18.5052
100.74
112.819
-21.3436
111.611
128.561
105.981
91.9615
4.77405
108.355
52.2992
-37.1351
116.146
106.971
23.8501
107.376
136.331
50.3991
60.703
48.1083
98.0798
115.136
93.9231
98.2585
117.31
18.6305
103.744
59.525
158.627
81.4696
108.842
36.5655
147.612
56.8844
74.6108
91.7335
16.5192
185.236
195.669
129.843
104.086
109.031
60.9203
84.1849
37.4633
180.27
-33.2995
63.273
99.0544
108.244
103.527
137.151
176.412
96.4293
107.475
105.789
90.4698
116.925
106.461
142.175
108.577
102.546
103.849
94.524
121.628
13.0307
-1.81239
207.741
-56.4964
133.775
83.7058
136.416
76.3638
-30.8751
129.198
94.4791
91.1282
92.5557
99.1922
98.3288
129.1
72.9205
-48.2541
101.591
105.897
26.2147
-62.5056
68.9842
67.1975
79.5118
-31.4188
69.5097
19.5409
91.8211
48.2243
76.3595
125.712
118.825
29.1389
53.0819
102.298
116.549
125.638
101.603
68.3397
105.451
107.564
95.79
117.05
133.182
84.5695
63.0625
108.252
116.516
90.4085
100.484
142.262
101.854
105.4
139.015
92.3946
91.331
90.9854
102.912
-28.8987
160.567
109.125
55.7182
102.977
99.0237
94.1991
90.3292
77.5984
109.131
-48.7676
84.5905
24.7268
22.7015
91.5046
156.333
-17.0555
21.7673
99.4056
92.0987
17.043
87.4062
132.012
87.8381
55.2656
113.793
97.013
85.5963
141.224
28.5921
116.4
25.0521
160.334
105.068
70.382
106.848
107.584
76.4222
100.207
108.068
67.5325
108.585
89.7882
95.0849
136.749
107.39
91.8456
105.529
81.4994
99.5036
79.0255
60.4658
99.2197
-14.482
101.552
86.3915
130.651
-3.85973
105.794
154.701
193.455
90.2058
-34.9041
136.416
75.8817
40.3946
120.441
-0.118034
102.934
99.6495
-6.14244
63.0859
134.311
49.5513
118.093
172.9
51.5414
120.413
118.007
91.921
137.541
107.476
105.192
21.6366
91.0645
59.4291
110.5
110.795
-67.8521
146.45
11.9198
126.991
27.699
148.077
96.3863
101.086
-83.4503
98.5105
89.8613
66.0993
93.4691
112.858
104.415
102.675
85.533
127.683
89.8238
6.74231
28.0223
110.268
90.6217
111.392
101.841
73.2059
148.851
105.867
126.553
136.748
107.033
79.4412
92.5042
22.507
31.8868
139.3
78.6561
2.63958
36.0526
-16.2334
91.5501
90.3475
175.402
92.5713
-24.0466
182.584
128.532
93.5935
81.3927
94.4533
23.6264
59.9411
69.0698
-15.5672
163.063
138.344
89.5741
150.81
-72.705
-32.5617
83.6799
104.057
86.9621
107.609
57.7381
95.5513
61.3886
137.05
93.2926
119.381
59.9058
-42.2336
74.0384
91.5797
44.845
46.007
-33.8869
90.1971
19.9806
106.75
96.9581
80.3006
119.223
-21.9961
97.225
56.9715
-14.8951
85.4787
100.365
120.227
107.622
96.3352
137.247
107.442
41.7081
104.212
56.1513
86.0448
110.314
131.802
66.0983
98.1899
22.855
124.29
-4.90195
91.2787
93.0341
24.3023
143.303
125.621
95.0571
114.891
97.1323
104.415
-51.7232
163.469
11.7866
60.9294
99.5806
128.083
26.5844
118.216
130.32
113.743
71.6014
121.117
98.6073
-44.6701
106.921
161.762
134.85
89.7532
89.6301
105.309
108.622
63.9189
33.5821
90.5738
78.0611
90.6811
98.1615
115.846
106.638
90.8087
97.1467
186.93
19.4636
37.9707
102.228
43.2485
15.6527
-25.52
96.9862
72.1167
104.11
-9.4649
92.8927
109.407
104.266
-16.1453
111.928
105.131
100.879
87.556
127.41
98.2331
27.4758
-3.08562
96.8478
94.0456
96.8716
94.2825
98.959
89.7705
107.26
194.861
117.335
71.9201
110.118
182.279
164.737
52.6153
115.656
122.94
127.614
111.059
-33.9624
22.0853
75.6263
82.8435
121.668
101.752
139.528
107.347
-35.9695
90.8404
89.3183
67.7993
90.8219
-13.5894
35.27
130.228
107.324
105.018
114.402
103.059
170.87
40.3808
51.5605
38.918
100.968
100.466
27.6664
91.8291
92.3678
-29.4625
-4.91573
75.547
84.9744
86.1185
106.922
102.767
73.7843
71.7814
-15.2522
105.524
69.1533
65.8136
104.288
51.8574
29.2418
89.9322
117.752
98.4005
105.685
84.6615
104.138
91.1032
100.364
85.2541
104.357
106.698
102.124
102.835
106.413
104.101
166.233
107.661
110.216
142.969
67.6738
59.8539
160.146
86.2776
18.2505
12.3054
78.7417
116.78
55.2646
117.298
73.7544
158.76
97.177
93.9608
117.467
-35.9898
125.695
-3.72688
52.2401
142.416
92.5832
106.079
83.6839
91.0001
114.19
2.99887
141.419
100.775
113.4
106.393
153.751
102.25
129.579
114.711
89.7407
108.476
117.421
21.1896
74.2618
120.874
171.803
63.9516
97.3318
59.2122
118.375
133.766
136.36
100.846
39.2753
23.7006
-32.7918
105.567
103.035
103.932
115.322
107.016
31.1127
52.4893
160.904
109.426
199.195
69.8697
34.0257
136.048
49.7114
130.436
96.8184
13.7663
80.5521
100.651
126.109
10.3504
37.947
93.9742
103.053
96.4965
107.288
36.5449
53.8182
74.4452
-12.1031
95.405
-34.1892
0.31926
91.7452
22.1903
116.614
108.37
112.331
156.605
108.067
89.5063
43.5767
50.2149
103.841
44.5478
-8.80384
94.7639
49.3246
104.123
21.2772
-15.8258
-6.18537
88.3647
89.0494
108.579
-28.0181
156.732
92.2312
72.2148
114.6
175.379
134.171
97.5663
52.1162
108.409
9.7495
67.0007
-7.04152
123.603
129.361
194.542
92.2034
146.274
118.356
62.7463
105.547
149.571
106.528
112.283
104.835
104.481
112.468
69.3191
100.493
-1.27588
18.0182
92.6535
100.258
16.8441
75.0905
107.649
-25.6014
93.769
-6.21435
169.43
111.734
115.965
83.0943
115.999
-17.736
72.1076
47.4735
121.554
97.0759
67.4052
135.985
15.5596
87.4867
109.303
-44.9019
134.471
128.715
93.4327
124.024
92.3883
194.724
107.725
89.8692
98.1679
107.556
95.6118
171.277
103.907
163.526
-8.88082
89.3381
-4.15655
115.561
105.248
111.36
57.1683
168.732
166.241
94.1159
53.6278
103.731
85.608
39.162
99.7696
-47.6329
140.395
89.0884
6.56929
130.151
-48.1846
-48.3409
26.6549
51.4437
93.0323
92.8185
56.9301
104.043
83.6249
35.2384
67.8614
179.916
94.9771
-5.34744
102.121
40.2053
-52.9953
78.883
69.2902
91.3691
-19.9545
-48.7609
57.6348
153.721
88.6886
88.6883
164.791
66.243
40.4355
69.8399
-21.876
-21.0224
95.7949
109.53
97.5894
39.2588
67.1082
101.048
67.4796
70.2245
94.5133
105.835
166.156
111.357
71.0376
90.1072
58.342
152.34
112.88
124.986
60.0485
122.552
17.0638
77.4558
49.1698
104.868
-25.4251
135.836
122.519
97.4039
106.603
-68.5386
102.497
93.3094
40.8598
139.135
118.463
123.264
119.301
107.244
102.839
104.557
107.422
188.85
99.4457
111.932
-61.8191
202.88
76.7194
-66.9166
89.1699
-13.1444
-42.5937
57.5444
118.668
96.0642
71.9504
50.6166
-38.928
44.2859
74.9544
95.9621
106.691
129.622
103.389
183.605
104.01
-31.3979
103.493
93.654
101.301
76.5077
2.49366
95.7691
140.709
14.5207
160.539
90.7459
145.13
-15.1351
99.1167
83.245
171.369
141.619
110.162
98.5969
26.1059
-2.46807
91.8963
107.174
54.9716
134.741
189.953
76.2515
94.027
106.538
-9.51006
-38.3921
67.781
115.222
98.9003
101.408
93.2351
128.891
9.44809
90.6487
102.221
41.2217
17.1886
122.375
-10.8916
129.803
70.6674
104.67
24.3937
104.257
-87.9282
99.3423
95.313
68.7988
65.0496
111.96
88.5749
99.658
-2.09431
216.186
85.2863
77.3814
95.3552
89.9347
95.7245
118.505
105.893
106.687
49.8603
-78.6957
99.5249
93.7985
138.661
95.1917
111.833
91.1981
97.4314
62.0762
113.611
54.9895
102.837
87.1384
34.4759
102.867
26.1536
123.892
86.9474
200.941
102.484
81.1788
141.398
67.8864
79.7138
116.913
-49.9379
90.9712
89.5462
4.28378
122.364
157.809
-54.8581
95.3236
28.703
120.462
90.7687
98.1169
109.139
-3.36363
98.5486
181.411
69.7105
107.336
126.835
74.8744
91.5073
17.9918
111.137
99.7768
-60.7487
20.2388
125.614
109.686
153.737
83.1635
98.17
98.9059
57.3572
102.019
77.9142
83.456
-8.37936
128.372
148.293
46.1705
102.592
102.037
11.1507
133.347
32.0426
92.7851
6.79133
92.9535
100.646
123.393
-42.6062
58.0273
49.0902
103.565
100.301
90.0886
90.058
155.018
125.224
108.08
91.5263
84.1995
38.905
157.361
124.028
108.774
96.5194
1.43587
46.56
53.3563
88.6351
20.1903
101.603
165.268
130.765
103.867
87.7743
103.176
170.538
103.029
104.55
-10.6865
49.2485
32.8982
106.822
106.415
1.66383
109.098
93.3951
63.4505
27.8435
107.141
77.6856
13.5394
75.214
108.753
105.846
75.0224
-18.5994
114.832
-8.07105
74.8527
108.052
108.437
56.3635
112.235