/*--------------------------------*- C++ -*----------------------------------*\
| =========                 |                                                 |
| \\      /  F ield         | OpenFOAM: The Open Source CFD Toolbox           |
|  \\    /   O peration     | Version:  2.3.0                                 |
|   \\  /    A nd           | Web:      www.OpenFOAM.org                      |
|    \\/     M anipulation  |                                                 |
\*---------------------------------------------------------------------------*/
FoamFile
{
    version     2.0;
    format      ascii;
    class       volScalarField;
    location    "4000";
    object      p;
}
// * * * * * * * * * * * * * * * * * * * * * * * * * * * * * * * * * * * * * //

dimensions      [0 2 -2 0 0 0 0];

internalField   nonuniform List<scalar> 
37616
(
0.000362834
0.644296
1.26623
1.89788
2.54148
3.1967
3.86343
4.54248
5.23408
5.93833
6.65575
7.38704
8.13216
8.8923
9.66725
10.4576
11.264
12.0865
12.9248
13.779
14.6486
15.5323
16.4296
17.3394
18.26
19.1903
20.1255
21.0665
22.0061
22.9449
23.8744
24.7878
25.681
26.5407
27.3498
28.0973
28.7456
29.262
29.5716
29.6649
29.6131
28.9709
24.0192
0.594316
1.18089
1.76429
2.36281
2.97426
3.59841
4.23462
4.88343
5.54476
6.21986
6.90723
7.60912
8.32476
9.0557
9.80235
10.565
11.3457
12.1453
12.9643
13.805
14.6686
15.5562
16.469
17.408
18.3734
19.3648
20.3811
21.4192
22.4746
23.5396
24.6043
25.6539
26.6685
27.621
28.476
29.1872
29.6943
29.9193
29.7631
29.1123
27.7797
25.3731
21.3549
1.06182
1.60962
2.12963
2.6674
3.21611
3.77373
4.34034
4.91534
5.49864
6.09112
6.69129
7.30019
7.9178
8.54344
9.17772
9.82054
10.471
11.1301
11.7957
12.4691
13.1488
13.8339
14.5235
15.2172
15.9118
16.6062
17.297
17.981
18.6528
19.3062
19.9334
20.5244
21.0653
21.5397
21.9274
22.204
22.3406
22.3057
22.0645
21.5819
20.8253
19.7795
18.4865
1.35377
1.96052
2.43907
2.93144
3.43508
3.94594
4.46529
4.9927
5.52798
6.07202
6.624
7.18487
7.75405
8.33178
8.9186
9.51471
10.1184
10.7325
11.3542
11.9851
12.6232
13.2686
13.92
14.5758
15.2341
15.8924
16.5467
17.1931
17.8261
18.4384
19.0214
19.5657
20.0579
20.4836
20.8254
21.0642
21.1787
21.1478
20.9512
20.5739
20.0104
19.2719
18.3945
1.74025
2.26801
2.70322
3.15142
3.61053
4.0763
4.55039
5.03136
5.51948
6.0159
6.51852
7.02996
7.54677
8.07145
8.60386
9.1426
9.6878
10.2407
10.799
11.3638
11.9332
12.5071
13.0843
13.6634
14.2425
14.8192
15.3907
15.9535
16.5027
17.0328
17.5374
18.0085
18.4365
18.8105
19.1176
19.3453
19.4802
19.5104
19.426
19.222
18.9023
18.482
17.9905
1.94104
2.49741
2.91317
3.33047
3.7556
4.18391
4.62081
5.06465
5.51391
5.97335
6.43645
6.91118
7.38895
7.87519
8.37088
8.87238
9.37903
9.89453
10.4146
10.9414
11.4725
12.0082
12.5462
13.087
13.6275
14.1664
14.7001
15.2252
15.7375
16.2324
16.7033
17.1445
17.5488
17.9072
18.2084
18.4428
18.6019
18.6775
18.6643
18.5615
18.374
18.1159
17.8092
2.30574
2.74518
3.11506
3.49183
3.88001
4.27059
4.67447
5.08772
5.50214
5.93344
6.36352
6.81121
7.25222
7.70108
8.16652
8.6385
9.10933
9.59724
10.0878
10.584
11.0829
11.5859
12.0907
12.5976
13.1017
13.607
14.1104
14.6076
15.0911
15.5598
16.0066
16.4269
16.814
17.1648
17.4682
17.7183
17.9077
18.0278
18.0768
18.0563
17.9696
17.8298
17.6531
2.48208
2.92342
3.26983
3.62137
3.98453
4.33917
4.71459
5.09813
5.47775
5.88448
6.27868
6.71924
7.13477
7.53888
7.98552
8.44153
8.86763
9.32891
9.79678
10.2754
10.7577
11.2361
11.7174
12.2121
12.695
13.1684
13.642
14.1256
14.5968
15.0466
15.4775
15.8965
16.2884
16.6517
16.9469
17.2017
17.411
17.565
17.6615
17.6992
17.6823
17.6265
17.5403
2.83195
3.09262
3.36435
3.69493
4.12767
4.44908
4.74346
5.1527
5.41674
5.85099
6.07841
6.52609
7.01674
7.34414
7.71205
8.2561
8.58756
8.97133
9.37519
9.80961
10.2751
10.7234
11.1645
11.6658
12.1819
12.6602
13.0986
13.5641
14.0522
14.5118
14.9311
15.3701
15.82
16.2699
16.5981
16.8147
17.0353
17.2181
17.3616
17.4431
17.4714
17.4756
17.4566
9.00874
4.96292
5.35942
5.93074
6.34916
6.89444
7.56577
8.31199
9.08392
9.88015
10.6859
11.5019
12.3242
13.144
13.9627
14.7803
15.5909
16.3957
17.1902
17.975
18.7478
19.508
20.2537
20.9844
21.6991
22.3978
23.0798
23.7456
24.3953
25.0286
25.6462
26.2484
26.8364
27.4099
27.9699
28.5168
29.0512
29.5728
30.0828
30.581
31.0679
31.5473
31.9649
16.3335
11.9816
9.31144
7.79933
7.00476
6.7322
6.85379
7.26489
7.8841
8.64696
9.50531
10.4233
11.3721
12.3324
13.2893
14.2323
15.1538
16.0506
16.9193
17.7597
18.5709
19.3541
20.1098
20.8407
21.5473
22.232
22.8961
23.5407
24.1678
24.7784
25.3737
25.9539
26.5205
27.0739
27.6141
28.1416
28.6574
29.1607
29.6526
30.1329
30.6019
31.0615
31.4554
17.124
15.8776
14.8924
14.1959
13.7533
13.5341
13.502
13.6248
13.8714
14.2145
14.6319
15.1039
15.6168
16.1588
16.7199
17.2943
17.8762
18.4615
19.0475
19.6316
20.2125
20.7889
21.3593
21.9237
22.481
23.0306
23.572
24.1059
24.6305
25.147
25.6548
26.1536
26.644
27.1254
27.5985
28.0631
28.5194
28.9675
29.4069
29.8384
30.2613
30.6776
31.0376
17.4539
16.5619
15.7991
15.2071
14.7961
14.5608
14.485
14.5489
14.731
15.0098
15.367
15.7856
16.2517
16.7526
17.2786
17.8215
18.3753
18.9347
19.4953
20.0545
20.6096
21.1587
21.701
22.2345
22.7596
23.276
23.7824
24.2804
24.7681
25.2471
25.7174
26.1784
26.6309
27.0753
27.5111
27.939
28.3588
28.771
29.1751
29.571
29.9594
30.3405
30.6719
17.4716
16.9767
16.5487
16.2167
15.9956
15.887
15.8859
15.9826
16.165
16.4198
16.7345
17.0977
17.4983
17.928
18.3796
18.8466
19.3238
19.8074
20.294
20.7814
21.2668
21.749
22.2277
22.7011
23.1683
23.6292
24.0833
24.5308
24.9714
25.4048
25.8312
26.25
26.662
27.0661
27.4638
27.8545
28.2383
28.6161
28.9866
29.35
29.7083
30.0615
30.3743
17.4829
17.1705
16.9008
16.6964
16.5708
16.5301
16.5707
16.6886
16.8765
17.1241
17.4229
17.763
18.1362
18.5363
18.9566
19.3911
19.8359
20.2866
20.74
21.1956
21.6487
22.1002
22.5474
22.9892
23.4258
23.8555
24.279
24.6968
25.1072
25.5102
25.9058
26.2932
26.6749
27.0489
27.4172
27.7783
28.1335
28.4823
28.8242
29.1583
29.4877
29.8127
30.0876
17.4613
17.2785
17.1249
17.0203
16.9752
17.0002
17.0869
17.2352
17.441
17.6919
17.9852
18.3142
18.6721
19.0543
19.4528
19.8611
20.2785
20.7016
21.1292
21.5613
21.983
22.4063
22.8239
23.2372
23.6456
24.0498
24.4461
24.84
25.2223
25.5941
25.96
26.3221
26.6806
27.0308
27.3767
27.7122
28.0445
28.3681
28.6853
28.9939
29.3004
29.6051
29.8553
17.4399
17.3463
17.2727
17.2424
17.2627
17.3409
17.4571
17.6244
17.8423
18.0906
18.3846
18.7179
19.0624
19.4233
19.8114
20.2062
20.606
21.0213
21.4368
21.8497
22.2307
22.6421
23.047
23.4375
23.8295
24.2146
24.5812
24.9533
25.3129
25.6615
26.0153
26.3645
26.7055
27.0263
27.3445
27.652
27.9644
28.2672
28.5661
28.846
29.1238
29.3932
29.6057
17.4252
17.4037
17.396
17.4304
17.5128
17.6496
17.7458
17.9193
18.1485
18.4037
18.7859
19.124
19.4352
19.7856
20.2026
20.6031
21.007
21.4316
21.8084
22.171
22.4919
23.0142
23.3597
23.7793
24.1551
24.4902
24.813
25.1865
25.4927
25.8963
26.2571
26.5649
26.8443
27.0892
27.3603
27.6259
27.9185
28.2015
28.4778
28.7152
28.9467
29.1583
29.3247
-9.86312
-9.44263
-9.10652
-8.74794
-8.38246
-8.00831
-7.62427
-7.22878
-6.82001
-6.39614
-5.95579
-5.49767
-5.02074
-4.52486
-4.01066
-3.47996
-2.93493
-2.37853
-1.81453
-1.24754
-0.682387
-0.124065
0.422065
0.950437
1.45665
1.93623
2.38572
2.80106
3.18046
3.52141
3.8243
4.08852
4.31482
4.50628
4.66616
4.79911
4.91114
5.00939
5.10309
5.19959
5.29575
5.3969
5.80192
-9.07615
-8.67968
-8.367
-8.03795
-7.70829
-7.37755
-7.04553
-6.71289
-6.38001
-6.04751
-5.71532
-5.3843
-5.05409
-4.72489
-4.3965
-4.06848
-3.7405
-3.41152
-3.08046
-2.74632
-2.40814
-2.06469
-1.71467
-1.35745
-0.99239
-0.618698
-0.23606
0.155811
0.556719
0.966867
1.38643
1.81492
2.25187
2.69737
3.15047
3.61044
4.07488
4.53996
4.998
5.44167
5.8744
6.28797
6.55565
-8.35381
-8.004
-7.71031
-7.40287
-7.09571
-6.78814
-6.47989
-6.17125
-5.86254
-5.55412
-5.24558
-4.93728
-4.62869
-4.31934
-4.00921
-3.69786
-3.38448
-3.0687
-2.74942
-2.42617
-2.09768
-1.76308
-1.42188
-1.07311
-0.715818
-0.349706
0.0258092
0.411281
0.807148
1.21313
1.62901
2.0547
2.48986
2.93325
3.38326
3.83763
4.29262
4.7429
5.17941
5.59272
5.99933
6.46941
6.84722
-7.7107
-7.3838
-7.09905
-6.80261
-6.5038
-6.20191
-5.89683
-5.58841
-5.2766
-4.96142
-4.64237
-4.31933
-3.99187
-3.65968
-3.323
-2.98186
-2.63601
-2.28621
-1.93187
-1.5734
-1.2106
-0.843763
-0.472715
-0.0974677
0.281839
0.665339
1.05322
1.44527
1.8416
2.24278
2.64849
3.05815
3.47115
3.8865
4.30282
4.71757
5.12782
5.5288
5.91376
6.27656
6.62938
7.0514
7.39707
-7.14906
-6.8349
-6.56149
-6.27892
-5.99277
-5.70286
-5.40887
-5.1111
-4.80982
-4.50522
-4.19654
-3.88376
-3.56592
-3.24307
-2.91467
-2.58066
-2.24147
-1.89702
-1.54669
-1.19053
-0.828207
-0.460165
-0.0865499
0.292861
0.67784
1.06806
1.46289
1.86219
2.26587
2.67376
3.08529
3.50019
3.91744
4.33495
4.75083
5.16264
5.56777
5.96229
6.34119
6.70174
7.05393
7.4649
7.81107
-6.64283
-6.34832
-6.0927
-5.82733
-5.55655
-5.28218
-5.00224
-4.71834
-4.43053
-4.14018
-3.84597
-3.5477
-3.24433
-2.9357
-2.62042
-2.29787
-1.96957
-1.63522
-1.29457
-0.94732
-0.592213
-0.229415
0.140358
0.516544
0.900217
1.29076
1.6867
2.0862
2.48899
2.89505
3.30561
3.7204
4.13939
4.55786
4.971
5.37475
5.76819
6.14965
6.51529
6.86643
7.21819
7.62608
7.99557
-6.19986
-5.91989
-5.67974
-5.43052
-5.17322
-4.91377
-4.64483
-4.37227
-4.0925
-3.81223
-3.52815
-3.23995
-2.94571
-2.64658
-2.34045
-2.02345
-1.70027
-1.37104
-1.03516
-0.692095
-0.339886
0.0217618
0.390956
0.766169
1.151
1.54559
1.94515
2.35029
2.75231
3.15807
3.56323
3.96177
4.3665
4.77316
5.17188
5.55574
5.91205
6.24905
6.58542
6.92404
7.28406
7.72999
8.20573
-5.79814
-5.53608
-5.3102
-5.08066
-4.83139
-4.5917
-4.33024
-4.072
-3.79659
-3.5265
-3.25314
-2.97533
-2.69117
-2.40168
-2.11295
-1.79804
-1.47694
-1.15283
-0.826265
-0.495955
-0.15454
0.206566
0.574866
0.937355
1.31258
1.70737
2.11298
2.51851
2.92523
3.30409
3.7281
4.12236
4.56305
4.99604
5.40976
5.78813
6.13601
6.44427
6.72145
6.98337
7.25562
7.60359
8.10254
-5.46649
-5.20772
-4.98625
-4.78518
-4.53083
-4.31768
-4.05008
-3.81248
-3.51925
-3.2532
-2.98277
-2.71883
-2.4319
-2.13946
-1.89657
-1.58439
-1.26089
-0.920563
-0.576218
-0.239826
0.081439
0.435621
0.851564
1.22599
1.59181
2.00157
2.40077
2.8997
3.30271
3.71445
4.11872
4.30412
4.64051
5.07063
5.49514
5.92147
6.10722
6.21865
6.51064
6.83668
7.11504
7.63534
9.06154
7.37226
8.74402
10.2947
11.6107
12.809
13.8957
14.8888
15.8008
16.6467
17.4355
18.1772
18.8799
19.5486
20.1887
20.8052
21.3998
21.9766
22.5359
23.0814
23.6132
24.1338
24.6436
25.1448
25.6381
26.1248
26.6059
27.0823
27.5546
28.0229
28.4875
28.9485
29.4062
29.8601
30.3099
30.7553
31.1961
31.6318
32.0623
32.4873
32.9062
33.3138
33.722
34.201
7.36211
8.0785
9.05975
10.0105
11.0078
11.9925
12.9539
13.8825
14.7759
15.633
16.4548
17.2447
18.0042
18.7356
19.4421
20.1247
20.7865
21.4281
22.0523
22.6594
23.2514
23.8284
24.3925
24.9429
25.4813
26.0075
26.522
27.0251
27.5172
27.9986
28.4692
28.9302
29.3811
29.8225
30.2549
30.6787
31.0939
31.5012
31.901
32.2928
32.6708
33.0467
33.4846
7.76524
8.59318
9.51541
10.3869
11.2874
12.178
13.0598
13.9244
14.7681
15.5882
16.3832
17.1533
17.8978
18.6184
19.316
19.9912
20.6452
21.2794
21.8949
22.4928
23.0737
23.6387
24.1888
24.7243
25.2463
25.7551
26.2515
26.7352
27.2078
27.6691
28.1194
28.5596
28.9896
29.4101
29.8213
30.2236
30.6172
31.0024
31.38
31.749
32.1053
32.4613
32.8548
8.20649
9.0057
9.8846
10.7413
11.6178
12.4812
13.3334
14.1678
14.982
15.7733
16.5415
17.2853
18.0055
18.7024
19.3764
20.0288
20.6601
21.2711
21.8634
22.4373
22.9941
23.5348
24.0597
24.5705
25.0675
25.5512
26.0232
26.4825
26.9314
27.3693
27.7968
28.2147
28.6232
29.0227
29.414
29.7971
30.1724
30.5398
30.9004
31.2535
31.5951
31.9356
32.3232
8.55361
9.30326
10.1225
10.9416
11.7827
12.6182
13.447
14.2604
15.0554
15.8292
16.5812
17.3096
18.0155
18.6983
19.359
19.9978
20.6156
21.2133
21.7918
22.3518
22.8941
23.4206
23.9312
24.4269
24.9086
25.3769
25.8325
26.2758
26.7075
27.1281
27.5378
27.9372
28.3268
28.7078
29.0806
29.4452
29.802
30.1511
30.4935
30.8297
31.1561
31.4817
31.8522
8.74707
9.49788
10.3027
11.1104
11.9347
12.754
13.5662
14.3632
15.1423
15.9022
16.641
17.358
18.0525
18.7246
19.3748
20.0034
20.6104
21.1971
21.7639
22.3114
22.8408
23.3547
23.8524
24.3349
24.8019
25.2559
25.6962
26.1241
26.5398
26.9437
27.3359
27.7173
28.0885
28.4517
28.8073
29.1541
29.4922
29.8227
30.1469
30.4649
30.7734
31.077
31.414
9.00922
9.77572
10.5742
11.362
12.1625
12.9607
13.7516
14.5294
15.2916
16.0347
16.7583
17.4606
18.142
18.8011
19.4382
20.0534
20.6468
21.219
21.7711
22.304
22.819
23.3206
23.8055
24.2734
24.7255
25.1652
25.5908
26.0032
26.4032
26.7909
27.1665
27.5294
27.8838
28.2315
28.5729
28.9034
29.2232
29.537
29.8448
30.1462
30.4383
30.7223
31.0375
8.98846
9.72982
10.5762
11.4061
12.24
13.0497
13.8495
14.6212
15.3651
16.1003
16.8174
17.5153
18.1892
18.8424
19.4739
20.0827
20.6708
21.2358
21.7814
22.3035
22.8073
23.3043
23.7805
24.2352
24.6744
25.1041
25.5166
25.9159
26.3044
26.6779
27.037
27.3794
27.7187
28.0544
28.3847
28.6971
28.9963
29.2932
29.583
29.8676
30.1426
30.4054
30.7036
9.9797
10.5819
11.3872
12.013
12.7162
13.456
14.1825
14.8832
15.6295
16.3447
17.0507
17.7129
18.3755
19.0123
19.6234
20.217
20.7814
21.3159
21.8356
22.3206
22.8042
23.3112
23.7632
24.191
24.6123
25.0378
25.4299
25.8182
26.1962
26.5442
26.8794
27.195
27.5332
27.8612
28.1897
28.4756
28.7495
29.0446
29.3312
29.618
29.8982
30.1525
30.4626
123.289
107.649
94.7152
84.6944
76.2494
68.7756
62.1763
56.3918
51.3126
46.851
42.9172
39.438
36.3522
33.6
31.1298
28.9049
26.8815
25.0349
23.3321
21.7555
20.2827
18.9005
17.5947
16.3549
15.1724
14.0398
12.9515
11.9033
10.8911
9.91161
8.96294
8.04189
7.1478
6.27869
5.43364
4.61089
3.80975
3.02981
2.2697
1.52853
0.806475
0.106383
-0.563083
53.7909
50.1092
49.67
48.5573
46.8047
44.739
42.5728
40.3775
38.1889
36.0387
33.9514
31.9391
30.014
28.1789
26.434
24.7813
23.2138
21.7292
20.3212
18.9852
17.7135
16.5032
15.3463
14.239
13.1768
12.1544
11.1695
10.2175
9.29688
8.40351
7.53708
6.69411
5.8743
5.07532
4.29652
3.53719
2.7957
2.07231
1.36598
0.675654
0.00233353
-0.650507
-1.24316
30.1304
30.3504
31.6682
32.0942
32.1633
31.9947
31.6115
31.024
30.2619
29.3578
28.342
27.2397
26.0764
24.8708
23.6412
22.4025
21.1665
19.9412
18.7362
17.5553
16.402
15.2804
14.1902
13.1321
12.107
11.1129
10.15
9.21615
8.31101
7.43222
6.57911
5.75014
4.9446
4.16054
3.39745
2.65461
1.93057
1.22515
0.537723
-0.13259
-0.786162
-1.42043
-1.96545
28.9367
29.6003
29.5786
29.1665
28.7433
28.265
27.7038
27.058
26.3362
25.5469
24.698
23.7984
22.8568
21.8813
20.8815
19.8645
18.8372
17.8052
16.7756
15.7516
14.7377
13.737
12.7526
11.7854
10.8375
9.91001
9.00325
8.11722
7.25289
6.40928
5.58619
4.78354
4.00089
3.23754
2.49291
1.76698
1.05872
0.368016
-0.305704
-0.962829
-1.60526
-2.23434
-2.79369
24.0268
24.5193
24.2203
23.8858
23.5423
23.1438
22.6894
22.1861
21.6384
21.0474
20.4154
19.7448
19.0383
18.2997
17.5332
16.7426
15.9318
15.1045
14.2659
13.4185
12.5671
11.7142
10.8635
10.0173
9.17768
8.34716
7.52726
6.71836
5.92311
5.14095
4.37329
3.62027
2.88196
2.15906
1.45109
0.75859
0.0810706
-0.581598
-1.22926
-1.86236
-2.48267
-3.09224
-3.64636
17.4587
17.8114
17.7337
17.7191
17.653
17.5251
17.3404
17.1034
16.8157
16.4786
16.0934
15.6628
15.1892
14.6753
14.1245
13.5404
12.9262
12.2856
11.6221
10.9392
10.2407
9.53008
8.8101
8.08458
7.35548
6.6261
5.89816
5.17339
4.45427
3.74145
3.03714
2.34173
1.65621
0.98148
0.317814
-0.333863
-0.973648
-1.60126
-2.21602
-2.81821
-3.40887
-3.991
-4.52582
12.682
12.921
12.9485
13.0173
13.0312
13.0005
12.9269
12.811
12.6528
12.4518
12.209
11.9261
11.6035
11.2428
10.8457
10.4151
9.95269
9.46118
8.94243
8.39981
7.83586
7.25379
6.65555
6.04454
5.42341
4.79436
4.15973
3.52178
2.88291
2.24423
1.60815
0.975656
0.348243
-0.272994
-0.88698
-1.49292
-2.09018
-2.678
-3.25559
-3.82308
-4.38034
-4.93201
-5.44399
8.88427
9.04436
9.09609
9.15927
9.17988
9.17108
9.13261
9.06445
8.96568
8.83536
8.67409
8.48149
8.25689
8.00078
7.71357
7.39626
7.04989
6.67553
6.27462
5.84881
5.39971
4.92987
4.44087
3.93486
3.41437
2.88113
2.33745
1.78535
1.22717
0.664398
0.0990752
-0.467265
-1.03307
-1.59673
-2.1571
-2.71302
-3.2636
-3.80783
-4.34456
-4.87321
-5.39353
-5.90944
-6.39127
5.23098
5.37084
5.45149
5.52843
5.57446
5.59833
5.59865
5.57635
5.53021
5.45945
5.36382
5.24253
5.0947
4.92065
4.72007
4.49299
4.23938
3.96013
3.65606
3.32784
2.97642
2.60327
2.20966
1.79724
1.36784
0.922998
0.46439
-0.00586178
-0.486272
-0.974928
-1.46968
-1.96948
-2.47262
-2.97696
-3.4817
-3.98527
-4.48651
-4.98451
-5.47795
-5.96574
-6.44785
-6.92895
-7.39072
1.77161
1.9206
2.02796
2.12701
2.20286
2.26008
2.29828
2.31756
2.3173
2.29609
2.25415
2.19052
2.10458
1.99614
1.86476
1.71019
1.53194
1.33052
1.10627
0.859404
0.590428
0.300193
-0.0105217
-0.340617
-0.688799
-1.05367
-1.43419
-1.82849
-2.23537
-2.65321
-3.07987
-3.51459
-3.95555
-4.40085
-4.84929
-5.29973
-5.75057
-6.20052
-6.64865
-7.09359
-7.53483
-7.97637
-8.40962
-1.36389
-1.21217
-1.09592
-0.985914
-0.893216
-0.815207
-0.752247
-0.704597
-0.67304
-0.658017
-0.660394
-0.680365
-0.718673
-0.776306
-0.853257
-0.950375
-1.06809
-1.20614
-1.3646
-1.54377
-1.7435
-1.96321
-2.20245
-2.4606
-2.7368
-3.03029
-3.34011
-3.66481
-4.00345
-4.35468
-4.71685
-5.08911
-5.46982
-5.85731
-6.25027
-6.64755
-7.04762
-7.44904
-7.85084
-8.25144
-8.64992
-9.04898
-9.44043
-4.29065
-4.1275
-4.0029
-3.88318
-3.7775
-3.68399
-3.60271
-3.53388
-3.47762
-3.43508
-3.40656
-3.39254
-3.39392
-3.41111
-3.44474
-3.49554
-3.56378
-3.64983
-3.75398
-3.87656
-4.01759
-4.17714
-4.35482
-4.55033
-4.76335
-4.99329
-5.23944
-5.50103
-5.77724
-6.06671
-6.36847
-6.68162
-7.00478
-7.33653
-7.67553
-8.02069
-8.37054
-8.72372
-9.07895
-9.4343
-9.78805
-10.1415
-10.478
-7.03091
-6.85812
-6.72988
-6.60466
-6.49028
-6.38471
-6.28872
-6.20274
-6.12717
-6.06224
-6.00882
-5.96716
-5.93827
-5.92258
-5.92088
-5.93342
-5.96097
-6.00373
-6.0624
-6.13723
-6.22857
-6.33658
-6.46112
-6.60215
-6.75964
-6.93326
-7.1225
-7.32716
-7.54641
-7.7792
-8.02487
-8.28268
-8.55143
-8.82996
-9.1173
-9.41221
-9.71324
-10.0195
-10.3295
-10.6418
-10.9551
-11.2737
-11.591
-9.62524
-9.44378
-9.31235
-9.18094
-9.05777
-8.94163
-8.83357
-8.73322
-8.64118
-8.5581
-8.48394
-8.4196
-8.36577
-8.32301
-8.2915
-8.27222
-8.26583
-8.27228
-8.29243
-8.3267
-8.37545
-8.43908
-8.51776
-8.61137
-8.71999
-8.84371
-8.98242
-9.13577
-9.30322
-9.48426
-9.67825
-9.88461
-10.1023
-10.3307
-10.5688
-10.8156
-11.0696
-11.3304
-11.5967
-11.8671
-12.1413
-12.4243
-12.7144
-12.1035
-11.9108
-11.7751
-11.6361
-11.5037
-11.3776
-11.2578
-11.1448
-11.0382
-10.9389
-10.8476
-10.7638
-10.6888
-10.6229
-10.5665
-10.5202
-10.4848
-10.4604
-10.4478
-10.4474
-10.4596
-10.4848
-10.5234
-10.5755
-10.6412
-10.7207
-10.8142
-10.9214
-11.0421
-11.1759
-11.3224
-11.4812
-11.6514
-11.8326
-12.0242
-12.2249
-12.434
-12.6508
-12.8743
-13.1033
-13.3377
-13.5817
-13.8364
-14.4196
-14.2337
-14.1026
-13.961
-13.8245
-13.6924
-13.5649
-13.4426
-13.3251
-13.2133
-13.1075
-13.0081
-12.9154
-12.8302
-12.7529
-12.6838
-12.6237
-12.5732
-12.5324
-12.502
-12.4826
-12.4744
-12.478
-12.4936
-12.5214
-12.5618
-12.6148
-12.6805
-12.759
-12.8496
-12.9526
-13.0677
-13.1938
-13.3309
-13.4785
-13.6357
-13.8018
-13.976
-14.1578
-14.3462
-14.5409
-14.7455
-14.9641
-16.6678
-16.4808
-16.3444
-16.1964
-16.053
-15.9134
-15.7778
-15.6462
-15.5187
-15.3956
-15.2773
-15.1641
-15.0563
-14.9542
-14.8589
-14.7702
-14.6889
-14.6155
-14.5505
-14.494
-14.4468
-14.4095
-14.3826
-14.3659
-14.3601
-14.3657
-14.3825
-14.4109
-14.4509
-14.5024
-14.5656
-14.6402
-14.7254
-14.8214
-14.9278
-15.0438
-15.169
-15.3026
-15.4439
-15.5923
-15.7474
-15.9116
-16.0925
-18.7895
-18.61
-18.4775
-18.3293
-18.1839
-18.0403
-17.8991
-17.7606
-17.6251
-17.493
-17.3641
-17.2391
-17.1183
-17.0019
-16.8909
-16.7853
-16.6856
-16.5923
-16.5059
-16.4267
-16.3554
-16.2926
-16.2382
-16.193
-16.1574
-16.1319
-16.1163
-16.111
-16.1162
-16.1321
-16.1588
-16.196
-16.2435
-16.3013
-16.369
-16.4461
-16.5324
-16.6272
-16.7296
-16.8391
-16.9554
-17.0803
-17.2279
-20.8477
-20.6715
-20.5368
-20.386
-20.2368
-20.0886
-19.9421
-19.7972
-19.6545
-19.5142
-19.376
-19.2407
-19.1086
-18.9798
-18.8553
-18.7348
-18.6189
-18.5082
-18.4029
-18.3037
-18.2111
-18.1253
-18.0468
-17.9762
-17.9139
-17.8603
-17.8155
-17.7798
-17.7536
-17.737
-17.7301
-17.7332
-17.7458
-17.7681
-17.7995
-17.8402
-17.8897
-17.9474
-18.0127
-18.0843
-18.1615
-18.2459
-18.3556
-22.8596
-22.6798
-22.5397
-22.383
-22.2281
-22.0738
-21.9204
-21.7683
-21.618
-21.4692
-21.3222
-21.1772
-21.0345
-20.8944
-20.7575
-20.6236
-20.4933
-20.367
-20.2451
-20.1281
-20.0164
-19.9102
-19.8103
-19.717
-19.6306
-19.5516
-19.4804
-19.4172
-19.3625
-19.3162
-19.2786
-19.25
-19.2304
-19.2197
-19.2176
-19.2242
-19.2391
-19.262
-19.2921
-19.3282
-19.3696
-19.4199
-19.5081
-24.7642
-24.5898
-24.452
-24.296
-24.1403
-23.9835
-23.8266
-23.67
-23.5141
-23.3587
-23.2045
-23.0512
-22.8995
-22.7495
-22.6014
-22.4557
-22.3127
-22.1724
-22.0356
-21.9028
-21.774
-21.6497
-21.5305
-21.4166
-21.3086
-21.2067
-21.1116
-21.0234
-20.9425
-20.8691
-20.8034
-20.7458
-20.6963
-20.6549
-20.6216
-20.5964
-20.5791
-20.5693
-20.5666
-20.5701
-20.5794
-20.5996
-20.6656
-26.6236
-26.4502
-26.3093
-26.1503
-25.992
-25.8321
-25.6716
-25.5107
-25.3497
-25.1886
-25.0279
-24.8674
-24.7077
-24.5488
-24.391
-24.2349
-24.0806
-23.928
-23.7777
-23.6304
-23.4863
-23.3457
-23.2089
-23.0767
-22.949
-22.8266
-22.7096
-22.5986
-22.4939
-22.3956
-22.3041
-22.2197
-22.1426
-22.0727
-22.0101
-21.9552
-21.9077
-21.8673
-21.8337
-21.8063
-21.7849
-21.7742
-21.8098
-28.4508
-28.2712
-28.1241
-27.9603
-27.7976
-27.6327
-27.4672
-27.3009
-27.134
-26.967
-26.7997
-26.6323
-26.4649
-26.298
-26.1312
-25.9653
-25.8005
-25.6366
-25.4743
-25.3139
-25.1559
-25.0005
-24.8479
-24.6989
-24.5535
-24.4122
-24.2754
-24.1434
-24.0168
-23.8956
-23.7805
-23.6713
-23.5685
-23.4723
-23.3826
-23.2998
-23.2238
-23.1545
-23.0916
-23.0347
-22.9837
-22.9427
-22.9472
-30.182
-30.006
-29.8629
-29.7009
-29.5384
-29.3725
-29.2046
-29.0353
-28.8647
-28.6929
-28.5203
-28.347
-28.173
-27.9986
-27.824
-27.6493
-27.4749
-27.3009
-27.1279
-26.9557
-26.7851
-26.6162
-26.4492
-26.2848
-26.1231
-25.9645
-25.8095
-25.6585
-25.5117
-25.3695
-25.2324
-25.1003
-24.9738
-24.853
-24.738
-24.6291
-24.5264
-24.4298
-24.3393
-24.2545
-24.175
-24.1054
-24.0828
-31.8773
-31.704
-31.5609
-31.3974
-31.2331
-31.0648
-30.8941
-30.7218
-30.5475
-30.3714
-30.194
-30.0151
-29.8353
-29.6544
-29.4724
-29.2898
-29.1068
-28.9237
-28.7407
-28.5578
-28.3755
-28.1943
-28.0143
-27.8357
-27.6591
-27.4848
-27.3131
-27.1444
-26.9792
-26.8176
-26.66
-26.5067
-26.3581
-26.2143
-26.0756
-25.9424
-25.8146
-25.6922
-25.5756
-25.4641
-25.3576
-25.2605
-25.2197
-33.5429
-33.3676
-33.2223
-33.0566
-32.8894
-32.7177
-32.5435
-32.3671
-32.1884
-32.0079
-31.8255
-31.6413
-31.4556
-31.2684
-31.0798
-30.8898
-30.6989
-30.5073
-30.315
-30.1223
-29.9295
-29.7369
-29.5448
-29.3533
-29.1629
-28.9742
-28.7871
-28.6021
-28.4196
-28.2401
-28.0636
-27.8908
-27.7215
-27.5564
-27.3955
-27.2394
-27.0879
-26.9412
-26.7994
-26.6619
-26.5285
-26.4029
-26.3446
-35.1678
-34.9888
-34.8425
-34.6748
-34.5044
-34.3296
-34.1518
-33.9714
-33.7887
-33.6038
-33.4169
-33.2276
-33.0363
-32.8432
-32.6482
-32.4516
-32.2533
-32.0537
-31.8528
-31.6509
-31.4483
-31.2455
-31.0421
-30.8387
-30.6359
-30.4336
-30.2324
-30.0324
-29.834
-29.6377
-29.4437
-29.2524
-29.064
-28.8789
-28.6973
-28.5195
-28.3457
-28.1762
-28.0106
-27.8484
-27.689
-27.5396
-27.4768
-36.7151
-36.5453
-36.4035
-36.2377
-36.068
-35.8927
-35.7135
-35.5313
-35.346
-35.1579
-34.9672
-34.7739
-34.578
-34.3797
-34.1792
-33.9765
-33.7715
-33.5647
-33.356
-33.1457
-32.9341
-32.7216
-32.5078
-32.2935
-32.0789
-31.864
-31.6497
-31.4358
-31.2227
-31.0108
-30.8005
-30.5921
-30.3857
-30.1819
-29.9808
-29.7829
-29.5883
-29.3973
-29.2102
-29.0268
-28.846
-28.6752
-28.6492
-38.2341
-38.0678
-37.9271
-37.7624
-37.5929
-37.4169
-37.2367
-37.0529
-36.8654
-36.6746
-36.4805
-36.2835
-36.0835
-35.8805
-35.6747
-35.4662
-35.2551
-35.0415
-34.8258
-34.608
-34.388
-34.1664
-33.9432
-33.7187
-33.4932
-33.2668
-33.0402
-32.8132
-32.5863
-32.36
-32.1344
-31.91
-31.6869
-31.4654
-31.2461
-31.0292
-30.8148
-30.603
-30.394
-30.1873
-29.9814
-29.7755
-29.6358
-39.7476
-39.5781
-39.4348
-39.267
-39.0944
-38.9153
-38.7321
-38.5448
-38.3538
-38.1596
-37.9617
-37.7607
-37.5563
-37.3486
-37.1377
-36.9238
-36.7068
-36.487
-36.2645
-36.0392
-35.8115
-35.5816
-35.3494
-35.1154
-34.8797
-34.6426
-34.4045
-34.1654
-33.9256
-33.686
-33.4462
-33.2067
-32.9678
-32.7299
-32.4934
-32.2585
-32.0255
-31.7942
-31.5653
-31.3383
-31.1123
-30.888
-30.7242
-41.2312
-41.0587
-40.9126
-40.7421
-40.5659
-40.3834
-40.1968
-40.0058
-39.8112
-39.6132
-39.4115
-39.2064
-38.9976
-38.7854
-38.5695
-38.3504
-38.1278
-37.9021
-37.6731
-37.441
-37.206
-36.9683
-36.7277
-36.4848
-36.2397
-35.9924
-35.7436
-35.4932
-35.2415
-34.989
-34.7358
-34.4823
-34.2286
-33.9754
-33.7226
-33.471
-33.2204
-32.9713
-32.7241
-32.4786
-32.2348
-31.9954
-31.8203
-42.6409
-42.4742
-42.3329
-42.1642
-41.9888
-41.807
-41.62
-41.428
-41.2319
-41.0315
-40.8272
-40.6188
-40.4065
-40.1903
-39.9704
-39.7466
-39.5189
-39.2875
-39.0525
-38.8142
-38.5725
-38.3275
-38.0792
-37.8279
-37.5738
-37.3172
-37.0581
-36.7972
-36.5344
-36.2698
-36.004
-35.7372
-35.4698
-35.2018
-34.9338
-34.6663
-34.3992
-34.1331
-33.8684
-33.6051
-33.344
-33.0898
-32.9013
-44.0376
-43.8712
-43.7292
-43.5595
-43.3835
-43.201
-43.0128
-42.8195
-42.6215
-42.4191
-42.2121
-42.0009
-41.7854
-41.5658
-41.3418
-41.1136
-40.8812
-40.6449
-40.4045
-40.1601
-39.9119
-39.66
-39.4043
-39.1454
-38.883
-38.6175
-38.3492
-38.0782
-37.8048
-37.5289
-37.2513
-36.9721
-36.6915
-36.4097
-36.1273
-35.8445
-35.5617
-35.2793
-34.9977
-34.7175
-34.4393
-34.1667
-33.9727
-45.4115
-45.2466
-45.1039
-44.9331
-44.7554
-44.5711
-44.381
-44.1853
-43.9849
-43.7798
-43.5702
-43.3559
-43.1372
-42.9138
-42.6859
-42.4536
-42.2167
-41.9755
-41.73
-41.48
-41.2257
-40.9673
-40.7048
-40.4384
-40.1682
-39.8944
-39.6173
-39.3369
-39.0534
-38.7671
-38.4783
-38.1872
-37.8941
-37.5992
-37.3031
-37.0057
-36.7077
-36.4091
-36.1104
-35.8115
-35.5121
-35.2149
-34.9863
-46.7727
-46.6047
-46.4589
-46.2853
-46.1049
-45.9179
-45.725
-45.5265
-45.3232
-45.1151
-44.9024
-44.685
-44.4628
-44.2358
-44.004
-43.7676
-43.5264
-43.2805
-43.0298
-42.7745
-42.5146
-42.25
-41.9812
-41.7079
-41.4304
-41.1487
-40.863
-40.5736
-40.2808
-39.9846
-39.6852
-39.3829
-39.078
-38.7707
-38.4613
-38.1503
-37.8377
-37.5239
-37.2091
-36.8929
-36.5743
-36.2581
-36.0586
-48.0679
-47.9037
-47.7625
-47.5922
-47.4137
-47.2274
-47.0345
-46.8354
-46.6308
-46.4211
-46.2062
-45.9864
-45.7615
-45.5313
-45.2963
-45.0561
-44.811
-44.5606
-44.3051
-44.0448
-43.7796
-43.5093
-43.2343
-42.9544
-42.6699
-42.3808
-42.0873
-41.7894
-41.4876
-41.1819
-40.8726
-40.5597
-40.2436
-39.9245
-39.6027
-39.2786
-38.9522
-38.6239
-38.2938
-37.9612
-37.6248
-37.2884
-37.062
-49.3748
-49.2048
-49.0603
-48.8872
-48.7064
-48.5178
-48.3225
-48.1213
-47.9147
-47.7026
-47.4854
-47.263
-47.0351
-46.8021
-46.5638
-46.3201
-46.0711
-45.8168
-45.5569
-45.2917
-45.0215
-44.7457
-44.4649
-44.1787
-43.8876
-43.5913
-43.2905
-42.9846
-42.6743
-42.3598
-42.0408
-41.7181
-41.3913
-41.061
-40.7276
-40.3911
-40.0518
-39.7097
-39.3651
-39.017
-38.6645
-38.307
-38.0314
-50.6271
-50.4642
-50.3226
-50.1508
-49.9703
-49.7813
-49.585
-49.3825
-49.1742
-48.9602
-48.7407
-48.5158
-48.2852
-48.0493
-47.8078
-47.5607
-47.3081
-47.0498
-46.7858
-46.5161
-46.2409
-45.96
-45.6736
-45.3816
-45.0842
-44.7813
-44.4733
-44.1599
-43.8415
-43.5186
-43.1906
-42.8583
-42.5215
-42.1807
-41.8361
-41.4881
-41.1366
-40.7818
-40.4243
-40.063
-39.6981
-39.3336
-39.0784
-51.8595
-51.6988
-51.5581
-51.388
-51.2082
-51.0191
-50.8224
-50.6188
-50.4091
-50.1935
-49.972
-49.7449
-49.5119
-49.2732
-49.0288
-48.7787
-48.5225
-48.2606
-47.9925
-47.7186
-47.4389
-47.153
-46.8612
-46.5637
-46.2602
-45.9512
-45.6362
-45.3159
-44.9899
-44.6588
-44.3223
-43.9809
-43.6346
-43.2839
-42.9288
-42.5697
-42.2067
-41.8405
-41.4714
-41.0997
-40.7252
-40.354
-40.151
-53.0952
-52.9286
-52.7853
-52.6128
-52.4309
-52.2396
-52.0407
-51.8351
-51.6235
-51.4056
-51.182
-50.9524
-50.7169
-50.4756
-50.2282
-49.975
-49.7154
-49.4499
-49.178
-48.9
-48.6158
-48.3254
-48.0286
-47.7256
-47.4164
-47.1013
-46.78
-46.4527
-46.1197
-45.7807
-45.436
-45.0861
-44.7308
-44.3706
-44.0054
-43.6355
-43.2615
-42.8834
-42.5014
-42.1151
-41.7239
-41.3248
-41.0072
-54.2964
-54.1305
-53.9873
-53.8145
-53.6313
-53.4383
-53.2377
-53.0304
-52.8165
-52.5966
-52.3707
-52.1388
-51.9009
-51.6569
-51.4065
-51.1502
-50.8874
-50.6183
-50.3429
-50.061
-49.7725
-49.4775
-49.1762
-48.868
-48.5535
-48.2324
-47.905
-47.5713
-47.2313
-46.885
-46.5326
-46.1744
-45.8105
-45.441
-45.0662
-44.6863
-44.3014
-43.912
-43.5182
-43.1193
-42.7158
-42.3062
-41.976
-55.4516
-55.2921
-55.1524
-54.9818
-54.7996
-54.6072
-54.4068
-54.1991
-53.9846
-53.7637
-53.5364
-53.3027
-53.0627
-52.8164
-52.5636
-52.3045
-52.0388
-51.7665
-51.4875
-51.202
-50.9095
-50.6103
-50.3043
-49.9913
-49.6717
-49.3452
-49.0117
-48.6719
-48.3252
-47.972
-47.6121
-47.246
-46.8738
-46.4956
-46.1118
-45.7221
-45.3271
-44.9271
-44.5224
-44.1125
-43.6984
-43.2814
-42.9436
-56.604
-56.4439
-56.3036
-56.133
-55.9506
-55.7578
-55.5569
-55.3484
-55.1328
-54.9106
-54.6816
-54.4463
-54.2044
-53.9559
-53.7008
-53.439
-53.1705
-52.895
-52.6128
-52.3237
-52.0273
-51.7241
-51.4137
-51.096
-50.7715
-50.4398
-50.1007
-49.7549
-49.4018
-49.0419
-48.675
-48.3014
-47.9214
-47.5348
-47.1421
-46.743
-46.3383
-45.928
-45.5126
-45.0918
-44.6658
-44.2362
-43.8778
-57.7434
-57.5825
-57.4419
-57.2707
-57.087
-56.8928
-56.6907
-56.4808
-56.2635
-56.0395
-55.8087
-55.5714
-55.3272
-55.0765
-54.8189
-54.5545
-54.2831
-54.0048
-53.7193
-53.4267
-53.1267
-52.8195
-52.5049
-52.1828
-51.8535
-51.5167
-51.1723
-50.8207
-50.4616
-50.0953
-49.7217
-49.3408
-48.9532
-48.5586
-48.1574
-47.7495
-47.3352
-46.915
-46.489
-46.0573
-45.6193
-45.1763
-44.7952
-58.8767
-58.7129
-58.5694
-58.3957
-58.2096
-58.013
-57.8086
-57.5965
-57.3772
-57.151
-56.918
-56.6784
-56.432
-56.1787
-55.9187
-55.6516
-55.3775
-55.0962