/*--------------------------------*- C++ -*----------------------------------*\
| =========                 |                                                 |
| \\      /  F ield         | OpenFOAM: The Open Source CFD Toolbox           |
|  \\    /   O peration     | Version:  2.3.0                                 |
|   \\  /    A nd           | Web:      www.OpenFOAM.org                      |
|    \\/     M anipulation  |                                                 |
\*---------------------------------------------------------------------------*/
FoamFile
{
    version     2.0;
    format      ascii;
    class       volScalarField;
    location    "3000";
    object      nuTilda;
}
// * * * * * * * * * * * * * * * * * * * * * * * * * * * * * * * * * * * * * //

dimensions      [0 2 -1 0 0 0 0];

internalField   nonuniform List<scalar> 
37738
(
0.0470037
0.0453305
0.0436899
0.0420786
0.0404966
0.0389447
0.0374247
0.0359391
0.0344925
0.0330898
0.0317337
0.0304256
0.0291576
0.0279185
0.0267057
0.025523
0.024374
0.0232625
0.0221896
0.0211548
0.0201575
0.0191913
0.0182517
0.017333
0.0164324
0.0155478
0.014679
0.0138263
0.0129881
0.0121654
0.0113567
0.010562
0.00978446
0.0090248
0.00828726
0.00757703
0.00690108
0.00626434
0.00567449
0.00513639
0.00465824
0.00426839
0.00409224
0.0490068
0.0475393
0.0460924
0.044667
0.0432642
0.0418835
0.0405247
0.0391884
0.0378755
0.0365864
0.0353228
0.0340844
0.0328718
0.0316835
0.0305195
0.0293808
0.02827
0.0271886
0.02614
0.0251273
0.0241531
0.0232205
0.0223273
0.0214646
0.0206211
0.0197937
0.0189835
0.0181926
0.0174219
0.0166736
0.0159489
0.0152485
0.0145748
0.0139302
0.0133194
0.0127506
0.0122394
0.011813
0.011509
0.0113576
0.0113478
0.0114724
0.0117477
0.0508404
0.0495416
0.0482587
0.0469934
0.0457461
0.0445162
0.0433031
0.042107
0.0409272
0.039764
0.0386178
0.0374889
0.0363773
0.0352843
0.0342097
0.0331546
0.0321197
0.0311062
0.0301147
0.0291465
0.0282025
0.0272837
0.0263906
0.0255217
0.0246767
0.0238569
0.0230622
0.0222943
0.0215571
0.0208531
0.0201861
0.0195596
0.0189797
0.0184512
0.0179805
0.0175769
0.0172472
0.0170016
0.0168516
0.0168034
0.0168656
0.0170411
0.0173291
0.0525062
0.0513509
0.0502083
0.0490798
0.0479655
0.0468651
0.0457783
0.0447045
0.043643
0.0425933
0.0415551
0.0405288
0.0395148
0.0385142
0.0375266
0.0365542
0.0355967
0.0346559
0.0337322
0.0328269
0.0319409
0.0310755
0.0302309
0.0294081
0.0286085
0.0278326
0.0270833
0.0263612
0.0256705
0.0250132
0.0243943
0.0238179
0.0232876
0.0228102
0.0223918
0.0220383
0.0217577
0.0215579
0.0214442
0.0214245
0.0215042
0.0216851
0.0219683
0.0540169
0.0529836
0.051961
0.0509492
0.0499482
0.0489583
0.0479791
0.04701
0.0460499
0.045098
0.0441545
0.0432183
0.0422902
0.0413705
0.0404604
0.0395602
0.0386711
0.0377947
0.0369308
0.0360815
0.0352482
0.0344323
0.0336343
0.0328562
0.032099
0.0313648
0.0306548
0.029972
0.0293182
0.0286981
0.028114
0.0275715
0.0270746
0.0266284
0.0262394
0.0259141
0.0256585
0.0254793
0.0253831
0.0253751
0.0254598
0.0256402
0.0259162
0.0553804
0.0544556
0.0535364
0.0526244
0.0517202
0.0508236
0.0499351
0.0490545
0.0481809
0.0473129
0.0464501
0.045592
0.0447383
0.0438894
0.0430456
0.0422078
0.041378
0.0405569
0.0397446
0.0389431
0.0381541
0.0373799
0.0366211
0.0358797
0.0351579
0.0344575
0.0337807
0.0331288
0.0325049
0.0319128
0.0313556
0.0308386
0.0303655
0.0299416
0.0295736
0.0292662
0.0290269
0.0288605
0.028774
0.0287716
0.0288577
0.0290357
0.0293043
0.0566149
0.0557836
0.0549529
0.0541261
0.0533047
0.0524875
0.0516744
0.0508685
0.0500684
0.0492717
0.0484778
0.047687
0.0468979
0.0461105
0.045324
0.0445396
0.0437605
0.0429873
0.0422206
0.0414604
0.0407082
0.0399678
0.0392423
0.0385318
0.0378378
0.0371637
0.036513
0.0358877
0.0352877
0.0347173
0.0341816
0.033684
0.0332288
0.032822
0.0324693
0.0321759
0.0319479
0.0317912
0.0317108
0.0317117
0.0317977
0.0319714
0.032235
0.0577376
0.0569837
0.0562281
0.055473
0.0547234
0.0539756
0.0532233
0.0524797
0.0517424
0.051007
0.0502694
0.0495365
0.0488033
0.0480703
0.0473354
0.0465971
0.0458587
0.045128
0.0444017
0.0436793
0.0429589
0.0422443
0.0415462
0.0408631
0.0401923
0.039537
0.0389056
0.0383021
0.037725
0.0371699
0.0366509
0.0361698
0.0357302
0.0353341
0.0349935
0.0347108
0.0344917
0.0343431
0.0342684
0.0342714
0.0343574
0.0345271
0.0347852
0.0587696
0.0580731
0.0573821
0.0566809
0.0559897
0.0553123
0.0546056
0.0539114
0.0532215
0.0525445
0.05185
0.0511692
0.0504798
0.049792
0.0491065
0.0484177
0.0477042
0.0470067
0.0463154
0.0456289
0.0449484
0.044245
0.0435673
0.0429103
0.0422673
0.0416257
0.0410023
0.0404089
0.0398637
0.0393189
0.0388164
0.0383446
0.037927
0.0375321
0.0372024
0.0369284
0.0367151
0.0365739
0.0365073
0.0365084
0.0365999
0.0367595
0.0370189
0.00487803
0.00632409
0.00734227
0.00838977
0.00950706
0.0106849
0.0119129
0.0131793
0.0144747
0.0157957
0.0171366
0.0184945
0.0198665
0.0212526
0.0226519
0.024063
0.025486
0.0269203
0.0283662
0.0298227
0.03129
0.032768
0.0342564
0.0357553
0.0372642
0.0387828
0.0403114
0.0418495
0.0433968
0.044953
0.046518
0.0480909
0.0496714
0.0512592
0.0528534
0.0544536
0.056059
0.0576689
0.0592826
0.0608994
0.0625182
0.0641385
0.0657649
0.0121822
0.0127699
0.0134819
0.0143069
0.0152336
0.0162469
0.0173306
0.0184717
0.0196587
0.0208828
0.0221362
0.0234139
0.0247102
0.0260225
0.0273485
0.0286852
0.030031
0.0313855
0.0327476
0.0341162
0.0354906
0.0368711
0.0382573
0.0396488
0.0410452
0.0424463
0.0438523
0.0452632
0.0466785
0.0480981
0.0495221
0.0509501
0.0523816
0.0538165
0.0552546
0.0566955
0.0581389
0.0595844
0.0610316
0.0624803
0.0639297
0.0653793
0.0668304
0.0177281
0.0182407
0.018867
0.0195985
0.0204235
0.0213323
0.0223135
0.0233551
0.0244458
0.0255777
0.0267439
0.0279369
0.029151
0.0303825
0.0316276
0.0328835
0.0341478
0.0354188
0.0366955
0.0379766
0.039261
0.040548
0.0418377
0.0431294
0.0444226
0.0457173
0.0470135
0.048311
0.0496094
0.0509087
0.0522089
0.0535097
0.054811
0.0561127
0.0574147
0.0587172
0.0600197
0.061322
0.0626243
0.0639264
0.0652281
0.066529
0.0678329
0.0223502
0.0228338
0.0234188
0.0240993
0.0248671
0.0257138
0.0266285
0.0276028
0.0286263
0.0296911
0.0307892
0.0319144
0.0330614
0.0342253
0.0354016
0.0365877
0.0377813
0.0389799
0.0401818
0.0413862
0.0425918
0.0437976
0.0450032
0.0462082
0.047412
0.0486146
0.049816
0.0510159
0.0522137
0.0534094
0.0546029
0.0557941
0.0569832
0.0581702
0.0593547
0.0605374
0.0617179
0.0628962
0.0640725
0.065247
0.0664195
0.0675904
0.0687631
0.0262866
0.0267517
0.0273115
0.0279596
0.0286895
0.0294938
0.0303634
0.0312888
0.032262
0.0332751
0.0343208
0.035392
0.0364839
0.0375918
0.0387108
0.0398378
0.0409709
0.0421076
0.043246
0.0443846
0.0455225
0.0466585
0.047792
0.0489228
0.0500504
0.0511746
0.0522951
0.0534114
0.0545233
0.0556304
0.0567325
0.05783
0.0589228
0.0600111
0.0610946
0.062174
0.063249
0.0643199
0.065387
0.0664504
0.0675099
0.0685661
0.0696199
0.0296654
0.030117
0.0306581
0.0312838
0.0319872
0.0327609
0.0335964
0.0344856
0.0354206
0.0363935
0.0373975
0.0384261
0.0394732
0.0405344
0.0416054
0.0426829
0.0437649
0.0448493
0.045934
0.0470171
0.0480972
0.0491736
0.0502458
0.0513135
0.0523766
0.0534348
0.0544869
0.0555325
0.056571
0.0576023
0.0586263
0.0596432
0.0606533
0.0616566
0.0626535
0.0636439
0.064628
0.0656057
0.066578
0.0675448
0.068506
0.0694618
0.0704137
0.0325868
0.0330276
0.0335553
0.0341641
0.0348471
0.0355971
0.0364065
0.0372667
0.038172
0.0391135
0.040084
0.0410776
0.0420883
0.0431103
0.0441404
0.0451757
0.0462146
0.0472551
0.0482945
0.0493303
0.0503606
0.0513857
0.0524055
0.0534199
0.0544289
0.0554319
0.0564265
0.0574117
0.0583874
0.0593535
0.0603103
0.0612582
0.0621972
0.0631277
0.0640501
0.0649639
0.0658688
0.0667655
0.0676557
0.0685383
0.0694141
0.0702827
0.0711467
0.0351269
0.0355589
0.0360762
0.036673
0.037339
0.0380705
0.038857
0.0396949
0.0405765
0.0414932
0.0424363
0.0434016
0.0443824
0.0453704
0.0463648
0.0473629
0.0483654
0.04937
0.0503721
0.0513664
0.0523522
0.0533317
0.0543073
0.0552785
0.0562431
0.0572004
0.0581457
0.0590788
0.0599998
0.0609098
0.0618084
0.062697
0.0635752
0.0644434
0.0653015
0.0661492
0.0669848
0.06781
0.0686306
0.0694391
0.0702409
0.071033
0.0718224
0.0373423
0.0377667
0.0382748
0.0388648
0.0395114
0.0402311
0.0409937
0.0418123
0.0426759
0.0435726
0.0444914
0.0454341
0.0463911
0.0473452
0.0483077
0.0492712
0.0502463
0.0512238
0.0521942
0.0531479
0.0540929
0.0550352
0.0559786
0.0569168
0.0578464
0.0587677
0.0596677
0.0605566
0.0614286
0.0622913
0.0631388
0.0639784
0.0648042
0.0656206
0.0664217
0.0672114
0.0679862
0.0687488
0.0695163
0.0702533
0.0709951
0.0717173
0.0724533
0.087326
0.0831787
0.0791481
0.0752362
0.0714443
0.0677731
0.0642225
0.0607908
0.057477
0.0542798
0.0511978
0.0482285
0.0453693
0.0426191
0.0399751
0.0374345
0.0349952
0.032655
0.0304112
0.0282613
0.0262034
0.0242343
0.0223523
0.0205548
0.0188398
0.0172051
0.0156492
0.0141697
0.012766
0.0114358
0.0101783
0.008992
0.00787652
0.0068314
0.00585652
0.00495257
0.0041198
0.0033608
0.00267702
0.00207751
0.00161426
0.00116843
0.000678321
0.0890836
0.0852444
0.0815033
0.0778581
0.0743103
0.07086
0.0675079
0.0642519
0.0610922
0.0580273
0.0550555
0.0521758
0.0493873
0.0466883
0.0440762
0.0415502
0.0391087
0.0367503
0.0344728
0.0322758
0.0301559
0.0281134
0.026146
0.0242528
0.0224314
0.0206832
0.0190049
0.0173967
0.0158586
0.0143891
0.0129892
0.0116582
0.0103967
0.0092071
0.00808951
0.00704763
0.00608486
0.00521053
0.00446442
0.00373891
0.00300287
0.00220991
0.00128
0.0908223
0.087263
0.0837885
0.0803924
0.0770742
0.0738343
0.0706725
0.0675882
0.0645806
0.0616491
0.058793
0.0560109
0.0533016
0.0506645
0.0480987
0.045603
0.0431762
0.0408177
0.0385265
0.0363018
0.0341428
0.032049
0.0300195
0.0280539
0.026152
0.0243127
0.0225367
0.020824
0.0191749
0.0175908
0.0160718
0.0146195
0.0132373
0.011927
0.0106949
0.00954946
0.00851772
0.00753156
0.00654588
0.00552908
0.00444279
0.00322258
0.00182972
0.0925079
0.0892165
0.08599
0.0828244
0.0797197
0.0766755
0.0736925
0.07077
0.0679077
0.0651048
0.0623606
0.0596746
0.0570464
0.0544753
0.0519604
0.0495007
0.0470972
0.0447485
0.0424546
0.0402153
0.0380303
0.0358999
0.0338237
0.0318028
0.0298371
0.0279265
0.0260719
0.0242757
0.0225381
0.0208615
0.0192475
0.0177006
0.0162238
0.0148259
0.0135225
0.0122973
0.0110874
0.00986362
0.00859963
0.00726284
0.00581028
0.00416737
0.00234004
0.0941376
0.0910969
0.0880996
0.0851469
0.0822391
0.079376
0.0765588
0.0737873
0.0710611
0.0683795
0.0657429
0.06315
0.0606007
0.0580952
0.0556325
0.0532128
0.0508366
0.0485034
0.0462142
0.0439679
0.0417661
0.0396098
0.0374991
0.0354353
0.0334185
0.0314513
0.0295356
0.0276722
0.0258641
0.0241146
0.0224278
0.020809
0.0192669
0.0178096
0.0163926
0.0149812
0.01355
0.0120756
0.0105303
0.00887967
0.00707495
0.00503895
0.00281273
0.0957193
0.092901
0.0901129
0.087355
0.084627
0.0819308
0.0792658
0.0766335
0.0740341
0.0714667
0.0689311
0.0664258
0.0639528
0.0615114
0.0591002
0.0567209
0.0543743
0.0520606
0.0497803
0.0475334
0.0453218
0.0431466
0.0410102
0.0389118
0.0368555
0.0348436
0.0328782
0.0309626
0.0291
0.0272949
0.0255546
0.0238853
0.0222733
0.020688
0.0191031
0.0174954
0.0158446
0.0141266
0.012312
0.0103652
0.00823259
0.00583786
0.00324938
0.0972365
0.0946215
0.092024
0.0894433
0.086881
0.0843364
0.0818108
0.0793056
0.0768229
0.0743624
0.0719211
0.0694989
0.0670977
0.0647185
0.0623577
0.0600169
0.0577
0.0554087
0.0531407
0.0508966
0.0486802
0.0464932
0.0443362
0.0422114
0.0401229
0.0380746
0.036071
0.034115
0.0322098
0.0303627
0.028574
0.0268258
0.0250966
0.0233649
0.0216111
0.0198151
0.0179566
0.0160097
0.0139443
0.0117217
0.00928621
0.00656401
0.00364825
0.0986756
0.0962538
0.0938299
0.0914115
0.089001
0.0865939
0.0841947
0.0818031
0.079427
0.0770657
0.0747162
0.0723704
0.0700331
0.0677156
0.0654064
0.0631005
0.06081
0.0585422
0.0562914
0.0540528
0.0518347
0.0496377
0.0474688
0.0453242
0.0432063
0.0411271
0.0390935
0.0371069
0.0351669
0.0332662
0.0314032
0.0295503
0.0276982
0.0258217
0.0239109
0.0219388
0.0198898
0.0177335
0.0154357
0.0129584
0.0102427
0.00721862
0.00401663
0.100059
0.0978037
0.0955303
0.0932574
0.0909895
0.0887039
0.0864234
0.0841286
0.0818464
0.0795762
0.0773197
0.0750522
0.0727561
0.0705009
0.068257
0.0659809
0.0637015
0.0614562
0.0592364
0.0569989
0.0547878
0.0525741
0.0504019
0.0482505
0.0461007
0.0439898
0.0419275
0.0399129
0.0379414
0.0359485
0.0340131
0.0320386
0.0300814
0.0280584
0.0260139
0.0238693
0.0216526
0.0193124
0.016799
0.0140868
0.0111222
0.00778342
0.00423534
0.000471668
0.00052867
0.000708782
0.00087891
0.00104803
0.00122778
0.00143259
0.0016773
0.00196493
0.00228622
0.00263726
0.00301592
0.00342122
0.00385268
0.00431053
0.00479528
0.00530702
0.00584638
0.00641409
0.00701035
0.00763584
0.00829151
0.00897754
0.00969477
0.0104439
0.0112257
0.012041
0.0128904
0.0137749
0.0146952
0.0156521
0.0166466
0.0176793
0.018751
0.0198629
0.0210158
0.0222105
0.0234477
0.024728
0.0260523
0.0274211
0.0288349
0.030294
0.000663497
0.000682901
0.000871585
0.00106551
0.00127473
0.001512
0.00178606
0.00210047
0.00245646
0.00284139
0.00325247
0.00368852
0.00414885
0.00463295
0.00514111
0.00567322
0.00622933
0.0068097
0.00741477
0.00804459
0.00869968
0.0093804
0.0100869
0.0108195
0.0115793
0.0123665
0.0131819
0.0140257
0.014899
0.0158021
0.0167359
0.0177008
0.0186977
0.0197274
0.0207904
0.0218874
0.0230192
0.0241864
0.0253896
0.0266293
0.0279058
0.0292192
0.0305666
0.000867313
0.000830694
0.00104101
0.00127443
0.0015388
0.00184114
0.00218244
0.00256092
0.00297749
0.00342011
0.00388635
0.00437534
0.00488658
0.0054193
0.00597349
0.00654914
0.00714559
0.00776318
0.00840178
0.00906165
0.0097426
0.0104449
0.011169
0.0119147
0.0126828
0.0134737
0.0142876
0.0151248
0.0159859
0.0168715
0.017782
0.0187176
0.0196792
0.0206674
0.0216826
0.0227251
0.0237956
0.0248948
0.0260229
0.0271803
0.0283669
0.0295823
0.0308193
0.00106541
0.000973339
0.00121794
0.00150091
0.00182471
0.00218914
0.00259027
0.0030268
0.00349713
0.0039913
0.00450732
0.00504427
0.00560114
0.00617753
0.00677272
0.00738658
0.00801862
0.00866885
0.00933679
0.0100223
0.0107255
0.0114463
0.0121847
0.0129412
0.0137155
0.014508
0.015319
0.0161488
0.0169975
0.0178656
0.0187533
0.0196611
0.0205893
0.0215384
0.0225089
0.0235007
0.0245142
0.0255502
0.0266086
0.0276898
0.0287937
0.0299207
0.0310748
0.00125311
0.0011146
0.00140188
0.00173786
0.00211848
0.00253837
0.00299209
0.00348221
0.00400095
0.00454162
0.00510248
0.00568213
0.00628016
0.00689535
0.00752715
0.00817503
0.00883852
0.00951685
0.0102103
0.0109183
0.0116404
0.0123767
0.0131272
0.0138917
0.0146706
0.0154636
0.0162711
0.0170929
0.0179295
0.0187809
0.0196475
0.020529
0.0214261
0.0223388
0.0232676
0.0242127
0.0251741
0.026152
0.0271466
0.0281581
0.0291866
0.030232
0.0312952
0.00143197
0.00125589
0.00158983
0.00197771
0.00241017
0.0028793
0.00338132
0.00391918
0.0044815
0.00506414
0.00566528
0.00628374
0.00691839
0.00756833
0.00823272
0.00891083
0.00960188
0.0103054
0.0110211
0.0117484
0.0124869
0.0132365
0.0139971
0.0147685
0.0155507
0.0163434
0.017147
0.017961
0.0187856
0.0196212
0.0204676
0.0213248
0.0221929
0.0230722
0.0239628
0.0248647
0.0257782
0.0267031
0.0276395
0.0285873
0.0295466
0.0305168
0.0314978
0.00159923
0.00139837
0.00177962
0.00221563
0.00269446
0.00320773
0.00375374
0.00433354
0.00493527
0.00555563
0.00619321
0.00684641
0.00751411
0.00819504
0.00888861
0.00959381
0.0103097
0.0110355
0.0117707
0.0125153
0.0132682
0.0140295
0.014799
0.015576
0.0163606
0.0171525
0.0179515
0.0187578
0.0195713
0.0203918
0.0212192
0.0220534
0.0228946
0.0237427
0.0245982
0.0254609
0.0263305
0.0272071
0.0280905
0.0289803
0.0298764
0.0307782
0.0316853
0.00177014
0.00153576
0.00195929
0.00243834
0.00295894
0.00351295
0.00410157
0.00471978
0.00535804
0.00601322
0.00668481
0.00737119
0.00806994
0.00877979
0.00949999
0.0102295
0.0109675
0.0117136
0.0124677
0.0132286
0.0139944
0.0147655
0.0155426
0.016325
0.0171113
0.0179002
0.0186938
0.0194918
0.020294
0.0210998
0.0219087
0.0227211
0.0235359
0.0243544
0.0251775
0.0260052
0.0268351
0.0276679
0.0285033
0.0293407
0.0301796
0.0310197
0.0318632
0.00184543
0.00168623
0.00216803
0.00269632
0.00325869
0.00384826
0.00447385
0.00512314
0.00578875
0.00648112
0.00719416
0.00791422
0.0086333
0.00936495
0.010106
0.0108532
0.0116078
0.0123721
0.0131474
0.0139228
0.0146936
0.0154703
0.0162542
0.0170421
0.0178261
0.0186006
0.0193879
0.0201757
0.0209654
0.0217559
0.0225433
0.0233348
0.0241188
0.0249085
0.0257031
0.0265033
0.0272952
0.0280903
0.0288823
0.0296731
0.0304595
0.0312412
0.0320273
0.000161531
0.000587083
0.00129889
0.00202748
0.00273859
0.00343983
0.00413734
0.00483702
0.00554563
0.00627098
0.00701495
0.00777759
0.00855845
0.00935728
0.0101737
0.0110075
0.0118596
0.0127301
0.0136193
0.0145283
0.0154582
0.0164099
0.0173866
0.0183917
0.0194299
0.0205052
0.0216199
0.0227758
0.0239721
0.0252054
0.0264717
0.0277679
0.0290921
0.0304446
0.0318457
0.0333202
0.0348578
0.0364452
0.0380749
0.0397457
0.0414548
0.0432003
0.044984
0.000102302
0.000344938
0.000765046
0.00132715
0.00203819
0.00277468
0.00350426
0.00423123
0.00494957
0.00565163
0.00634358
0.00703269
0.0077263
0.00842996
0.00914701
0.00988099
0.0106343
0.0114095
0.0122088
0.0130339
0.0138867
0.014769
0.0156824
0.0166302
0.0176156
0.0186415
0.0197115
0.0208283
0.0219925
0.0232032
0.0244576
0.0257523
0.027083
0.0284494
0.0298585
0.031321
0.0328351
0.0343906
0.0359992
0.0376764
0.0394092
0.0411907
0.0430215
4.7894e-05
0.000228664
0.00049522
0.000875925
0.0013672
0.00196647
0.00267179
0.00348851
0.00433529
0.00515694
0.0059507
0.00671944
0.00746609
0.00819411
0.00890867
0.00961506
0.0103185
0.0110248
0.011739
0.0124671
0.0132144
0.0139859
0.014787
0.0156228
0.0164981
0.0174178
0.0183865
0.0194088
0.0204871
0.0216229
0.0228156
0.0240629
0.0253617
0.0267094
0.0281063
0.0295553
0.031056
0.0326048
0.034203
0.0358515
0.0375464
0.0393079
0.0411413
4.98335e-05
0.000206512
0.000439565
0.000756846
0.00116096
0.00165432
0.00223976
0.00292151
0.00370363
0.0045701
0.00543843
0.00628897
0.00711844
0.0079269
0.00871476
0.00948219
0.0102307
0.0109624
0.0116805
0.0123894
0.0130943
0.0138018
0.0145191
0.0152545
0.016016
0.0168124
0.0176522
0.0185432
0.0194926
0.0205055
0.0215856
0.0227338
0.0239494
0.0252304
0.0265754
0.0279832
0.029452
0.0309796
0.0325627
0.0341992
0.0358854
0.0376274
0.0394297
4.52657e-05
0.000198782
0.00039181
0.000672066
0.00102629
0.00145904
0.00197212
0.00256804
0.00325079
0.00402517
0.00489422
0.00580238
0.00670182
0.00758157
0.00844007
0.00927745
0.0100936
0.0108885
0.0116621
0.0124152
0.0131491
0.0138664
0.0145719
0.0152717
0.0159736
0.0166871
0.0174231
0.018193
0.0190081
0.0198795
0.0208164
0.021826
0.022913
0.0240796
0.0253257
0.0266505
0.028052
0.0295267
0.031071
0.0326799
0.0343494
0.036077
0.0378584
4.45199e-05
0.000190876
0.000365431
0.00062159
0.000943372
0.00133455
0.0017986
0.00233713
0.00295399
0.00365399
0.00444189
0.00532136
0.00625291
0.00718579
0.00810375
0.00900301
0.00988243
0.010741
0.0115783
0.0123932
0.0131848
0.0139527
0.0146975
0.0154211
0.0161272
0.0168219
0.0175138
0.0182133
0.0189329
0.0196866
0.0204885
0.0213521
0.022289
0.0233085
0.0244164
0.0256161
0.0269083
0.0282913
0.0297613
0.0313129
0.0329407
0.034638
0.036396
4.33737e-05
0.00018696
0.000343811
0.000581851
0.000879929
0.00124073
0.00166914
0.00216609
0.0027348
0.00337941
0.00410432
0.00491423
0.00581321
0.00676977
0.00773288
0.00868451
0.00961904
0.0105348
0.0114309
0.0123057
0.0131577
0.0139854
0.0147874
0.0155628
0.0163114
0.0170352
0.017738
0.0184258
0.0191079
0.0197964
0.0205056
0.0212518
0.0220517
0.0229213
0.0238743
0.0249214
0.0260696
0.0273226
0.0286796
0.0301374
0.0316902
0.0333295
0.0350424
4.27221e-05
0.000182939
0.000328301
0.000552306
0.0008322
0.0011702
0.00157032
0.00203485
0.00256631
0.00316824
0.00384462
0.00460034
0.00544048
0.00636767
0.00734902
0.00833942
0.00932024
0.0102858
0.011234
0.0121631
0.0130714
0.013957
0.0148178
0.0156516
0.0164566
0.0172317
0.0179768
0.018694
0.0193874
0.0200644
0.0207354
0.0214144
0.0221185
0.0228665
0.0236775
0.0245698
0.0255586
0.0266555
0.0278669
0.0291947
0.0306368
0.0321868
0.0338369
4.2089e-05
0.00017986
0.000315965
0.000527899
0.000793102
0.0011127
0.00149022
0.00192895
0.00243052
0.00299819
0.00363581
0.00434794
0.00513901
0.00601434
0.00697459
0.00798265
0.00899877
0.0100068
0.0110008
0.0119783
0.0129374
0.0138761
0.0147922
0.015683
0.0165457
0.0173783
0.0181784
0.0189451
0.0196788
0.0203817
0.0210597
0.0217217
0.0223806
0.0230533
0.0237599
0.0245219
0.0253612
0.0262973
0.0273459
0.0285173
0.0298166
0.0312429
0.0327917
4.16644e-05
0.000177484
0.000307053
0.000508054
0.000761029
0.00106533
0.00142419
0.00184151
0.00231841
0.00285785
0.00346363
0.00413966
0.00489059
0.00572106
0.00663614
0.00763164
0.0086666
0.00970803
0.0107416
0.011762
0.0127666
0.0137532
0.0147197
0.0156632
0.0165811
0.0174704
0.0183278
0.0191509
0.0199375
0.0206869
0.0214005
0.0220821
0.0227395
0.0233844
0.0240333
0.0247067
0.0254281
0.0262221
0.027112
0.0281176
0.0292537
0.030528
0.0319435
4.13138e-05
0.000175938
0.000301094
0.000491509
0.000733961
0.00102552
0.00136876
0.00176744
0.00222348
0.00273927
0.00331815
0.00396387
0.00468081
0.00547336
0.00634686
0.0073055
0.00833652
0.00939828
0.0104642
0.0115221
0.0125673
0.0135972
0.0146092
0.0156011
0.0165699
0.0175126
0.0184254
0.0193051
0.0201484
0.0209527
0.0217164
0.0224397
0.0231252
0.0237796
0.0244137
0.0250435
0.0256896
0.0263769
0.0271325
0.0279831
0.0289528
0.0300602
0.0313205
4.10892e-05
0.000174871
0.000296789
0.000477309
0.000710634
0.000991241
0.00132103
0.00170369
0.00214199
0.00263749
0.00319326
0.00381293
0.00450069
0.0052609
0.00609838
0.00701808
0.00802199
0.00908739
0.0101757
0.011265
0.0123462
0.0134149
0.0144684
0.0155043
0.0165197
0.0175116
0.0184765
0.0194104
0.0203097
0.0211708
0.0219903
0.0227658
0.0234967
0.0241849
0.0248362
0.0254606
0.0260736
0.0266962
0.0273546
0.028078
0.0288964
0.0298386
0.0309323
4.08909e-05
0.000173999
0.000293473
0.000465042
0.000690337
0.000961281
0.00127949
0.00164824
0.00207088
0.00254869
0.00308453
0.00368166
0.00434404
0.005076
0.00588205
0.00676702
0.00773598
0.00878549
0.00988325
0.0109963
0.0121085
0.0132121
0.0143032
0.0153793
0.0164371
0.0174743
0.0184872
0.0194721
0.0204249
0.0213413
0.0222173
0.0230488
0.0238333
0.0245694
0.0252584
0.0259052
0.0265196
0.0271166
0.0277181
0.0283514
0.0290482
0.0298427
0.0307709
4.06985e-05
0.000173163
0.000290639
0.000454369
0.000672623
0.000935202
0.00124336
0.00159996
0.00200848
0.00247065
0.00298888
0.00356616
0.00420617
0.00491345
0.00569201
0.00654652
0.00748212
0.00850252
0.00959461
0.0107218
0.0118591
0.0129934
0.0141186
0.0152311
0.0163279
0.0174068
0.0184641
0.0194962
0.020499
0.0214681
0.0223989
0.0232867
0.0241274
0.024918
0.0256563
0.0263432
0.0269834
0.0275863
0.0281674
0.0287492
0.0293608
0.0300373
0.0308177
4.05999e-05
0.000172612
0.000288395
0.00044521
0.000657051
0.000912251
0.00121146
0.00155738
0.00195336
0.00240161
0.00290422
0.00346391
0.0040842
0.00476932
0.00552355
0.00635094
0.0072567
0.00824606
0.00931815
0.010448
0.0116031
0.0127634
0.013919
0.0150647
0.0161976
0.0173148
0.0184129
0.0194886
0.0205377
0.0215562
0.0225391
0.0234814
0.0243782
0.0252252
0.0260182
0.0267554
0.0274372
0.0280681
0.0286577
0.0292223
0.0297856
0.0303797
0.0310438
4.05195e-05
0.000172201
0.000286427
0.000437206
0.000643109
0.000891606
0.00118296
0.00151942
0.00190422
0.0023401
0.00282877
0.00337284
0.0039756
0.00464111
0.00537346
0.0061766
0.00705562
0.00801583
0.00906067
0.0101811
0.0113452
0.0125259
0.0137082
0.0148843
0.0160501
0.0172025
0.0183382
0.0194541
0.0205464
0.0216108
0.0226427
0.0236368
0.0245879
0.0254908
0.0263402
0.0271323
0.027865
0.0285382
0.0291569
0.0297313
0.030279
0.0308263
0.0314099
4.04278e-05
0.000171798
0.000284793
0.000430483
0.000630907
0.000873434
0.00115761
0.00148551
0.00186026
0.00228507
0.00276114
0.0032912
0.00387829
0.00452605
0.00523864
0.00602015
0.00687517
0.00780879
0.00882608
0.00992705
0.0110906
0.0122851
0.0134895
0.0146928
0.0158887
0.0170736
0.0182443
0.0193976
0.0205298
0.0216371
0.0227147
0.0237576
0.0247603
0.0257172
0.0266225
0.0274711
0.0282588
0.028983
0.0296444
0.0302482
0.0308058
0.0313372
0.0318728
4.03634e-05
0.000171527
0.000283481
0.000425023
0.000620113
0.000857115
0.00113473
0.00145503
0.00182087
0.00223539
0.00270021
0.0032177
0.00379052
0.00442239
0.00511743
0.00587947
0.00671277
0.00762251
0.00861386
0.00969033
0.0108438
0.0120448
0.0132664
0.0144934
0.0157169
0.0169318
0.0181349
0.0193229
0.0204923
0.0216394
0.0227598
0.0238483
0.0248997
0.0259081
0.0268675
0.0277722
0.0286163
0.0293956
0.0301079
0.030754
0.0313403
0.0318799
0.0323939
4.03274e-05
0.000171387
0.000282492
0.000420586
0.000610343
0.000842346
0.00111428
0.0014278
0.00178568
0.00219081
0.00264535
0.00315129
0.00371136
0.00432895
0.00500793
0.00575216
0.00656598
0.00745429
0.00842179
0.00947325
0.0106089
0.0118087
0.0130422
0.0142892
0.0155374
0.0167801
0.0180132
0.0192335
0.0204376
0.0216218
0.022782
0.0239133
0.0250104
0.0260676
0.0270788
0.0280378
0.028938
0.0297738
0.0305409
0.0312374
0.0318645
0.0324294
0.0329442
4.03033e-05
0.000171327
0.000281784
0.000417117
0.000601749
0.000829095
0.00109572
0.00140308
0.00175368
0.00215036
0.0025955
0.00309106
0.0036396
0.00424434
0.00490885
0.00563696
0.00643315
0.00730173
0.00824758
0.00927575
0.0103899
0.0115804
0.0128197
0.0140825
0.0153525
0.0166206
0.017882
0.0191325
0.0203688
0.0215878
0.0227853
0.0239566
0.0250966
0.0261999
0.0272602
0.0282711
0.0292258
0.0301177
0.0309412
0.0316918
0.0323676
0.0329695
0.0335009
4.02965e-05
0.000171313
0.000281226
0.000414287
0.000593943
0.000816951
0.00107883
0.00138055
0.00172444
0.00211354
0.00255033
0.00303653
0.00357451
0.00416745
0.00481874
0.00553224
0.00631219
0.00716289
0.00808919
0.00909589
0.0101878
0.0113633
0.012602
0.013876
0.0151644
0.0164556
0.017743
0.0190219
0.0202888
0.0215404
0.0227728
0.0239817
0.025162
0.0263086
0.0274152
0.0284755
0.0294826
0.0304292
0.0313089
0.0321155
0.0328445
0.0334941
0.0340676
4.02982e-05
0.000171337
0.000280764
0.000411909
0.000586875
0.000805933
0.00106338
0.00135995
0.00169783
0.00207992
0.00250904
0.0029867
0.00351514
0.00409731
0.00473661
0.00543685
0.00620204
0.00703639
0.00794458
0.00893153
0.0100024
0.0111594
0.0123916
0.0136715
0.014975
0.0162869
0.0175982
0.0189038
0.0201997
0.0214818
0.0227471
0.0239913
0.0252097
0.026397
0.0275475
0.0286547
0.0297117
0.0307112
0.0316458
0.0325086
0.0332935
0.0339968
0.0346191
4.03064e-05
0.000171384
0.000280375
0.000409861
0.000580435
0.000795815
0.00104925
0.00134113
0.00167362
0.00204921
0.00247117
0.00294091
0.00346066
0.00403308
0.00466144
0.00534951
0.0061012
0.00692064
0.00781229
0.00878125
0.00983245
0.0109701
0.0121905
0.0134714
0.0147861
0.016116
0.0174496
0.0187802
0.020103
0.0214143
0.0227108
0.0239883
0.0252425
0.0264685
0.0276603
0.0288119
0.0299165
0.0309665
0.0319545
0.0328727
0.033714
0.0344732
0.0351472
4.03219e-05
0.000171442
0.00028002
0.000408036
0.000574501
0.000786453
0.00103619
0.00132378
0.0016512
0.00202101
0.0024364
0.00289884
0.00341042
0.00397397
0.00459226
0.00526905
0.00600833
0.00681411
0.00769094
0.00864321
0.0096762
0.0107949
0.0120001
0.013277
0.0145989
0.0159441
0.0172979
0.0186519
0.0200005
0.0213395
0.0226655
0.0239748
0.025263
0.0265252
0.0277562
0.0289499
0.0300996
0.0311979
0.0322371
0.0332092
0.0341063
0.0349212
0.0356479
4.03351e-05
0.000171506
0.00027968
0.000406367
0.000569061
0.000777755
0.00102403
0.00130765
0.00163046
0.00199499
0.00240419
0.00285991
0.00336398
0.00391916
0.00452836
0.00519486
0.00592281
0.006716
0.00757892
0.00851604
0.00953222
0.0106331
0.0118215
0.0130899
0.0144152
0.0157723
0.0171441
0.01852
0.0198929
0.0212582
0.0226125
0.0239519
0.0252723
0.0265693
0.0278376
0.0290712
0.0302638
0.0314081
0.0324964
0.0335203
0.0344716
0.0353416
0.0361219
4.03519e-05
0.000171534
0.000279341
0.000404811
0.000564037
0.000769675
0.0010127
0.0012926
0.00161109
0.00197063
0.00237407
0.00282359
0.00332075
0.00386819
0.00446897
0.00512614
0.00584356
0.00662523
0.00747529
0.00839815
0.00939912
0.0104832
0.0116544
0.0129113
0.0142357
0.0156016
0.016989
0.0183849
0.0197808
0.0211714
0.0225527
0.0239209
0.0252724
0.0266024
0.0279059
0.0291777
0.0304111
0.0315993
0.0327345
0.0338084
0.0348124
0.0357378
0.0365768
4.0377e-05
0.000171573
0.000279041
0.000403406
0.000559447
0.00076212
0.00100205
0.00127847
0.00159292
0.00194779
0.00234593
0.00278958
0.00328038
0.00382065
0.00441341
0.00506197
0.00576966
0.00654054
0.0073787
0.00828856
0.00927518
0.0103434
0.0114983
0.0127414
0.0140611
0.0154326
0.0168329
0.0182471
0.0196649
0.0210795
0.0224869
0.0238828
0.0252637
0.0266252
0.0279627
0.0292707
0.0305433
0.0317733
0.0329532
0.0340752
0.0351302
0.0361092
0.0370034
4.03976e-05
0.00017159
0.000278724
0.000402077
0.000555232
0.000755026
0.00099205
0.00126516
0.00157581
0.00192628
0.00231938
0.00275757
0.00324233
0.00377592
0.00436127
0.00500155
0.00570018
0.00646098
0.00728832
0.00818623
0.00915926
0.0102129
0.011352
0.0125803
0.0138921
0.0152656
0.0166766
0.0181072
0.0195451
0.0209827
0.0224151
0.0238378
0.0252469
0.0266389
0.0280087
0.0293516
0.0306613
0.0319312
0.0331541
0.0343219
0.0354256
0.0364559
0.0374022
4.04187e-05
0.000171628
0.000278465
0.000400874
0.000551403
0.000748363
0.000982583
0.00125257
0.00155961
0.00190594
0.00229429
0.00272736
0.00320642
0.00373374
0.0043121
0.00494471
0.00563483
0.0063863
0.00720309
0.0080897
0.00905057
0.0100905
0.0112148
0.012428
0.0137291
0.0151013
0.0165204
0.0179652
0.0194217
0.0208809
0.0223372
0.0237858
0.0252224
0.0266435
0.0280446
0.0294207
0.030766
0.0320742
0.033338
0.0345496
0.0356998
0.036779
0.037777
4.04433e-05
0.000171651
0.000278206
0.000399761
0.000547923
0.000742091
0.000973606
0.00124059
0.00154422
0.00188665
0.00227051
0.00269862
0.00317229
0.0036937
0.00426552
0.00489074
0.00557294
0.00631557
0.00712252
0.00799839
0.00894753
0.00997466
0.011085
0.0122837
0.0135723
0.0149402
0.016364
0.0178211
0.0192949
0.0207745
0.0222537
0.0237268
0.02519
0.0266393
0.0280704
0.0294785
0.030858
0.0322027
0.0335057
0.0347589
0.0359534
0.0370791
0.0381242
4.04649e-05
0.000171662
0.000277958
0.000398733
0.000544727
0.000736113
0.000965025