/*--------------------------------*- C++ -*----------------------------------*\
| =========                 |                                                 |
| \\      /  F ield         | OpenFOAM: The Open Source CFD Toolbox           |
|  \\    /   O peration     | Version:  2.3.0                                 |
|   \\  /    A nd           | Web:      www.OpenFOAM.org                      |
|    \\/     M anipulation  |                                                 |
\*---------------------------------------------------------------------------*/
FoamFile
{
    version     2.0;
    format      ascii;
    class       surfaceScalarField;
    location    "3000";
    object      phi;
}
// * * * * * * * * * * * * * * * * * * * * * * * * * * * * * * * * * * * * * //

dimensions      [0 3 -1 0 0 0 0];

internalField   nonuniform List<scalar> 
75136
(
-0.00617404
-0.00528005
0.00580351
0.00565059
-0.00665095
-0.00505034
0.00552725
-0.00709271
-0.00482837
0.00527013
-0.00749201
-0.00461891
0.0050182
-0.00785395
-0.00441389
0.00477584
-0.00818167
-0.00421854
0.00454626
-0.00847501
-0.00402998
0.00432333
-0.00873555
-0.00385025
0.00411079
-0.00896505
-0.00367508
0.00390458
-0.00916395
-0.00350902
0.00370792
-0.0093364
-0.00334486
0.0035173
-0.00948089
-0.00319146
0.00333595
-0.00959808
-0.00303975
0.00315694
-0.00968857
-0.00289819
0.00298868
-0.00975895
-0.00275507
0.00282545
-0.00980454
-0.00262181
0.0026674
-0.00982567
-0.00249316
0.00251429
-0.00982894
-0.00236408
0.00236735
-0.00980779
-0.00224448
0.00222334
-0.00976728
-0.00212411
0.00208359
-0.0097071
-0.0020096
0.00194942
-0.00962391
-0.00189908
0.00181588
-0.00952233
-0.00179075
0.00168918
-0.00940057
-0.00168456
0.0015628
-0.00925869
-0.00158175
0.00143988
-0.00909973
-0.00148071
0.00132174
-0.0089211
-0.00138102
0.00120239
-0.00872635
-0.00128311
0.00108836
-0.00851468
-0.0011875
0.000975838
-0.00829132
-0.001091
0.000867642
-0.00805326
-0.00100002
0.000761962
-0.00780977
-0.000902623
0.000659134
-0.00755885
-0.000809999
0.000559073
-0.00731037
-0.000713177
0.000464697
-0.00706735
-0.000617233
0.000374219
-0.00683408
-0.000519992
0.000286725
-0.00662179
-0.000418544
0.000206247
-0.00643384
-0.000318683
0.000130739
-0.00628295
-0.000214506
6.36154e-05
-0.00617459
-0.000111043
2.68105e-06
-0.00611297
-1.02683e-05
-5.13573e-05
-0.00610777
8.87128e-05
-9.39059e-05
0.000182294
-0.006228
-6.20701e-05
-0.00556676
-0.0048177
0.00510441
-0.00599434
-0.00462276
-0.00638058
-0.00444212
-0.00673771
-0.00426178
-0.00706024
-0.00409136
-0.00734997
-0.00392882
-0.0076093
-0.00377065
-0.00784257
-0.00361699
-0.00804639
-0.00347125
-0.00822743
-0.00332798
-0.00837856
-0.00319373
-0.00851103
-0.00305899
-0.00861824
-0.00293254
-0.00870767
-0.00280876
-0.00877124
-0.0026915
-0.0088199
-0.00257315
-0.00885029
-0.00246277
-0.00885993
-0.00235445
-0.00885747
-0.00224694
-0.00883842
-0.00214316
-0.00880504
-0.00204297
-0.00875954
-0.00194457
-0.00870241
-0.00184788
-0.00863273
-0.00175424
-0.00855428
-0.0016602
-0.00846747
-0.00156752
-0.00836953
-0.00147896
-0.00826311
-0.00138953
-0.00815293
-0.00129768
-0.00803423
-0.0012097
-0.00791194
-0.00112231
-0.00777971
-0.00103485
-0.00764623
-0.000943484
-0.00750074
-0.00085867
-0.00734848
-0.000769493
-0.00718654
-0.000681934
-0.00700951
-0.000595566
-0.00681841
-0.000509789
-0.00660548
-0.000427433
-0.00637142
-0.000345102
-0.00611295
-0.000268737
-0.00582477
-0.000199475
-0.000140671
-0.0055018
-0.00502088
-0.00440279
0.00460598
-0.0053973
-0.00424635
-0.0057461
-0.00409332
-0.00606008
-0.0039478
-0.00634486
-0.00380659
-0.00660288
-0.0036708
-0.00683249
-0.00354104
-0.00703813
-0.00341135
-0.00721663
-0.00329274
-0.00737389
-0.00317073
-0.00750944
-0.00305817
-0.00761999
-0.00294844
-0.00771333
-0.0028392
-0.00778803
-0.00273407
-0.00784447
-0.00263506
-0.00788306
-0.00253455
-0.00790771
-0.00243812
-0.00791705
-0.00234511
-0.00790984
-0.00225414
-0.00788813
-0.00216488
-0.00785543
-0.00207567
-0.00781045
-0.00198956
-0.00775184
-0.00190649
-0.00768473
-0.00182135
-0.00760437
-0.00174055
-0.00751613
-0.00165576
-0.00741853
-0.00157657
-0.00731491
-0.00149314
-0.00719755
-0.00141505
-0.00707474
-0.00133251
-0.00694676
-0.00125029
-0.00681153
-0.00117008
-0.0066654
-0.00108961
-0.00651885
-0.00100522
-0.00636336
-0.000924984
-0.00620211
-0.00084318
-0.00603507
-0.000762612
-0.00586194
-0.000682917
-0.00568022
-0.00060915
-0.00549168
-0.000533642
-0.00529357
-0.000466854
-0.00508592
-0.000407119
-0.000357195
-0.0048694
-0.00452798
-0.00403352
0.00415871
-0.00486678
-0.00390755
-0.00517453
-0.00378557
-0.00545547
-0.00366687
-0.00570938
-0.00355268
-0.00593853
-0.00344164
-0.00614463
-0.00333494
-0.00632534
-0.00323065
-0.00648695
-0.00313113
-0.00662337
-0.0030343
-0.0067429
-0.00293865
-0.00684347
-0.00284787
-0.00692543
-0.00275724
-0.00698738
-0.00267211
-0.00703866
-0.00258378
-0.00706924
-0.00250397
-0.00708798
-0.00241939
-0.00709199
-0.0023411
-0.00708475
-0.00226137
-0.00706341
-0.00218622
-0.00703145
-0.00210763
-0.00698769
-0.00203332
-0.00693555
-0.00195863
-0.00687207
-0.00188483
-0.0067992
-0.00181343
-0.00671854
-0.00173642
-0.00662886
-0.00166624
-0.00653011
-0.0015919
-0.00642743
-0.00151772
-0.00631427
-0.00144567
-0.00619566
-0.0013689
-0.0060701
-0.00129564
-0.00594002
-0.00121969
-0.00579821
-0.00114704
-0.00565398
-0.00106921
-0.00550303
-0.000994131
-0.00534507
-0.000920565
-0.00517982
-0.000848174
-0.0050117
-0.000777269
-0.00483406
-0.000711278
-0.00465091
-0.000650005
-0.00446501
-0.000593021
-0.000545774
-0.00427643
-0.00408472
-0.00370495
0.00375614
-0.00438701
-0.00360525
-0.00466354
-0.00350904
-0.00491535
-0.00341506
-0.00514278
-0.00332525
-0.00534741
-0.00323701
-0.00553023
-0.00315212
-0.00569157
-0.0030693
-0.00583359
-0.00298911
-0.00595703
-0.00291086
-0.00606122
-0.00283446
-0.00614925
-0.00275985
-0.00622088
-0.00268561
-0.00628001
-0.00261298
-0.00632016
-0.00254363
-0.00634846
-0.00247567
-0.00636369
-0.00240416
-0.00636588
-0.00233891
-0.00635406
-0.0022732
-0.00633462
-0.00220566
-0.00630166
-0.00214059
-0.00626018
-0.0020748
-0.0062073
-0.00201152
-0.00614629
-0.00194583
-0.00608056
-0.00187916
-0.00600089
-0.00181609
-0.00591834
-0.00174879
-0.00582547
-0.00168477
-0.00572831
-0.00161488
-0.00562424
-0.00154975
-0.00551167
-0.00148146
-0.00539675
-0.00141057
-0.00527202
-0.00134442
-0.00514664
-0.00127242
-0.00501286
-0.001203
-0.00487403
-0.00113296
-0.00473134
-0.00106326
-0.00458482
-0.000994686
-0.00443195
-0.000930146
-0.00427577
-0.000867456
-0.00411755
-0.000808224
-0.0039543
-0.000756271
-0.00071007
-0.00379
-0.00368899
-0.00340844
0.00339249
-0.00395969
-0.00333456
-0.00420612
-0.0032626
-0.00443044
-0.00319074
-0.00463552
-0.00312017
-0.00481839
-0.00305414
-0.00497996
-0.00299055
-0.00512568
-0.00292357
-0.00525315
-0.00286165
-0.00536385
-0.00280016
-0.00545805
-0.00274026
-0.00553654
-0.00268136
-0.00560079
-0.00262136
-0.00564968
-0.00256409
-0.00568659
-0.00250671
-0.00571046
-0.0024518
-0.00572155
-0.00239306
-0.00572159
-0.00233887
-0.00571417
-0.00228062
-0.00569318
-0.00222665
-0.0056637
-0.00217007
-0.00562269
-0.00211581
-0.00557679
-0.00205742
-0.00552146
-0.00200116
-0.00545678
-0.00194384
-0.00538613
-0.00188674
-0.00530812
-0.0018268
-0.00522437
-0.00176852
-0.00513195
-0.0017073
-0.00503567
-0.00164603
-0.00493551
-0.00158163
-0.00482562
-0.00152045
-0.00471515
-0.00145489
-0.00459778
-0.00138979
-0.00447564
-0.00132513
-0.0043512
-0.0012574
-0.00421948
-0.00119498
-0.00408569
-0.00112848
-0.00394876
-0.00106708
-0.00380756
-0.00100865
-0.00366358
-0.000952204
-0.00351865
-0.000901204
-0.000856032
-0.00337269
-0.00332954
-0.00314285
0.00306395
-0.00357288
-0.00309122
-0.00379572
-0.00303976
-0.00399698
-0.00298949
-0.00417961
-0.00293753
-0.00434435
-0.0028894
-0.00449198
-0.00284292
-0.00462038
-0.00279518
-0.00473542
-0.0027466
-0.00483467
-0.00270092
-0.00491956
-0.00265536
-0.00499051
-0.00261041
-0.0050467
-0.00256516
-0.00509096
-0.00251983
-0.00512207
-0.0024756
-0.00514517
-0.0024287
-0.00515392
-0.00238432
-0.0051543
-0.0023385
-0.00514391
-0.00229101
-0.00512492
-0.00224565
-0.00509587
-0.00219911
-0.00506031
-0.00215137
-0.00501531
-0.00210242
-0.0049642
-0.00205227
-0.00490541
-0.00200263
-0.00484075
-0.00195141
-0.00477039
-0.00189717
-0.00469293
-0.00184597
-0.00460994
-0.00179029
-0.0045215
-0.00173447
-0.00442658
-0.00167655
-0.00432944
-0.00161759
-0.00422572
-0.00155861
-0.00411991
-0.0014956
-0.00400931
-0.00143573
-0.00389283
-0.00137388
-0.00377613
-0.00131168
-0.00365367
-0.00125094
-0.00352953
-0.00119122
-0.00340245
-0.00113574
-0.00327224
-0.00108241
-0.00314111
-0.00103233
-0.00098654
-0.0030106
-0.00300933
-0.00290449
0.00277097
-0.00322762
-0.00287293
-0.00342864
-0.00283874
-0.00361036
-0.00280777
-0.00377523
-0.00277266
-0.00392084
-0.00274379
-0.00405458
-0.00270918
-0.004172
-0.00267776
-0.00427393
-0.00264467
-0.00436236
-0.00261249
-0.00443715
-0.00258056
-0.0045019
-0.00254566
-0.00455491
-0.00251216
-0.00459364
-0.00248111
-0.0046225
-0.00244673
-0.00464073
-0.00241047
-0.00464941
-0.00237564
-0.00464936
-0.00233855
-0.00463812
-0.00230225
-0.0046198
-0.00226397
-0.00459485
-0.00222406
-0.00455999
-0.00218624
-0.00451945
-0.00214295
-0.00447283
-0.00209889
-0.00442025
-0.00205521
-0.00436012
-0.00201154
-0.00429152
-0.00196577
-0.00422214
-0.00191535
-0.00414739
-0.00186504
-0.00406538
-0.00181648
-0.00398
-0.00176192
-0.00389151
-0.00170608
-0.00379932
-0.0016508
-0.00369909
-0.00159582
-0.00359856
-0.00153627
-0.00349493
-0.00147751
-0.00338686
-0.00141974
-0.00327644
-0.00136136
-0.00316453
-0.00130313
-0.00304875
-0.00125151
-0.00293281
-0.00119836
-0.00281406
-0.00115108
-0.00110893
-0.00269167
-0.00271977
0.00250486
-0.00268959
-0.00291767
-0.00267503
-0.00309774
-0.00265867
-0.00326142
-0.00264409
-0.00340858
-0.0026255
-0.00354466
-0.00260771
-0.00366173
-0.00259211
-0.00376808
-0.00257141
-0.00385998
-0.00255277
-0.00394143
-0.00253103
-0.00401057
-0.00251142
-0.00406592
-0.00249031
-0.00411179
-0.00246629
-0.00414983
-0.00244307
-0.00417582
-0.00242074
-0.00419204
-0.00239425
-0.00419793
-0.00236974
-0.00419693
-0.00233955
-0.00418917
-0.00231
-0.00417203
-0.0022811
-0.00414823
-0.00224787
-0.00411766
-0.00221681
-0.00408104
-0.00217957
-0.00403761
-0.00214232
-0.00398662
-0.0021062
-0.00393237
-0.00206579
-0.00387428
-0.00202385
-0.00380816
-0.00198147
-0.00373978
-0.00193342
-0.00366462
-0.00189164
-0.00358654
-0.00184
-0.00350471
-0.00178791
-0.00341825
-0.00173727
-0.00333059
-0.00168348
-0.00323848
-0.00162837
-0.00314163
-0.00157437
-0.00304463
-0.00151674
-0.00294437
-0.00146162
-0.00284144
-0.00140606
-0.00273883
-0.00135412
-0.00263051
-0.00130668
-0.00252367
-0.00125792
-0.00241618
-0.00121642
-0.00565055
0.000243015
-0.000820466
-0.00525441
0.000232801
-0.000628936
-0.00493313
0.000206563
-0.000527844
-0.00465902
0.000176881
-0.000450999
-0.00441531
0.000142979
-0.00038669
-0.00419147
0.000105023
-0.000328859
-0.00398535
6.71568e-05
-0.000273278
-0.00378973
2.55613e-05
-0.000221176
-0.00360465
-1.5234e-05
-0.000169855
-0.00342768
-5.70903e-05
-0.000119871
-0.00325679
-0.000100784
-7.01126e-05
-0.00309303
-0.00014338
-2.03755e-05
-0.00293426
-0.000188769
2.99973e-05
-0.00278181
-0.000232512
8.00587e-05
-0.00263298
-0.00027917
0.000130345
-0.00249001
-0.00032616
0.000183188
-0.00235069
-0.000374636
0.000235317
-0.00221811
-0.000423017
0.000290433
-0.00208939
-0.0004747
0.000345975
-0.00196571
-0.000527282
0.000403609
-0.00184807
-0.000581197
0.000463551
-0.00173618
-0.000637177
0.000525291
-0.00163181
-0.000694774
0.000590404
-0.00153299
-0.000755363
0.000656547
-0.00144215
-0.000817841
0.000726994
-0.00135928
-0.000883112
0.000800244
-0.00128515
-0.000950011
0.000875876
-0.00122041
-0.00102057
0.000955832
-0.00116534
-0.00109439
0.00103932
-0.00112142
-0.00117047
0.00112655
-0.00108938
-0.00125017
0.00121813
-0.0010702
-0.00133367
0.0013145
-0.00106443
-0.00142072
0.00141495
-0.00107292
-0.00151207
0.00152056
-0.00109695
-0.00160718
0.00163121
-0.0011375
-0.00170717
0.00174772
-0.00119632
-0.00181113
0.00186995
-0.00127359
-0.00192067
0.00199794
-0.00137119
-0.00203476
0.00213236
-0.00148993
-0.00215457
0.00227332
-0.00163202
-0.00227988
0.00242197
-0.00179768
-0.00241101
0.00257666
-0.00254908
0.00274008
-0.00198867
-0.00515896
-9.98199e-05
-0.00484778
-7.83787e-05
-0.00456912
-7.20998e-05
-0.00431463
-7.76058e-05
-0.00407987
-9.17849e-05
-0.00386496
-0.00010989
-0.00366374
-0.000134056
-0.00347637
-0.000161813
-0.00329924
-0.000192359
-0.00313009
-0.000226241
-0.00297085
-0.000260028
-0.00281626
-0.000297968
-0.0026686
-0.00033643
-0.00252562
-0.000375496
-0.00238865
-0.000416133
-0.00225592
-0.000458895
-0.00212828
-0.000502273
-0.00200504
-0.000546257
-0.00188798
-0.00059176
-0.00177573
-0.000639536
-0.00166872
-0.000688209
-0.00156799
-0.000737906
-0.0014734
-0.000789366
-0.00138593
-0.000842828
-0.00130541
-0.000898358
-0.00123265
-0.000955876
-0.0011681
-0.00101456
-0.00111239
-0.00107628
-0.00106686
-0.00113993
-0.00103096
-0.00120637
-0.00100609
-0.00127504
-0.000992992
-0.00134678
-0.000991959
-0.00142176
-0.00100449
-0.00149954
-0.00103125
-0.00158042
-0.00107278
-0.00166564
-0.00113026
-0.00175365
-0.0012046
-0.00184633
-0.00129683
-0.00194252
-0.00140873
-0.00204267
-0.00153999
-0.00214862
-0.0016932
-0.0022578
-0.00237354
-0.00186874
-0.00464715
-0.000322066
-0.00442437
-0.000301158
-0.00420651
-0.000289964
-0.00399586
-0.000288256
-0.00379627
-0.000291369
-0.00360387
-0.000302296
-0.00342098
-0.000316941
-0.00324543
-0.000337369
-0.00307622
-0.00036156
-0.00291513
-0.00038734
-0.00276007
-0.000415082
-0.00261105
-0.000446988
-0.00246868
-0.000478798
-0.00233083
-0.000513345
-0.00219765
-0.000549321
-0.00207159
-0.000584947
-0.00195006
-0.00062381
-0.00183332
-0.00066299
-0.00172228
-0.000702799
-0.00161789
-0.000743927
-0.00151881
-0.000787288
-0.00142556
-0.000831163
-0.00133901
-0.000875916
-0.0012589
-0.000922934
-0.00118648
-0.000970777
-0.00112194
-0.00102042
-0.00106523
-0.00107127
-0.00101692
-0.00112458
-0.000977551
-0.0011793
-0.000947726
-0.00123619
-0.000928016
-0.00129475
-0.000918501
-0.00135629
-0.0009217
-0.00141856
-0.000935999
-0.00148524
-0.000963331
-0.00155309
-0.00100511
-0.00162386
-0.00106041
-0.00169834
-0.00113132
-0.00177542
-0.00121878
-0.00185507
-0.00132241
-0.00193904
-0.00144556
-0.00202546
-0.00158675
-0.00211661
-0.00221072
-0.00174957
-0.00408691
-0.000511584
-0.00389963
-0.000488444
-0.00371627
-0.000473321
-0.00353872
-0.000465806
-0.00336611
-0.000463975
-0.00319872
-0.000469687
-0.00303786
-0.000477802
-0.00288325
-0.00049198
-0.00273514
-0.000509668
-0.00259185
-0.000530635
-0.00245189
-0.000555039
-0.00231904
-0.000579836
-0.00219098
-0.000606866
-0.00206784
-0.000636481
-0.00194952
-0.000667638
-0.00183516
-0.000699306
-0.00172758
-0.000731393
-0.00162412
-0.000766449
-0.0015252
-0.000801718
-0.00143169
-0.000837443
-0.00134465
-0.000874327
-0.00126283
-0.00091298
-0.00118727
-0.000951482
-0.00111768
-0.000992522
-0.00105501
-0.00103344
-0.000999138
-0.00107629
-0.000951068
-0.00111934
-0.000910516
-0.00116514
-0.000878755
-0.00121106
-0.00085564
-0.00125931
-0.000841681
-0.0013087
-0.000838202
-0.00135977
-0.000844346
-0.00141241
-0.000862013
-0.00146757
-0.000890869
-0.00152424
-0.00093146
-0.00158327
-0.000985808
-0.001644
-0.00105401
-0.00170722
-0.0011361
-0.00177297
-0.00123414
-0.001841
-0.00134785
-0.00191176
-0.00147931
-0.00198515
-0.00206222
-0.00162781
-0.00362756
-0.000674023
-0.00346634
-0.000649665
-0.00330669
-0.00063297
-0.00315137
-0.000621133
-0.00300014
-0.000615198
-0.00285378
-0.000616045
-0.00271069
-0.000620901
-0.0025721
-0.000630563
-0.00243804
-0.000643727
-0.00230976
-0.000658921
-0.00218614
-0.000678658
-0.00206567
-0.000700307
-0.00194956
-0.000722974
-0.00183861
-0.000747432
-0.00173201
-0.000774238
-0.00162987
-0.000801442
-0.00153143
-0.000829838
-0.00143943
-0.000858441
-0.00135133
-0.000889823
-0.0012683
-0.000920476
-0.00118982
-0.000952802
-0.00111759
-0.000985207
-0.00105056
-0.00101852
-0.000990401
-0.00105268
-0.00093605
-0.00108779
-0.000888407
-0.00112394
-0.000846652
-0.00116109
-0.000813181
-0.00119861
-0.00078707
-0.00123717
-0.000769457
-0.00127692
-0.000760247
-0.00131791
-0.000760309
-0.00135971
-0.000769212
-0.00140351
-0.000788512
-0.00144827
-0.000817708
-0.00149504
-0.000859172
-0.0015418
-0.000911326
-0.00159184
-0.0009764
-0.00164215
-0.00105463
-0.00169474
-0.00114632
-0.00174931
-0.0012522
-0.00180587
-0.00137363
-0.00186372
-0.00192471
-0.00151114
-0.00322702
-0.000819695
-0.00308179
-0.000794888
-0.00294154
-0.000773227
-0.00280314
-0.000759534
-0.00266898
-0.000749356
-0.00253791
-0.000747119
-0.00241018
-0.000748629
-0.00228691
-0.000753836
-0.00216694
-0.000763687
-0.00205038
-0.000775482
-0.00193886
-0.000790178
-0.00183187
-0.000807304
-0.00172763
-0.00082721
-0.00162724
-0.000847821
-0.0015317
-0.000869777
-0.00144017
-0.000892975
-0.00135368
-0.000916328
-0.00126963
-0.000942489
-0.00119169
-0.000967761
-0.00111762
-0.000994545
-0.00104915
-0.00102128
-0.000985821
-0.00104853
-0.000927206
-0.00107713
-0.000873472
-0.00110642
-0.000826404
-0.00113486
-0.000785471
-0.00116487
-0.000751241
-0.00119532
-0.000723281
-0.00122657
-0.000702737
-0.00125772
-0.000689276
-0.00129038
-0.000683884
-0.00132331
-0.000686458
-0.00135713
-0.000697354
-0.00139262
-0.000717707
-0.00142792
-0.000748058
-0.00146469
-0.000787786
-0.00150207
-0.000839184
-0.00154044
-0.000900695
-0.00158064
-0.000974044
-0.00162139
-0.0010602
-0.00166316
-0.00115917
-0.0017069
-0.00127213
-0.00175076
-0.00179701
-0.00139982
-0.00287801
-0.000952289
-0.00275018
-0.000922721
-0.00262291
-0.000900493
-0.0025003
-0.000882147
-0.0023776
-0.000872054
-0.00226094
-0.000863778
-0.0021457
-0.000863864
-0.00203508
-0.000864459
-0.00192826
-0.000870504
-0.0018237
-0.000880046
-0.00172236
-0.000891513
-0.00162535
-0.000904322
-0.00153145
-0.00092111
-0.00144207
-0.000937201
-0.00135617
-0.000955669
-0.00127485
-0.000974296
-0.00119632
-0.000994863
-0.00112241
-0.0010164
-0.00105171
-0.00103845
-0.000986024
-0.00106023
-0.00092491
-0.00108239
-0.000868483
-0.00110496
-0.000817103
-0.00112851
-0.000770927
-0.00115259
-0.000729936
-0.00117585
-0.000694682
-0.00120012
-0.000664798
-0.0012252
-0.000642094
-0.00124927
-0.000625493
-0.00127432
-0.000615848
-0.00130003
-0.000613655
-0.0013255
-0.000618443
-0.00135235
-0.000631413
-0.00137965
-0.000652344
-0.00140699
-0.000682156
-0.00143488
-0.000721145
-0.00146309
-0.000769045
-0.00149254
-0.000827976
-0.00152171
-0.000897236
-0.00155213
-0.000977451
-0.00158295
-0.00107027
-0.00161409
-0.0011747
-0.00164632
-0.0016795
-0.00129222
-0.00257468
-0.00106928
-0.00245801
-0.00103939
-0.00234505
-0.00101345
-0.00223162
-0.000995582
-0.00212368
-0.000979993
-0.00201598
-0.000971475
-0.00191436
-0.000965486
-0.00181418
-0.000964636
-0.00171652
-0.000968166
-0.0016222
-0.000974365
-0.00153204
-0.000981674
-0.00144436
-0.000992
-0.00136078
-0.00100469
-0.00127944
-0.00101854
-0.00120283
-0.00103228
-0.00112871
-0.00104842
-0.00105803
-0.00106555
-0.000991509
-0.00108292
-0.000929285
-0.00110068
-0.000871118
-0.0011184
-0.000816262
-0.00113725
-0.000765859
-0.00115536
-0.000720793
-0.00117358
-0.000680815
-0.00119257
-0.000644395
-0.00121227
-0.000613781
-0.00123074
-0.000589489
-0.00124949
-0.000569971
-0.00126879
-0.000557244
-0.00128704
-0.000550228
-0.00130704
-0.00054971
-0.00132602
-0.000556185
-0.00134587
-0.000570082
-0.00136575
-0.00059102
-0.00138605
-0.000620218
-0.00140568
-0.000657566
-0.00142574
-0.000704592
-0.00144552
-0.000759236
-0.00146706
-0.000824414
-0.00148696
-0.000899372
-0.00150799
-0.00098518
-0.00152828
-0.00108186
-0.00154964
-0.0015716
-0.00118976
-0.00230833
-0.00117712
-0.00220304
-0.00114468
-0.00209853
-0.00111796
-0.00199894
-0.00109517
-0.00190112
-0.00107782
-0.00180459
-0.00106801
-0.00171127
-0.0010588
-0.00161967
-0.00105624
-0.0015319
-0.00105594
-0.00144726
-0.001059
-0.00136476
-0.00106417
-0.0012855
-0.00107126
-0.00120967
-0.00108052
-0.00113724
-0.00109097
-0.00106683
-0.00110268
-0.000999637
-0.00111562
-0.000936937
-0.00112825
-0.000877387
-0.00114247
-0.00082066
-0.00115741
-0.000768864
-0.00117019
-0.000720261
-0.00118585
-0.000676356
-0.00119927
-0.000636639
-0.00121329
-0.000600095
-0.00122911
-0.000569331
-0.00124304
-0.000542807
-0.00125726
-0.000520989
-0.00127131
-0.000506203
-0.00128357
-0.000495309
-0.00129794
-0.000491446
-0.0013109
-0.000492846
-0.00132462
-0.000499981
-0.00133874
-0.000514261
-0.00135147
-0.000535578
-0.00136473
-0.000563029
-0.00137823
-0.000599463
-0.0013893
-0.000643039
-0.00140194
-0.000695286
-0.00141482
-0.000755954
-0.00142629
-0.000825203
-0.00143874
-0.000904658
-0.00144882
-0.000993579
-0.00146072
-0.0014729
-0.00109228
0.00114295
0.000115329
-0.000100424
-0.00115786
0.00113411
0.000151648
-0.000142804
0.0011314
0.000184588
-0.000181886
0.00113306
0.000215148
-0.000216801
0.00113858
0.000242479
-0.000248002
0.00114699
0.000267316
-0.000275727
0.00115805
0.000289644
-0.0003007
0.00117089
0.000309732
-0.000322573
0.00118474
0.00032743
-0.000341281
0.00119895
0.000343273
-0.00035748
0.00121288
0.000357363
-0.000371292
0.00122624
0.000369623
-0.000382988
0.00123875
0.000380108
-0.000392621
0.00125027
0.00038881
-0.000400323
0.00125969
0.000396871
-0.000406298
0.00126664
0.000403468
-0.000410412
0.00127195
0.000408406
-0.000413718
0.00127438
0.000412762
-0.000415186
0.00127423
0.000415711
-0.000415567
0.00127104
0.000418193
-0.000415005
0.00126433
0.000419941
-0.00041323
0.00125442
0.000420672
-0.00041076
0.00124134
0.000420806
-0.000407725
0.00122469
0.000420256
-0.00040361
0.00120451
0.000419548
-0.000399368
0.00118092
0.000417703
-0.000394112
0.00115367
0.000416124
-0.000388872
0.0011228
0.00041385
-0.000382981
0.00108841
0.00041104
-0.000376646
0.00105043
0.00040828
-0.000370307
0.0010088
0.000405147
-0.000363516
0.000963821
0.000401815
-0.000356832
0.00091525
0.000398443
-0.000349872
0.000863204
0.000394655
-0.000342608
0.000807517
0.000391431
-0.000335744
0.000747934
0.000387778
-0.000328195
0.000684113
0.000385534
-0.000321713
0.000613704
0.000384267
-0.000313858
0.000533426
0.000387811
-0.000307533
0.000432644
0.000401808
-0.000301027
0.000286248
0.00044638
-0.000299983
2.57293e-05
0.000576329
-0.000315811
0.000973455
-0.00056204
-0.000385686
0.00103562
0.000125397
-0.00104569
0.00103093
0.000156343
0.00103063
0.000184886
0.00103451
0.000211269
0.00104124
0.000235744
0.00105075
0.000257813
0.00106188
0.000278508
0.00107443
0.000297187
0.0010879
0.000313961
0.00110166
0.000329506
0.00111551
0.000343519
0.00112919
0.000355945
0.00114169
0.000367606
0.00115254
0.000377955
0.00116261
0.000386807
0.00117087
0.000395201
0.00117704
0.000402241
0.00118074
0.000409056
0.00118212
0.00041434
0.00118075
0.000419558
0.00117693
0.00042376
0.00117017
0.00042743
0.00116018
0.000430804
0.00114685
0.000433578
0.00113046
0.000435943
0.00111019
0.000437972
0.00108671
0.000439602
0.00105971
0.000440853
0.00102849
0.000442255
0.000994055
0.000442719
0.000955155
0.000444046
0.0009122
0.00044477
0.00086511
0.000445533
0.000812884
0.000446881
0.000755332
0.000448984
0.000691103
0.000452006
0.000617449
0.000459188
0.0005295
0.000472216
0.000420061
0.000497251
0.00027133
0.000550538
5.40627e-05
0.000663648
-0.000285555
0.000915947
0.00144448
-0.000756578
0.000936548
0.00013141
-0.000942562
0.000935092
0.0001578
0.000937046
0.000182932
0.000942244
0.000206071
0.00095022
0.000227768
0.000959792
0.000248241
0.000971451
0.000266849
0.000983788
0.000284849
0.000996902
0.000300848
0.0010105
0.000315906
0.00102396
0.000330062
0.00103643
0.00034347
0.00104878
0.000355262
0.00106
0.000366737
0.00106972
0.00037708
0.00107762
0.000387307
0.00108402
0.000395841
0.00108835
0.00040472
0.00109032
0.000412375
0.00109002
0.000419852
0.00108723
0.000426555
0.00108145
0.000433214
0.00107302
0.000439228
0.00106183
0.000444766
0.00104719
0.000450588
0.00102944
0.000455718
0.00100789
0.000461154
0.000982956
0.000465787
0.000954332
0.00047088
0.000921374
0.000475676
0.000884198
0.000481223
0.000842517
0.000486451
0.000794661
0.000493389
0.000741202
0.00050034
0.000679766
0.00051042
0.000608206
0.000523566
0.000523075
0.000544319
0.000419115
0.000576176
0.000285383
0.000630983
0.000106423
0.000729498
-0.000140979
0.00091105
-0.000483714
0.00125868
0.00184084
-0.000880076
0.000845478
0.00013449
-0.000848558
0.000845645
0.000157633
0.000849174
0.000179403
0.000855248
0.000199996
0.000863249
0.000219768
0.000873194
0.000238296
0.000884063
0.000255979
0.00089631
0.000272603
0.000908623
0.000288534
0.000920846
0.000303683
0.000933181
0.000317727
0.000945357
0.000331294
0.000956634
0.000343985
0.000967006
0.000356365
0.000975825
0.000368262
0.000983748
0.000379384
0.000989515
0.000390074
0.000993862
0.000400373
0.000995941
0.000410296
0.00099573
0.000420062
0.000993437
0.000428848
0.000988511
0.000438141
0.000981056
0.000446683
0.000970602
0.000455219
0.000957361
0.000463829
0.000940621
0.000472459
0.000921298
0.000480477
0.000897764
0.00048932
0.000870486
0.000498158
0.000838829
0.000507332
0.000802799
0.000517253
0.000760774
0.000528477
0.000713149
0.000541013
0.000657775
0.000555713
0.000593626
0.000574569
0.000517269
0.000599923
0.000425354
0.000636235
0.000312274
0.000689256
0.000168037
0.000775219
-1.94764e-05
0.000917012
-0.000267719
0.00115929
-0.000582877
0.00157384
0.00218854
-0.000930579
0.0007623
0.000135507
-0.000763317
0.000763931
0.000156002
0.000768285
0.000175048
0.000774762
0.00019352
0.000782769
0.00021176
0.000792626
0.00022844
0.000802899
0.000245706
0.000813799
0.000261702
0.000825298
0.000277035
0.000836723
0.000292258
0.000848127
0.000306324
0.000858826
0.000320595
0.00086913
0.00033368
0.000878424
0.000347071
0.000886774
0.000359912
0.000893847
0.00037231
0.000899044
0.000384877
0.000902823
0.000396594
0.000904604
0.000408515
0.000904523
0.000420143
0.000902099
0.000431273
0.000897652
0.000442588
0.000890778
0.000453557
0.000880795
0.000465203
0.000868346
0.000476278
0.00085307
0.000487734
0.000834043
0.000499504
0.000811861
0.000511503
0.000785808
0.000524211
0.00075517
0.000537971
0.000720018
0.000552404
0.000678984
0.000569511
0.000631832
0.000588165
0.000576327
0.000611218
0.000510707
0.000640189
0.000432979
0.000677651
0.000339203
0.000730011
0.000222902
0.000805556
7.74265e-05
0.000920695
-0.000106703
0.00110114
-0.000341246
0.00139384
-0.000627087
0.00185968
0.00249886
-0.0009374
0.000685935
0.000135567
-0.000685995
0.000689015
0.000152923
0.000693935
0.000170127
0.000700267
0.000187188
0.000708473
0.000203554
0.000717203
0.000219711
0.000727277
0.000235631
0.00073756
0.00025142
0.000747718
0.000266876
0.000758258
0.000281718
0.000768247
0.000296335
0.000778256
0.000310586
0.000787454
0.000324483
0.000795885
0.00033864
0.00080337
0.000352427
0.000809569
0.000366111
0.000814459
0.000379987
0.000817549
0.000393504
0.000819324
0.00040674
0.000818956
0.000420511
0.000816397
0.000433831
0.00081212
0.000446865
0.000804925
0.000460752
0.000795852
0.000474276
0.000783847
0.000488282
0.000768962
0.00050262
0.000751072
0.000517393
0.000729921
0.000532655
0.000704939
0.000549192
0.000676034
0.000566876
0.000641897
0.000586541
0.000602436
0.000608972
0.000555886
0.000634715
0.000501908
0.000665197
0.000437452
0.000704645
0.00036025
0.000754853
0.000267236
0.000823024
0.000152643
0.000920149
1.18739e-05
0.00106146
-0.000163542
0.00127656
-0.000381252
0.00161155
-0.000638988
0.00211742
0.00277383
-0.000913961
0.000616891
0.000133712
-0.000615036
0.000620569
0.000149244
0.000625837
0.00016486
0.000632384
0.000180641
0.000640067
0.000195871
0.000648774
0.000211004
0.000657671
0.000226734
0.000666878
0.000242213
0.000676602
0.000257152
0.000685829
0.000272492
0.000695191
0.000286972
0.000703916
0.000301861
0.000711971
0.000316428
0.000719438
0.000331173
0.000726016
0.00034585
0.000731689
0.000360438
0.000736334
0.000375342
0.000739055
0.000390783
0.000739835
0.00040596
0.00073954
0.000420806
0.000737392
0.000435979
0.000732611
0.000451646
0.000725957
0.000467406
0.000717371
0.000482862
0.000705858
0.000499795
0.000691525
0.000516953
0.000674488
0.00053443
0.000653691
0.000553452
0.000630097
0.000572786
0.000602249
0.000594723
0.000569915
0.000618875
0.000532425
0.000646462
0.000488235
0.000678905
0.000435985
0.000717447
0.000374629
0.000766001
0.000300402
0.00082908
0.000209808
0.000913618
0.000100015
0.00102994
-3.42137e-05
0.00119569
-0.000200063
0.00144241
-0.000401864
0.00181335
-0.000633442
0.00234899
0.00301938
-0.000878996
0.000554758
0.000131415
-0.000552461
0.00055896
0.000145041
0.00056434
0.00015948
0.000570854
0.000174127
0.000577859
0.000188866
0.000585643
0.000203221
0.000594457
0.000217919
0.000602995
0.000233675
0.000611378
0.000248769
0.000620116
0.000263754
0.000628025
0.000279062
0.000636101
0.000293785
0.000643503
0.000309026
0.000649917
0.000324759
0.000656096
0.00033967
0.000661377
0.000355157
0.00066492
0.0003718
0.000667439
0.000388264
0.00066857
0.000404829
0.000667681
0.000421694
0.000665051
0.00043861
0.000660735
0.000455961
0.000654397
0.000473745
0.000645726
0.000491533
0.000634836
0.000510685
0.000621336
0.000530453
0.000604368
0.000551398
0.000585256
0.000572564
0.000562229
0.000595814
0.000536322
0.00062063
0.000505612
0.000649586
0.000469785
0.000682289
0.000427728
0.000720962
0.000378951
0.000766223
0.000320707
0.000824245
0.000251851
0.000897935
0.000166149
0.00099932
6.04435e-05
0.00113565
-6.50644e-05
0.0013212
-0.00021728
0.00159462
-0.000407324
0.00200339
-0.000616659
0.00255833
0.00323953
-0.000836805
0.000498609
-0.000494654
0.00012746
0.000503252
0.000140398
0.000508541
0.000154191
0.000514595
0.000168073
0.000521324
0.000182137
0.000528894
0.00019565
0.000536594
0.00021022
0.000544385
0.000225884
0.000551919
0.000241235
0.000559111
0.000256561
0.00056651
0.000271663
0.000573758
0.000286537
0.000580628
0.000302156
0.000585917
0.00031947
0.000590513
0.000335074
0.000595335
0.000350336
0.000599156
0.000367978
0.000600977
0.000386443
0.000601514
0.000404292
0.000601392
0.000421816
0.000598976
0.000441026
0.000594334