/*--------------------------------*- C++ -*----------------------------------*\
| =========                 |                                                 |
| \\      /  F ield         | OpenFOAM: The Open Source CFD Toolbox           |
|  \\    /   O peration     | Version:  2.3.0                                 |
|   \\  /    A nd           | Web:      www.OpenFOAM.org                      |
|    \\/     M anipulation  |                                                 |
\*---------------------------------------------------------------------------*/
FoamFile
{
    version     2.0;
    format      ascii;
    class       volScalarField;
    location    "200";
    object      p;
}
// * * * * * * * * * * * * * * * * * * * * * * * * * * * * * * * * * * * * * //

dimensions      [0 2 -2 0 0 0 0];

internalField   nonuniform List<scalar> 
7826
(
-0.00233269
-0.778248
-1.2978
-1.50275
-1.41173
-1.08265
-0.576617
0.0625629
0.827696
1.74331
2.84399
4.12849
5.52191
7.24921
10.6098
2.18555
1.73805
1.3404
1.0537
0.945927
1.08646
1.53144
2.31018
3.42397
4.84554
6.52971
8.41993
10.4558
12.5979
14.8182
4.47347
4.65064
4.98561
5.47883
6.10944
6.84581
7.65609
8.51399
9.39929
10.2969
11.1946
12.084
12.9543
13.8012
14.6257
6.04625
6.32153
6.68348
7.12856
7.65441
8.25332
8.91438
9.62499
10.3715
11.1415
11.9216
12.7019
13.4716
14.2243
14.9559
7.31997
7.68297
8.11154
8.59237
9.11578
9.67027
10.2456
10.8334
11.4265
12.0199
12.609
13.1905
13.7612
14.319
14.8634
8.26162
8.62281
9.02735
9.4611
9.92015
10.3986
10.8913
11.3937
11.9013
12.4111
12.9199
13.4252
13.9246
14.4159
14.8981
8.99791
9.34134
9.72002
10.1153
10.526
10.9483
11.3791
11.8158
12.2559
12.6977
13.1391
13.579
14.0152
14.4465
14.8719
9.57576
9.88543
10.2304
10.5855
10.9517
11.3272
11.71
12.0987
12.4917
12.8876
13.285
13.6828
14.0791
14.4729
14.8627
10.0392
10.3123
10.6239
10.944
11.2738
11.612
11.9575
12.3091
12.6659
13.0266
13.3902
13.7555
14.1211
14.4857
14.848
10.4051
10.6491
10.9297
11.2201
11.5204
11.8286
12.1451
12.4679
12.7967
13.1307
13.4684
13.8086
14.1506
14.4929
14.8344
10.6749
10.91
11.1685
11.4352
11.7132
11.997
12.2909
12.5907
12.8974
13.2101
13.5282
13.8484
14.1721
14.4972
14.8222
10.8727
11.1121
11.3561
11.6031
11.8644
12.1275
12.4041
12.6849
12.9746
13.2697
13.5739
13.8808
14.1937
14.5073
14.8192
11.0959
11.3018
11.5186
11.7481
11.9948
12.2395
12.502
12.768
13.0474
13.3297
13.615
13.8996
14.1914
14.4911
14.7938
11.3246
11.4856
11.7044
11.8855
12.1486
12.3378
12.6197
12.8566
13.1198
13.3896
13.6898
13.8846
14.1282
14.401
14.6938
17.3791
20.3056
21.8548
23.4093
24.9716
26.432
27.7625
28.9584
29.9885
30.7921
31.2963
31.4385
31.1905
30.5903
29.7855
17.0311
19.2108
21.2527
23.1383
24.8331
26.2948
27.4839
28.37
28.9419
29.2111
29.2099
28.9899
28.6107
28.1333
27.6234
15.4412
16.2712
17.1253
18.0067
18.9087
19.8224
20.738
21.6405
22.5105
23.3217
24.0418
24.6344
25.0678
25.3326
25.4608
15.6753
16.3989
17.1352
17.8807
18.6281
19.3666
20.0871
20.7767
21.4242
22.0178
22.5462
22.9994
23.3703
23.6612
23.8771
15.4012
15.9446
16.4993
17.0646
17.6381
18.2162
18.7953
19.3703
19.9351
20.4821
21.001
21.4807
21.9089
22.2797
22.5767
15.3747
15.8538
16.3387
16.8285
17.3209
17.8132
18.3028
18.7864
19.2606
19.7211
20.1631
20.5811
20.9687
21.3244
21.6519
15.2936
15.717
16.144
16.5737
17.0045
17.4345
17.8619
18.2847
18.701
19.1078
19.5025
19.8813
20.2399
20.5751
20.8774
15.2499
15.6376
16.027
16.4171
16.8059
17.1923
17.5747
17.9516
18.3217
18.6832
19.0344
19.3732
19.6967
20.0017
20.2931
15.2084
15.5687
15.9294
16.2893
16.6468
17.0004
17.3493
17.692
18.0274
18.3545
18.6719
18.9784
19.2709
19.5456
19.8221
15.1746
15.5141
15.8534
16.1907
16.5244
16.853
17.176
17.4921
17.8004
18.1001
18.3905
18.6707
18.9391
19.1936
19.4622
15.1473
15.4704
15.7937
16.1131
16.4274
16.7356
17.038
17.3328
17.6196
17.8972
18.1658
18.424
18.6716
18.9062
19.1527
15.1327
15.4413
15.7511
16.0542
16.3512
16.6414
16.9277
17.2049
17.4743
17.7338
17.9855
18.2247
18.4548
18.6722
18.8929
15.0954
15.3923
15.6866
15.9874
16.2793
16.5548
16.8279
17.0924
17.3495
17.5927
17.8293
18.0496
18.2638
18.4641
18.67
15.0296
15.2786
15.6058
15.9219
16.215
16.4706
16.7287
16.9858
17.2349
17.4631
17.6817
17.8845
18.0802
18.254
18.4179
11.6699
11.7762
11.9247
12.1228
12.3554
12.5981
12.8236
13.0104
13.1463
13.2285
13.2615
13.2501
13.1978
13.0989
13.1244
11.7868
11.8209
11.8361
11.8291
11.7969
11.7441
11.6799
11.6153
11.5591
11.5163
11.4875
11.4692
11.4608
11.4455
11.4619
11.8176
11.8035
11.7587
11.7012
11.6436
11.5961
11.5642
11.5485
11.5464
11.553
11.5632
11.5708
11.5773
11.5864
11.6084
11.9177
11.9318
11.9398
11.9536
11.9747
12.0015
12.0313
12.0614
12.0898
12.1148
12.135
12.148
12.1553
12.1667
12.1884
12.0412
12.0759
12.1054
12.1362
12.1671
12.1965
12.2242
12.2505
12.2752
12.2978
12.3173
12.3318
12.3418
12.3562
12.3802
12.121
12.1587
12.1811
12.202
12.2226
12.2428
12.2635
12.2847
12.3059
12.3262
12.344
12.3579
12.3679
12.3828
12.4079
12.1907
12.2184
12.2367
12.2555
12.2744
12.2932
12.312
12.3308
12.349
12.366
12.3806
12.3917
12.4001
12.4139
12.4395
12.2572
12.2801
12.2986
12.3172
12.3353
12.3521
12.3677
12.3821
12.3953
12.4068
12.4162
12.4229
12.4281
12.4402
12.466
12.2978
12.3317
12.3525
12.3709
12.387
12.4006
12.4117
12.4203
12.4265
12.4301
12.4308
12.4292
12.4276
12.4357
12.4613
12.3649
12.383
12.4017
12.4187
12.4333
12.4448
12.453
12.4573
12.4571
12.4522
12.4419
12.4263
12.4107
12.4066
12.4271
12.4138
12.4322
12.4482
12.4632
12.4764
12.4867
12.4923
12.4917
12.484
12.4687
12.4418
12.4021
12.3565
12.3357
12.3524
12.4578
12.4785
12.4948
12.5108
12.5271
12.5424
12.5541
12.5586
12.5535
12.5425
12.5195
12.452
12.3592
12.2663
12.2473
12.4997
12.5113
12.5221
12.5342
12.5476
12.5596
12.5669
12.56
12.5367
12.5128
12.4824
12.3765
12.1266
12.0389
12.0027
12.5758
12.595
12.6045
12.6196
12.6534
12.6987
12.7578
12.8102
12.808
12.8432
13.0402
12.9527
12.5975
12.0385
11.7266
13.1821
13.2256
13.3911
13.5078
13.5897
13.6312
13.6253
13.5677
13.4648
13.337
13.2156
13.1331
13.1165
13.173
13.2868
11.4911
11.516
11.5746
11.6256
11.6984
11.7959
11.9233
12.0793
12.2574
12.4453
12.6282
12.7932
12.9394
13.0756
13.2093
11.6394
11.6738
11.7184
11.7617
11.8103
11.8658
11.936
12.027
12.1433
12.2862
12.4516
12.6292
12.8077
12.9784
13.137
12.217
12.2517
12.2937
12.3366
12.3781
12.4194
12.4636
12.5124
12.5675
12.6309
12.7052
12.7926
12.8944
13.0096
13.1355
12.4076
12.4393
12.4778
12.5176
12.5562
12.5957
12.6385
12.6854
12.737
12.7929
12.8533
12.9193
12.9924
13.0749
13.1689
12.4352
12.4667
12.506
12.5471
12.5872
12.6285
12.6728
12.7212
12.7743
12.8324
12.8955
12.9634
13.0358
13.1124
13.1946
12.4671
12.4999
12.5425
12.5877
12.6325
12.6782
12.7259
12.7761
12.829
12.8849
12.9442
13.0072
13.0739
13.144
13.2187
12.494
12.5287
12.5756
12.6267
12.6786
12.7314
12.7853
12.84
12.8952
12.9507
13.0069
13.0641
13.1226
13.1827
13.2459
12.4905
12.5295
12.5843
12.6453
12.7085
12.7723
12.8355
12.897
12.9561
13.0128
13.0676
13.1209
13.1733
13.2253
13.2796
12.456
12.5009
12.5683
12.6462
12.728
12.8091
12.8858
12.9557
13.0185
13.0752
13.1274
13.1763
13.223
13.268
13.3143
12.3902
12.4545
12.5472
12.6531
12.7616
12.8646
12.9542
13.0295
13.0915
13.1441
13.1905
13.2328
13.2723
13.3095
13.3459
12.2866
12.3641
12.4837
12.6293
12.7849
12.9262
13.04
13.1178
13.1735
13.2165
13.2541
13.2886
13.3202
13.3492
13.3752
12.1436
12.3133
12.5082
12.7233
12.9194
13.0974
13.1814
13.237
13.2648
13.2905
13.3173
13.3442
13.3666
13.3885
13.4092
11.9831
12.0574
12.2319
12.5037
12.8453
13.1262
13.3042
13.3405
13.3446
13.3463
13.3637
13.3886
13.4077
13.4242
13.4374
-90.4286
-84.8496
-78.8067
-72.6811
-66.0052
-58.6301
-50.7439
-42.6191
-34.5768
-26.9679
-20.1288
-14.309
-9.60867
-5.94733
-3.04826
-14.5607
-15.7403
-16.5248
-17.1216
-17.624
-17.9983
-18.1469
-17.9515
-17.2955
-16.0926
-14.3239
-12.0671
-9.49974
-6.8529
-4.22216
-8.69817
-9.24362
-9.3002
-9.38503
-9.54206
-9.68285
-9.75817
-9.74059
-9.60068
-9.29895
-8.78521
-8.00455
-6.91931
-5.547
-3.91665
-12.6795
-12.6892
-12.3207
-12.0738
-11.8205
-11.4871
-11.0568
-10.5184
-9.85797
-9.06811
-8.15297
-7.12315
-5.98629
-4.74621
-3.3856
-9.68733
-9.40428
-9.1745
-9.08596
-8.96558
-8.79875
-8.58315
-8.30363
-7.93581
-7.45352
-6.83381
-6.06305
-5.14237
-4.09057
-2.99231
-5.58983
-5.30657
-5.31016
-5.33637
-5.33642
-5.32582
-5.30097
-5.24651
-5.1443
-4.97279
-4.706
-4.31534
-3.77516
-3.06441
-2.23109
-3.49574
-3.42903
-3.48148
-3.48637
-3.48586
-3.48556
-3.47764
-3.45019
-3.39158
-3.28774
-3.1215
-2.87238
-2.51763
-2.02786
-1.41415
-2.40444
-2.41025
-2.42497
-2.40931
-2.39835
-2.38556
-2.36527
-2.33024
-2.272
-2.17953
-2.03952
-1.83667
-1.55445
-1.17006
-0.684945
-1.41888
-1.42876
-1.42316
-1.40854
-1.39687
-1.38256
-1.3625
-1.33253
-1.28624
-1.21486
-1.10738
-0.95046
-0.72933
-0.424447
-0.0325947
-0.535137
-0.536803
-0.526579
-0.514719
-0.503216
-0.489551
-0.471089
-0.445421
-0.407814
-0.351633
-0.268257
-0.146772
0.0258945
0.267964
0.593846
0.21628
0.219021
0.228763
0.239492
0.250779
0.263932
0.281437
0.30499
0.3383
0.386582
0.456665
0.557325
0.699444
0.898503
1.17483
0.876031
0.879816
0.888545
0.89878
0.909779
0.922158
0.937781
0.958582
0.987585
1.02903
1.08857
1.17352
1.2929
1.4589
1.69159
1.46832
1.47205
1.4802
1.49019
1.501
1.51249
1.52601
1.54404
1.56887
1.60397
1.65407
1.72531
1.82542
1.96444
2.16056
2.00232
2.00585
2.01361
2.0232
2.03346
2.04386
2.05564
2.07146
2.09294
2.12293
2.16538
2.22535
2.30922
2.42498
2.58988
2.48546
2.48877
2.49607
2.50509
2.51458
2.52411
2.5348
2.54901
2.56802
2.59432
2.63136
2.68358
2.75671
2.85803
3.01105
2.92579
2.92886
2.93566
2.94405
2.95286
2.962
2.97212
2.98494
3.00195
3.02537
3.05827
3.10468
3.16995
3.26014
3.39793
3.32842
3.33127
3.33763
3.34553
3.35392
3.36299
3.37269
3.3842
3.39945
3.42031
3.44943
3.49035
3.54783
3.62655
3.74574
3.69867
3.70136
3.70738
3.71488
3.72294
3.7318
3.7409
3.75122
3.76492
3.78348
3.80918
3.84508
3.89539
3.96395
4.06672
4.04132
4.04386
4.04956
4.0567
4.06439
4.07279
4.0812
4.09057
4.10302
4.11967
4.14255
4.17437
4.21881
4.27907
4.37049
4.36033
4.36272
4.3681
4.37485
4.38208
4.38991
4.39777
4.40649
4.41787
4.43294
4.45355
4.48218
4.5223
4.57708
4.65852
4.65782
4.66007
4.66513
4.67148
4.67827
4.68562
4.69322
4.70153
4.7119
4.7255
4.74399
4.76952
4.80502
4.85304
4.92284
4.93633
4.93842
4.94319
4.94918
4.9556
4.96261
4.97011
4.97807
4.98746
4.99976
5.01637
5.03918
5.07091
5.11461
5.17296
5.19804
5.20001
5.20455
5.21025
5.21643
5.22321
5.23063
5.23823
5.24685
5.25817
5.27337
5.29415
5.32285
5.36309
5.42535
5.44507
5.44696
5.4513
5.45679
5.46276
5.46935
5.47655
5.48377
5.49177
5.50234
5.51639
5.53553
5.56181
5.59791
5.65391
5.6789
5.6807
5.68486
5.69014
5.6959
5.70226
5.70914
5.71597
5.72351
5.73342
5.74648
5.76418
5.78844
5.82103
5.87099
5.90055
5.90228
5.90626
5.91132
5.91685
5.92294
5.92949
5.93608
5.94334
5.95273
5.96502
5.98169
6.00471
6.03583
6.08375
6.11063
6.11228
6.11609
6.12095
6.12627
6.13213
6.13844
6.14497
6.15212
6.16104
6.17269
6.18847
6.21035
6.23993
6.28429
6.31015
6.31171
6.31535
6.32
6.32509
6.33072
6.33682
6.34334
6.35031
6.35862
6.36942
6.3839
6.4038
6.43033
6.46337
6.50012
6.50161
6.5051
6.50955
6.51444
6.51987
6.52581
6.53227
6.53898
6.54666
6.55664
6.56989
6.58791
6.61229
6.64203
6.68171
6.68314
6.68651
6.6908
6.69554
6.70083
6.70665
6.71301
6.71946
6.72668
6.73613
6.74859
6.7655
6.78898
6.8162
6.85554
6.85694
6.86022
6.8644
6.86905
6.87426
6.87998
6.88621
6.89244
6.89933
6.90834
6.92015
6.93597
6.9579
6.9832
7.02348
7.02479
7.02791
7.03191
7.03636
7.04137
7.04685
7.05278
7.05868
7.06519
7.0737
7.08479
7.09962
7.11997
7.13829
7.18413
7.18542
7.18847
7.19238
7.19673
7.20163
7.20696
7.21267
7.21835
7.22461
7.23261
7.24293
7.2566
7.27612
7.28952
7.33913
7.34039
7.34334
7.34712
7.35134
7.35607
7.36122
7.36672
7.37234
7.3785
7.38621
7.39617
7.40935
7.42943
7.44961
7.48911
7.49027
7.49305
7.49664
7.50066
7.50516
7.51008
7.51537
7.52093
7.52696
7.53425
7.54372
7.55605
7.57433
7.58939
7.6325
7.63366
7.63641
7.63994
7.64387
7.64829
7.65313
7.65835
7.66394
7.66985
7.67674
7.68571
7.69727
7.71454
7.73236
7.77113
7.77225
7.7749
7.77831
7.78213
7.78643
7.79117
7.79631
7.80191
7.8077
7.81427
7.82288
7.83397
7.85023
7.86798
7.9058
7.90685
7.90938
7.91264
7.9163
7.92043
7.925
7.92999
7.93544
7.94098
7.94717
7.95537
7.96592
7.98094
7.99746
8.03535
8.03637
8.03885
8.04204
8.04563
8.0497
8.05421
8.05909
8.06438
8.06962
8.07536
8.08289
8.09242
8.10547
8.11262
8.1611
8.16211
8.16454
8.16765
8.17116
8.17514
8.17955
8.1843
8.18938
8.19434
8.19969
8.20659
8.21513
8.22753
8.23201
8.28362
8.28459
8.28695
8.29
8.29344
8.29735
8.30168
8.30635
8.31133
8.31621
8.32154
8.32843
8.33704
8.35074
8.35876
8.40321
8.40415
8.40645
8.40942
8.41278
8.4166
8.42084
8.42542
8.43027
8.43512
8.44046
8.44728
8.45564
8.46906
8.47832
8.51945
8.52038
8.52262
8.52551
8.52879
8.53252
8.53668
8.54115
8.54589
8.55074
8.55606
8.56272
8.57084
8.58359
8.59702
8.63241
8.63332
8.63551
8.63834
8.64155
8.6452
8.64925
8.65361
8.65825
8.6631
8.66834
8.67474
8.6826
8.69455
8.70883
8.74275
8.74359
8.74569
8.74841
8.75149
8.755
8.75891
8.76314
8.76767
8.77249
8.77765
8.78381
8.79153
8.80281
8.8233
8.84979
8.85063
8.85269
8.85534
8.85835
8.86176
8.86556
8.86966
8.87402
8.87869
8.88347
8.88884
8.89537
8.90311
8.91243
8.95416
8.95499
8.957
8.95959
8.96253
8.96587
8.96958
8.97358
8.97786
8.98245
8.98701
8.992
8.99825
9.00603
9.02137
9.05696
9.05772
9.05964
9.06212
9.06495
9.06816
9.07177
9.0757
9.07993
9.08451
9.0891
9.09422
9.10098
9.10938
9.1264
9.15669
9.15746
9.15938
9.16184
9.16464
9.16784
9.17144
9.17537
9.17959
9.18416
9.18872
9.19378
9.20056
9.20855
9.22479
9.25398
9.25475
9.25663
9.25905
9.26181
9.26497
9.26853
9.2724
9.27655
9.28097
9.28527
9.28991
9.29604
9.30287
9.31672
9.34973
9.35044
9.35224
9.35457
9.35723
9.36028
9.3637
9.36745
9.37146
9.37569
9.37981
9.38427
9.39022
9.39677
9.41302
9.44293
9.44363
9.44541
9.44771
9.45033
9.45334
9.45673
9.46043
9.46436
9.46846
9.47244
9.47669
9.48222
9.48757
9.49673
9.534
9.53472
9.5365
9.53878
9.54139
9.5444
9.54778
9.55147
9.55538
9.55948
9.56353
9.56791
9.57368
9.58007
9.59445
9.6236
9.62429
9.626
9.62824
9.6308
9.63375
9.63709
9.64076
9.64468
9.64881
9.65306
9.65774
9.66397
9.67121
9.68415
9.71132
9.71199
9.71368
9.71586
9.71836
9.72125
9.72452
9.7281
9.73193
9.73597
9.74019
9.74471
9.75038
9.7568
9.76673
9.79677
9.79744
9.79909
9.80124
9.8037
9.80655
9.80978
9.81331
9.81707
9.82105
9.82524
9.82963
9.83491
9.8411
9.85195
9.88049
9.88117
9.88281
9.88494
9.88739
9.89022
9.89341
9.89693
9.90069
9.90468
9.90898
9.91344
9.91868
9.92489
9.93678
9.96333
9.96396
9.96553
9.96759
9.96994
9.9727
9.97581
9.97928
9.98301
9.98701
9.99138
9.99588
10.0011
10.007
10.0185
10.044
10.0447
10.0462
10.0483
10.0507
10.0534
10.0566
10.06
10.0638
10.0678
10.0723
10.0767
10.0818
10.0874
10.0973
10.1237
10.1243
10.1258
10.1279
10.1302
10.1329
10.136
10.1395
10.1432
10.1474
10.1519
10.1565
10.1618
10.168
10.1803
10.2019
10.2025
10.204
10.206
10.2083
10.211
10.2141
10.2176
10.2214
10.2256
10.2303
10.2351
10.241
10.248
10.2616
10.2787
10.2793
10.2808
10.2827
10.285
10.2876
10.2906
10.2941
10.2979
10.3021
10.3067
10.3114
10.317
10.3235
10.3333
10.3527
10.3534
10.3549
10.3569
10.3592
10.3619
10.365
10.3685
10.3723
10.3765
10.381
10.3855
10.3905
10.396
10.4047
10.4268
10.4274
10.4288
10.4307
10.4329
10.4354
10.4385
10.4419
10.4457
10.4499
10.4546
10.4594
10.4651
10.4721
10.4868
10.4984
10.499
10.5004
10.5023
10.5045
10.5071
10.5101
10.5136
10.5175
10.5219
10.5268
10.532
10.5384
10.5456
10.5583
10.5677
10.5682
10.5696
10.5715
10.5736
10.5762
10.5793
10.5828
10.5869
10.5915
10.5966
10.6023
10.6091
10.6166
10.63
10.6333
10.6339
10.6352
10.6371
10.6393
10.642
10.6451
10.6489
10.6532
10.6583
10.664
10.6706
10.6785
10.6875
10.7041
10.6962
10.6967
10.698
10.6998
10.702
10.7047
10.708
10.712
10.7168
10.7225
10.7295
10.7378
10.7484
10.7607
10.7869
10.7511
10.7516
10.7529
10.7548
10.7571
10.76
10.7637
10.7684
10.7741
10.7812
10.7901
10.801
10.8148
10.8297
10.8521
10.8017
10.8023
10.8036
10.8055
10.808
10.8112
10.8153
10.8206
10.8275
10.8362
10.8473
10.8614
10.8791
10.8988
10.9258
10.8265
10.827
10.8283
10.8304
10.8333
10.8374
10.8432
10.8511
10.8616
10.8753
10.8927
10.9143
10.9403
10.9687
11.0003
10.8712
10.8718
10.8734
10.8758
10.879
10.8835
10.8899
10.8989
10.9113
10.9282
10.9503
10.9782
11.0114
11.0476
11.0834
10.7467
10.7467
10.7484
10.7525
10.7604
10.7733
10.7926
10.8196
10.8554
10.9002
10.9531
11.0115
11.0713
11.1279
11.1745
10.955
10.957
10.9569
10.9622
10.9708
10.9826
10.9984
11.0196
11.0473
11.0824
11.1246
11.1721
11.2209
11.2668
11.3019
9.68346
9.60571
9.66426
9.74398
9.84111
9.9641
10.1188
10.3042
10.5131
10.7327
10.9452
11.132
11.2777
11.3771
11.4278
112.968
107.816
102.131
96.4393
90.337
83.6518
76.5262
69.1815
61.8815
54.9269
48.6206
43.1977
38.7614
35.2726
32.6699
44.1001
43.6159
44.3211
44.9951
45.4741
45.7858
45.902
45.7317
45.1703
44.1309
42.58
40.5661
38.2292
35.7748
33.5189
37.1842
37.1042
37.5281
37.7124
37.8496
37.9702
38.046
38.0408
37.9267
37.6714
37.2304
36.5487
35.5791
34.3133
32.9119
39.1934
39.1958
39.2907
39.1545
38.9899
38.7802
38.4992
38.1241
37.6397
37.0357
36.3098
35.4644
34.4996
33.4045
32.2451
36.033
36.2911
36.3506
36.3003
36.2546
36.186
36.0789
35.9178
35.6826
35.3478
34.8876
34.2823
33.5243
32.6129
31.6037
33.3771
33.6799
33.6592
33.6438
33.6402
33.622
33.5833
33.5183
33.4157
33.2579
33.0222
32.6813
32.2082
31.5783
30.8093
32.2175
32.3203
32.2623
32.2545
32.2403
32.2071
32.1551
32.0815
31.9792
31.8381
31.6455
31.3841
31.0334
30.5669
29.9692
31.0592
31.0708
31.0487
31.055
31.0448
31.0203
30.9813
30.924
30.842
30.7271
30.5686
30.3535
30.0666
29.69
29.196
29.8698
29.8688
29.8727
29.8812
29.8776
29.8671
29.8467
29.8126
29.7602
29.6826
29.5708
29.4129
29.1956
28.9071
28.5351
28.8674
28.8697
28.8791
28.8846
28.884
28.8796
28.8675
28.8449
28.8083
28.7528
28.6713
28.5542
28.3898
28.1672
27.8775
28.0314
28.0357
28.044
28.0481
28.0489
28.0469
28.0385
28.0216
27.9933
27.9496
27.8849
27.7913
27.6587
27.4761
27.2392
27.2942
27.2986
27.3059
27.3108
27.313
27.3125
27.3068
27.2943
27.2725
27.238
27.186
27.1098
27.0005
26.8476
26.6509
26.6307
26.6352
26.6428
26.6495
26.6532
26.6537
26.6501
26.6411
26.6245
26.5975
26.5561
26.495
26.4068
26.2822
26.1254
26.0346
26.0394
26.0474
26.0553
26.0595
26.0606
26.0587
26.0523
26.0395
26.018
25.9845
25.9345
25.8618
25.7573
25.6217
25.4982
25.5029
25.5107
25.5185
25.5225
25.5239
25.523
25.5182
25.508
25.4903
25.4623
25.4199
25.3578
25.2673
25.147
25.0102
25.0144
25.0216
25.0286
25.0323
25.0339
25.0338
25.0302
25.022
25.0074
24.984
24.9484
24.8961
24.8207
24.7248
24.5609
24.5646
24.5711
24.5775
24.5813
24.5833
24.5838
24.5812
24.5746
24.5626
24.543
24.513
24.4687
24.4044
24.3243
24.1425
24.1458
24.152
24.1584
24.163
24.1658
24.1667
24.1649
24.1596
24.1495
24.1328
24.1068
24.0679
24.0102
23.937
23.7523
23.7555
23.7617
23.7683
23.7737
23.7771
23.7782
23.7771
23.773
23.7645
23.7502
23.7276
23.6937
23.643
23.5794
23.3889
23.3921
23.3983
23.405
23.4107
23.4142
23.4155
23.4151
23.412
23.405
23.3929
23.3735
23.3441
23.3
23.2456
23.0501
23.0533
23.0592
23.0658
23.0713
23.0746
23.0761
23.0762
23.0739
23.0681
23.0578
23.0411
23.0158
22.9775
22.9313
22.7323
22.7353
22.7409
22.747
22.7521
22.7552
22.7568
22.7574
22.7556
22.7508
22.7419
22.7273
22.7051
22.671
22.6298
22.4321
22.4348
22.44
22.4457
22.4504
22.4535
22.4554
22.4561
22.4548
22.4506
22.4428
22.4298
22.4099
22.379
22.3407
22.1463
22.1488
22.1536
22.1591
22.1637
22.1673
22.1696
22.1705
22.1695
22.166
22.1591
22.1475
22.1296
22.1019
22.068
21.8738
21.8761
21.8808
21.8861
21.8909
21.8951
21.8978
21.8988
21.8982
21.8954
21.8896
21.8795
21.8637
21.8392
21.8146
21.614
21.6163
21.6209
21.6262
21.6312
21.6357
21.6386
21.6398
21.6397
21.6375
21.6326
21.6239
21.6102
21.5885
21.568
21.3661
21.3684
21.373
21.3783
21.3833
21.3879
21.3908
21.3922
21.3924
21.3908
21.3866
21.3789
21.3666
21.3464
21.3281
21.1297
21.1319
21.1363
21.1415
21.1464
21.1508
21.1536
21.155
21.1555
21.1543
21.1507
21.144
21.1331
21.1149
21.0999
20.9038
20.9058
20.9099
20.9149
20.9195
20.9236
20.9261
20.9276
20.9283
20.9273
20.9242
20.9184
20.9089
20.8925
20.8795
20.6851
20.687
20.691
20.6957
20.7001
20.704
20.7067
20.7083
20.7092
20.7085
20.7058
20.7005
20.6919
20.6768
20.6631
20.4735
20.4753
20.4791
20.4836
20.4878
20.4917
20.4946
20.4966
20.4975
20.497
20.4946
20.4897
20.4815
20.4665
20.4498
20.269
20.2707
20.2743
20.2786
20.2828
20.2866
20.29
20.2922
20.2931
20.2928
20.2908
20.2864
20.2791
20.266
20.2465
20.0715
20.0731
20.0765
20.0807
20.0847
20.0886
20.0922
20.0946
20.0956
20.0955
20.0939
20.0903
20.0842
20.0736
20.0558
19.8786
19.8802
19.8837
19.8878
19.892
19.8961
19.8999
19.9024
19.9035
19.9037
19.9025
19.8993
19.8937
19.8844
19.8602
19.6918
19.6934
19.6968
19.7009
19.705
19.7092
19.713
19.7154
19.7166
19.7169
19.7158
19.7127
19.7069
19.6984
19.6724
19.5119
19.5134
19.5166
19.5205
19.5245
19.5284
19.532
19.5342
19.5354
19.5359
19.5349
19.5322
19.5271
19.5205
19.5028
19.3356
19.337
19.3402
19.3441
19.3481
19.352
19.3555
19.3577
19.359
19.3597
19.3591
19.3569
19.3522
19.3457
19.3267
19.1637
19.1651
19.1682
19.172
19.1758
19.1797
19.1831
19.1854
19.1869
19.1879
19.1876
19.1858
19.1819
19.1763
19.16
18.9969
18.9982
19.001
19.0046
19.0082
19.0118
19.015
19.0174
19.0191
19.0201
19.02
19.0187
19.0156
19.0115
18.9914
18.8319
18.8332
18.836
18.8395
18.843
18.8465
18.8498
18.8526
18.8545
18.8555
18.8557
18.8548
18.8522
18.8498
18.8358
18.6697
18.6709
18.6736
18.677
18.6805
18.684
18.6873
18.6903
18.6924
18.6935
18.6938
18.693
18.6904
18.6876
18.6711
18.5111
18.5122
18.5148
18.518
18.5213
18.5247
18.528
18.5311
18.5332
18.5342
18.5344
18.5335
18.5305
18.5271
18.5123
18.354
18.3551
18.3577
18.3608
18.3642
18.3676
18.3711
18.3743
18.3765
18.3775
18.378
18.3774
18.375
18.3723
18.359
18.1992
18.2003
18.2029
18.206
18.2094
18.213
18.2165
18.2199
18.2222
18.2236
18.2244
18.2245
18.2233
18.2224
18.2142
18.0476
18.0486
18.0511
18.0542
18.0575
18.061
18.0645
18.0678
18.07
18.0715
18.0725
18.0728
18.0719
18.0711
18.0593
17.8979
17.8989
17.9012
17.9042
17.9074
17.9108
17.9142
17.9173
17.9194
17.9208
17.9217
17.9218
17.9205
17.9195
17.9072
17.7488
17.7498
17.7522
17.7551
17.7583
17.7617
17.7651
17.7681
17.7702
17.7716
17.7726
17.7727
17.7714
17.7706
17.7604
17.6018
17.6028
17.6051
17.608
17.6111
17.6144
17.6177
17.6207
17.6229
17.6244
17.6256
17.6259
17.6249
17.6244
17.6196
17.4572
17.4581
17.4603
17.463
17.4659
17.469
17.4722
17.4751
17.4773
17.479
17.4803
17.4809
17.4804
17.48
17.4777
17.3123
17.3132
17.3153
17.318
17.3209
17.324
17.3272
17.3301
17.3327
17.3347
17.3362
17.3373
17.3377
17.3377
17.3435
17.1678
17.1687
17.1708
17.1734
17.1763
17.1794
17.1825
17.1856
17.1884
17.1907
17.1924
17.1938
17.1948
17.1946
17.1933
17.0246
17.0254
17.0273
17.0298
17.0325
17.0354
17.0385
17.0416
17.0445
17.0468
17.0485
17.0499
17.051
17.0514
17.0481
16.8804
16.8812
16.8832
16.8856
16.8883
16.8912
16.8943
16.8975
16.9006
16.9029
16.9047
16.9063
16.9076
16.9092
16.9099
16.7359
16.7367
16.7386
16.741
16.7437
16.7467
16.7499
16.7531
16.7564
16.7589
16.7608
16.7627
16.7642
16.7657
16.764
16.592
16.5928
16.5946
16.5969
16.5995
16.6024
16.6055
16.6087
16.612
16.6145
16.6165
16.6184
16.62
16.6214
16.6154
16.4466
16.4474
16.4492
16.4515
16.4541
16.457
16.4603
16.4636
16.467
16.4698
16.4722
16.475
16.4779
16.4823
16.4847
16.3
16.3008
16.3026
16.3049
16.3075
16.3105
16.3138
16.3173
16.3208
16.3239
16.3267
16.33
16.3336
16.3388
16.3318
16.1523
16.153
16.1547
16.157
16.1596
16.1625
16.1658
16.1693
16.1729
16.1761
16.1791
16.1827
16.1865
16.193
16.1922
16.0031
16.0038
16.0054
16.0076
16.01
16.0129
16.0161
16.0196
16.0231
16.0264
16.0298
16.0339
16.0383
16.0461
16.0461
15.8503
15.851
15.8526
15.8547
15.8572
15.8601
15.8633
15.8669
15.8706
15.8741
15.8779
15.8826
15.8878
15.8964
15.8968
15.6946
15.6953
15.6968
15.6989
15.7013
15.7041
15.7073
15.7109
15.7147
15.7187
15.723
15.7284
15.7346
15.7451
15.7479
15.5343
15.535
15.5365
15.5385
15.541
15.5438
15.5471
15.5508
15.5548
15.5592
15.5642
15.5703
15.5776
15.5898
15.5954
15.3699
15.3705
15.3719
15.3738
15.3762
15.3789
15.3822
15.3859
15.3902
15.3952
15.4008
15.4079
15.4167
15.4314
15.4405
15.1987
15.1993
15.2007
15.2026
15.2049
15.2078
15.2111
15.2151
15.2196
15.2251
15.2313
15.2389
15.2483
15.2638
15.2683
15.0215
15.022
15.0233
15.0251
15.0273
15.0301
15.0335
15.0376
15.0425
15.0486
15.0556
15.0642
15.0746
15.0913
15.1117
14.8353
14.8358
14.8371
14.8389
14.8412
14.8441
14.8478
14.8523
14.858
14.8652
14.8738
14.8848
14.8989
14.9195
14.9515
14.6385
14.639
14.6403
14.6422
14.6446
14.6477
14.6518
14.657
14.6637
14.6725
14.6833
14.6973
14.7159
14.7409
14.7803
14.4292
14.4297
14.4309
14.4328
14.4353
14.4387
14.4432
14.4492
14.4572
14.4678
14.4812
14.4989
14.5225
14.5529
14.6015
14.2015
14.2019
14.2031
14.2049
14.2076
14.2114
14.2166
14.2239
14.2338
14.2471
14.2645
14.2875
14.3183
14.3573
14.4173
13.953
13.9535
13.9547
13.9567
13.9597
13.9641
13.9705
13.9795
13.9921
14.0094
14.0323
14.0629
14.1038
14.1553
14.2338
13.6599
13.6603
13.6615
13.6638
13.6677
13.6737
13.6828
13.6959
13.7144
13.74
13.7737
13.8177
13.8746
13.9431
14.0469
13.357
13.3573
13.3587
13.3613
13.3658
13.373
13.3842
13.4009
13.4251
13.459
13.5045
13.5636
13.6384
13.7243
13.8417
12.8516
12.852
12.8541
12.8594
12.8701
12.8882
12.9158
12.9556
13.0101
13.0809
13.1681
13.2703
13.3864
13.5081
13.6539
12.599
12.5997
12.5988
12.6056
12.6186
12.6389
12.6691
12.7125
12.7722
12.8504
12.9478
13.0629
13.1944
13.3338
13.48
10.799
10.7248
10.788
10.8753
10.989
11.1406
11.3381
11.581
11.8609
12.161
12.4585
12.7302
12.9661
13.1685
13.3443
11.8715
18.0452
13.6415
10.7478
4.01562
16.007
13.8919
18.4646
3.62707
10.7055
9.37883
20.4372
7.14213
18.1221
15.2098
13.6304
12.7633
12.518
15.8652
10.8139
14.1475
15.0309
14.8347
25.5748
15.4547
11.1442
12.6817
12.6206
19.9228
12.5227
10.055
14.3318
13.5322
22.6445
13.2989
12.4556
7.53164
19.1788
4.62794
13.5349
18.1632
11.5037
17.6746
13.5501
15.2482
12.2797
25.9709
11.8962
13.2762
15.9159
19.3825
14.6876
14.7263
16.1512
11.8227
13.7095
9.75594
11.8964
21.3997
17.2525
12.2355
21.3101
16.2024
13.987
15.795
6.97872
15.0404
19.6494
9.91415
22.9637
12.324
11.4728
30.1153
15.905
10.6245
14.5652
10.3848
12.9328
14.849
24.8627
12.5484
9.19428
12.0308
13.5163
19.105
8.97698
12.4846
9.03162
19.3297
13.4436
16.7771
13.3687
14.1681
18.4973
6.5253
13.6349
15.9705
15.6326
15.0291
15.1567
7.7176
24.506
12.4848
9.7147
18.3752
9.4031
13.0144
12.7918
12.9918
21.3293
17.3918
13.2011
17.9976
11.8503
15.2758
10.6027
12.607
18.8192
5.86519
13.5879
6.98082
13.7235
8.66725
17.913
12.0403
12.3469
19.2509
16.7846
4.91536
10.9428
21.8126
12.6732
3.12413
13.4302
15.2456
18.3217
4.30817
16.319
16.3863
15.4868
12.3374
13.2533
12.2644
11.3761
19.5829
15.4515
11.8681
13.2005
15.8495
17.9975
13.4179
10.8929
12.9207
19.7333
11.2947
16.1372
12.9058
12.3638
16.0765
21.6821
12.5388
14.6002
12.6154
4.422
14.1285
14.2669
13.8545
1.42361
16.4704
12.8546
15.0749
11.7873
14.8774
9.89201
13.4302
12.2493
13.1937
12.457
21.4926
10.1625
8.47738
19.3508
20.0697
10.9448
11.7097
12.1571
12.827
22.7145
12.874
12.4106
20.6369
13.7678
5.70634
19.1742
13.5203
20.7289
10.4289
12.1261
10.0276
21.7927
11.3263
14.7817
12.3405
14.2232
19.0475
17.0859
10.5826
23.3256
11.4387
14.6271
12.2737
14.5862
21.2778
8.39459
18.3783
24.8118
20.8915
13.6439
17.7983
20.175
19.6238
15.7019
13.4616
13.6171
18.944
6.46361
18.981
12.3637
10.413
13.2881
15.1141
6.81993
15.0644
14.7074
8.60845
15.7162
14.0052
17.7597
14.1385
12.6466
11.9976
12.2215
13.5898
9.75982
11.4237
12.1521
6.83291
16.5999
7.46368
11.3658
21.9052
15.2887
11.2792
15.8692
12.0992
17.9041
17.3157
16.559
16.8109
13.4746
9.27748
17.9728
6.24154
13.8945
11.2524
13.7276
11.5533
8.02817
16.556
12.6642
24.2894
11.5024
19.6513
8.16272
13.3942
8.92604
16.0437
18.6769
9.24136
14.8167
9.60726
13.3232
16.6131
13.3233
18.1931
13.2423
10.0192
6.53215
18.0051
3.47495
8.6887
15.6131
19.8944
14.006
21.7299
1.9704
9.81744
12.7178
14.9666
15.2713
15.2418
13.0427
17.4789
15.317
13.076
7.52504
13.1603
9.84537
13.4546
16.3864
13.4945
13.4785
18.4057
12.1148
7.75973
14.6414
10.4983
26.3112
12.5109
9.76582
13.1448
17.9751
7.4628
12.9097
8.6041
13.955
13.4963
13.2333
13.3706
5.95091
14.3444
10.2826
19.1914
16.5684
9.52582
13.1843
16.719
15.2091
24.3418
11.3982
19.3289
12.874
17.8865
13.9488
15.0494
10.0129
15.1161
10.2215
23.9995
14.1103
4.86451
9.9392
23.4392
16.2306
22.1112
16.1517
16.1649
13.8047
16.4155
12.152
13.9441
12.9783
13.0668
18.4227
14.4851
17.0055
13.38
15.1512
13.208
13.8457
8.46933
12.0812
14.2286
14.0207
12.1387
12.9539
14.8316
20.1357
2.17676
10.695
20.025
9.71032
11.9652
14.6741
18.9956
17.2083
14.1557
16.8433
13.2454
10.5979
15.2684
14.8932
14.9779
7.95767
13.2389
5.9139
19.1336
16.2125
15.2106
11.635
14.5272
6.63756
15.3524
23.3252
14.0881
7.19786
14.9131
13.6875
13.3177
16.97
9.36145
9.96618
17.7558
22.7703
10.4047
14.8753
11.6542
13.3554
14.742
16.7583
11.968
18.4664
11.9828
12.6276
9.02364
19.1682
20.5605
13.8274
17.7027
16.8717
11.1278
15.5821
6.06107
18.0086
13.9613
17.0851
11.0541
11.8995
5.45403
12.791
16.1921
12.5204
13.9361
11.9036
11.9864
9.23174
21.2525
12.2848
9.00261
22.2236
16.4051
22.7744
15.8581
14.665
13.5493
16.4399
1.1642
17.5085
17.0515
7.89987
8.49801
9.19531
12.9459
12.4028
12.1641
9.18521
20.8673
12.6047
12.1168
11.167
18.6976
12.5609
8.6718
19.341
12.4547
9.85188
13.649
5.87731
26.1453
10.8922
14.9268
15.346
16.0371
11.4424
10.532
16.6627
19.5147
10.3207
15.3399
23.4409
17.0842
15.1282
13.0039
14.5049
18.9257
11.7212
14.415
21.5711
7.54528
9.48112
16.0297
19.2251
14.4675
20.3858
18.4004
9.93006
7.89008
11.791
9.35218
8.45527
8.85032
14.9711
13.3491
12.7047
12.4078
15.2726
8.29164
21.9882
12.228
21.0455
12.2694
20.6083
12.3222
20.5298
8.86546
17.696
9.61971
13.581
13.8176
2.00724
12.2593
13.3716
12.8726
17.9425
15.6725
13.4102
12.923
15.9832
19.8647
15.5803
11.6263
21.1138
11.9591
18.0037
17.6566
14.9181
14.1538
12.8475
16.7475
38.8013
20.6483
14.8453
11.76
10.1673
24.3162
13.1254
13.0183
13.7317
15.971
15.3492
11.7563
11.8769
10.923
12.1853
16.7707
22.2276
15.2166
15.0907
8.9151
8.95784
10.9136
13.802
13.4054
19.68
12.4318
13.2445
13.7507
11.9301
15.2893
13.5496
12.1913