/*--------------------------------*- C++ -*----------------------------------*\
| =========                 |                                                 |
| \\      /  F ield         | OpenFOAM: The Open Source CFD Toolbox           |
|  \\    /   O peration     | Version:  2.3.0                                 |
|   \\  /    A nd           | Web:      www.OpenFOAM.org                      |
|    \\/     M anipulation  |                                                 |
\*---------------------------------------------------------------------------*/
FoamFile
{
    version     2.0;
    format      ascii;
    class       surfaceScalarField;
    location    "200";
    object      phi;
}
// * * * * * * * * * * * * * * * * * * * * * * * * * * * * * * * * * * * * * //

dimensions      [0 3 -1 0 0 0 0];

internalField   nonuniform List<scalar> 
15537
(
-0.00312903
-0.0203877
0.0222437
0.00127288
-0.00457085
-0.0171802
0.018622
-0.005674
-0.0145007
0.0156039
-0.00649571
-0.0122639
0.0130856
-0.00707484
-0.0103973
0.0109764
-0.00743792
-0.00883904
0.00920211
-0.00760496
-0.00753654
0.00770358
-0.00759339
-0.00644676
0.00643519
-0.00742276
-0.00553318
0.00536255
-0.00711211
-0.00476736
0.00445673
-0.00668257
-0.00412487
0.00369533
-0.0061535
-0.00358639
0.00305735
-0.00554379
-0.00313524
0.00252553
-0.00487106
-0.00275732
0.00208462
-0.00244106
-0.00412996
0.00169997
-0.00283987
-0.0187435
0.00119568
-0.00407652
-0.0159435
-0.0049727
-0.0136045
-0.00558597
-0.0116506
-0.00596464
-0.0100186
-0.00614775
-0.00865592
-0.00616511
-0.00751917
-0.00604078
-0.00657108
-0.00579337
-0.00578059
-0.00543872
-0.005122
-0.00499053
-0.00457306
-0.00446099
-0.00411592
-0.00386118
-0.00373506
-0.00320084
-0.00341765
-0.00315332
-0.00248859
-0.00258403
-0.0172644
0.00110495
-0.00368923
-0.0148383
-0.00447961
-0.0128142
-0.00500465
-0.0111256
-0.00530599
-0.00971729
-0.00541909
-0.00854282
-0.0053747
-0.00756356
-0.00519873
-0.00674705
-0.00491272
-0.00606659
-0.00453567
-0.00549906
-0.00408254
-0.00502619
-0.00356658
-0.00463187
-0.00299834
-0.0043033
-0.00238692
-0.00402907
-0.00380044
-0.0017398
-0.00231839
-0.015942
0.000995989
-0.0032987
-0.013858
-0.00399283
-0.01212
-0.00444731
-0.0106711
-0.00470158
-0.00946301
-0.0047885
-0.0084559
-0.00473562
-0.00761644
-0.00456614
-0.00691652
-0.00429913
-0.0063336
-0.00395114
-0.00584705
-0.0035358
-0.00544153
-0.00306428
-0.0051034
-0.00254636
-0.00482122
-0.00198965
-0.00458577
-0.00438918
-0.00140091
-0.00208043
-0.0147535
0.000891953
-0.00295778
-0.0129806
-0.00357538
-0.0115024
-0.00397633
-0.0102701
-0.00419617
-0.00924317
-0.0042651
-0.00838697
-0.00420846
-0.00767308
-0.00404689
-0.00707809
-0.00379877
-0.00658172
-0.00347803
-0.00616778
-0.00309713
-0.00582243
-0.00266631
-0.00553422
-0.00219418
-0.00529335
-0.0016875
-0.00509245
-0.00492424
-0.00115245
-0.0018657
-0.0136835
0.000795632
-0.0026541
-0.0121922
-0.00320758
-0.0109489
-0.00356476
-0.00991294
-0.00375887
-0.00904906
-0.00381694
-0.00832889
-0.00376175
-0.00772827
-0.00361233
-0.00722751
-0.00338457
-0.00680948
-0.00309158
-0.00646077
-0.00274441
-0.0061696
-0.00235224
-0.00592639
-0.00192258
-0.00572301
-0.00146202
-0.00555302
-0.00541074
-0.000975517
-0.00167516
-0.0127173
0.000708975
-0.00238595
-0.0114814
-0.00288386
-0.010451
-0.00320452
-0.00959228
-0.00337759
-0.00887599
-0.00342778
-0.0082787
-0.00337542
-0.00778063
-0.00323827
-0.00736466
-0.00303
-0.00701775
-0.00276278
-0.00672799
-0.00244665
-0.00648572
-0.00208986
-0.00628319
-0.001699
-0.00611386
-0.00128015
-0.00597187
-0.00585297
-0.000837919
-0.00150582
-0.0118437
0.00063225
-0.00214807
-0.0108392
-0.00259753
-0.0100016
-0.00288672
-0.0093031
-0.00304201
-0.00872069
-0.00308599
-0.00823473
-0.00303732
-0.0078293
-0.00291155
-0.00749043
-0.00272164
-0.00720766
-0.00247835
-0.00697128
-0.00219051
-0.00677356
-0.00186597
-0.00660772
-0.0015107
-0.00646914
-0.00112987
-0.0063527
-0.00625506
-0.000727785
-0.00135536
-0.0110527
0.0005644
-0.00193683
-0.0102577
-0.00234349
-0.00959491
-0.00260439
-0.00904221
-0.00274426
-0.00858082
-0.00278317
-0.00819582
-0.00273844
-0.00787403
-0.00262329
-0.00760558
-0.0024504
-0.00738055
-0.00222891
-0.00719277
-0.00196744
-0.00703504
-0.00167198
-0.00690318
-0.00134892
-0.00679219
-0.00100269
-0.00669892
-0.00662051
-0.000637244
-0.00122168
-0.0103358
0.000504765
-0.00174821
-0.00973118
-0.00211632
-0.00922681
-0.00235251
-0.00880601
-0.00247892
-0.0084544
-0.00251377
-0.00816098
-0.00247228
-0.00791552
-0.00236782
-0.00771004
-0.00221019
-0.00753818
-0.00200884
-0.00739412
-0.00177066
-0.00727322
-0.00150218
-0.00717166
-0.00120856
-0.00708581
-0.000893694
-0.00701379
-0.00695278
-0.000561419
-0.00110232
-0.00968566
0.00045215
-0.00157963
-0.00925387
-0.00191332
-0.00889312
-0.00212738
-0.00859196
-0.00224158
-0.00834021
-0.00227292
-0.00812963
-0.00223504
-0.0079534
-0.00213942
-0.00780566
-0.00199598
-0.00768162
-0.00181265
-0.00757745
-0.0015962
-0.00748967
-0.00135239
-0.00741548
-0.00108514
-0.00735306
-0.000799
-0.00729994
-0.00725489
-0.000496894
-0.00099556
-0.00909584
0.000405742
-0.00142858
-0.00882085
-0.00173118
-0.00859052
-0.00192509
-0.00839804
-0.00202839
-0.00823691
-0.00205658
-0.00810144
-0.00202197
-0.00798802
-0.00193526
-0.00789237
-0.00180473
-0.00781215
-0.00163813
-0.00774405
-0.00144124
-0.00768656
-0.00121912
-0.0076376
-0.000976366
-0.00759581
-0.000716099
-0.0075602
-0.00752948
-0.000441505
-0.000899286
-0.00856065
0.000364101
-0.0012926
-0.00842753
-0.001567
-0.00831612
-0.00174309
-0.00822196
-0.00183711
-0.00814289
-0.00186229
-0.00807626
-0.00183068
-0.00801963
-0.0017515
-0.00797155
-0.00163298
-0.00793067
-0.00148138
-0.00789565
-0.00130219
-0.00786575
-0.00110059
-0.00783921
-0.000879784
-0.00781661
-0.000643185
-0.0077968
-0.00777917
-0.000393493
-0.000813293
0.000326705
-0.00807407
-0.00117031
-0.00807051
-0.00141949
-0.00806694
-0.00157936
-0.00806209
-0.00166414
-0.0080581
-0.00168734
-0.00805306
-0.00165844
-0.00804853
-0.00158642
-0.00804357
-0.00147862
-0.00803847
-0.0013409
-0.00803337
-0.00117797
-0.00802868
-0.000994325
-0.00802285
-0.000793591
-0.00801734
-0.000578556
-0.00801184
-0.00035169
-0.00800604
-0.00323708
-0.00241886
0.00152601
-0.00240139
-0.00268372
0.00184802
-0.0016052
-0.00300524
0.00220908
-0.00084784
-0.00339479
0.00263742
-0.00013366
-0.00386655
0.00315238
0.00052784
-0.00443729
0.00377578
0.001121
-0.005127
0.00453384
0.00162296
-0.00596021
0.00545825
0.00200172
-0.00696494
0.00658617
0.00221603
-0.00817532
0.007961
0.00221655
-0.00963225
0.00963173
0.00194663
-0.0113842
0.0116541
0.0013464
-0.0134919
0.0140921
0.000351424
-0.0160276
0.0170226
-0.0190804
0.0205391
-0.00110727
-0.00176295
-0.0031445
-0.00105853
-0.00338814
-0.00038299
-0.00368078
0.000254094
-0.00403187
0.000840987
-0.00445344
0.00136328
-0.00495958
0.00180347
-0.00556718
0.0021398
-0.00629655
0.00234797
-0.00717311
0.00239897
-0.00822632
0.00226002
-0.0094933
0.00189345
-0.0110176
0.0012543
-0.0128527
0.000288461
-0.0150618
-0.0177211
-0.00107088
-0.00109148
-0.00379282
-0.00047466
-0.00400496
0.00010439
-0.00425983
0.000638527
-0.00456601
0.00111881
-0.00493373
0.00153485
-0.00537562
0.00187379
-0.00590612
0.0021205
-0.00654327
0.00225599
-0.0073086
0.00225715
-0.00822747
0.0020955
-0.00933166
0.00173573
-0.0106579
0.0011346
-0.0122516
0.000240153
-0.0141673
-0.0164698
-0.00101113
-0.000810987
-0.00438274
-0.000250643
-0.0045653
0.000274493
-0.00478496
0.000757612
-0.00504913
0.00119032
-0.00536644
0.00156266
-0.00574796
0.00186255
-0.006206
0.00207526
-0.00675598
0.00218349
-0.00741683
0.00216596
-0.00820994
0.00199664
-0.00916234
0.00164492
-0.0103061
0.00107328
-0.0116799
0.000235967
-0.01333
-0.0153126
-0.000921256
-0.000617039
-0.00491814
-0.000109084
-0.00507326
0.000366133
-0.00526018
0.000802075
-0.00548507
0.00119132
-0.00575568
0.0015242
-0.00608084
0.00179003
-0.00647183
0.00197578
-0.00694172
0.00206466
-0.00750572
0.00203804
-0.00818332
0.00187276
-0.00899706
0.00154029
-0.00997367
0.00100725
-0.0111469
0.0002326
-0.0125554
-0.0142469
-0.000833087
-0.000488787
-0.00540487
-2.72179e-05
-0.00553483
0.000404251
-0.00569165
0.00079985
-0.00588067
0.00115225
-0.00610808
0.00145322
-0.00638182
0.00169265
-0.00671126
0.00185779
-0.00710686
0.00193452
-0.00758245
0.00190504
-0.00815384
0.00174795
-0.00883997
0.00143821
-0.00966394
0.000944659
-0.0106533
0.000230319
-0.011841
-0.0132674
-0.000749163
-0.00039556
-0.00584723
2.38962e-05
-0.00595428
0.000415845
-0.00608359
0.00077481
-0.00623964
0.00109451
-0.00642778
0.00136702
-0.00665433
0.00158289
-0.00692712
0.00173139
-0.00725536
0.0017985
-0.00764956
0.00176864
-0.00812398
0.00162208
-0.00869342
0.00133564
-0.00937749
0.000881415
-0.0101991
0.00022614
-0.0111857
-0.0123703
-0.000670974
-0.000325686
-0.00624933
5.55177e-05
-0.00633549
0.000411662
-0.00643974
0.00073776
-0.00656573
0.00102797
-0.00671799
0.00127522
-0.00690158
0.00147058
-0.00712248
0.00160428
-0.00738906
0.00166424
-0.00770951
0.00163494
-0.00809468
0.00149934
-0.00855782
0.00123607
-0.00911423
0.000819721
-0.00978276
0.000219548
-0.0105856
-0.0115494
-0.000601348
-0.000271678
-0.0066149
7.48029e-05
-0.00668197
0.000398425
-0.00676336
0.000694774
-0.00686208
0.000958266
-0.00698148
0.00118247
-0.00712579
0.00136
-0.00730001
0.00148079
-0.00750985
0.0015341
-0.00776282
0.00150634
-0.00806692
0.00138156
-0.00843304
0.00114041
-0.00887307
0.000759432
-0.00940178
0.000210996
-0.0100371
-0.0107998
-0.000538573
-0.00022905
-0.00694726
8.58709e-05
-0.00699689
0.00038001
-0.0070575
0.000649225
-0.0071313
0.000888714
-0.00722097
0.00109245
-0.00732952
0.00125316
-0.00746071
0.00136272
-0.00761942
0.00141036
-0.00781045
0.00138455
-0.00804111
0.00127017
-0.00831867
0.00104944
-0.00865234
0.000701414
-0.00905375
0.000200807
-0.00953653
-0.010116
-0.000483073
-0.000194846
-0.00724931
9.13999e-05
-0.00728313
0.000358804
-0.0073249
0.000603584
-0.00737608
0.000821055
-0.00743845
0.00100604
-0.00751451
0.00115202
-0.00760669
0.00125119
-0.00771859
0.0012945
-0.00785376
0.00127033
-0.00801694
0.00116546
-0.0082138
0.000963958
-0.00845084
0.000646525
-0.00873632
0.000189828
-0.00907983
-0.00949251
-0.000433621
-0.000166902
-0.00752392
9.33081e-05
-0.00754334
0.000336328
-0.00756792
0.000558762
-0.00759851
0.000756457
-0.00763614
0.000924616
-0.00768267
0.0010571
-0.00773918
0.00114703
-0.00780851
0.00118596
-0.00789269
0.00116358
-0.00799455
0.00106774
-0.00811796
0.000884041
-0.00826714
0.00059474
-0.00844702
0.000178428
-0.00866352
-0.0089246
-0.000389483
-0.000143819
-0.00777359
9.26615e-05
-0.00777982
0.000313513
-0.00778878
0.000515729
-0.00780073
0.000695569
-0.00781598
0.000848095
-0.0078352
0.000968507
-0.00785959
0.00105009
-0.0078901
0.0010852
-0.0079278
0.00106464
-0.00797399
0.000977409
-0.00803073
0.000809748
-0.00809948
0.000546048
-0.00818332
0.000167028
-0.0082845
-0.00840709
-0.000350474
-0.000124552
-0.00800073
9.02434e-05
-0.00799462
0.000291023
-0.00798956
0.000474866
-0.00798457
0.000638085
-0.0079792
0.000776738
-0.00797385
0.000886182
-0.00796904
0.000960378
-0.00796429
0.000992298
-0.00795972
0.000973485
-0.00795518
0.000893714
-0.00795096
0.000741049
-0.00794682
0.000500893
-0.00794316
0.000155787
-0.00793939
-0.000314886
-0.00793642
0.00158093
0.0196959
-0.0213506
7.38096e-05
0.00278038
0.0165025
-0.0177019
0.00359534
0.0138264
-0.0146413
0.00408633
0.0115792
-0.0120702
0.00430658
0.00969243
-0.00991268
0.00430507
0.00811049
-0.00810898
0.0041259
0.00678712
-0.00660796
0.00380801
0.00568223
-0.00536435
0.003385
0.00476071
-0.0043377
0.00288549
0.00399146
-0.00349195
0.00233405
0.00334654
-0.00279509
0.0017527
0.00279989
-0.00221854
0.00116158
0.00232689
-0.00173578
0.000571414
0.00191033
-0.00132016
0.00158099
-4.70311e-05
-0.000962543
0.00143215
0.0181939
6.98063e-05
0.00252277
0.0154119
0.00326834
0.0130808
0.0037236
0.0111239
0.00393651
0.00947952
0.00394964
0.00809736
0.00380034
0.00693643
0.00352185
0.00596071
0.00314301
0.00513955
0.00268891
0.00444556
0.00218191
0.00385354
0.00164205
0.00333975
0.00108692
0.00288203
0.000524955
0.00247229
0.00216099
-5.50505e-05
0.00130254
0.0168268
6.45682e-05
0.00229691
0.0144175
0.00297908
0.0123986
0.00339904
0.010704
0.00359954
0.00927902
0.00361816
0.00807874
0.00348812
0.00706646
0.00323857
0.00621027
0.00289516
0.00548296
0.00248053
0.00486019
0.00201456
0.00431951
0.00151565
0.00383866
0.00099954
0.00339814
0.000475641
0.00299619
0.00269667
-6.00313e-05
0.00118327
0.0155846
5.89675e-05
0.00208786
0.0135129
0.00270917
0.0117773
0.00309325
0.0103199
0.00327904
0.00909323
0.00330004
0.00805775
0.00318605
0.00718045
0.0029626
0.00643372
0.00265231
0.00579325
0.00227507
0.00523743
0.00184898
0.00474559
0.00139046
0.00429719
0.000914283
0.00387431
0.000430505
0.00347997
0.00318891
-6.17381e-05
0.00107365
0.0144566
5.43607e-05
0.00189547
0.0126911
0.00246114
0.0112117
0.00281231
0.00996871
0.00298405
0.00892149
0.00300684
0.00803496
0.00290667
0.00728062
0.00270631
0.00663408
0.00242575
0.00607382
0.00208275
0.00558043
0.00169349
0.00513485
0.001273
0.00471768
0.000835168
0.00431214
0.000390312
0.00392483
0.00364085
-6.1632e-05
0.000974128
0.0134313
5.11843e-05
0.00172164
0.0119436
0.00223663
0.0106967
0.00255717
0.00964817
0.00271569
0.00876297
0.00273893
0.00801171
0.00265035
0.00736921
0.00247023
0.00681419
0.00221628
0.00632777
0.00190441
0.0058923
0.00154911
0.00549015
0.00116423
0.00510256
0.000762544
0.00471383
0.000354258
0.00433311
0.00405536
-6.02532e-05
0.000884017
0.0124995
4.77631e-05
0.00156337
0.0112642
0.0020323
0.0102277
0.00232518
0.00935529
0.00247084
0.00861732
0.00249388
0.00798867
0.00241537
0.00744771
0.00225309
0.00697647
0.00202317
0.00655768
0.00173966
0.00617581
0.00141573
0.00581408
0.00106376
0.00545453
0.000695834
0.00508175
0.000321815
0.00470713
0.00443507
-5.78943e-05
0.00080267
0.0116533
4.35268e-05
0.00142035
0.0106465
0.00184686
0.00980122
0.00211394
0.00908821
0.00224771
0.00848355
0.00227025
0.00796613
0.00220017
0.00751779
0.00205407
0.00712257
0.00184577
0.00676599
0.0015882
0.00643338
0.00129296
0.00610932
0.000971491
0.005776
0.000634836
0.00541841
0.0002922
0.00504977
0.0047826
-5.53223e-05
0.000728341
0.0108833
4.16706e-05
0.00129004
0.0100848
0.00167852
0.00941274
0.00192185
0.00884488
0.00204438
0.00836102
0.00206617
0.00794435
0.0020038
0.00758016
0.00187195
0.00725442
0.00168339
0.00695455
0.00144933
0.00666744
0.00118045
0.00637819
0.000886993
0.00606946
0.00057911
0.00572629
0.000265697
0.00536318
0.00510072
-5.24234e-05
0.000661091
0.010184
3.82023e-05
0.00117188
0.00957405
0.00152531
0.00905932
0.00174742
0.00862277
0.00185951
0.00824892
0.00188002
0.00792384
0.00182454
0.00763564
0.00170555
0.00737341
0.0015348
0.0071253
0.00132239
0.00687985
0.00107772
0.00662286
0.000810091
0.00633709
0.000528784
0.0060076
0.00024187
0.00565009
0.00539189
-4.93019e-05
0.00060024
0.00954832
3.54142e-05
0.00106474
0.00910956
0.00138622
0.00873783
0.00158843
0.00842056
0.00169122
0.00814614
0.0017106
0.00790446
0.00166089
0.00768535
0.00155366
0.00748064
0.00139908
0.00727988
0.0012064
0.00707253
0.000984128
0.00684514
0.000740262
0.00658095
0.000482885
0.00626497
0.000220175
0.0059128
0.00565898
-4.69178e-05
0.000544954
0.00897029
3.30745e-05
0.000967425
0.00868708
0.00125977
0.00844548
0.00144382
0.00823652
0.0015377
0.00805226
0.00155611
0.00788605
0.00151156
0.0077299
0.0014148
0.0075774
0.00127485
0.00741983
0.0011002
0.00724718
0.000898874
0.00704646
0.000677589
0.00680224
0.000443544
0.00649902
0.000202379
0.00615397
0.00590452
-4.31605e-05
0.000494918
0.00844506
3.0319e-05
0.00087894
0.00830306
0.00114495
0.00817947
0.00131269
0.00806878
0.00139808
0.00796687
0.00141535
0.00786877
0.00137534
0.00776991
0.00128797
0.00766476
0.00116125
0.00754655
0.00100299
0.00740544
0.000821203
0.00722825
0.000621717
0.00700172
0.000404922
0.00671581
0.000183957
0.00637493
0.00613217
-4.36923e-05
0.000449412
2.81912e-05
0.00796745
0.000798713
0.00795376
0.00104075
0.00793743
0.00119319
0.00791633
0.00127122
0.00788885
0.00128696
0.00785303
0.00125123
0.00780564
0.00117286
0.00774314
0.00105762
0.00766179
0.000912212
0.00755085
0.000749988
0.00739047
0.000573041
0.00717867
0.000382331
0.00690652
0.000176647
0.00658062
-3.99758e-05
0.00634879
-0.000663981
0.00163528
-0.00101833
-0.00128447
0.0020265
-0.00140601
-0.00191463
0.00247895
-0.00184879
-0.00253468
0.00298079
-0.00236074
-0.00312099
0.00355734
-0.00297103
-0.00364907
0.00423459
-0.00370651
-0.00409112
0.00503722
-0.00459517
-0.00441638
0.00599068
-0.00566542
-0.00458899
0.00712197
-0.00694936
-0.00457066
0.00846156
-0.0084799
-0.00432103
0.0100452
-0.0102948
-0.003798
0.0119175
-0.0124405
-0.00295445
0.0141375
-0.0149811
-0.00173462
0.0167803
-0.0180002
0.0199342
-0.0215993
-6.95575e-05
-0.000641922
0.00222215
-0.00123206
0.00261664
-0.00182339
0.00307028
-0.00239895
0.00355635
-0.00293658
0.00409497
-0.00341388
0.00471189
-0.00380635
0.00542969
-0.00408715
0.00627149
-0.00422697
0.00726179
-0.00419383
0.00842842
-0.00395396
0.00980529
-0.00347011
0.0114337
-0.00269942
0.0133668
-0.00158868
0.0156696
0.0184195
-7.39642e-05
-0.000605772
0.00276789
-0.00115649
0.00316735
-0.00170584
0.00361964
-0.00223671
0.00408721
-0.00272927
0.00458754
-0.00316276
0.00514538
-0.00351572
0.00578265
-0.00376444
0.0065202
-0.00388366
0.00738101
-0.00384587
0.00839063
-0.003621
0.00958042
-0.00317573
0.0109884
-0.00247065
0.0126618
-0.00145756
0.0146565
0.0170396
-7.76645e-05
-0.000565262
0.00327142
-0.00107495
0.00367704
-0.00158162
0.00412631
-0.00206858
0.00457417
-0.00251744
0.00503639
-0.00290979
0.00553774
-0.00322661
0.00609947
-0.00344733
0.00674092
-0.00355032
0.007484
-0.00351159
0.0083519
-0.00330442
0.00937325
-0.00289829
0.0105823
-0.00225638
0.0120198
-0.00133475
0.0137349
0.0157845
-7.97013e-05
-0.000524674
0.00373446
-0.000994169
0.00414653
-0.00145993
0.00459207
-0.00190561
0.00501985
-0.00231431
0.00544509
-0.00266924
0.00589268
-0.00295366
0.00638388
-0.0031505
0.00693776
-0.00323991
0.00757341
-0.00320148
0.00831347
-0.00301134
0.00918311
-0.00264115
0.0102121
-0.00205771
0.0114364
-0.00121998
0.0128972
0.0146433
-7.87604e-05
-0.000485335
0.00415954
-0.000916556
0.00457775
-0.00134378
0.0050193
-0.001751
0.00542707
-0.00212265
0.00581674
-0.00244405
0.00621408
-0.00270048
0.00664031
-0.00287603
0.00711332
-0.00295476
0.00765214
-0.00291773
0.00827644
-0.00274334
0.00900872
-0.00240636
0.0098751
-0.00187537
0.0109054
-0.00111367
0.0121355
0.013606
-7.63452e-05
-0.000447776
0.00454942
-0.000843428
0.00497341
-0.00123461
0.00541048
-0.00160607
0.00579853
-0.00194393
0.00615459
-0.00223494
0.00650509
-0.00246577
0.00687114
-0.0026233
0.00727084
-0.00269289
0.00772173
-0.00265759
0.00824115
-0.00249819
0.00884932
-0.00219131
0.00956822
-0.00170865
0.0104228
-0.00101618
0.011443
0.0126628
-7.29742e-05
-0.000412456
0.00490656
-0.000774944
0.00533589
-0.00113252
0.00576806
-0.00147143
0.00613744
-0.00177836
0.00646152
-0.00204165
0.00676838
-0.00225001
0.0070795
-0.0023915
0.00741234
-0.00245315
0.00778338
-0.00242015
0.00820814
-0.00227449
0.00870366
-0.00199501
0.00928874
-0.00155597
0.00998372
-0.000926439
0.0108135
0.0118055
-6.9144e-05
-0.000379645
0.00523378
-0.000711273
0.00566752
-0.00103804
0.00609482
-0.00134667
0.00644608
-0.0016254
0.00674025
-0.00186392
0.0070069
-0.00205176
0.00726734
-0.00217927
0.00753984
-0.00223393
0.00783804
-0.00220298
0.00817719
-0.00207005
0.00857073
-0.00181569
0.00903438
-0.00141657
0.00958461
-0.000844169
0.0102411
0.0110261
-6.47938e-05
-0.000348806
0.00553328
-0.000652725
0.00597144
-0.00095115
0.00639325
-0.00123224
0.00672717
-0.00148541
0.00699342
-0.00170105
0.00722254
-0.00187076
0.00743705
-0.00198489
0.00765397
-0.00203392
0.00788707
-0.00200493
0.0081482
-0.00188352
0.00844933
-0.00165213
0.00880299
-0.00128916
0.00922164
-0.000768992
0.00972088
0.0103177
-6.0563e-05
-0.000321329
0.00580769
-0.000599155
0.00624926
-0.000871675
0.00666577
-0.00112715
0.00698264
-0.00135652
0.0072228
-0.00155157
0.00741758
-0.00170464
0.00759012
-0.00180772
0.00775706
-0.00185123
0.00793058
-0.00182427
0.00812124
-0.00171372
0.00833877
-0.00150296
0.00859224
-0.001173
0.00889167
-0.000700255
0.00924814
0.00967359
-5.61575e-05
-0.000295098
0.00605963
-0.000549843
0.00650401
-0.00079872
0.00691464
-0.00103154
0.00721546
-0.00123941
0.00743067
-0.00141535
0.00759352
-0.00155315
0.00772792
-0.00164536
0.00784927
-0.0016842
0.00796941
-0.00165929
0.00809633
-0.00155852
0.008238
-0.0013671
0.00840081
-0.00106705
0.00859162
-0.000637251
0.00881835
0.00908817
-5.18327e-05
-0.00027442
0.00629036
-0.000506866
0.00673646
-0.000733386
0.00714116
-0.000943972
0.00742605
-0.00113178
0.00761847
-0.00128958
0.00775132
-0.00141352
0.00785186
-0.00149693
0.00793268
-0.00153178
0.00800427
-0.00150922
0.00807376
-0.00141724
0.00814603
-0.00124291
0.00822648
-0.000970441
0.00831915
-0.000579542
0.00842745
0.00855632
-4.76901e-05
-0.000250312
0.0065007
-0.000464629
0.00695077
-0.000672387
0.00734892
-0.000864782
0.00761845
-0.00103384
0.00778753
-0.00117603
0.00789351
-0.00128656
0.0079624
-0.00136134
0.00800746
-0.0013928
0.00803572
-0.00137195
0.00805291
-0.00128865
0.00806273
-0.00113033
0.00806816
-0.000882365
0.00807119
-0.000527359
0.00807244
-4.35552e-05
0.00807252
0.000270411
0.00142955
0.000391972
0.00196309
0.000500517
0.00241698
0.000611255
0.00294663
0.000727749
0.00357883
0.000848325
0.00433617
0.000967832
0.00524305
0.00107863
0.00632441
0.00117112
0.0076111
0.00123561
0.00913763
0.00126529
0.0109468
0.00125852
0.0130924
0.00122001
0.0156424
0.00115936
0.0186827
0.0223163
0.00108685
0.000123802
0.00130576
0.000147777
0.00193916
0.00019095
0.00237379
0.000253309
0.0028843
0.000328852
0.00350326
0.000413826
0.00425121
0.000504716
0.00515214
0.000597596
0.00623154
0.000687774
0.00752091
0.000770235
0.00905517
0.000839778
0.0108772
0.000891714
0.0130404
0.000922701
0.0156114
0.000931531
0.0186739
0.0223302
0.00091764
0.00018509
0.00112069
0.000234696
0.00188958
0.000264068
0.00234441
0.000295986
0.0028524
0.000334108
0.00346513
0.000379505
0.00420583
0.000432195
0.00509943
0.000490726
0.00617302
0.00055218
0.00745945
0.000612686
0.00899467
0.000668072
0.0108218
0.000714933
0.0129936
0.000751106
0.0155753
0.000775756
0.0186492
0.0223165
0.000789378
7.36641e-05
0.00104705
0.000131913
0.00183137
0.000162341
0.00231398
0.000185931
0.00282883
0.000212137
0.00343892
0.000244514
0.00417347
0.000284628
0.00505932
0.000332588
0.00612507
0.000387961
0.00740407
0.000447532
0.00893511
0.00050746
0.0107619
0.000563177
0.0129379
0.000610741
0.0155277
0.000647712
0.0186122
0.0222924
0.000671854
-4.46426e-05
0.0010917
2.68893e-05
0.00175988
6.95679e-05
0.00227128
9.61819e-05
0.00280222
0.000120309
0.00341478
0.000147887
0.00414589
0.000181316
0.00502588
0.000221744
0.00608465
0.000269206
0.00735661
0.000322682
0.00888164
0.000379886
0.0107047
0.000437491
0.0128803
0.000491721
0.0154735
0.000539428
0.0185645
0.0222512
0.00058062
-5.99939e-05
0.0011517
1.18217e-06
0.0016987
4.81853e-05
0.00222429
7.81104e-05
0.0027723
0.000100832
0.00339206
0.000123204
0.00412353
0.000149408
0.00499967
0.00018069
0.00605337
0.00021791
0.00731938
0.000260828
0.00883873
0.000308347
0.0106572
0.000358539
0.0128301
0.000408862
0.0154232
0.000456501
0.0185169
0.0222086
0.000499085
-2.55577e-05
0.00117726
9.06583e-06
0.00166405
4.88543e-05
0.00218451
7.8708e-05
0.00274244
0.000100424
0.00337035
0.000119546
0.0041044
0.000140002
0.00497922
0.000164116
0.00602926
0.000193088
0.00729041
0.000227249
0.00880457
0.000266096
0.0106183
0.000308463
0.0127877
0.000352604
0.015379
0.000396482
0.018473
0.0221669
0.00043817
-1.23439e-06
0.00117849
1.89041e-05
0.0016439
4.90637e-05
0.00215436
7.62829e-05
0.00271521
9.71543e-05
0.00334948
0.00011454
0.00408702
0.000131807
0.00496196
0.000151345
0.00600972
0.000174685
0.00726707
0.000202595
0.00877666
0.000235054
0.0105859
0.000271338
0.0127514
0.000310232
0.0153401
0.000350125
0.0184331
0.0221279
0.000389145
9.52006e-06
0.00116897
2.45647e-05
0.00162884
4.78528e-05
0.00213107
7.19239e-05
0.00269114
9.20893e-05
0.00332932
0.000108695
0.00407041
0.000124272
0.00494638
0.000141038
0.00599296
0.000160687
0.00724742
0.000184099
0.00875325
0.000211618
0.0105584
0.000242978
0.0127201
0.000277403
0.0153057
0.000313824
0.0183967
0.0220909
0.000350897
1.1934e-05
0.00115704
2.63218e-05
0.00161445
4.58983e-05
0.0021115
6.74101e-05
0.00266962
8.66521e-05
0.00331008
0.000102803
0.00405425
0.000117487
0.0049317
0.000132668
0.00597777
0.000149833
0.00723026
0.000170061
0.00873302
0.000193865
0.0105346
0.000221257
0.0126927
0.000251813
0.0152751
0.000284773
0.0183638
0.0220565
0.000319139
1.15307e-05
0.00114551
2.57727e-05
0.0016002
4.33895e-05
0.00209388
6.29281e-05
0.00265008
8.11846e-05
0.00329183
9.6901e-05
0.00403853
0.000111065
0.00491754
0.000125152
0.00596368
0.000140596
0.00721482
0.000158518
0.0087151
0.000179515
0.0105136
0.000203759
0.0126684
0.00023104
0.0152479
0.000260776
0.018334
0.0220251
0.000292127
1.05609e-05
0.00113495
2.43108e-05
0.00158645
4.06906e-05
0.00207751
5.87075e-05
0.00263206
7.61231e-05
0.00327442
9.1527e-05
0.00402313
0.000105115
0.00490395
0.000118412
0.00595039
0.000132431
0.0072008
0.00014879
0.00869874
0.000167583
0.0104948
0.000189295
0.0126467
0.000213828
0.0152233
0.000240836
0.018307
0.0219963
0.000269642
9.67541e-06
0.00112528
2.26562e-05
0.00157346
3.79969e-05
0.00206217
5.48266e-05
0.00261523
7.15326e-05
0.00325771
8.65235e-05
0.00400813
9.98381e-05
0.00489064
0.000112538
0.00593768
0.000125778
0.00718756
0.000140553
0.00868396
0.000157579
0.0104777
0.000177218
0.0126271
0.000199483
0.0152011
0.000224093
0.0182824
0.0219699
0.000250527
8.91921e-06
0.00111636
2.10245e-05
0.00156136
3.54209e-05
0.00204777
5.13108e-05
0.00259934
6.74297e-05
0.00324159
8.21483e-05
0.00399342
9.51819e-05
0.00487761
0.000107423
0.00592544
0.000119919
0.00717506
0.000133617
0.00867026
0.000149248
0.0104621
0.000167248
0.0126091
0.000187768
0.0151805
0.000210762
0.0182594
0.0219444
0.000236243
8.26295e-06
0.00110809
1.95344e-05
0.00155009
3.30722e-05
0.00203423
4.81733e-05
0.00258424
6.37447e-05
0.00322602
7.81942e-05
0.00397897
9.10086e-05
0.00486479
0.00010289
0.00591356
0.000114795
0.00716316
0.000127622
0.00865744
0.000142099
0.0104476
0.000158709
0.0125925
0.000177682
0.0151616
0.00019904
0.0182381
0.0219209
0.000222582
7.70077e-06
0.00110039
1.82201e-05
0.00153957
3.0958e-05
0.0020215
4.53616e-05
0.00256983
6.03674e-05
0.00321102
7.45644e-05
0.00396477
8.72195e-05
0.00485214
9.88072e-05
0.00590197
0.000110217
0.00715175
0.000122301
0.00864535
0.000135774
0.0104342
0.000151135
0.0125771
0.000168641
0.0151441
0.000188338
0.0182184
0.0218992
0.000210023
7.21235e-06
0.00109318
1.70645e-05
0.00152972
2.91032e-05
0.00200946
4.27745e-05
0.00255616
5.72322e-05
0.00319656
7.11926e-05
0.00395081
8.37454e-05
0.00483958
9.51079e-05
0.00589061
0.000106108
0.00714075
0.000117567
0.00863389
0.000130181
0.0104216
0.00014446
0.0125628
0.000160692
0.0151278
0.00017896
0.0182001
0.021879
0.000199099
6.75516e-06
0.00108643
1.601e-05
0.00152046
2.73927e-05
0.00199808
4.04258e-05
0.00254313
5.43368e-05
0.00318265
6.80533e-05
0.00393709
8.05555e-05
0.00482708
9.17561e-05
0.00587941
0.000102431
0.00713007
0.000113374
0.00862295
0.000125269
0.0104097
0.000138636
0.0125495
0.000153795
0.0151127
0.000170874
0.018183
0.02186
0.000189892
6.36906e-06
0.00108006
1.50698e-05
0.00151176
2.58227e-05
0.00198732
3.82567e-05
0.0025307
5.16953e-05
0.00316921
6.51977e-05
0.00392359
7.76116e-05
0.00481467
8.86993e-05
0.00586832
9.9123e-05
0.00711965
0.000109644
0.00861243
0.000120939
0.0103984
0.000133539
0.0125369
0.000147795
0.0150984
0.00016391
0.0181669
0.021842
0.000181915
5.99424e-06
0.00107406
1.42058e-05
0.00150355
2.44053e-05
0.00197712
3.62977e-05
0.0025188
4.92799e-05
0.00315623
6.2543e-05
0.00391033
7.48753e-05
0.00480234
8.58832e-05
0.00585731
9.6105e-05
0.00710943
0.00010627
0.00860227
0.000117041
0.0103876
0.000128945
0.012525
0.000142334
0.015085
0.000157382
0.0181519
0.0218252
0.000174162
5.66948e-06
0.00106839
1.34369e-05
0.00149578
2.31378e-05
0.00196742
3.45312e-05
0.00250741
4.71162e-05
0.00314365
6.00735e-05
0.00389737
7.23191e-05
0.00479009
8.32862e-05
0.00584635
9.33555e-05
0.00709936
0.000103228
0.00859239
0.000113557
0.0103773
0.000124874
0.0125136
0.000137562
0.0150723
0.000151876
0.0181375
0.0218092
0.000167914
5.38925e-06
0.00106301
1.27598e-05
0.00148841
2.20098e-05
0.00195818
3.29454e-05
0.00249647
4.51102e-05
0.00313148
5.77668e-05
0.00388471
6.99249e-05
0.00477794
8.08881e-05
0.00583538
9.08517e-05
0.0070894
0.00010049
0.00858276
0.000110451
0.0103673
0.000121276
0.0125028
0.000133361
0.0150603
0.000146982
0.0181239
0.0217934
0.000162752
5.13473e-06
0.00105787
1.21546e-05
0.00148139
2.09917e-05
0.00194934
3.14856e-05
0.00248598
4.32478e-05
0.00311972
5.56034e-05
0.00387236
6.76769e-05
0.00476586
7.86462e-05
0.00582441
8.85388e-05
0.00707951
9.7987e-05
0.00857331
0.000107634
0.0103577
0.000118022
0.0124924
0.000129567
0.0150487
0.000142554
0.0181109
0.0217788
0.00015718
4.89248e-06
0.00105298
1.15916e-05
0.00147469
2.00231e-05
0.00194091
3.01174e-05
0.00247589
4.14974e-05
0.00310834
5.35703e-05
0.00386028
6.55485e-05
0.00475389
7.65215e-05
0.00581344
8.6368e-05
0.00706966
9.56615e-05
0.00856401
0.000105039
0.0103483
0.000115039
0.0124824
0.000126097
0.0150377
0.000138542
0.0180985
0.0217646
0.000152729
4.67193e-06
0.00104831
1.10646e-05
0.0014683
1.91502e-05
0.00193282
2.8831e-05
0.00246621
3.98639e-05
0.00309731
5.16784e-05
0.00384847
6.35384e-05
0.00474202
7.45095e-05
0.00580247
8.43275e-05
0.00705984
9.3499e-05
0.00855484
0.000102644
0.0103391
0.000112316
0.0124728
0.000122968
0.015027
0.000134981
0.0180865
0.021751
0.000148596
4.46496e-06
0.00104385
1.05811e-05
0.00146219
1.83317e-05
0.00192507
2.76665e-05
0.00245688
3.83527e-05
0.00308662
4.99119e-05
0.00383691
6.16323e-05
0.0047303
7.25829e-05
0.00579152
8.2384e-05
0.00705004
9.14529e-05
0.00854578
0.000100392
0.0103302
0.000109755
0.0124634
0.000119999
0.0150168
0.000131477
0.018075
0.0217382
0.000144273
4.2673e-06
0.00103958
1.01341e-05
0.00145633
1.75731e-05