/*--------------------------------*- C++ -*----------------------------------*\
| =========                 |                                                 |
| \\      /  F ield         | OpenFOAM: The Open Source CFD Toolbox           |
|  \\    /   O peration     | Version:  2.3.0                                 |
|   \\  /    A nd           | Web:      www.OpenFOAM.org                      |
|    \\/     M anipulation  |                                                 |
\*---------------------------------------------------------------------------*/
FoamFile
{
    version     2.0;
    format      ascii;
    class       volVectorField;
    location    "200";
    object      U;
}
// * * * * * * * * * * * * * * * * * * * * * * * * * * * * * * * * * * * * * //

dimensions      [0 1 -1 0 0 0 0];

internalField   nonuniform List<vector> 
7826
(
(20.7447 0.602828 3.40483e-21)
(20.8047 0.712982 -2.53727e-21)
(20.8727 0.849598 4.2122e-21)
(20.95 1.01156 3.59347e-20)
(21.0323 1.1938 -3.77838e-20)
(21.1093 1.38791 -2.67837e-21)
(21.1671 1.5846 0)
(21.1916 1.77568 0)
(21.1716 1.95506 0)
(21.1004 2.11849 0)
(20.9759 2.26313 0)
(20.7996 2.38796 -4.14297e-20)
(20.5753 2.49456 1.33768e-20)
(20.3075 2.58343 5.58802e-20)
(20.0045 2.64409 -3.09593e-20)
(20.619 0.625572 -1.61526e-21)
(20.6259 0.706015 0)
(20.6206 0.788437 -1.51524e-20)
(20.6029 0.875607 1.49523e-20)
(20.5743 0.968357 -6.16574e-22)
(20.5371 1.06606 -1.43888e-20)
(20.4932 1.16621 1.32807e-20)
(20.4438 1.26492 0)
(20.3896 1.35786 3.8357e-20)
(20.331 1.44108 -3.52398e-20)
(20.2685 1.51151 -5.91188e-20)
(20.203 1.56709 -1.45033e-20)
(20.1357 1.60684 1.02411e-19)
(20.0679 1.63042 -3.60469e-20)
(20.0012 1.63736 -2.43164e-22)
(20.527 0.640613 2.41477e-21)
(20.5224 0.711625 0)
(20.5118 0.780349 3.26578e-21)
(20.4946 0.846075 -3.40108e-21)
(20.47 0.907046 -7.08367e-20)
(20.4383 0.962113 1.42658e-19)
(20.3998 1.01072 -1.52461e-19)
(20.3558 1.05272 7.63046e-20)
(20.3075 1.08817 -8.74165e-20)
(20.2563 1.11723 -7.44907e-21)
(20.2035 1.14016 -6.7277e-21)
(20.1501 1.15723 8.69461e-20)
(20.0973 1.16882 -3.64001e-22)
(20.0457 1.17538 2.42171e-20)
(19.9962 1.1772 -2.28822e-20)
(20.447 0.627357 0)
(20.4307 0.680605 3.45648e-20)
(20.4093 0.730344 -3.87058e-20)
(20.3835 0.776754 -5.32362e-22)
(20.3542 0.819347 -2.49084e-22)
(20.3222 0.857672 0)
(20.2883 0.891414 9.21043e-20)
(20.2532 0.920421 6.14291e-21)
(20.2173 0.944701 -8.95606e-20)
(20.1811 0.96436 4.94305e-20)
(20.145 0.979617 -4.74293e-20)
(20.1093 0.990741 0)
(20.0744 0.998046 -1.19471e-23)
(20.0405 1.00188 -8.15453e-22)
(20.0078 1.00252 -4.20953e-22)
(20.3892 0.609789 5.1592e-21)
(20.371 0.650754 -4.03024e-22)
(20.3497 0.688213 -3.00229e-21)
(20.3259 0.722076 -4.57341e-20)
(20.3 0.752224 4.68319e-20)
(20.2725 0.778627 -1.6108e-21)
(20.2438 0.801365 1.63799e-21)
(20.2143 0.820583 0)
(20.1844 0.836479 5.51414e-20)
(20.1545 0.849263 -5.26374e-20)
(20.1247 0.859141 0)
(20.0953 0.866329 -5.72966e-20)
(20.0664 0.871038 5.64346e-20)
(20.0382 0.873474 4.53623e-22)
(20.0108 0.873808 4.68317e-22)
(20.3439 0.588686 3.04217e-20)
(20.3251 0.620333 -2.10529e-20)
(20.3044 0.649045 3.00296e-21)
(20.2823 0.674726 0)
(20.259 0.697471 1.59248e-21)
(20.235 0.717353 1.63428e-21)
(20.2105 0.734487 -5.99361e-20)
(20.1856 0.749003 -2.49015e-21)
(20.1607 0.761053 5.53731e-20)
(20.1357 0.770789 6.08256e-20)
(20.1109 0.778348 -5.88194e-20)
(20.0864 0.783864 -9.64194e-22)
(20.0622 0.787468 -3.29299e-20)
(20.0385 0.789291 1.62496e-20)
(20.0152 0.789435 1.72727e-20)
(20.3094 0.568059 2.696e-20)
(20.2915 0.592985 -2.60916e-20)
(20.2725 0.615649 0)
(20.2526 0.635794 0)
(20.2321 0.653611 0)
(20.211 0.669198 1.84784e-21)
(20.1896 0.682668 1.81309e-21)
(20.168 0.694134 6.16128e-20)
(20.1463 0.703706 -6.07013e-20)
(20.1245 0.711486 -9.76967e-22)
(20.1027 0.717568 -3.39394e-20)
(20.0811 0.722032 3.3686e-20)
(20.0597 0.724955 -5.82881e-24)
(20.0386 0.726419 -1.08935e-21)
(20.0178 0.726487 -9.10283e-21)
(20.2824 0.548829 -3.63633e-21)
(20.2657 0.56876 -2.87587e-20)
(20.2484 0.587127 2.66095e-20)
(20.2305 0.603437 -6.19664e-20)
(20.2121 0.617926 5.92191e-20)
(20.1934 0.630672 -1.88772e-21)
(20.1745 0.641763 0)
(20.1553 0.651273 0)
(20.1359 0.659267 6.56457e-20)
(20.1165 0.665811 -6.62809e-20)
(20.097 0.67096 1.07385e-21)
(20.0776 0.674759 1.11215e-21)
(20.0582 0.677254 1.9631e-20)
(20.039 0.67849 5.06834e-22)
(20.0201 0.678506 -2.02462e-20)
(20.2609 0.531537 7.48561e-21)
(20.2457 0.547726 0)
(20.2299 0.562931 1.85906e-21)
(20.2137 0.576479 3.12888e-20)
(20.1972 0.588595 -1.05842e-21)
(20.1804 0.599334 9.4451e-22)
(20.1633 0.608755 -1.11355e-21)
(20.146 0.616896 -3.31698e-20)
(20.1285 0.62379 1.07146e-21)
(20.1108 0.629469 0)
(20.093 0.633962 0)
(20.0751 0.637293 -4.03629e-20)
(20.0572 0.63949 3.81116e-20)
(20.0394 0.640571 0)
(20.0218 0.640558 0)
(20.2438 0.516307 -3.81484e-21)
(20.2297 0.529637 0)
(20.2154 0.542384 0)
(20.2007 0.553853 3.99669e-21)
(20.1857 0.564205 3.30446e-20)
(20.1704 0.573475 -3.08202e-20)
(20.1548 0.581684 2.11772e-21)
(20.1389 0.588832 -2.19903e-21)
(20.1228 0.594934 0)
(20.1065 0.599981 0)
(20.0899 0.603983 1.19234e-21)
(20.0733 0.606966 1.22276e-21)
(20.0566 0.608939 0)
(20.0399 0.609905 0)
(20.0233 0.609872 0)
(20.2299 0.502861 0)
(20.217 0.514085 0)
(20.2039 0.524829 0)
(20.1904 0.534686 3.12978e-20)
(20.1767 0.543692 -6.72536e-20)
(20.1625 0.551849 3.18099e-20)
(20.1481 0.559153 -3.56142e-20)
(20.1334 0.56556 1.3769e-21)
(20.1184 0.571078 3.66654e-20)
(20.1031 0.575658 0)
(20.0877 0.579278 -2.11164e-20)
(20.0719 0.581979 1.74767e-20)
(20.0561 0.583775 2.10864e-20)
(20.0403 0.584638 -1.03684e-20)
(20.0245 0.584585 -1.09219e-20)
(20.2184 0.490872 -1.93707e-21)
(20.2069 0.500429 0)
(20.1948 0.509596 0)
(20.1822 0.518235 3.61619e-20)
(20.1695 0.526237 -3.18376e-20)
(20.1562 0.533537 3.77083e-20)
(20.1428 0.540166 -3.5561e-20)
(20.129 0.546003 -2.31381e-21)
(20.1149 0.551095 1.91734e-20)
(20.1006 0.555331 -4.1449e-20)
(20.0859 0.558633 1.98501e-20)
(20.0709 0.561092 -1.8322e-20)
(20.0557 0.562755 1.29487e-20)
(20.0406 0.563509 1.08306e-20)
(20.0254 0.563422 -2.81243e-21)
(20.2089 0.479549 4.75907e-23)
(20.1984 0.48811 -1.46755e-20)
(20.1874 0.496196 1.66837e-20)
(20.1754 0.503945 2.56731e-23)
(20.1637 0.511266 -2.19586e-21)
(20.151 0.517864 -2.0222e-20)
(20.1385 0.524018 1.80482e-20)
(20.1253 0.529356 -1.65738e-20)
(20.1119 0.534169 1.65919e-20)
(20.0983 0.538177 2.46185e-21)
(20.0847 0.541143 2.05041e-20)
(20.0701 0.543322 -2.06433e-20)
(20.0556 0.544929 -5.35368e-21)
(20.041 0.545578 -2.82096e-21)
(20.0263 0.545485 8.43414e-21)
(20.1996 0.469081 -2.16589e-21)
(20.1907 0.477571 1.3878e-23)
(20.181 0.48461 0)
(20.1691 0.491457 -4.29988e-21)
(20.1586 0.498454 2.21059e-21)
(20.1462 0.504356 -1.6013e-20)
(20.1346 0.510256 1.83218e-20)
(20.1219 0.514922 2.42767e-21)
(20.1091 0.519611 -2.33962e-24)
(20.096 0.523747 -2.01067e-20)
(20.0836 0.526458 2.03364e-20)
(20.0697 0.52823 0)
(20.0563 0.529887 5.49023e-21)
(20.0426 0.530195 -8.57397e-21)
(20.028 0.530224 5.66763e-21)
(19.6427 2.60472 0)
(19.351 2.51965 -2.87191e-22)
(19.1152 2.41036 -9.25919e-20)
(18.9361 2.29025 1.05069e-19)
(18.8118 2.15361 -1.17252e-21)
(18.7405 1.99904 2.45611e-21)
(18.7182 1.82797 3.43012e-19)
(18.7384 1.64342 -3.67704e-19)
(18.7923 1.45004 0)
(18.8693 1.25444 -2.80084e-21)
(18.9579 1.06482 0)
(19.0483 0.889852 0)
(19.1334 0.736668 4.05091e-19)
(19.2104 0.608923 -4.27424e-19)
(19.279 0.498515 1.84437e-20)
(19.935 1.62996 0)
(19.8695 1.60764 2.45894e-22)
(19.8042 1.56844 -3.28107e-23)
(19.74 1.51395 9.20446e-20)
(19.678 1.44549 -9.99816e-20)
(19.6192 1.36499 -8.10602e-22)
(19.5643 1.27498 1.82782e-21)
(19.514 1.17862 0)
(19.4692 1.07945 2.22708e-21)
(19.4312 0.980874 -5.50083e-21)
(19.4019 0.885556 -5.06645e-21)
(19.3833 0.79495 -3.62244e-19)
(19.3771 0.709125 3.77901e-19)
(19.3839 0.627413 2.30734e-20)
(19.4021 0.54435 -4.18565e-20)
(19.9479 1.17505 0)
(19.8991 1.16877 8.74858e-22)
(19.8491 1.15756 -6.44272e-20)
(19.7988 1.14116 6.6487e-20)
(19.749 1.11915 -7.96615e-20)
(19.7007 1.09121 -9.17734e-20)
(19.655 1.05703 1.86451e-19)
(19.6131 1.01633 0)
(19.5762 0.968924 1.49373e-21)
(19.5454 0.914859 0)
(19.5215 0.854494 -2.7518e-19)
(19.5049 0.788765 1.41818e-19)
(19.4955 0.719252 7.03531e-21)
(19.4928 0.648021 1.63475e-19)
(19.496 0.574209 -3.64432e-20)
(19.9758 1.00034 7.29431e-21)
(19.9434 0.995263 -8.52014e-21)
(19.9101 0.986883 -3.39774e-20)
(19.8761 0.974951 3.76321e-20)
(19.8418 0.959172 -8.1144e-20)
(19.8075 0.939306 8.47114e-20)
(19.7734 0.915147 -9.53285e-20)
(19.74 0.886536 9.98844e-20)
(19.7077 0.853435 -2.26064e-19)
(19.6772 0.815892 2.32804e-19)
(19.6492 0.774089 0)
(19.6244 0.728361 0)
(19.6037 0.679166 -8.95555e-21)
(19.588 0.626922 -9.16288e-21)
(19.5779 0.570583 1.79378e-20)
(19.9839 0.872233 4.86905e-22)
(19.9568 0.868692 0)
(19.9291 0.862949 -3.65066e-20)
(19.901 0.854853 -6.85101e-22)
(19.8727 0.844208 3.79231e-20)
(19.8443 0.830821 8.73303e-20)
(19.8161 0.814499 -1.80448e-19)
(19.7884 0.795042 -2.82908e-21)
(19.7615 0.772266 9.80934e-20)
(19.7357 0.746005 0)
(19.7114 0.716143 0)
(19.6892 0.68266 0)
(19.6695 0.645653 1.21249e-19)
(19.6527 0.605196 -1.22809e-19)
(19.6394 0.560811 0)
(19.9923 0.788015 -5.36686e-22)
(19.9692 0.784997 3.66433e-20)
(19.9458 0.780243 -3.61946e-20)
(19.9222 0.773663 4.02044e-20)
(19.8984 0.765136 -1.24987e-19)
(19.8746 0.754539 1.7248e-19)
(19.8508 0.741754 -1.82522e-19)
(19.8273 0.726658 1.91911e-19)
(19.8042 0.709118 2.54914e-21)
(19.7816 0.689003 -1.05066e-19)
(19.7599 0.666206 -1.12882e-19)
(19.7392 0.640643 1.15814e-19)
(19.72 0.612288 7.77588e-21)
(19.7025 0.581102 -4.73607e-20)
(19.687 0.547093 3.7752e-20)
(19.9972 0.725228 9.16802e-21)
(19.9765 0.72262 2.41738e-21)
(19.9557 0.718573 -2.52258e-21)
(19.9348 0.713032 -4.3518e-20)
(19.9138 0.705926 4.39271e-20)
(19.8929 0.697185 4.52219e-20)
(19.8721 0.686734 -4.58126e-20)
(19.8516 0.674498 0)
(19.8313 0.660382 3.18252e-21)
(19.8115 0.644286 1.05674e-19)
(19.7923 0.626115 -1.07883e-19)
(19.7738 0.605766 3.49668e-21)
(19.7563 0.583161 0)
(19.7399 0.558199 -3.02246e-20)
(19.7252 0.530903 2.14383e-20)
(20.0013 0.677345 0)
(19.9824 0.674991 -1.30034e-21)
(19.9635 0.671391 2.55572e-20)
(19.9446 0.666505 -2.15968e-20)
(19.9257 0.660298 -4.39862e-20)
(19.9069 0.652739 4.55804e-20)
(19.8883 0.643786 0)
(19.8699 0.6334 5.23868e-20)
(19.8518 0.621529 -4.98955e-20)
(19.8341 0.608108 0)
(19.8169 0.59307 3.33104e-21)
(19.8002 0.576336 -6.95971e-21)
(19.7841 0.55783 0)
(19.7688 0.537523 7.46091e-21)
(19.7547 0.515471 -7.37143e-21)
(20.0043 0.639475 0)
(19.9868 0.637314 -5.36962e-24)
(19.9693 0.634039 -2.67482e-20)
(19.9518 0.629624 2.10906e-20)
(19.9345 0.624055 -1.45835e-21)
(19.9173 0.617332 -4.79062e-20)
(19.9003 0.609443 -9.6491e-22)
(19.8836 0.600367 4.28923e-20)
(19.8672 0.590086 0)
(19.8511 0.578563 5.2536e-20)
(19.8355 0.565758 -5.972e-20)
(19.8204 0.551621 6.87269e-21)
(19.8057 0.536092 0)
(19.7916 0.519175 -1.45253e-20)
(19.7779 0.500591 2.8992e-20)
(20.0068 0.608853 -4.15987e-21)
(19.9903 0.606846 -3.14259e-23)
(19.9739 0.603819 6.16134e-24)
(19.9576 0.599751 2.37497e-20)
(19.9414 0.594648 -2.51282e-20)
(19.9254 0.588537 -4.90106e-20)
(19.9097 0.581431 9.56474e-20)
(19.8942 0.573322 -4.66285e-20)
(19.8791 0.564205 0)
(19.8644 0.554077 -3.24434e-21)
(19.8501 0.542927 3.35717e-21)
(19.8363 0.53074 4.80756e-20)
(19.8229 0.517491 -5.87709e-20)
(19.81 0.503254 -1.43142e-20)
(19.7978 0.487516 -3.66792e-21)
(20.0088 0.583611 -1.44836e-21)
(19.9931 0.581735 4.33584e-21)
(19.9776 0.578922 4.76774e-24)
(19.9623 0.575117 1.50615e-21)
(19.947 0.570361 1.52722e-21)
(19.9319 0.564724 0)
(19.9172 0.558224 6.25657e-21)
(19.9027 0.550851 0)
(19.8887 0.542611 5.18944e-20)
(19.875 0.533532 -4.86194e-20)
(19.8618 0.523626 -5.35909e-20)
(19.849 0.512904 5.7211e-20)
(19.8367 0.501365 6.90408e-21)
(19.8248 0.489097 0)
(19.8132 0.475476 -3.56099e-21)
(20.0104 0.562464 -5.80752e-21)
(19.9953 0.560713 -3.04627e-21)
(19.9806 0.558132 7.46138e-21)
(19.966 0.554541 0)
(19.9516 0.550032 0)
(19.9372 0.544776 -3.10635e-21)
(19.9232 0.538773 -2.54288e-20)
(19.9096 0.531967 2.84675e-20)
(19.8964 0.524391 0)
(19.8836 0.516115 0)
(19.8713 0.507165 0)
(19.8593 0.497574 3.35125e-21)
(19.8479 0.48736 -6.84901e-21)
(19.8369 0.476566 0)
(19.8264 0.464677 0)
(20.0119 0.544505 2.90655e-21)
(19.9971 0.542893 0)
(19.9832 0.540649 0)
(19.9694 0.537229 -1.23113e-20)
(19.9554 0.532839 1.22284e-20)
(19.9415 0.527893 3.12456e-21)
(19.9282 0.522319 2.53743e-20)
(19.9154 0.51595 -3.1629e-20)
(19.9029 0.508854 0)
(19.8908 0.5012 -2.2979e-20)
(19.8792 0.493002 -3.3798e-22)
(19.868 0.484325 -3.68119e-21)
(19.8573 0.475173 3.04162e-20)
(19.8471 0.465568 1.03685e-20)
(19.8377 0.455496 -7.0785e-21)
(20.0141 0.529111 2.94855e-21)
(19.9991 0.527651 -5.96458e-21)
(19.9862 0.525829 1.79089e-20)
(19.9727 0.522334 2.3288e-22)
(19.9589 0.518019 -9.20162e-21)
(19.9452 0.513455 0)
(19.9328 0.508264 -6.25993e-21)
(19.9204 0.502215 3.22128e-21)
(19.9086 0.495441 0)
(19.8969 0.488322 -3.31979e-20)
(19.8861 0.480717 2.63634e-20)
(19.8754 0.472812 -1.33674e-20)
(19.8656 0.464506 -3.50456e-21)
(19.8562 0.455667 1.38154e-20)
(19.8478 0.446011 0)
(19.9593 -0.298899 0)
(19.8622 -0.303302 -2.90928e-19)
(19.7218 -0.308378 3.23832e-19)
(19.5241 -0.312611 0)
(19.2616 -0.315958 0)
(18.9344 -0.318382 6.69067e-21)
(18.5461 -0.320058 1.05025e-18)
(18.1007 -0.321127 -1.76164e-18)
(17.5997 -0.321652 -1.25594e-20)
(17.0395 -0.321598 -3.18844e-21)
(16.4058 -0.321085 1.7546e-18)
(15.6656 -0.319723 -1.03821e-18)
(14.7514 -0.317383 -3.17995e-19)
(13.5715 -0.285199 2.06479e-19)
(12.3801 -0.267644 7.39969e-23)
(19.9544 -0.295939 -1.73289e-20)
(19.8678 -0.299048 1.34435e-19)
(19.7467 -0.303302 -1.79907e-19)
(19.5807 -0.307759 1.15436e-20)
(19.3626 -0.31234 -4.10429e-19)
(19.0902 -0.316814 4.48506e-19)
(18.7632 -0.320878 4.86057e-19)
(18.382 -0.324189 1.37731e-21)
(17.9445 -0.326447 -5.75929e-19)
(17.4438 -0.327437 -5.06426e-21)
(16.8632 -0.327274 3.67258e-19)
(16.168 -0.325468 -2.28234e-21)
(15.3026 -0.321888 -5.1362e-19)
(14.2524 -0.296882 5.23345e-21)
(13.3893 -0.244153 -2.0587e-19)
(19.9512 -0.29554 1.84084e-20)
(19.8739 -0.299891 1.81252e-19)
(19.7682 -0.305405 -1.64946e-19)
(19.6259 -0.310913 -1.19474e-20)
(19.4401 -0.315989 6.45957e-21)
(19.2069 -0.320262 4.36446e-19)
(18.9237 -0.32348 -4.89808e-19)
(18.5881 -0.325517 -5.29545e-19)
(18.1955 -0.326358 -1.24264e-22)
(17.7365 -0.326063 6.48261e-19)
(17.1919 -0.324862 0)
(16.5268 -0.322086 0)
(15.6958 -0.315555 0)
(14.7204 -0.291515 -2.36656e-21)
(13.9834 -0.232546 -1.82064e-19)
(19.9463 -0.294837 -7.83175e-20)
(19.8752 -0.299102 9.6427e-20)
(19.78 -0.304193 1.74192e-19)
(19.6541 -0.308942 -2.00759e-19)
(19.4914 -0.313081 4.346e-19)
(19.2871 -0.31644 1.1077e-21)
(19.0371 -0.318908 -1.01001e-18)
(18.7366 -0.320436 2.7618e-19)
(18.3788 -0.321019 6.07913e-19)
(17.952 -0.320704 -3.362e-19)
(17.4352 -0.319616 -1.18863e-20)
(16.793 -0.317005 -3.39173e-21)
(15.9863 -0.309297 0)
(15.053 -0.284977 4.79287e-21)
(14.3712 -0.227217 -5.58203e-21)
(19.9415 -0.293559 -2.08965e-20)
(19.8756 -0.296736 1.05072e-22)
(19.7895 -0.300967 2.44435e-20)
(19.6776 -0.304955 0)
(19.5342 -0.308507 7.0924e-21)
(19.3539 -0.311488 2.51545e-19)
(19.1311 -0.313759 -7.57247e-21)
(18.8595 -0.315228 -5.7395e-19)
(18.5303 -0.315862 3.10225e-19)
(18.13 -0.31568 0)
(17.6361 -0.314728 5.85348e-21)
(17.0129 -0.312234 3.33962e-21)
(16.2245 -0.304101 1.24652e-19)
(15.3166 -0.279601 -1.52661e-19)
(14.6633 -0.224131 -8.19442e-20)
(19.9377 -0.291389 -5.48411e-20)
(19.877 -0.294263 2.38607e-20)
(19.7992 -0.298113 6.83568e-23)
(19.6993 -0.301673 6.8411e-21)
(19.5718 -0.30486 -2.4078e-19)
(19.4109 -0.307567 2.33833e-19)
(19.2102 -0.309656 0)
(18.962 -0.311034 4.50756e-21)
(18.6563 -0.311667 0)
(18.2781 -0.311567 0)
(17.8035 -0.310713 5.91834e-21)
(17.1965 -0.308282 -6.65902e-21)
(16.4225 -0.300022 -1.29569e-19)
(15.5308 -0.275514 1.42906e-19)
(14.8936 -0.221877 -5.17686e-21)
(19.9343 -0.289376 -2.30435e-20)
(19.8786 -0.292181 6.26312e-20)
(19.8078 -0.29569 -1.32804e-20)
(19.7176 -0.298903 -7.04642e-21)
(19.6028 -0.301799 0)
(19.4575 -0.304297 7.97399e-21)
(19.2747 -0.306271 0)
(19.0457 -0.307633 4.59104e-21)
(18.7596 -0.308331 1.5836e-19)
(18.4 -0.308354 -5.16934e-21)
(17.9419 -0.307622 -1.8899e-19)
(17.3487 -0.305243 6.57172e-21)
(16.5863 -0.296935 -1.80873e-23)
(15.7055 -0.272437 -3.46567e-20)
(15.0781 -0.220004 -3.97388e-20)
(19.9318 -0.288274 -1.24034e-20)
(19.8799 -0.290522 1.0507e-19)
(19.8149 -0.29356 -1.10601e-19)
(19.7327 -0.296469 -7.3154e-21)
(19.6283 -0.299172 -1.15804e-19)
(19.4957 -0.30158 2.61724e-19)
(19.3275 -0.303564 -2.784e-19)
(19.1147 -0.305018 2.92756e-19)
(18.8451 -0.305862 1.58483e-22)
(18.5015 -0.306048 -1.61856e-19)
(18.0579 -0.305441 -5.89467e-21)
(17.4769 -0.303087 0)
(16.7241 -0.29472 -7.79723e-24)
(15.851 -0.270177 4.20246e-20)
(15.2296 -0.218449 -3.79582e-20)
(19.9294 -0.285579 -3.9161e-20)
(19.881 -0.288464 8.21599e-20)
(19.821 -0.291501 -5.73311e-20)
(19.7454 -0.29432 1.20466e-19)
(19.6496 -0.296984 -1.34494e-19)
(19.5274 -0.299436 0)
(19.3715 -0.301557 8.86075e-21)
(19.1721 -0.303222 -1.50515e-19)
(18.9166 -0.304321 -5.09377e-21)
(18.5869 -0.304763 1.72882e-19)
(18.1561 -0.304328 1.0545e-19)
(17.5859 -0.301973 -1.02841e-19)
(16.8417 -0.293386 7.16774e-21)
(15.9745 -0.268508 -8.14463e-21)
(15.3571 -0.216982 -3.65303e-20)
(19.9268 -0.284089 2.02196e-20)
(19.8818 -0.286822 0)
(19.8262 -0.289663 -7.43247e-21)
(19.7563 -0.292426 1.31669e-19)
(19.6676 -0.295113 -1.29604e-19)
(19.5541 -0.297674 0)
(19.4084 -0.300006 -8.96175e-21)
(19.2205 -0.301982 0)
(18.9772 -0.303463 5.04473e-21)
(18.6598 -0.304306 8.09785e-20)
(18.2407 -0.304243 -8.73195e-20)
(17.6809 -0.302051 -1.01331e-19)
(16.9448 -0.293429 4.9163e-20)
(16.0823 -0.268197 4.73494e-20)
(15.4673 -0.216287 1.75162e-20)
(19.9245 -0.28287 -7.14318e-21)
(19.8824 -0.285433 -7.41194e-21)
(19.8304 -0.28812 7.63956e-21)
(19.7652 -0.290819 0)
(19.6824 -0.293542 0)
(19.576 -0.296272 0)
(19.4386 -0.298934 1.45427e-19)
(19.2601 -0.301377 -1.53235e-19)
(19.027 -0.303437 0)
(18.7199 -0.305037 -8.61213e-20)
(18.3105 -0.305755 6.92835e-20)
(17.7598 -0.304149 -3.72887e-20)
(17.0306 -0.294892 6.16384e-20)
(16.1745 -0.268048 1.52743e-20)
(15.5627 -0.214875 1.68933e-20)
(19.9226 -0.281074 2.2523e-20)
(19.8831 -0.28397 -2.29679e-20)
(19.8345 -0.286631 0)
(19.7735 -0.28922 0)
(19.6957 -0.291857 0)
(19.5956 -0.294615 -8.80108e-21)
(19.4657 -0.297488 9.20508e-21)
(19.2959 -0.300379 -9.66021e-21)
(19.0724 -0.302984 0)
(18.7754 -0.305155 0)
(18.3766 -0.3074 2.29393e-20)
(17.836 -0.307482 -2.46028e-20)
(17.1195 -0.300434 -1.32622e-20)
(16.2641 -0.2735 0)
(15.6522 -0.216733 -1.61757e-20)
(19.9195 -0.280134 0)
(19.8822 -0.282914 7.92934e-21)
(19.8364 -0.285491 0)
(19.7786 -0.288008 6.63726e-20)
(19.7044 -0.290663 -5.98641e-20)
(19.6083 -0.293606 8.87706e-21)
(19.4826 -0.296979 -9.24859e-21)
(19.3175 -0.300573 9.66929e-21)
(19.1 -0.303849 0)
(18.8078 -0.30722 0)
(18.4087 -0.311642 -1.1353e-20)
(17.8732 -0.317114 1.2104e-20)
(17.156 -0.307344 2.61199e-20)
(16.3284 -0.273734 0)
(15.7284 -0.212126 0)
(19.9211 -0.278936 1.63877e-20)
(19.8864 -0.28166 -2.45188e-20)
(19.844 -0.284166 0)
(19.7901 -0.286098 0)
(19.7214 -0.288024 -8.76423e-21)
(19.6325 -0.290286 0)
(19.5163 -0.293351 0)
(19.3633 -0.297992 8.85393e-20)
(19.1586 -0.301612 -1.75169e-19)
(18.8829 -0.300864 8.72622e-20)
(18.5045 -0.306854 -4.68631e-20)
(17.9797 -0.320429 1.10573e-19)
(17.3323 -0.330134 -5.42704e-20)
(16.4347 -0.302048 0)
(15.8328 -0.224619 0)
(12.8801 -0.111838 2.73844e-19)
(14.432 -0.162387 -8.136e-19)
(15.7252 -0.176424 6.29029e-19)
(16.684 -0.206339 0)
(17.4487 -0.229106 -8.84264e-19)
(18.0916 -0.248532 -1.0372e-21)
(18.6422 -0.265219 6.7968e-19)
(19.1089 -0.279387 0)
(19.4909 -0.290832 1.06884e-18)
(19.7846 -0.299362 -9.73809e-19)
(19.9895 -0.304913 -3.8645e-23)
(20.1135 -0.307484 -4.00815e-19)
(20.176 -0.307805 -1.13026e-20)
(20.1985 -0.306387 4.54106e-19)
(20.1971 -0.303565 -1.0718e-19)
(13.7904 -0.144517 6.02754e-19)
(15.1013 -0.148517 -3.08287e-19)
(16.3076 -0.167279 -2.12878e-21)
(17.2204 -0.194492 -3.33658e-21)
(17.9287 -0.214696 2.89014e-21)
(18.5031 -0.232282 -2.74528e-21)
(18.9773 -0.247953 5.93926e-19)
(19.3647 -0.26208 -5.36234e-19)
(19.6704 -0.274379 -4.97353e-19)
(19.8972 -0.284373 4.49899e-19)
(20.0507 -0.291582 -4.22078e-19)
(20.1418 -0.295654 4.02993e-19)
(20.1872 -0.296994 1.33703e-22)
(20.2027 -0.296351 1.66615e-19)
(20.1999 -0.29439 -1.51305e-19)
(14.3602 -0.157693 1.77946e-19)
(15.5692 -0.148157 -5.9632e-19)
(16.7219 -0.167145 4.87495e-19)
(17.6004 -0.190597 3.23563e-21)
(18.2672 -0.208519 -7.34107e-19)
(18.7908 -0.223386 -3.42412e-21)
(19.2085 -0.23605 5.88487e-19)
(19.5383 -0.247263 -5.43167e-19)
(19.7898 -0.257215 5.04575e-19)
(19.9706 -0.265896 -4.51494e-19)
(20.09 -0.273113 4.28054e-19)
(20.16 -0.278539 0)
(20.1944 -0.282086 1.48891e-23)
(20.2053 -0.283938 -1.85021e-19)
(20.2016 -0.284368 1.80002e-19)
(14.7456 -0.161935 3.64151e-19)
(15.9102 -0.149541 2.96581e-19)
(17.03 -0.1675 -9.89595e-19)
(17.8809 -0.189053 4.26659e-19)
(18.5137 -0.206231 3.84456e-19)
(18.9962 -0.220012 -3.39114e-19)
(19.3689 -0.231412 0)
(19.6536 -0.24123 0)
(19.8643 -0.249746 5.25101e-19)
(20.0122 -0.257079 -4.83969e-19)
(20.1087 -0.263209 4.52725e-19)
(20.1656 -0.268053 -4.18793e-19)
(20.1942 -0.271623 1.21992e-20)
(20.2038 -0.274055 -1.71736e-19)
(20.2008 -0.275502 1.90845e-19)
(15.0412 -0.163651 4.22143e-19)
(16.1846 -0.151328 8.05465e-22)
(17.282 -0.168299 -2.43405e-19)
(18.1091 -0.188749 -6.66351e-21)
(18.7123 -0.205282 -5.89584e-21)
(19.1599 -0.218228 0)
(19.4951 -0.228757 0)
(19.7433 -0.237678 4.54164e-21)
(19.9216 -0.245319 5.31068e-19)
(20.0437 -0.251823 -1.01027e-18)
(20.1224 -0.257205 4.67067e-19)
(20.1689 -0.261466 0)
(20.1927 -0.264675 0)
(20.201 -0.266992 0)
(20.1988 -0.268618 0)
(15.2768 -0.16432 5.06265e-21)
(16.4098 -0.152561 0)
(17.4906 -0.168796 2.3086e-19)
(18.2966 -0.188491 -2.03125e-19)
(18.8735 -0.204395 0)
(19.2911 -0.216623 -3.3968e-19)
(19.5951 -0.226405 3.21422e-19)
(19.8138 -0.234544 -2.99005e-19)
(19.9666 -0.241417 2.64649e-19)
(20.069 -0.247211 -8.02625e-21)
(20.1341 -0.252009 0)
(20.1723 -0.25588 -2.34412e-19)
(20.1919 -0.258916 2.13039e-19)
(20.1987 -0.261238 -1.25975e-20)
(20.1969 -0.263041 1.19218e-20)
(15.467 -0.164303 2.3245e-19)
(16.5952 -0.152962 -1.33389e-19)
(17.6628 -0.16861 7.26346e-21)
(18.4501 -0.187712 -6.49454e-21)
(19.0035 -0.203063 0)
(19.395 -0.214736 -5.38758e-21)
(19.6728 -0.223968 3.15384e-19)
(19.8674 -0.231545 -2.97258e-19)
(20.0002 -0.237859 8.69673e-21)
(20.0877 -0.243127 8.17861e-21)
(20.1425 -0.247483 0)
(20.1745 -0.251052 7.30934e-21)
(20.1909 -0.253949 0)
(20.1966 -0.256265 1.31449e-20)
(20.195 -0.258155 -1.25242e-20)
(15.6241 -0.163905 0)
(16.7504 -0.152715 8.09281e-21)
(17.8071 -0.167778 -2.35527e-19)
(18.5772 -0.18629 2.11014e-19)
(19.1096 -0.201129 -5.86427e-21)
(19.4783 -0.212378 -5.42106e-21)
(19.7338 -0.221246 3.18107e-19)
(19.9086 -0.22849 -2.91838e-19)
(20.0255 -0.234495 2.75747e-19)
(20.1012 -0.23948 9.56146e-21)
(20.1481 -0.243608 -2.53867e-19)
(20.1754 -0.247024 0)
(20.1894 -0.249853 -7.21922e-21)
(20.1943 -0.252192 0)
(20.193 -0.254273 0)
(15.7573 -0.163008 3.56134e-20)
(16.8831 -0.151697 -7.84403e-21)
(17.9301 -0.16615 6.96713e-21)
(18.6844 -0.18409 0)
(19.1975 -0.198488 1.92635e-19)
(19.546 -0.209458 6.26998e-21)
(19.7823 -0.218155 -1.56882e-19)
(19.9407 -0.22529 1.43629e-19)
(20.0447 -0.231219 -1.44167e-19)
(20.1111 -0.236145 1.37414e-19)
(20.152 -0.240234 -1.30294e-19)
(20.1756 -0.243638 -7.81456e-21)
(20.1876 -0.246483 1.34628e-19)
(20.1919 -0.248854 -1.14358e-19)
(20.1908 -0.250967 -2.79579e-20)
(15.8721 -0.162121 -7.71779e-20)
(16.9976 -0.150076 5.31026e-20)
(18.0354 -0.163539 0)
(18.7749 -0.180735 -1.99994e-19)
(19.2705 -0.194747 1.84431e-19)
(19.6009 -0.205673 0)
(19.8209 -0.21455 0)
(19.9657 -0.221936 0)
(20.0593 -0.228075 1.56207e-19)
(20.1184 -0.233152 -2.88415e-19)
(20.1544 -0.23734 2.59163e-19)
(20.1751 -0.240815 -1.12097e-19)
(20.1857 -0.243713 2.89023e-23)
(20.1895 -0.246109 5.96868e-20)
(20.1887 -0.248165 -2.90502e-20)
(15.9731 -0.159625 -2.46129e-20)
(17.0996 -0.146576 1.25615e-19)
(18.1289 -0.159262 8.42585e-22)
(18.8538 -0.176067 -2.08778e-19)
(19.3325 -0.190084 9.15074e-20)
(19.6463 -0.201425 -1.08597e-20)
(19.8515 -0.21086 0)
(19.9848 -0.218766 0)
(20.07 -0.225339 0)
(20.1233 -0.230685 -1.33812e-19)
(20.1556 -0.235031 8.07261e-21)
(20.1742 -0.238592 1.15161e-19)
(20.1837 -0.241535 -1.59362e-20)
(20.1872 -0.243945 6.9645e-20)
(20.1867 -0.245893 -7.49948e-20)
(16.0629 -0.158549 1.5772e-20)
(17.1857 -0.143014 0)
(18.205 -0.153532 -1.17381e-19)
(18.9161 -0.169027 1.09329e-20)
(19.3802 -0.183064 7.91273e-20)
(19.6799 -0.195386 -7.61811e-20)
(19.8744 -0.206457 2.4783e-19)
(19.9987 -0.215864 -3.15249e-19)
(20.0776 -0.22321 2.92322e-19)
(20.1265 -0.228913 -1.4462e-19)
(20.156 -0.233361 -8.74938e-21)
(20.1729 -0.236963 1.68893e-20)
(20.1816 -0.239941 -2.89864e-23)
(20.1849 -0.242404 -7.98482e-21)
(20.1847 -0.244438 -7.84294e-21)
(16.1455 -0.148866 0)
(17.2756 -0.133021 0)
(18.2889 -0.144241 5.15049e-20)
(18.9857 -0.16087 -1.55897e-19)
(19.4301 -0.176267 1.01732e-19)
(19.7137 -0.191472 1.09096e-20)
(19.8925 -0.204654 0)
(20.0093 -0.214606 0)
(20.083 -0.222404 9.51414e-21)
(20.1289 -0.228001 6.44159e-20)
(20.1562 -0.23236 -1.42186e-19)
(20.1717 -0.235958 5.17106e-20)
(20.1796 -0.238907 -2.74561e-23)
(20.1828 -0.241285 0)
(20.1828 -0.243154 0)
(16.2179 -0.148751 1.44922e-20)
(17.319 -0.129087 -5.34656e-20)
(18.3121 -0.133212 6.10577e-20)
(18.9915 -0.145627 1.169e-20)
(19.4357 -0.162378 8.9998e-20)
(19.7068 -0.179937 -1.83915e-19)
(19.9011 -0.199349 9.38513e-20)
(20.0143 -0.214109 -8.02118e-20)
(20.0872 -0.222482 7.76874e-20)
(20.1301 -0.227843 0)
(20.1552 -0.231722 8.97424e-21)
(20.1694 -0.23508 8.75811e-21)
(20.1777 -0.238132 1.72314e-20)
(20.1808 -0.240455 8.45958e-21)
(20.1811 -0.242342 0)
(19.889 0.245925 -1.20265e-18)
(20.9241 -0.0978005 1.89035e-21)
(21.1658 -0.0425586 -3.19452e-19)
(21.3519 0.0424837 2.60825e-19)
(21.4999 0.130975 0)
(21.606 0.218951 -1.54203e-19)
(21.6637 0.308506 1.41786e-19)
(21.668 0.395636 1.00136e-19)
(21.6187 0.473165 -8.74968e-20)
(21.522 0.533177 1.0005e-20)
(21.3912 0.569142 2.89783e-21)
(21.2443 0.577654 0)
(21.0993 0.560208 9.63853e-21)
(20.9696 0.522556 -1.89408e-20)
(20.8593 0.481057 -2.39193e-21)
(16.4328 -0.564465 -1.17832e-18)
(19.3943 -0.19534 3.05553e-19)
(19.8246 -0.209287 5.26784e-21)
(20.1324 -0.182934 -1.2875e-19)
(20.4062 -0.136799 1.9071e-19)
(20.6535 -0.080092 -7.29016e-20)
(20.8665 -0.0167398 6.61365e-20)
(21.0351 0.0504854 -6.59467e-20)
(21.1502 0.118425 4.48727e-20)
(21.2072 0.183303 -5.65538e-20)
(21.2082 0.240998 -3.53589e-21)
(21.1626 0.287232 2.42567e-20)
(21.0854 0.318553 -2.19271e-20)
(20.9932 0.332041 5.76827e-21)
(20.8995 0.335992 1.339e-21)
(13.997 -0.41118 0)
(18.9288 -0.0835469 -2.27888e-19)
(19.494 -0.147919 1.32665e-19)
(19.78 -0.139006 -3.53978e-21)
(20.0438 -0.114439 -1.48466e-21)
(20.2909 -0.0861262 5.22738e-20)
(20.5142 -0.0527459 -8.80872e-20)
(20.7055 -0.0138148 7.69406e-20)
(20.8566 0.0292811 -3.34413e-20)
(20.9613 0.0739559 1.34026e-21)
(21.0175 0.117126 2.39298e-20)
(21.0284 0.155744 -2.22175e-21)
(21.0027 0.187554 4.3174e-21)
(20.9518 0.210113 -2.82418e-21)
(20.8881 0.227714 -9.30222e-21)
(12.5762 -0.303295 0)
(18.6867 -0.159534 -2.21565e-21)
(19.4614 -0.237562 -1.86134e-19)
(19.7483 -0.2171 2.57232e-19)
(19.9896 -0.199552 -2.31263e-21)
(20.2135 -0.181354 -1.4234e-19)
(20.418 -0.15786 5.79574e-20)
(20.5971 -0.127527 0)
(20.7441 -0.0906781 -2.14178e-21)
(20.853 -0.0487687 7.31635e-21)
(20.9208 -0.00439355 3.11386e-21)
(20.9486 0.0390207 -1.28129e-20)
(20.9422 0.0781593 1.9959e-20)
(20.9104 0.110033 -1.89165e-20)
(20.8637 0.132015 7.02002e-21)
(12.6867 -0.205426 5.91441e-21)
(18.0295 -0.299122 2.22679e-19)
(19.1673 -0.309197 -1.28829e-21)
(19.5923 -0.278186 -5.9377e-22)
(19.8583 -0.264393 0)
(20.0816 -0.249817 -2.21198e-21)
(20.2827 -0.230724 4.93151e-20)
(20.4616 -0.205927 -4.11924e-20)
(20.6137 -0.175188 2.31979e-21)
(20.7336 -0.138803 -3.72427e-21)
(20.8174 -0.0979927 -2.26102e-21)
(20.8644 -0.0550162 -4.49967e-21)
(20.8777 -0.012749 5.29358e-21)
(20.8641 0.0264043 0)
(20.8324 0.0556293 0)
(13.5744 -0.182192 2.05742e-19)
(17.2105 -0.354084 -1.19261e-21)
(18.7254 -0.307589 -8.21886e-20)
(19.3635 -0.286114 6.08715e-20)
(19.6996 -0.275355 0)
(19.941 -0.263844 -4.05974e-20)
(20.1457 -0.249412 3.40719e-20)
(20.3264 -0.231 2.69943e-20)
(20.4828 -0.207837 5.89568e-22)
(20.6113 -0.17966 -1.93242e-20)
(20.7082 -0.146903 1.5699e-20)
(20.772 -0.110754 -1.30945e-21)
(20.8039 -0.073097 -2.01879e-20)
(20.8083 -0.0351836 1.30516e-20)
(20.7916 -0.00365377 -1.70112e-21)
(14.0627 -0.228381 1.2574e-19)
(16.76 -0.325373 -7.42095e-20)
(18.3486 -0.291123 -5.58033e-20)
(19.1467 -0.282768 8.73675e-20)
(19.5686 -0.272946 -4.02784e-24)
(19.8399 -0.263396 -2.55488e-20)
(20.0517 -0.252567 2.30833e-20)
(20.2323 -0.239127 -2.27336e-22)
(20.3883 -0.221877 -1.71695e-20)
(20.5188 -0.200247 1.41865e-20)
(20.6211 -0.174284 -1.04714e-20)
(20.6935 -0.144635 -6.29179e-21)
(20.7368 -0.112585 8.75997e-21)
(20.754 -0.0788187 -8.84941e-21)
(20.7495 -0.0482982 3.29808e-21)
(14.1881 -0.24794 8.87957e-20)
(16.5236 -0.291587 5.02796e-22)
(18.0668 -0.285009 -6.28029e-22)
(18.9515 -0.281982 -9.71957e-22)
(19.4502 -0.272934 0)
(19.7577 -0.264719 -1.977e-20)
(19.9816 -0.256108 3.18408e-20)
(20.1643 -0.245762 -1.33997e-20)
(20.3194 -0.232418 1.08102e-20)
(20.4497 -0.215334 -1.06687e-20)
(20.5539 -0.194261 4.485e-22)
(20.6308 -0.169474 -1.8022e-21)
(20.6808 -0.141855 0)
(20.7062 -0.111903 0)
(20.7108 -0.0831676 -7.72583e-22)
(14.1049 -0.24717 0)
(16.3664 -0.274277 0)
(17.8525 -0.283045 1.25112e-22)
(18.7747 -0.281725 1.88822e-20)
(19.3321 -0.274471 -1.35483e-22)
(19.6771 -0.267246 -6.46755e-22)
(19.9175 -0.259879 -1.00953e-20)
(20.1053 -0.251322 7.76324e-21)
(20.2612 -0.240498 -2.38672e-23)
(20.3916 -0.22659 -5.79761e-21)
(20.4971 -0.209161 4.21374e-21)
(20.5771 -0.188205 -5.86097e-22)
(20.6319 -0.164237 -3.40736e-21)
(20.6634 -0.137561 1.35606e-21)
(20.675 -0.110203 -5.46838e-22)
(13.9607 -0.241786 0)
(16.2221 -0.268052 -2.83148e-23)