/*--------------------------------*- C++ -*----------------------------------*\
| =========                 |                                                 |
| \\      /  F ield         | OpenFOAM: The Open Source CFD Toolbox           |
|  \\    /   O peration     | Version:  2.3.0                                 |
|   \\  /    A nd           | Web:      www.OpenFOAM.org                      |
|    \\/     M anipulation  |                                                 |
\*---------------------------------------------------------------------------*/
FoamFile
{
    version     2.0;
    format      ascii;
    class       volScalarField;
    location    "5000";
    object      nut;
}
// * * * * * * * * * * * * * * * * * * * * * * * * * * * * * * * * * * * * * //

dimensions      [0 2 -1 0 0 0 0];

internalField   nonuniform List<scalar> 
39608
(
0.0508767
0.0492522
0.0476418
0.0460484
0.0444742
0.0429198
0.0413868
0.0398762
0.0383895
0.0369273
0.0354913
0.0340824
0.0327022
0.0313532
0.0300372
0.0287586
0.0275189
0.0263198
0.0251633
0.0240549
0.0229927
0.0219615
0.0209465
0.0199474
0.0189664
0.0180086
0.0170751
0.0161688
0.0152894
0.0144361
0.013608
0.0128028
0.0120175
0.0112496
0.0104948
0.00974967
0.00901118
0.00827632
0.00754357
0.00681462
0.00609391
0.00541194
0.00495027
0.0528112
0.0513835
0.0499685
0.0485674
0.0471809
0.0458097
0.0444554
0.0431183
0.0417985
0.0404975
0.0392148
0.0379518
0.0367084
0.0354849
0.0342827
0.0331011
0.0319422
0.0308057
0.0296921
0.0286021
0.0275363
0.0264936
0.0254723
0.0244727
0.0234951
0.022541
0.0216127
0.0207117
0.0198416
0.0190035
0.0182015
0.0174396
0.0167212
0.016052
0.0154388
0.0148901
0.0144148
0.0140245
0.0137321
0.01355
0.0134939
0.0135773
0.0138115
0.0545654
0.0533054
0.0520558
0.0508166
0.0495885
0.0483726
0.0471691
0.0459782
0.0448009
0.0436374
0.0424883
0.0413537
0.0402339
0.0391289
0.0380399
0.0369658
0.0359084
0.0348675
0.0338442
0.0328381
0.0318506
0.0308824
0.0299334
0.0290051
0.028098
0.0272149
0.0263569
0.0255266
0.024727
0.0239616
0.0232331
0.0225463
0.0219068
0.0213206
0.0207939
0.0203339
0.0199511
0.0196531
0.0194501
0.0193523
0.0193666
0.0194988
0.0197502
0.0561544
0.0550374
0.0539285
0.0528275
0.0517348
0.0506503
0.0495745
0.0485078
0.0474506
0.0464034
0.0453663
0.0443404
0.0433256
0.0423224
0.0413301
0.0403499
0.0393817
0.038426
0.0374838
0.0365565
0.0356436
0.0347464
0.0338662
0.033004
0.0321615
0.0313398
0.0305422
0.0297708
0.0290293
0.0283198
0.0276473
0.0270159
0.0264313
0.0258991
0.0254263
0.0250196
0.0246868
0.024436
0.0242746
0.0242103
0.0242493
0.0243953
0.024649
0.0575912
0.0565969
0.0556088
0.0546265
0.0536488
0.0526764
0.051709
0.0507475
0.0497924
0.0488431
0.0479008
0.0469654
0.0460387
0.0451205
0.0442106
0.0433089
0.0424162
0.0415331
0.0406602
0.0397979
0.0389479
0.0381115
0.0372895
0.036483
0.0356938
0.0349237
0.0341749
0.0334507
0.0327537
0.0320881
0.0314577
0.0308673
0.0303223
0.0298286
0.0293924
0.0290208
0.0287207
0.0284991
0.0283631
0.028319
0.0283715
0.0285236
0.0287773
0.0588873
0.0579998
0.057116
0.0562349
0.0553562
0.0544796
0.0536052
0.0527333
0.0518646
0.0509991
0.0501364
0.0492773
0.0484233
0.0475758
0.046735
0.0459001
0.0450708
0.0442483
0.0434335
0.0426257
0.0418277
0.0410412
0.0402675
0.0395079
0.0387632
0.0380357
0.0373272
0.0366409
0.0359801
0.0353487
0.0347509
0.0341917
0.0336759
0.0332102
0.0327999
0.032453
0.0321752
0.0319733
0.0318542
0.0318231
0.0318838
0.0320394
0.0322917
0.0600589
0.059262
0.0584678
0.057674
0.0568804
0.0560866
0.0552918
0.0544954
0.0537001
0.0529069
0.0521136
0.0513181
0.0505239
0.0497352
0.0489517
0.0481725
0.0473975
0.0466266
0.0458605
0.0450996
0.0443443
0.0435979
0.0428638
0.0421429
0.041436
0.0407443
0.0400699
0.039415
0.0387833
0.03818
0.0376085
0.0370735
0.0365801
0.0361346
0.0357433
0.0354132
0.0351514
0.0349641
0.0348573
0.0348351
0.0349015
0.0350598
0.0353105
0.0611073
0.0603959
0.0596816
0.0589612
0.0582419
0.0575182
0.0567949
0.0560616
0.0553271
0.0545951
0.0538651
0.0531271
0.0523806
0.0516382
0.0509018
0.0501702
0.0494412
0.0487141
0.0479893
0.0472701
0.0465533
0.0458372
0.0451338
0.0444437
0.0437686
0.0431082
0.0424629
0.0418358
0.041229
0.0406466
0.040098
0.0395821
0.0391075
0.0386775
0.0383008
0.0379809
0.0377299
0.0375533
0.0374562
0.0374412
0.0375135
0.0376726
0.0379226
0.0620577
0.0614201
0.0607776
0.0601097
0.0594578
0.0587876
0.0581372
0.057458
0.0567734
0.0560835
0.0554082
0.0547342
0.0540271
0.0533202
0.0526193
0.0519229
0.0512324
0.0505431
0.0498507
0.049165
0.0484936
0.0478016
0.0471226
0.0464535
0.0458025
0.0451687
0.0445489
0.0439476
0.0433693
0.0427967
0.042274
0.0417703
0.0413152
0.0408941
0.0405362
0.0402189
0.0399741
0.039806
0.0397177
0.0397059
0.0397886
0.0399426
0.0401972
0.00577608
0.00744472
0.00856182
0.00968478
0.010879
0.0121405
0.0134554
0.0148101
0.0161963
0.0176083
0.0190412
0.0204916
0.0219566
0.0234351
0.0249256
0.0264275
0.0279396
0.0294616
0.0309932
0.0325337
0.0340829
0.0356408
0.0372068
0.0387807
0.0403625
0.0419514
0.0435473
0.0451499
0.0467587
0.0483733
0.049993
0.0516172
0.0532458
0.0548781
0.0565133
0.0581508
0.0597902
0.0614304
0.0630708
0.0647104
0.0663478
0.0679819
0.0696147
0.0142043
0.0147547
0.0154519
0.0162827
0.017232
0.01828
0.0194091
0.0206041
0.0218506
0.023139
0.0244599
0.0258063
0.027173
0.0285563
0.0299529
0.0313597
0.0327753
0.034198
0.0356269
0.0370606
0.0384991
0.039942
0.0413882
0.0428374
0.0442902
0.0457456
0.0472034
0.0486631
0.0501246
0.0515879
0.0530523
0.0545176
0.0559839
0.0574511
0.0589186
0.0603862
0.0618538
0.0633209
0.064787
0.0662515
0.0677135
0.0691726
0.070631
0.0201214
0.0206154
0.0212337
0.0219684
0.0228088
0.0237422
0.0247553
0.0258357
0.0269711
0.0281519
0.0293689
0.0306147
0.0318833
0.0331702
0.0344708
0.0357817
0.0371009
0.0384262
0.0397552
0.0410874
0.042422
0.043758
0.0450948
0.0464317
0.0477688
0.0491055
0.050441
0.0517752
0.0531082
0.0544396
0.0557692
0.0570971
0.0584231
0.0597477
0.0610707
0.0623918
0.0637112
0.0650288
0.0663446
0.0676577
0.0689678
0.0702744
0.07158
0.0250093
0.0254789
0.0260587
0.0267426
0.027522
0.0283871
0.0293269
0.030331
0.0313892
0.0324919
0.0336308
0.0347983
0.0359884
0.0371963
0.0384172
0.0396473
0.0408845
0.0421259
0.0433697
0.0446147
0.04586
0.0471046
0.0483478
0.0495885
0.0508267
0.0520617
0.0532928
0.05452
0.0557429
0.0569616
0.0581759
0.0593862
0.0605924
0.0617947
0.0629937
0.0641893
0.0653816
0.0665707
0.0677567
0.068939
0.0701169
0.0712907
0.0724626
0.0291312
0.0295857
0.0301417
0.0307934
0.031533
0.0323525
0.0332423
0.0341927
0.0351943
0.0362385
0.0373174
0.0384236
0.039551
0.0406944
0.0418495
0.0430126
0.0441807
0.0453513
0.0465228
0.0476942
0.0488642
0.0500315
0.0511956
0.0523556
0.0535103
0.0546591
0.0558018
0.0569379
0.0580673
0.0591898
0.0603059
0.0614158
0.0625196
0.0636178
0.0647107
0.0657987
0.0668821
0.0679608
0.0690351
0.0701042
0.0711675
0.0722248
0.0732793
0.0326406
0.0330846
0.033624
0.0342531
0.0349653
0.035752
0.0366054
0.0375161
0.038475
0.0394745
0.0405067
0.0415642
0.042641
0.0437317
0.0448325
0.0459396
0.0470495
0.0481604
0.0492714
0.0503806
0.0514872
0.0525903
0.0536889
0.0547812
0.0558655
0.0569414
0.058009
0.0590678
0.0601178
0.0611585
0.0621904
0.0632146
0.0642312
0.0652406
0.066243
0.0672387
0.0682286
0.0692127
0.0701909
0.0711623
0.0721259
0.0730813
0.0740305
0.0356538
0.03609
0.0366176
0.0372305
0.0379219
0.0386846
0.0395094
0.0403895
0.0413159
0.0422805
0.0432752
0.044293
0.0453282
0.0463757
0.0474309
0.0484903
0.0495502
0.0506104
0.0516702
0.0527271
0.053781
0.0548315
0.0558766
0.0569121
0.0579359
0.058949
0.0599526
0.060946
0.0619283
0.0628985
0.0638581
0.0648094
0.0657519
0.0666855
0.06761
0.0685262
0.069436
0.0703394
0.0712354
0.0721226
0.0729997
0.0738659
0.0747227
0.0382589
0.0386883
0.039208
0.0398096
0.040484
0.041227
0.0420292
0.0428847
0.0437859
0.0447234
0.0456881
0.0466724
0.0476731
0.0486833
0.0497003
0.0507189
0.0517331
0.0527508
0.0537676
0.0547796
0.0557907
0.0567997
0.0578024
0.0587879
0.059757
0.0607164
0.0616665
0.0626056
0.0635289
0.0644363
0.0653342
0.0662245
0.0671045
0.0679722
0.0688285
0.0696767
0.0705182
0.071353
0.0721789
0.0729938
0.0737963
0.0745841
0.0753596
0.0405195
0.0409411
0.0414557
0.0420506
0.042707
0.0434336
0.0442151
0.0450507
0.0459318
0.0468482
0.0477863
0.0487391
0.0497116
0.0506836
0.0516731
0.0526548
0.0536217
0.0546104
0.0555889
0.0565627
0.0575446
0.0585241
0.0594931
0.0604247
0.0613443
0.0622611
0.0631693
0.0640633
0.0649314
0.0657813
0.0666317
0.0674733
0.0682999
0.0691095
0.0699052
0.0706977
0.0714847
0.0722641
0.0730324
0.0737859
0.0745255
0.0752449
0.0759487
0.0756302
0.0727911
0.0700334
0.0673477
0.0647276
0.0621681
0.0596642
0.0572125
0.0548097
0.0524541
0.0501432
0.0478762
0.0456518
0.04347
0.0413303
0.0392335
0.0371782
0.0351663
0.0331982
0.0312735
0.0293932
0.0275577
0.0257688
0.0240255
0.0223303
0.0206828
0.0190854
0.0175369
0.0160389
0.0145926
0.0131987
0.0118589
0.0105736
0.00934662
0.00817865
0.00707443
0.00603821
0.00507361
0.00418606
0.0033971
0.00278285
0.00214786
0.00138277
0.0767832
0.0742432
0.0717671
0.0693478
0.0669797
0.0646584
0.0623796
0.0601402
0.0579375
0.0557683
0.0536307
0.0515241
0.0494469
0.0473977
0.0453774
0.043384
0.0414194
0.0394837
0.0375759
0.035697
0.0338487
0.032031
0.0302446
0.0284906
0.0267688
0.0250827
0.0234325
0.02182
0.020248
0.0187178
0.0172321
0.0157944
0.0144085
0.013078
0.0118096
0.0106096
0.00949029
0.00849179
0.0075606
0.00659882
0.00557231
0.00443359
0.00309779
0.0779397
0.0756645
0.07344
0.0712601
0.0691199
0.0670149
0.0649423
0.0628989
0.0608817
0.0588876
0.0569155
0.0549637
0.0530303
0.0511154
0.0492169
0.0473348
0.04547
0.0436218
0.0417906
0.0399774
0.0381822
0.0364068
0.0346511
0.0329171
0.0312061
0.0295194
0.0278598
0.0262288
0.0246297
0.0230668
0.0215429
0.0200646
0.0186366
0.0172685
0.0159797
0.0147698
0.0135888
0.0123913
0.011148
0.009823
0.0083804
0.00677365
0.00494394
0.0790838
0.0770443
0.0750443
0.0730784
0.0711428
0.0692338
0.0673476
0.0654821
0.0636345
0.0618022
0.0599835
0.058177
0.0563809
0.0545937
0.0528149
0.0510438
0.0492803
0.0475238
0.0457754
0.0440359
0.0423056
0.0405852
0.0388761
0.0371797
0.0354979
0.0338338
0.0321879
0.0305648
0.0289688
0.0274036
0.0258763
0.024397
0.0229673
0.0215804
0.0202133
0.0188424
0.0174427
0.0159877
0.0144488
0.0127968
0.0109951
0.00900349
0.00677468
0.0802022
0.0783724
0.0765724
0.0747982
0.0730458
0.0713116
0.069593
0.0678879
0.0661942
0.0645086
0.0628307
0.0611579
0.0594892
0.0578227
0.0561576
0.0544932
0.0528286
0.0511637
0.0494995
0.0478358
0.0461743
0.0445155
0.0428615
0.0412135
0.0395733
0.0379442
0.0363284
0.0347301
0.0331534
0.0316008
0.0300733
0.0285657
0.0270695
0.025572
0.0240577
0.022507
0.020898
0.0192089
0.0174137
0.0154814
0.0133781
0.0110649
0.00850144
0.0812849
0.0796414
0.0780196
0.0764154
0.0748257
0.0732478
0.0716795
0.0701185
0.068562
0.0670092
0.0654582
0.0639075
0.0623556
0.0608009
0.0592423
0.0576781
0.0561076
0.0545307
0.0529473
0.0513595
0.0497667
0.0481711
0.0465747
0.0449784
0.0433839
0.0417926
0.0402067
0.0386258
0.037051
0.0354817
0.0339129
0.0323377
0.0307474
0.0291312
0.0274742
0.0257595
0.0239676
0.0220771
0.020061
0.0178886
0.0155272
0.0129385
0.0100858
0.0823241
0.0808456
0.0793817
0.0779286
0.076484
0.0750449
0.0736102
0.0721773
0.0707443
0.0693098
0.0678723
0.0664318
0.0649857
0.0635326
0.062071
0.0605998
0.0591175
0.0576218
0.0561145
0.0545962
0.0530672
0.0515294
0.0499837
0.0484308
0.0468716
0.0453057
0.0437325
0.0421502
0.0405577
0.0389522
0.03733
0.035683
0.0340033
0.0322789
0.0304965
0.0286392
0.0266901
0.0246259
0.0224192
0.0200403
0.0174554
0.0146276
0.0115214
0.0833161
0.081982
0.0806582
0.0793388
0.0780225
0.0767061
0.0753902
0.0740723
0.0727493
0.0714194
0.0700813
0.0687386
0.0673881
0.0660257
0.0646492
0.0632619
0.0618592
0.0604366
0.0589945
0.0575361
0.0560609
0.0545697
0.0530627
0.0515402
0.0500037
0.0484499
0.0468798
0.0452881
0.0436704
0.0420247
0.0403488
0.0386363
0.0368775
0.0350599
0.0331695
0.0311904
0.0291052
0.026891
0.0245206
0.0219629
0.0191844
0.0161469
0.0128157
0.0842648
0.0830479
0.0818494
0.0806486
0.0794485
0.078237
0.0770261
0.0758124
0.0745845
0.0733508
0.0720943
0.0708358
0.0695693
0.0682897
0.0669814
0.0656644
0.0643341
0.0629784
0.0615854
0.060176
0.0587446
0.0572917
0.0558156
0.0543117
0.052794
0.0512395
0.0496663
0.0480665
0.0464294
0.044739
0.0430131
0.0412408
0.0394129
0.0375176
0.0355374
0.0334523
0.03125
0.0289056
0.0263973
0.023681
0.0207322
0.0175191
0.0139863
0.000623155
0.000566847
0.000797777
0.00101522
0.00121954
0.00141342
0.00159918
0.00177981
0.00195871
0.00214046
0.0023318
0.00254219
0.00278312
0.00306317
0.00338167
0.00373534
0.00412023
0.00453406
0.00497613
0.00544592
0.00594342
0.0064689
0.00702303
0.00760621
0.00821936
0.00886278
0.00953729
0.0102435
0.010982
0.0117536
0.0125595
0.0134004
0.0142768
0.0151902
0.0161412
0.0171309
0.01816
0.0192293
0.0203394
0.0214912
0.0226854
0.0239233
0.0252081
0.00157855
0.000856652
0.000983317
0.00120439
0.00141624
0.00161794
0.00181327
0.00200733
0.00220648
0.00241828
0.0026515
0.00291517
0.00321764
0.00355938
0.00393286
0.0043344
0.00476179
0.00521387
0.00568999
0.00619004
0.00671443
0.00726287
0.00783623
0.00843471
0.00905865
0.00970859
0.0103847
0.0110876
0.0118179
0.0125763
0.0133633
0.0141799
0.0150268
0.0159045
0.0168139
0.0177555
0.0187303
0.0197387
0.0207814
0.0218596
0.0229739
0.024126
0.0253163
0.00288946
0.00135547
0.00116717
0.00137592
0.00159602
0.00180891
0.00201985
0.00223661
0.00246781
0.00272171
0.00300535
0.00332449
0.00368388
0.00407694
0.00449609
0.00493865
0.00540333
0.00588925
0.00639596
0.00692342
0.00747197
0.00804128
0.00863173
0.00924342
0.00987637
0.0105311
0.0112076
0.0119065
0.0126281
0.0133729
0.0141415
0.0149343
0.015752
0.016595
0.0174639
0.0183593
0.0192815
0.0202314
0.0212095
0.0222166
0.0232542
0.0243237
0.0254285
0.00429657
0.00206379
0.00137123
0.0015284
0.00175714
0.00198518
0.00221819
0.00246558
0.0027362
0.00303649
0.00337015
0.00374029
0.0041486
0.0045841
0.0050417
0.00551948
0.00601636
0.00653182
0.00706539
0.0076168
0.00818621
0.0087732
0.00937803
0.0100007
0.0106407
0.0112985
0.0119745
0.0126686
0.0133813
0.0141127
0.0148635
0.0156337
0.0164239
0.0172342
0.0180654
0.0189178
0.0197916
0.0206875
0.0216061
0.0225484
0.0235153
0.0245084
0.0255302
0.00566512
0.00289455
0.00161714
0.00166664
0.00190362
0.0021509
0.00241113
0.00269389
0.00300625
0.00335171
0.00373124
0.0041472
0.00459642
0.00506805
0.00555881
0.00606736
0.00659248
0.0071338
0.00769087
0.00826309
0.00885064
0.00945303
0.0100698
0.0107012
0.0113469
0.012007
0.0126814
0.0133705
0.0140743
0.014793
0.0155268
0.0162758
0.0170404
0.0178208
0.0186172
0.0194301
0.0202597
0.0211063
0.0219707
0.0228533
0.0237543
0.0246728
0.0256016
0.00694153
0.00375551
0.00190978
0.00179545
0.00203898
0.00230872
0.00259947
0.00291928
0.00327239
0.00365923
0.00407962
0.00453641
0.00502028
0.00552349
0.00604361
0.00657912
0.00712939
0.00769363
0.00827131
0.00886207
0.00946533
0.0100807
0.0107079
0.0113466
0.0119965
0.0126579
0.0133307
0.0140145
0.0147098
0.0154163
0.0161343
0.0168637
0.0176048
0.0183575
0.0191222
0.019899
0.0206881
0.0214899
0.0223045
0.0231322
0.0239727
0.0248255
0.0256915
0.00811004
0.00458776
0.0022363
0.00191911
0.00216726
0.00246142
0.00278356
0.00313943
0.00353043
0.00395467
0.00441183
0.00490345
0.00541753
0.00594852
0.00649463
0.00705443
0.00762697
0.00821173
0.00880794
0.00941501
0.0100323
0.010659
0.011295
0.0119399
0.0125934
0.0132555
0.0139263
0.0146054
0.0152926
0.0159877
0.016691
0.0174023
0.0181217
0.0188491
0.0195843
0.0203279
0.02108
0.0218407
0.0226098
0.0233871
0.0241726
0.024966
0.0257671
0.00916606
0.0053629
0.00258845
0.00204107
0.00228091
0.00260051
0.00295591
0.00334738
0.00377233
0.00422945
0.00472096
0.00524369
0.00578515
0.00634227
0.00691282
0.00749538
0.00808907
0.00869324
0.00930691
0.00992872
0.0105581
0.0111951
0.0118389
0.0124884
0.0131441
0.0138065
0.0144765
0.0151515
0.0158304
0.0165149
0.0172045
0.0178989
0.0185977
0.019301
0.0200085
0.0207211
0.0214394
0.0221621
0.0228888
0.0236197
0.0243551
0.0250946
0.0258372
0.0101159
0.00604587
0.00286368
0.00213376
0.00242917
0.00278518
0.00316522
0.003574
0.00402831
0.0045328
0.00506385
0.00561124
0.00618022
0.00676221
0.00735347
0.00795549
0.00856661
0.00918572
0.00981358
0.0104433
0.0110763
0.0117213
0.0123667
0.0130119
0.0136663
0.0143292
0.0150068
0.0156744
0.0163395
0.0170146
0.0176904
0.0183671
0.0190444
0.0197213
0.0204007
0.0210827
0.021772
0.0224582
0.0231436
0.0238307
0.0245201
0.0252127
0.025906
0.000203899
0.000795681
0.00171712
0.00266905
0.00359058
0.00448611
0.00536726
0.00623955
0.00710346
0.00796064
0.00881335
0.0096651
0.0105198
0.011382
0.0122559
0.0131457
0.0140549
0.0149864
0.0159422
0.0169228
0.0179271
0.0189542
0.0200034
0.0210782
0.0221835
0.0233201
0.024482
0.0256695
0.0269216
0.0282479
0.0296345
0.0310682
0.0325426
0.0340549
0.0356029
0.0371832
0.0387935
0.0404316
0.0420954
0.0437829
0.0454923
0.0472216
0.0489689
0.000132259
0.000509759
0.00114916
0.00199002
0.00286319
0.00370568
0.00452026
0.00530795
0.00607955
0.00684441
0.00760997
0.00837959
0.00915635
0.00994352
0.0107444
0.0115628
0.012402
0.0132658
0.014157
0.0150782
0.0160307
0.0170153
0.0180321
0.0190816
0.0201649
0.021282
0.0224323
0.023618
0.0248517
0.0261419
0.0274826
0.0288616
0.0302868
0.0317864
0.0333469
0.0349542
0.0366025
0.0382875
0.040005
0.0417504
0.0435214
0.045315
0.0471295
1.24911e-05
0.000310032
0.00072973
0.00129445
0.00199675
0.00283349
0.00379049
0.00471051
0.00558162
0.00641092
0.00720557
0.00797458
0.00872576
0.00946624
0.0102027
0.0109419
0.0116901
0.0124541
0.0132399
0.0140531
0.0148988
0.0157811
0.0167031
0.017667
0.0186744
0.0197262
0.0208234
0.0219672
0.0231615
0.02441
0.0257124
0.0270644
0.0284663
0.0299236
0.0314277
0.0329778
0.0346034
0.0362913
0.038027
0.0398031
0.0416137
0.0434533
0.0453186
1.51414e-05
0.000260879
0.000610557
0.00106833
0.00163959
0.00232672
0.00313343
0.00405923
0.00500249
0.00591743
0.00679803
0.00764606
0.00846358
0.00925306
0.0100179
0.0107626
0.0114927
0.0122147
0.0129364
0.013666
0.014412
0.015183
0.0159866
0.01683
0.0177191
0.0186587
0.0196527
0.0207041
0.0218157
0.0229898
0.0242273
0.0255273
0.0268879
0.0283072
0.0297807
0.0313054
0.0328852
0.0345122
0.0362047
0.0379698
0.0397889
0.0416517
0.043551
8.88951e-06
0.000222736
0.000529596
0.000924239
0.00141876
0.00201232
0.00270814
0.0035101
0.00442159
0.00538855
0.00633999
0.00726071
0.00815
0.00900917
0.00983933
0.0106415
0.0114171
0.0121684
0.0128994
0.0136155
0.0143239
0.0150332
0.0157533
0.0164945
0.0172674
0.0180821
0.0189478
0.0198724
0.0208625
0.0219231
0.0230575
0.0242671
0.0255513
0.0269076
0.0283317
0.0298193
0.0313661
0.0329666
0.0346218
0.036329
0.0381002
0.0399479
0.0418537
8.2829e-06
0.00020471
0.000481771
0.000836408
0.00127978
0.00181159
0.00243462
0.00315302
0.00397146
0.0048932
0.00587137
0.00684367
0.00779184
0.00871245
0.00960532
0.0104704
0.0113075
0.0121164
0.0128973
0.0136514
0.0143816
0.0150923
0.0157906
0.0164853
0.0171871
0.0179082
0.0186617
0.0194605
0.0203168
0.0212414
0.0222428
0.0233273
0.0244981
0.0257554
0.0270967
0.0285177
0.0300128
0.0315752
0.0331996
0.0348794
0.0366145
0.0384046
0.0402718
7.4213e-06
0.000196118
0.000445315
0.000771306
0.00117686
0.00166437
0.00223501
0.00289239
0.00364077
0.004485
0.00542704
0.00642123
0.00741336
0.00838509
0.00933206
0.0102532
0.0111478
0.0120151
0.0128539
0.0136634
0.0144431
0.0151939
0.0159181
0.0166201
0.0173069
0.0179882
0.018676
0.0193845
0.0201291
0.0209253
0.0217882
0.0227305
0.0237617
0.0248883
0.0261125
0.0274327
0.0288445
0.0303417
0.0319165
0.0335605
0.0352676
0.0370323
0.0388614
7.12056e-06
0.00019105
0.00041848
0.000722812
0.0010998
0.00155372
0.0020846
0.00269564
0.00339085
0.00417498
0.0050528
0.00602228
0.00703349
0.00804278
0.00903445
0.0100038
0.010949
0.0118692
0.0127627
0.013628
0.0144634
0.0152675
0.0160396
0.0167806
0.0174928
0.0181814
0.0188542
0.0195222
0.0201995
0.0209026
0.0216496
0.0224586
0.0233462
0.0243262
0.0254082
0.0265973
0.0278936
0.0292934
0.0307898
0.0323742
0.0340374
0.035771
0.0375699
6.82016e-06
0.00018749
0.000396841
0.000684041
0.00103839
0.00146564
0.00196516
0.00253964
0.00319283
0.00392916
0.00475336
0.00567001
0.00666872
0.00769815
0.0087243
0.00973432
0.0107237
0.0116904
0.0126331
0.0135497
0.0144383
0.0152965
0.0161225
0.0169145
0.0176722
0.0183965
0.0190909
0.0197616
0.0204182
0.0210741
0.0217462
0.0224537
0.0232174
0.0240571
0.0249906
0.0260311
0.0271866
0.0284593
0.0298467
0.0313423
0.0329365
0.0346203
0.03639
6.59363e-06
0.000184146
0.000379351
0.000652868
0.000989358
0.00139414
0.00186804
0.00241279
0.00303179
0.00372919
0.00450961
0.00537786
0.00633703
0.00736389
0.00841131
0.00945368
0.0104807
0.0114884
0.0124745
0.0134373
0.0143745
0.0152836
0.016162
0.0170072
0.0178169
0.0185897
0.0193256
0.0200267
0.020698
0.0213477
0.0219884
0.0226367
0.0233127
0.0240388
0.0248379
0.0257309
0.0267348
0.0278604
0.0291127
0.0304903
0.0319868
0.0335935
0.0352996
6.38769e-06
0.000181012
0.000364549
0.000626636
0.000948212
0.0013343
0.00178682
0.00230693
0.00289759
0.00356258
0.00430639
0.00513371
0.00604933
0.00705122
0.00810402
0.00916896
0.0102271
0.0112703
0.012295
0.0132989
0.0142799
0.0152355
0.0161628
0.0170589
0.0179207
0.0187455
0.0195312
0.0202771
0.0209842
0.0216563
0.0223009
0.0229297
0.0235588
0.0242089
0.024904
0.025669
0.026528
0.0275012
0.0286026
0.0298391
0.0312111
0.0327133
0.0343362
6.2226e-06
0.000178129
0.000352069
0.000604377
0.000913255
0.00128342
0.00171786
0.00221704
0.00278367
0.00342134
0.00413418
0.0049268
0.00580404
0.00676969
0.0078107
0.00888681
0.00996852
0.0110419
0.0121005
0.0131411
0.0141614
0.0151591
0.0161311
0.0170746
0.0179859
0.0188619
0.0196993
0.0204955
0.021249
0.0219602
0.0226322
0.0232717
0.0238896
0.0245022
0.0251304
0.0257993
0.026536
0.0273675
0.0283165
0.0294
0.0306273
0.0319998
0.0335124
6.09026e-06
0.000175511
0.00034146
0.00058524
0.000883145
0.00123964
0.00165845
0.00213961
0.0026856
0.00329978
0.00398609
0.00474885
0.00559282
0.00652284
0.00753841
0.00861297
0.00970986
0.0108076
0.0118956
0.012969
0.0140247
0.0150603
0.016073
0.0170599
0.0180174
0.0189418
0.0198295
0.0206768
0.0214807
0.0222393
0.0229523
0.0236224
0.0242555
0.0248625
0.0254597
0.0260685
0.0267151
0.0274287
0.0282386
0.0291702
0.0302431
0.031468
0.0328472
5.99042e-06
0.000173352
0.000332735
0.000568767
0.000857105
0.00120174
0.00160678
0.00207213
0.00260011
0.00319383
0.00385704
0.00459391
0.00540895
0.00630702
0.00729178
0.00835277
0.00945561
0.0105713
0.0116842
0.0127865
0.013874
0.0149439
0.0159937
0.0170202
0.0180201
0.0189897
0.019925
0.0208219
0.0216764
0.0224853
0.023246
0.0239581
0.0246238
0.0252488
0.025844
0.0264258
0.0270167
0.027644
0.0283391
0.0291334
0.0300548
0.0311248
0.0323578
5.91144e-06
0.000171684
0.000325882
0.000554386
0.000834346
0.00116868
0.00156127
0.00201278
0.0025249
0.0031006
0.00374349
0.00445754
0.00524716
0.00611707
0.00707184
0.00811055
0.00920983
0.0103366
0.0114695
0.0125969
0.0137129
0.0148139
0.0158973
0.0169601
0.0179989
0.0190103
0.01999
0.0209338
0.0218374
0.0226965
0.0235073
0.0242672
0.0249754
0.0256339
0.0262484
0.0268302
0.0273963
0.0279701
0.028581
0.029262
0.0300468
0.0309663
0.0320477
5.86286e-06
0.000170609
0.000320894
0.000541787
0.000814183
0.00113936
0.00152085
0.00196007
0.00245822
0.00301802
0.00364282
0.00433662
0.00510365
0.00594848
0.00687593
0.00788887
0.00897603
0.0101067
0.0112543
0.0124029
0.0135443
0.0146735
0.0157875
0.0168834
0.0179579
0.0190077
0.0200287
0.0210166
0.0219667
0.0228744
0.0237351
0.0245448
0.0253006
0.0260016
0.0266497
0.0272512
0.0278178
0.0283675
0.0289252
0.0295221
0.0301937
0.0309772
0.0319086
5.84541e-06
0.00017009
0.000317475
0.000530732
0.000796249
0.00111317
0.00148478
0.00191299
0.00239864
0.00294425
0.00355302
0.00422871
0.00497557
0.00579798
0.00670076
0.00768815
0.00875706
0.0098846
0.0110413
0.0122071
0.0133705
0.0145252
0.0156671
0.0167934
0.0179007
0.0189859
0.0200451
0.0210739
0.0220678
0.0230218
0.0239308
0.02479
0.0255953
0.0263436
0.027034
0.0276687
0.0282544
0.0288039
0.0293365
0.029879
0.0304654
0.0311348
0.03193
5.85055e-06
0.000169872
0.000315079
0.000520946
0.000780159
0.00108972
0.00145246
0.00187078
0.00234517
0.002878
0.00347241
0.00413193
0.00486061
0.00566286
0.00654336
0.00750678
0.00855439
0.00967259
0.0108329
0.0120116
0.0131939
0.0143713
0.0155387
0.0166927
0.0178303
0.0189482
0.0200426
0.0211095
0.0221442
0.0231418
0.024097
0.0250044
0.025859
0.0266564
0.0273937
0.02807
0.0286879
0.0292551
0.0297856
0.0303008
0.0308302
0.0314114
0.0320882
5.87037e-06
0.000169898
0.000313305
0.000512212
0.000765758
0.00106867
0.00142347
0.00183282
0.00229705
0.00281838
0.00339981
0.00404475
0.00475709
0.00554108
0.00640136
0.00734276
0.00836859
0.00947259
0.0106314
0.0118185
0.0130163
0.0142137
0.0154043
0.0165838
0.0177493
0.0188973
0.0200244
0.0211266
0.0221994
0.0232378
0.0242367
0.0251902
0.026093
0.0269396
0.0277256
0.028448
0.0291065
0.0297043
0.0302504
0.0307608
0.0312593
0.0317792
0.0323625
5.88628e-06
0.000169986
0.000311866
0.00050442
0.000752866
0.00104975
0.00139731
0.00179863
0.00225364
0.0027645
0.00333413
0.00396584
0.00466339
0.00543094
0.00627291
0.00719414
0.00819894
0.00928591
0.0104383
0.0116298
0.0128396
0.0140542
0.0152656
0.0164687
0.0176599
0.0188358
0.0199932
0.0211281
0.0222364
0.0233131
0.024353
0.0253504
0.0262993
0.0271941
0.0280291
0.0287998
0.0295036
0.0301406
0.0307152
0.0312382
0.0317279
0.0322118
0.0327286
5.908e-06
0.000170123
0.000310685
0.00049749
0.000741342
0.00103283
0.00137387
0.00176775
0.00221444
0.00271582
0.00327467
0.00389431
0.00457838
0.00533094
0.00615632
0.00705918
0.00804422
0.00911302
0.0102552
0.0114469
0.0126654
0.0138946
0.0151245
0.0163491
0.017564
0.0187659
0.0199514
0.0211169
0.0222581
0.0233705
0.0244489
0.0254877
0.0264807
0.0274218
0.0283049
0.0291244
0.029876
0.0305573
0.0311692
0.0317179
0.0322163
0.0326864
0.033161
5.93981e-06
0.000170335
0.000309735
0.000491299
0.000730969
0.0010176
0.00135283
0.00173979
0.00217884
0.00267164
0.00322078
0.00382942
0.00450121
0.00524008
0.0060503
0.00693646
0.0079032
0.00895376
0.010083
0.0112715
0.0124952
0.0137363
0.0149826
0.0162267
0.0174635
0.0186896
0.0199012
0.0210952
0.0222672
0.023413
0.0245274
0.025605
0.0266397
0.0276252
0.028555
0.0294227
0.0302228
0.0309511
0.0316059
0.0321895
0.0327101
0.0331838
0.0336373
5.98053e-06
0.000170545
0.000308923
0.000485738
0.000721546
0.00100379
0.00133377
0.00171444
0.00214655
0.0026315
0.0031718
0.00377049
0.00443105
0.00515741
0.00595374
0.00682454
0.00777446
0.00880754
0.00992238
0.0111044
0.0123304
0.0135807
0.0148412
0.0161029
0.01736
0.0186084
0.0198446
0.021065
0.0222659
0.0234429
0.0245912
0.0257053
0.0267793
0.027807
0.0287815
0.0296961
0.0305444
0.0313207
0.0320217
0.0326463
0.0331987
0.0336898
0.0341391
6.02885e-06
0.000170801
0.000308193
0.000480717
0.000713045
0.000991311
0.00131653
0.0016915
0.00211728
0.00259506
0.00312728
0.00371691
0.00436728
0.00508219
0.00586576
0.00672246
0.00765697
0.00867353
0.00977337
0.0109465
0.0121719
0.0134288
0.0147013
0.0159789
0.0172547
0.0185239
0.019783
0.0210283
0.0222562
0.0234625
0.0246425
0.025791
0.0269022
0.0279697
0.0289868
0.0299466
0.030842
0.0316665
0.032415
0.0330844
0.0336754
0.0341939
0.0346533
6.07166e-06
0.000171037
0.000307492
0.000476224
0.000705355
0.000979959
0.0013008
0.00167061
0.00209069
0.00256194
0.00308675
0.00366806
0.00430914
0.00501367
0.00578559
0.00662933
0.00754961
0.00855086
0.00963568
0.0107982
0.0120207
0.0132817
0.0145641
0.0158558
0.0171488
0.0184376
0.0197181
0.0209867
0.02224
0.0234737
0.0246836
0.0258645
0.0270106
0.028116
0.0291736
0.0301765
0.0311175
0.0319894
0.0327857
0.0335018
0.0341355
0.0346887
0.0351688
6.1185e-06
0.000171288
0.000306898
0.000472282
0.000698436
0.000969701
0.00128651
0.00165159
0.00206641
0.00253178
0.00304984
0.00362354
0.00425608
0.00495104
0.00571235
0.00654429
0.00745144
0.00843851
0.00950881
0.0106599
0.0118772
0.0131403
0.0144306
0.0157347
0.0170433
0.0183503
0.019651
0.0209417
0.0222188
0.0234785
0.0247165
0.0259278
0.027107
0.0282479
0.0293441
0.0303883
0.031373
0.0322909
0.0331345
0.0338977
0.0345763
0.0351688
0.0356776
6.17605e-06
0.000171618
0.000306492
0.000468889
0.000692213
0.000960376
0.00127354
0.00163429
0.00204433
0.00250432
0.00301628
0.00358297
0.00420769
0.00489389
0.00564547
0.00646662
0.00736173
0.0083356
0.00939221
0.0105312
0.0117419
0.013005
0.0143013
0.0156163
0.0169391
0.0182631
0.0195828
0.0208943
0.0221941
0.0234783
0.0247427
0.0259828
0.0271932
0.0283679
0.0295006
0.030584
0.0316106
0.0325727
0.0334626
0.0342727
0.0349972
0.0356317
0.0361731
6.24354e-06
0.000171957
0.000306213
0.000465985
0.000686572
0.00095192
0.00126176
0.00161854
0.00202419
0.00247924
0.00298561
0.00354596
0.00416348
0.00484165
0.00558426
0.00639544
0.00727951
0.00824125
0.00928495
0.0104119
0.0116147
0.0128762
0.014177
0.0155011
0.0168369
0.0181766
0.0195142
0.0208455
0.0221668
0.0234743
0.024764
0.0260312
0.0272712
0.0284778
0.029645
0.0307657
0.0318324
0.032837
0.0337716
0.0346279
0.0353987
0.0360781
0.0366638
6.3183e-06
0.000172336
0.000306024
0.000463503
0.000681486
0.000944231
0.00125106
0.00160421
0.00200583
0.00245632
0.00295757
0.00351215
0.00412313
0.00479389
0.00552822
0.0063302
0.00720417
0.00815469
0.0091864
0.0103016
0.0114957
0.012754
0.0140577
0.0153896
0.0167372
0.0180914
0.019446
0.0207961
0.0221379
0.0234676
0.0247812
0.0260744
0.0273423
0.0285794
0.0297794
0.0309355
0.0320403
0.0330858
0.0340636
0.0349653
0.0357826
0.0365085
0.0371377
6.38797e-06
0.000172717
0.00030589
0.000461424
0.000676896
0.000937198
0.00124121
0.00159107
0.00198906
0.00243537
0.00293185
0.00348108
0.00408607
0.00475013
0.00547692
0.00627037
0.00713498
0.00807529
0.0090957
0.0101996
0.0113846
0.0126386
0.0139436
0.015282
0.0166402
0.0180081
0.0193787
0.0207466
0.022108
0.0234589
0.0247954
0.0261134
0.027408
0.028674
0.0299053
0.0310951
0.0322364
0.033321
0.0343405
0.0352863
0.0361498
0.036923
0.0375999
6.45838e-06
0.000173112
0.000305855
0.000459745
0.000672785
0.000930822
0.0012322
0.00157899
0.0019736
0.00241611
0.00290825
0.00345257
0.004052
0.00470983
0.00542969