/*--------------------------------*- C++ -*----------------------------------*\
| =========                 |                                                 |
| \\      /  F ield         | OpenFOAM: The Open Source CFD Toolbox           |
|  \\    /   O peration     | Version:  2.3.0                                 |
|   \\  /    A nd           | Web:      www.OpenFOAM.org                      |
|    \\/     M anipulation  |                                                 |
\*---------------------------------------------------------------------------*/
FoamFile
{
    version     2.0;
    format      ascii;
    class       volScalarField;
    location    "5000";
    object      nuTilda;
}
// * * * * * * * * * * * * * * * * * * * * * * * * * * * * * * * * * * * * * //

dimensions      [0 2 -1 0 0 0 0];

internalField   nonuniform List<scalar> 
39608
(
0.0508767
0.0492522
0.0476418
0.0460484
0.0444742
0.0429198
0.0413868
0.0398762
0.0383895
0.0369273
0.0354913
0.0340824
0.0327022
0.0313532
0.0300372
0.0287586
0.0275189
0.0263198
0.0251633
0.0240549
0.0229928
0.0219615
0.0209465
0.0199474
0.0189664
0.0180086
0.0170751
0.0161688
0.0152894
0.0144361
0.0136081
0.0128028
0.0120175
0.0112496
0.0104948
0.00974968
0.0090112
0.00827634
0.00754359
0.00681465
0.00609395
0.00541199
0.00495033
0.0528112
0.0513835
0.0499685
0.0485674
0.0471809
0.0458097
0.0444554
0.0431183
0.0417985
0.0404975
0.0392148
0.0379518
0.0367084
0.0354849
0.0342827
0.0331011
0.0319422
0.0308057
0.0296921
0.0286021
0.0275363
0.0264936
0.0254723
0.0244727
0.0234951
0.022541
0.0216127
0.0207117
0.0198416
0.0190035
0.0182015
0.0174396
0.0167212
0.016052
0.0154388
0.0148901
0.0144148
0.0140245
0.0137321
0.01355
0.0134939
0.0135773
0.0138115
0.0545654
0.0533054
0.0520558
0.0508166
0.0495885
0.0483726
0.0471691
0.0459782
0.0448009
0.0436374
0.0424883
0.0413537
0.0402339
0.0391289
0.0380399
0.0369658
0.0359084
0.0348675
0.0338442
0.0328381
0.0318506
0.0308824
0.0299334
0.0290051
0.028098
0.0272149
0.0263569
0.0255266
0.024727
0.0239616
0.0232331
0.0225463
0.0219068
0.0213206
0.020794
0.0203339
0.0199511
0.0196531
0.0194501
0.0193523
0.0193666
0.0194988
0.0197502
0.0561544
0.0550374
0.0539285
0.0528275
0.0517348
0.0506503
0.0495745
0.0485078
0.0474506
0.0464034
0.0453663
0.0443404
0.0433256
0.0423224
0.0413301
0.0403499
0.0393817
0.038426
0.0374838
0.0365565
0.0356436
0.0347464
0.0338662
0.033004
0.0321615
0.0313398
0.0305422
0.0297708
0.0290293
0.0283198
0.0276473
0.0270159
0.0264313
0.0258991
0.0254263
0.0250196
0.0246868
0.024436
0.0242746
0.0242103
0.0242493
0.0243953
0.024649
0.0575912
0.0565969
0.0556088
0.0546265
0.0536488
0.0526764
0.051709
0.0507475
0.0497924
0.0488431
0.0479008
0.0469654
0.0460387
0.0451205
0.0442106
0.0433089
0.0424162
0.0415331
0.0406602
0.0397979
0.0389479
0.0381115
0.0372895
0.036483
0.0356938
0.0349237
0.0341749
0.0334507
0.0327537
0.0320881
0.0314577
0.0308673
0.0303223
0.0298286
0.0293924
0.0290208
0.0287207
0.0284991
0.0283631
0.028319
0.0283715
0.0285236
0.0287773
0.0588873
0.0579998
0.057116
0.0562349
0.0553562
0.0544796
0.0536052
0.0527333
0.0518646
0.0509991
0.0501364
0.0492773
0.0484233
0.0475758
0.046735
0.0459001
0.0450708
0.0442483
0.0434335
0.0426257
0.0418277
0.0410412
0.0402676
0.0395079
0.0387632
0.0380357
0.0373272
0.0366409
0.0359801
0.0353487
0.0347509
0.0341917
0.0336759
0.0332102
0.0327999
0.032453
0.0321752
0.0319733
0.0318542
0.0318231
0.0318838
0.0320394
0.0322917
0.0600589
0.059262
0.0584678
0.057674
0.0568804
0.0560866
0.0552918
0.0544954
0.0537001
0.0529069
0.0521136
0.0513181
0.0505239
0.0497352
0.0489517
0.0481725
0.0473975
0.0466266
0.0458605
0.0450996
0.0443443
0.0435979
0.0428638
0.0421429
0.041436
0.0407443
0.0400699
0.039415
0.0387833
0.03818
0.0376085
0.0370735
0.0365801
0.0361346
0.0357433
0.0354132
0.0351514
0.0349641
0.0348573
0.0348351
0.0349015
0.0350598
0.0353105
0.0611073
0.0603959
0.0596816
0.0589612
0.0582419
0.0575182
0.0567949
0.0560616
0.0553271
0.0545951
0.0538651
0.0531271
0.0523806
0.0516382
0.0509018
0.0501702
0.0494412
0.0487141
0.0479893
0.0472701
0.0465533
0.0458372
0.0451338
0.0444437
0.0437686
0.0431082
0.042463
0.0418358
0.041229
0.0406466
0.040098
0.0395821
0.0391075
0.0386775
0.0383008
0.0379809
0.0377299
0.0375534
0.0374562
0.0374412
0.0375135
0.0376727
0.0379226
0.0620577
0.0614201
0.0607776
0.0601097
0.0594578
0.0587876
0.0581372
0.057458
0.0567734
0.0560835
0.0554082
0.0547342
0.0540271
0.0533202
0.0526193
0.0519229
0.0512324
0.0505431
0.0498507
0.049165
0.0484936
0.0478016
0.0471226
0.0464535
0.0458025
0.0451687
0.0445489
0.0439476
0.0433693
0.0427967
0.042274
0.0417703
0.0413152
0.0408941
0.0405362
0.0402189
0.0399741
0.039806
0.0397177
0.0397059
0.0397886
0.0399426
0.0401972
0.00577612
0.00744475
0.00856184
0.0096848
0.010879
0.0121405
0.0134554
0.0148101
0.0161963
0.0176083
0.0190412
0.0204916
0.0219566
0.0234351
0.0249256
0.0264275
0.0279396
0.0294616
0.0309932
0.0325337
0.0340829
0.0356408
0.0372068
0.0387807
0.0403625
0.0419514
0.0435473
0.0451499
0.0467587
0.0483733
0.049993
0.0516172
0.0532458
0.0548781
0.0565133
0.0581508
0.0597902
0.0614304
0.0630708
0.0647104
0.0663478
0.0679819
0.0696147
0.0142043
0.0147547
0.0154519
0.0162827
0.017232
0.01828
0.0194091
0.0206041
0.0218506
0.023139
0.0244599
0.0258063
0.027173
0.0285563
0.0299529
0.0313597
0.0327753
0.034198
0.0356269
0.0370606
0.0384991
0.039942
0.0413882
0.0428374
0.0442902
0.0457456
0.0472034
0.0486631
0.0501246
0.0515879
0.0530523
0.0545176
0.0559839
0.0574511
0.0589186
0.0603862
0.0618538
0.0633209
0.064787
0.0662515
0.0677135
0.0691726
0.070631
0.0201214
0.0206154
0.0212337
0.0219684
0.0228088
0.0237422
0.0247553
0.0258357
0.0269711
0.0281519
0.0293689
0.0306147
0.0318833
0.0331702
0.0344708
0.0357817
0.0371009
0.0384262
0.0397552
0.0410874
0.042422
0.043758
0.0450948
0.0464317
0.0477688
0.0491055
0.050441
0.0517752
0.0531082
0.0544396
0.0557692
0.0570971
0.0584231
0.0597477
0.0610707
0.0623918
0.0637112
0.0650288
0.0663446
0.0676577
0.0689678
0.0702744
0.0715801
0.0250093
0.0254789
0.0260587
0.0267426
0.027522
0.0283872
0.0293269
0.030331
0.0313892
0.0324919
0.0336308
0.0347983
0.0359884
0.0371963
0.0384172
0.0396473
0.0408845
0.0421259
0.0433697
0.0446147
0.04586
0.0471046
0.0483478
0.0495885
0.0508267
0.0520617
0.0532928
0.05452
0.0557429
0.0569616
0.0581759
0.0593862
0.0605924
0.0617947
0.0629937
0.0641893
0.0653816
0.0665707
0.0677567
0.068939
0.0701169
0.0712907
0.0724626
0.0291312
0.0295857
0.0301417
0.0307934
0.031533
0.0323525
0.0332423
0.0341927
0.0351943
0.0362385
0.0373174
0.0384236
0.039551
0.0406944
0.0418495
0.0430126
0.0441807
0.0453513
0.0465228
0.0476942
0.0488642
0.0500315
0.0511956
0.0523556
0.0535103
0.0546591
0.0558018
0.0569379
0.0580673
0.0591898
0.0603059
0.0614158
0.0625196
0.0636178
0.0647107
0.0657987
0.0668821
0.0679608
0.0690351
0.0701042
0.0711675
0.0722248
0.0732793
0.0326406
0.0330846
0.033624
0.0342531
0.0349653
0.035752
0.0366054
0.0375161
0.038475
0.0394745
0.0405067
0.0415642
0.042641
0.0437317
0.0448325
0.0459396
0.0470495
0.0481604
0.0492714
0.0503806
0.0514872
0.0525903
0.0536889
0.0547812
0.0558655
0.0569414
0.058009
0.0590678
0.0601178
0.0611585
0.0621904
0.0632146
0.0642312
0.0652406
0.066243
0.0672387
0.0682286
0.0692127
0.0701909
0.0711623
0.0721259
0.0730813
0.0740305
0.0356538
0.03609
0.0366176
0.0372305
0.0379219
0.0386846
0.0395094
0.0403895
0.0413159
0.0422805
0.0432752
0.044293
0.0453282
0.0463757
0.0474309
0.0484903
0.0495502
0.0506104
0.0516702
0.0527271
0.053781
0.0548315
0.0558766
0.0569121
0.0579359
0.058949
0.0599526
0.060946
0.0619283
0.0628985
0.0638581
0.0648094
0.0657519
0.0666855
0.06761
0.0685262
0.069436
0.0703394
0.0712354
0.0721226
0.0729997
0.0738659
0.0747227
0.0382589
0.0386883
0.039208
0.0398096
0.040484
0.041227
0.0420292
0.0428847
0.0437859
0.0447234
0.0456881
0.0466724
0.0476731
0.0486833
0.0497003
0.0507189
0.0517331
0.0527508
0.0537676
0.0547796
0.0557907
0.0567997
0.0578024
0.0587879
0.059757
0.0607164
0.0616665
0.0626056
0.0635289
0.0644363
0.0653342
0.0662245
0.0671045
0.0679722
0.0688285
0.0696767
0.0705182
0.071353
0.0721789
0.0729938
0.0737963
0.0745841
0.0753596
0.0405195
0.0409411
0.0414557
0.0420506
0.042707
0.0434336
0.0442151
0.0450507
0.0459318
0.0468482
0.0477863
0.0487391
0.0497116
0.0506836
0.0516731
0.0526548
0.0536217
0.0546104
0.0555889
0.0565627
0.0575446
0.0585241
0.0594931
0.0604247
0.0613443
0.0622611
0.0631693
0.0640633
0.0649314
0.0657813
0.0666317
0.0674733
0.0682999
0.0691095
0.0699052
0.0706977
0.0714847
0.0722641
0.0730324
0.0737859
0.0745255
0.0752449
0.0759487
0.0756302
0.0727911
0.0700334
0.0673477
0.0647276
0.0621681
0.0596642
0.0572125
0.0548097
0.0524541
0.0501432
0.0478762
0.0456518
0.04347
0.0413303
0.0392335
0.0371782
0.0351663
0.0331982
0.0312735
0.0293932
0.0275577
0.0257688
0.0240255
0.0223303
0.0206828
0.0190854
0.0175369
0.0160389
0.0145926
0.0131987
0.0118589
0.0105736
0.00934664
0.00817867
0.00707446
0.00603825
0.00507366
0.00418614
0.00339722
0.00278303
0.00214816
0.00138349
0.0767832
0.0742432
0.0717671
0.0693478
0.0669797
0.0646584
0.0623796
0.0601402
0.0579375
0.0557683
0.0536307
0.0515241
0.0494469
0.0473977
0.0453774
0.043384
0.0414194
0.0394837
0.0375759
0.035697
0.0338487
0.032031
0.0302446
0.0284906
0.0267688
0.0250827
0.0234325
0.02182
0.020248
0.0187178
0.0172321
0.0157944
0.0144085
0.013078
0.0118096
0.0106096
0.0094903
0.00849181
0.00756063
0.00659885
0.00557236
0.00443366
0.00309794
0.0779397
0.0756645
0.07344
0.0712601
0.0691199
0.0670149
0.0649423
0.0628989
0.0608817
0.0588876
0.0569155
0.0549637
0.0530303
0.0511154
0.0492169
0.0473348
0.04547
0.0436218
0.0417906
0.0399774
0.0381822
0.0364068
0.0346511
0.0329171
0.0312061
0.0295194
0.0278598
0.0262288
0.0246297
0.0230668
0.0215429
0.0200646
0.0186366
0.0172685
0.0159797
0.0147698
0.0135888
0.0123913
0.011148
0.00982301
0.00838042
0.00677368
0.004944
0.0790838
0.0770443
0.0750443
0.0730784
0.0711428
0.0692338
0.0673476
0.0654821
0.0636345
0.0618022
0.0599835
0.058177
0.0563809
0.0545937
0.0528149
0.0510438
0.0492803
0.0475238
0.0457754
0.0440359
0.0423056
0.0405852
0.0388761
0.0371797
0.0354979
0.0338338
0.0321879
0.0305648
0.0289688
0.0274036
0.0258763
0.024397
0.0229673
0.0215804
0.0202133
0.0188424
0.0174427
0.0159877
0.0144488
0.0127968
0.0109951
0.00900351
0.00677471
0.0802022
0.0783724
0.0765724
0.0747982
0.0730458
0.0713116
0.069593
0.0678879
0.0661942
0.0645086
0.0628307
0.0611579
0.0594892
0.0578227
0.0561577
0.0544932
0.0528286
0.0511637
0.0494995
0.0478358
0.0461743
0.0445155
0.0428615
0.0412135
0.0395733
0.0379442
0.0363284
0.0347301
0.0331534
0.0316009
0.0300733
0.0285657
0.0270695
0.025572
0.0240577
0.022507
0.020898
0.019209
0.0174137
0.0154814
0.0133781
0.0110649
0.00850146
0.0812849
0.0796414
0.0780196
0.0764154
0.0748257
0.0732478
0.0716795
0.0701185
0.068562
0.0670092
0.0654582
0.0639075
0.0623556
0.0608009
0.0592423
0.0576781
0.0561076
0.0545307
0.0529473
0.0513595
0.0497667
0.0481711
0.0465747
0.0449784
0.0433839
0.0417926
0.0402067
0.0386258
0.037051
0.0354817
0.0339129
0.0323377
0.0307474
0.0291312
0.0274742
0.0257595
0.0239676
0.0220771
0.020061
0.0178886
0.0155272
0.0129385
0.0100858
0.0823241
0.0808456
0.0793817
0.0779286
0.076484
0.0750449
0.0736102
0.0721773
0.0707443
0.0693098
0.0678723
0.0664318
0.0649857
0.0635326
0.062071
0.0605998
0.0591175
0.0576218
0.0561145
0.0545962
0.0530672
0.0515294
0.0499837
0.0484308
0.0468716
0.0453057
0.0437325
0.0421502
0.0405577
0.0389522
0.03733
0.035683
0.0340033
0.0322789
0.0304965
0.0286392
0.0266901
0.0246259
0.0224192
0.0200403
0.0174554
0.0146276
0.0115214
0.0833161
0.081982
0.0806582
0.0793388
0.0780225
0.0767061
0.0753902
0.0740723
0.0727493
0.0714194
0.0700813
0.0687386
0.0673881
0.0660257
0.0646492
0.0632619
0.0618592
0.0604366
0.0589945
0.0575361
0.0560609
0.0545697
0.0530627
0.0515402
0.0500037
0.0484499
0.0468798
0.0452881
0.0436704
0.0420247
0.0403488
0.0386363
0.0368775
0.0350599
0.0331695
0.0311904
0.0291052
0.026891
0.0245206
0.0219629
0.0191844
0.0161469
0.0128158
0.0842648
0.0830479
0.0818494
0.0806486
0.0794485
0.078237
0.0770261
0.0758124
0.0745845
0.0733508
0.0720943
0.0708358
0.0695693
0.0682897
0.0669814
0.0656644
0.0643341
0.0629784
0.0615854
0.060176
0.0587446
0.0572917
0.0558156
0.0543117
0.052794
0.0512395
0.0496663
0.0480665
0.0464294
0.044739
0.0430131
0.0412408
0.0394129
0.0375176
0.0355374
0.0334523
0.03125
0.0289056
0.0263973
0.023681
0.0207322
0.0175191
0.0139863
0.00062665
0.000571047
0.000799928
0.00101655
0.00122047
0.00141411
0.00159972
0.00178025
0.00195907
0.00214076
0.00233205
0.0025424
0.0027833
0.00306331
0.00338179
0.00373544
0.00412032
0.00453412
0.00497619
0.00544597
0.00594346
0.00646893
0.00702306
0.00760623
0.00821938
0.0088628
0.0095373
0.0102435
0.010982
0.0117536
0.0125595
0.0134004
0.0142768
0.0151902
0.0161412
0.0171309
0.01816
0.0192293
0.0203394
0.0214912
0.0226854
0.0239233
0.0252081
0.00157911
0.00085852
0.000984738
0.00120534
0.00141693
0.00161847
0.00181369
0.00200767
0.00220676
0.00241852
0.00265169
0.00291534
0.00321778
0.00355949
0.00393294
0.00433447
0.00476185
0.00521392
0.00569003
0.00619008
0.00671446
0.00726289
0.00783625
0.00843473
0.00905866
0.0097086
0.0103847
0.0110876
0.0118179
0.0125763
0.0133633
0.0141799
0.0150268
0.0159045
0.0168139
0.0177555
0.0187303
0.0197388
0.0207815
0.0218596
0.0229739
0.024126
0.0253163
0.00288963
0.00135622
0.00116818
0.00137664
0.00159656
0.00180933
0.00202019
0.00223688
0.00246804
0.0027219
0.0030055
0.00332461
0.00368398
0.00407702
0.00449616
0.0049387
0.00540338
0.00588929
0.00639599
0.00692345
0.00747199
0.0080413
0.00863174
0.00924343
0.00987638
0.0105311
0.0112077
0.0119065
0.0126281
0.0133729
0.0141415
0.0149343
0.015752
0.016595
0.0174639
0.0183593
0.0192815
0.0202315
0.0212095
0.0222166
0.0232542
0.0243237
0.0254285
0.00429665
0.00206411
0.00137196
0.00152899
0.00175759
0.00198553
0.00221847
0.00246581
0.00273639
0.00303664
0.00337027
0.00374038
0.00414868
0.00458417
0.00504175
0.00551953
0.0060164
0.00653185
0.00706542
0.00761682
0.00818623
0.00877322
0.00937805
0.0100007
0.0106407
0.0112985
0.0119746
0.0126686
0.0133813
0.0141128
0.0148635
0.0156337
0.0164239
0.0172342
0.0180654
0.0189178
0.0197916
0.0206875
0.0216061
0.0225484
0.0235153
0.0245084
0.0255302
0.00566516
0.00289471
0.00161767
0.00166714
0.001904
0.0021512
0.00241137
0.00269408
0.0030064
0.00335183
0.00373134
0.00414728
0.00459648
0.0050681
0.00555885
0.0060674
0.00659251
0.00713383
0.00769089
0.00826311
0.00885066
0.00945304
0.0100699
0.0107012
0.0113469
0.012007
0.0126814
0.0133705
0.0140744
0.014793
0.0155268
0.0162758
0.0170404
0.0178208
0.0186172
0.0194301
0.0202597
0.0211063
0.0219707
0.0228533
0.0237543
0.0246728
0.0256016
0.00694156
0.00375561
0.00191016
0.00179587
0.00203931
0.00230898
0.00259968
0.00291944
0.00327252
0.00365933
0.0040797
0.00453647
0.00502034
0.00552354
0.00604365
0.00657915
0.00712942
0.00769365
0.00827133
0.00886209
0.00946535
0.0100807
0.0107079
0.0113466
0.0119965
0.0126579
0.0133307
0.0140145
0.0147098
0.0154163
0.0161343
0.0168637
0.0176048
0.0183575
0.0191222
0.019899
0.0206881
0.0214899
0.0223045
0.0231322
0.0239727
0.0248255
0.0256915
0.00811006
0.00458783
0.00223657
0.00191949
0.00216755
0.00246165
0.00278374
0.00313957
0.00353054
0.00395475
0.0044119
0.00490351
0.00541758
0.00594856
0.00649467
0.00705446
0.00762699
0.00821175
0.00880796
0.00941502
0.0100323
0.010659
0.011295
0.0119399
0.0125934
0.0132555
0.0139263
0.0146054
0.0152926
0.0159877
0.016691
0.0174023
0.0181217
0.0188491
0.0195843
0.0203279
0.02108
0.0218407
0.0226098
0.0233871
0.0241726
0.024966
0.0257671
0.00916608
0.00536294
0.00258865
0.0020414
0.00228117
0.00260071
0.00295607
0.0033475
0.00377242
0.00422953
0.00472102
0.00524374
0.00578519
0.0063423
0.00691284
0.0074954
0.00808909
0.00869326
0.00930693
0.00992874
0.0105581
0.0111951
0.0118389
0.0124884
0.0131441
0.0138065
0.0144765
0.0151515
0.0158304
0.0165149
0.0172045
0.0178989
0.0185977
0.019301
0.0200085
0.0207211
0.0214394
0.0221621
0.0228888
0.0236197
0.0243551
0.0250946
0.0258372
0.0101159
0.00604591
0.00286385
0.00213407
0.0024294
0.00278536
0.00316536
0.0035741
0.0040284
0.00453287
0.00506391
0.00561128
0.00618026
0.00676224
0.0073535
0.00795551
0.00856663
0.00918573
0.00981359
0.0104433
0.0110763
0.0117214
0.0123667
0.013012
0.0136663
0.0143292
0.0150068
0.0156744
0.0163396
0.0170146
0.0176905
0.0183671
0.0190444
0.0197213
0.0204007
0.0210827
0.021772
0.0224582
0.0231436
0.0238307
0.0245201
0.0252127
0.025906
0.000227734
0.000797843
0.00171759
0.00266924
0.00359069
0.00448618
0.00536731
0.00623958
0.00710349
0.00796066
0.00881337
0.00966511
0.0105198
0.011382
0.0122559
0.0131457
0.0140549
0.0149864
0.0159422
0.0169228
0.0179271
0.0189542
0.0200034
0.0210782
0.0221835
0.0233201
0.024482
0.0256695
0.0269216
0.0282479
0.0296345
0.0310682
0.0325426
0.0340549
0.0356029
0.0371832
0.0387935
0.0404316
0.0420954
0.0437829
0.0454923
0.0472216
0.0489689
0.000169642
0.000514911
0.0011502
0.00199037
0.00286336
0.00370578
0.00452033
0.005308
0.00607958
0.00684444
0.00760999
0.00837961
0.00915637
0.00994353
0.0107444
0.0115628
0.0124021
0.0132658
0.014157
0.0150782
0.0160307
0.0170153
0.0180321
0.0190816
0.0201649
0.021282
0.0224323
0.023618
0.0248517
0.0261419
0.0274826
0.0288616
0.0302868
0.0317864
0.0333469
0.0349542
0.0366025
0.0382875
0.040005
0.0417504
0.0435214
0.045315
0.0471295
6.77974e-05
0.000322754
0.000732294
0.00129527
0.00199709
0.00283366
0.00379058
0.00471057
0.00558166
0.00641096
0.0072056
0.0079746
0.00872578
0.00946626
0.0102028
0.0109419
0.0116901
0.0124541
0.0132399
0.0140531
0.0148988
0.0157811
0.0167032
0.0176671
0.0186744
0.0197262
0.0208234
0.0219672
0.0231615
0.02441
0.0257124
0.0270644
0.0284663
0.0299236
0.0314277
0.0329778
0.0346034
0.0362913
0.038027
0.0398031
0.0416137
0.0434533
0.0453186
7.17343e-05
0.000277688
0.000614192
0.00106954
0.0016401
0.00232698
0.00313357
0.00405931
0.00500255
0.00591747
0.00679806
0.00764608
0.0084636
0.00925308
0.0100179
0.0107626
0.0114927
0.0122147
0.0129364
0.013666
0.0144121
0.015183
0.0159867
0.01683
0.0177191
0.0186587
0.0196527
0.0207041
0.0218157
0.0229898
0.0242273
0.0255273
0.0268879
0.0283072
0.0297807
0.0313054
0.0328852
0.0345122
0.0362047
0.0379698
0.0397889
0.0416517
0.043551
6.15336e-05
0.000243913
0.000534384
0.000925845
0.00141944
0.00201266
0.00270833
0.00351021
0.00442166
0.0053886
0.00634002
0.00726073
0.00815002
0.00900919
0.00983935
0.0106415
0.0114171
0.0121684
0.0128994
0.0136155
0.014324
0.0150332
0.0157533
0.0164945
0.0172674
0.0180821
0.0189478
0.0198724
0.0208625
0.0219231
0.0230575
0.0242671
0.0255513
0.0269076
0.0283317
0.0298193
0.0313661
0.0329666
0.0346218
0.036329
0.0381002
0.0399479
0.0418537
6.03299e-05
0.00022841
0.000487508
0.000838366
0.00128062
0.00181202
0.00243485
0.00315316
0.00397155
0.00489326
0.00587141
0.0068437
0.00779186
0.00871247
0.00960534
0.0104704
0.0113075
0.0121164
0.0128973
0.0136514
0.0143816
0.0150923
0.0157906
0.0164853
0.0171871
0.0179082
0.0186617
0.0194605
0.0203168
0.0212414
0.0222428
0.0233273
0.0244981
0.0257554
0.0270967
0.0285177
0.0300128
0.0315752
0.0331996
0.0348794
0.0366145
0.0384046
0.0402718
5.85196e-05
0.000221138
0.000451969
0.000773605
0.00117785
0.00166487
0.00223528
0.00289255
0.00364087
0.00448507
0.00542709
0.00642126
0.00741338
0.00838511
0.00933208
0.0102532
0.0111478
0.0120151
0.0128539
0.0136634
0.0144431
0.015194
0.0159181
0.0166201
0.0173069
0.0179882
0.018676
0.0193845
0.0201291
0.0209254
0.0217882
0.0227305
0.0237617
0.0248883
0.0261125
0.0274327
0.0288445
0.0303417
0.0319165
0.0335605
0.0352676
0.0370323
0.0388614
5.78564e-05
0.000216885
0.000425951
0.000725424
0.00110094
0.00155429
0.00208492
0.00269583
0.00339097
0.00417506
0.00505285
0.00602232
0.00703352
0.0080428
0.00903446
0.0100038
0.0109491
0.0118692
0.0127627
0.013628
0.0144634
0.0152675
0.0160396
0.0167806
0.0174928
0.0181814
0.0188542
0.0195222
0.0201995
0.0209026
0.0216496
0.0224586
0.0233462
0.0243262
0.0254082
0.0265973
0.0278936
0.0292934
0.0307898
0.0323742
0.0340374
0.035771
0.0375699
5.71756e-05
0.000213914
0.000405078
0.000686952
0.00103967
0.00146628
0.00196552
0.00253986
0.00319296
0.00392925
0.00475342
0.00567006
0.00666875
0.00769818
0.00872432
0.00973433
0.0107237
0.0116904
0.0126331
0.0135497
0.0144383
0.0152965
0.0161225
0.0169145
0.0176722
0.0183965
0.0190909
0.0197616
0.0204182
0.0210742
0.0217462
0.0224537
0.0232174
0.0240571
0.0249906
0.0260311
0.0271866
0.0284593
0.0298467
0.0313423
0.0329365
0.0346203
0.03639
5.66492e-05
0.000211137
0.00038829
0.000656058
0.000990761
0.00139485
0.00186843
0.00241303
0.00303194
0.00372929
0.00450967
0.00537791
0.00633706
0.00736391
0.00841133
0.00945369
0.0104808
0.0114884
0.0124745
0.0134373
0.0143745
0.0152836
0.016162
0.0170072
0.0178169
0.0185897
0.0193256
0.0200267
0.020698
0.0213477
0.0219884
0.0226367
0.0233127
0.0240388
0.0248379
0.0257309
0.0267348
0.0278604
0.0291127
0.0304903
0.0319868
0.0335935
0.0352996
5.616e-05
0.000208545
0.000374151
0.000630092
0.000949739
0.00133507
0.00178726
0.00230718
0.00289775
0.00356269
0.00430646
0.00513377
0.00604937
0.00705125
0.00810404
0.00916898
0.0102272
0.0112703
0.012295
0.0132989
0.0142799
0.0152355
0.0161628
0.0170589
0.0179207
0.0187455
0.0195313
0.0202771
0.0209842
0.0216563
0.0223009
0.0229297
0.0235588
0.0242089
0.024904
0.025669
0.026528
0.0275012
0.0286026
0.0298391
0.0312111
0.0327133
0.0343362
5.57601e-05
0.00020617
0.000362283
0.000608085
0.000914901
0.00128425
0.00171832
0.00221732
0.00278385
0.00342146
0.00413426
0.00492686
0.00580408
0.00676972
0.00781072
0.00888682
0.00996854
0.0110419
0.0121005
0.0131411
0.0141614
0.0151591
0.0161311
0.0170746
0.017986
0.0188619
0.0196993
0.0204955
0.021249
0.0219602
0.0226322
0.0232717
0.0238896
0.0245022
0.0251304
0.0257993
0.026536
0.0273675
0.0283165
0.0294
0.0306273
0.0319998
0.0335124
5.54341e-05
0.000204022
0.000352239
0.000589187
0.000884903
0.00124053
0.00165896
0.00213991
0.00268579
0.00329991
0.00398617
0.00474891
0.00559287
0.00652287
0.00753843
0.00861299
0.00970988
0.0108076
0.0118956
0.012969
0.0140247
0.0150603
0.016073
0.0170599
0.0180174
0.0189418
0.0198295
0.0206768
0.0214807
0.0222393
0.0229523
0.0236224
0.0242555
0.0248625
0.0254597
0.0260685
0.0267151
0.0274287
0.0282386
0.0291702
0.0302431
0.031468
0.0328472
5.51847e-05
0.000202255
0.00034401
0.000572938
0.000858971
0.0012027
0.00160731
0.00207246
0.00260032
0.00319396
0.00385714
0.00459397
0.005409
0.00630706
0.0072918
0.00835279
0.00945563
0.0105713
0.0116842
0.0127865
0.013874
0.0149439
0.0159937
0.0170202
0.0180202
0.0189897
0.019925
0.0208219
0.0216764
0.0224853
0.023246
0.0239581
0.0246238
0.0252488
0.025844
0.0264258
0.0270167
0.027644
0.0283391
0.0291334
0.0300548
0.0311248
0.0323578
5.49852e-05
0.000200895
0.000337568
0.00055877
0.000836314
0.00116968
0.00156183
0.00201312
0.00252512
0.00310075
0.00374358
0.00445761
0.00524721
0.00611711
0.00707187
0.00811057
0.00920985
0.0103366
0.0114695
0.0125969
0.0137129
0.0148139
0.0158974
0.0169601
0.0179989
0.0190103
0.01999
0.0209338
0.0218374
0.0226965
0.0235073
0.0242672
0.0249754
0.0256339
0.0262484
0.0268302
0.0273963
0.0279701
0.028581
0.029262
0.0300468
0.0309663
0.0320477
5.48613e-05
0.00020002
0.000332894
0.000546369
0.000816248
0.00114042
0.00152145
0.00196043
0.00245845
0.00301817
0.00364292
0.00433669
0.0051037
0.00594852
0.00687596
0.00788889
0.00897605
0.0101068
0.0112543
0.0124029
0.0135443
0.0146735
0.0157875
0.0168834
0.0179579
0.0190077
0.0200287
0.0210166
0.0219667
0.0228744
0.0237351
0.0245448
0.0253006
0.0260016
0.0266497
0.0272512
0.0278178
0.0283675
0.0289252
0.0295221
0.0301937
0.0309772
0.0319086
5.4816e-05
0.000199598
0.000329696
0.0005355
0.000798407
0.00111428
0.00148541
0.00191337
0.00239888
0.00294441
0.00355313
0.00422879
0.00497563
0.00579802
0.00670079
0.00768817
0.00875708
0.00988461
0.0110413
0.0122071
0.0133705
0.0145252
0.0156671
0.0167934
0.0179007
0.0189859
0.0200451
0.0210739
0.0220678
0.0230218
0.0239308
0.02479
0.0255953
0.0263436
0.027034
0.0276687
0.0282544
0.0288039
0.0293365
0.029879
0.0304654
0.0311348
0.03193
5.48284e-05
0.000199421
0.000327458
0.000525887
0.000782406
0.00109087
0.00145312
0.00187117
0.00234542
0.00287817
0.00347252
0.00413201
0.00486067
0.00566291
0.00654339
0.0075068
0.00855441
0.0096726
0.0108329
0.0120117
0.0131939
0.0143713
0.0155387
0.0166927
0.0178303
0.0189482
0.0200426
0.0211095
0.0221442
0.0231418
0.024097
0.0250044
0.025859
0.0266564
0.0273937
0.02807
0.0286879
0.0292551
0.0297856
0.0303008
0.0308302
0.0314114
0.0320882
5.48779e-05
0.000199442
0.000325804
0.000517315
0.000768089
0.00106987
0.00142415
0.00183323
0.00229731
0.00281855
0.00339993
0.00404484
0.00475715
0.00554112
0.00640139
0.00734279
0.00836861
0.00947261
0.0106314
0.0118186
0.0130163
0.0142137
0.0154043
0.0165838
0.0177493
0.0188973
0.0200244
0.0211266
0.0221994
0.0232379
0.0242367
0.0251902
0.026093
0.0269396
0.0277256
0.028448
0.0291065
0.0297043
0.0302504
0.0307608
0.0312593
0.0317792
0.0323625
5.49176e-05
0.000199514
0.000324462
0.000509676
0.000755277
0.00105099
0.00139802
0.00179905
0.00225391
0.00276468
0.00333425
0.00396593
0.00466345
0.00543099
0.00627295
0.00719416
0.00819896
0.00928592
0.0104383
0.0116298
0.0128396
0.0140542
0.0152656
0.0164687
0.0176599
0.0188358
0.0199932
0.0211281
0.0222364
0.0233131
0.024353
0.0253504
0.0262993
0.0271941
0.0280291
0.0287998
0.0295036
0.0301406
0.0307152
0.0312382
0.0317279
0.0322118
0.0327286
5.49719e-05
0.000199625
0.000323362
0.000502886
0.000743827
0.00103412
0.0013746
0.00176819
0.00221472
0.00271601
0.0032748
0.0038944
0.00457845
0.00533099
0.00615635
0.00705921
0.00804424
0.00911304
0.0102552
0.0114469
0.0126654
0.0138946
0.0151246
0.0163491
0.017564
0.0187659
0.0199514
0.0211169
0.0222581
0.0233705
0.0244489
0.0254877
0.0264807
0.0274218
0.0283049
0.0291244
0.029876
0.0305573
0.0311692
0.0317179
0.0322163
0.0326864
0.033161
5.50517e-05
0.000199798
0.000322478
0.000496825
0.000733524
0.00101892
0.00135359
0.00174025
0.00217913
0.00267183
0.00322092
0.00382952
0.00450128
0.00524013
0.00605034
0.00693648
0.00790322
0.00895378
0.0100831
0.0112715
0.0124952
0.0137363
0.0149826
0.0162267
0.0174636
0.0186896
0.0199012
0.0210952
0.0222672
0.023413
0.0245274
0.025605
0.0266398
0.0276252
0.028555
0.0294227
0.0302228
0.0309511
0.0316059
0.0321895
0.0327101
0.0331838
0.0336373
5.51536e-05
0.000199968
0.000321722
0.000491385
0.000724166
0.00100516
0.00133455
0.00171491
0.00214685
0.0026317
0.00317194
0.00377058
0.00443112
0.00515746
0.00595378
0.00682456
0.00777449
0.00880755
0.00992239
0.0111044
0.0123304
0.0135807
0.0148412
0.0161029
0.01736
0.0186084
0.0198446
0.021065
0.0222659
0.0234429
0.0245912
0.0257053
0.0267793
0.027807
0.0287815
0.0296961
0.0305444
0.0313207
0.0320217
0.0326463
0.0331987
0.0336898
0.0341391
5.52741e-05
0.000200177
0.000321043
0.000486477
0.000715727
0.000992709
0.00131732
0.00169199
0.00211759
0.00259526
0.00312743
0.00371701
0.00436736
0.00508224
0.0058658
0.00672249
0.00765699
0.00867354
0.00977338
0.0109465
0.012172
0.0134288
0.0147013
0.0159789
0.0172547
0.0185239
0.019783
0.0210283
0.0222562
0.0234625
0.0246425
0.025791
0.0269022
0.0279697
0.0289868
0.0299466
0.030842
0.0316665
0.032415
0.0330844
0.0336754
0.0341939
0.0346533
5.53804e-05
0.000200369
0.000320391
0.000482088
0.000708095
0.000981389
0.00130161
0.00167111
0.00209101
0.00256215
0.00308689
0.00366816
0.00430922
0.00501373
0.00578563
0.00662936
0.00754964
0.00855088
0.00963569
0.0107983
0.0120207
0.0132817
0.0145641
0.0158558
0.0171488
0.0184376
0.0197181
0.0209867
0.02224
0.0234737
0.0246836
0.0258645
0.0270106
0.028116
0.0291736
0.0301765
0.0311175
0.0319894
0.0327857
0.0335018
0.0341355
0.0346887
0.0351688
5.54962e-05
0.000200574
0.000319839
0.000478238
0.00070123
0.000971161
0.00128734
0.00165209
0.00206674
0.00253199
0.00304999
0.00362364
0.00425615
0.0049511
0.0057124
0.00654432
0.00745147
0.00843853
0.00950883
0.0106599
0.0118773
0.0131403
0.0144306
0.0157347
0.0170433
0.0183503
0.019651
0.0209417
0.0222188
0.0234785
0.0247165
0.0259278
0.027107
0.0282479
0.0293441
0.0303883
0.031373
0.0322909
0.0331345
0.0338977
0.0345763
0.0351688
0.0356776
5.56379e-05
0.000200842
0.000319462
0.000474927
0.000695057
0.000961865
0.00127439
0.00163481
0.00204466
0.00250454
0.00301643
0.00358307
0.00420776
0.00489395
0.00564551
0.00646665
0.00736175
0.00833562
0.00939223
0.0105312
0.0117419
0.013005
0.0143013
0.0156163
0.0169391
0.0182631
0.0195828
0.0208943
0.0221941
0.0234783
0.0247427
0.0259828
0.0271932
0.0283679
0.0295006
0.030584
0.0316106
0.0325727
0.0334626
0.0342727
0.0349972
0.0356317
0.0361731
5.5803e-05
0.000201119
0.000319203
0.000472094
0.000689462
0.000953435
0.00126263
0.00161906
0.00202453
0.00247946
0.00298577
0.00354607
0.00416356
0.00484171
0.00558431
0.00639547
0.00727953
0.00824127
0.00928497
0.010412
0.0116148
0.0128762
0.014177
0.0155011
0.0168369
0.0181766
0.0195142
0.0208455
0.0221668
0.0234743
0.024764
0.0260312
0.0272712
0.0284778
0.029645
0.0307657
0.0318324
0.032837
0.0337716
0.0346279
0.0353987
0.0360781
0.0366638
5.59845e-05
0.000201429
0.000319028
0.000469675
0.000684418
0.000945771
0.00125194
0.00160475
0.00200617
0.00245655
0.00295772
0.00351226
0.00412321
0.00479395
0.00552827
0.00633024
0.0072042
0.00815471
0.00918642
0.0103016
0.0114957
0.0127541
0.0140577
0.0153896
0.0167372
0.0180914
0.019446
0.0207961
0.0221379
0.0234676
0.0247812
0.0260744
0.0273423
0.0285795
0.0297794
0.0309355
0.0320403
0.0330858
0.0340636
0.0349653
0.0357826
0.0365085
0.0371377
5.61525e-05
0.00020174
0.000318904
0.000467648
0.000679867
0.000938761
0.00124211
0.00159162
0.00198941
0.0024356
0.00293201
0.0034812
0.00408615
0.00475019
0.00547697
0.00627041
0.00713501
0.00807531
0.00909572
0.0101996
0.0113846
0.0126386
0.0139436
0.015282
0.0166402
0.0180081
0.0193787
0.0207466
0.022108
0.0234589
0.0247954
0.0261134
0.027408
0.028674
0.0299053
0.0310951
0.0322364
0.033321
0.0343405
0.0352863
0.0361498
0.036923
0.0375999
5.6321e-05
0.000202063
0.000318871
0.000466012
0.000675792
0.000932406
0.00123311
0.00157954
0.00197395
0.00241635
0.00290841
0.00345268
0.00405209
0.0047099