/*--------------------------------*- C++ -*----------------------------------*\
| =========                 |                                                 |
| \\      /  F ield         | OpenFOAM: The Open Source CFD Toolbox           |
|  \\    /   O peration     | Version:  2.3.0                                 |
|   \\  /    A nd           | Web:      www.OpenFOAM.org                      |
|    \\/     M anipulation  |                                                 |
\*---------------------------------------------------------------------------*/
FoamFile
{
    version     2.0;
    format      ascii;
    class       volScalarField;
    location    "10000";
    object      p;
}
// * * * * * * * * * * * * * * * * * * * * * * * * * * * * * * * * * * * * * //

dimensions      [0 2 -2 0 0 0 0];

internalField   nonuniform List<scalar> 
123359
(
0.00022752
-3.92424
-8.45366
-13.1069
-17.8442
-22.6799
-27.5936
-32.6098
-37.6931
-42.902
-48.1953
-53.5947
-59.1126
-64.7376
-70.45
-76.2763
-82.2147
-88.2174
-94.2854
-100.435
-106.538
-112.655
-118.735
-124.708
-130.598
-136.367
-141.938
-147.255
-152.408
-157.266
-161.695
-165.599
-169.024
-171.439
-172.591
-172.125
-170.654
-167.627
-159.989
-145.964
-136.295
-146.528
-133.041
17.5862
14.2163
11.0111
7.95129
4.98921
2.05026
-0.811942
-3.64664
-6.40422
-9.11251
-11.7667
-14.3265
-16.8514
-19.2875
-21.6423
-23.929
-26.1399
-28.2477
-30.27
-32.1583
-33.8596
-35.3962
-36.6281
-37.5253
-37.9953
-37.9239
-37.2271
-35.7333
-33.2278
-29.6082
-24.672
-17.9749
-9.51927
1.30807
14.7188
31.3374
51.5328
75.7803
104.707
139.283
178.695
221.794
268.736
31.6448
29.4071
27.1382
24.9577
22.8352
20.7298
18.6752
16.6829
14.706
12.819
10.9631
9.20923
7.51777
5.92167
4.44782
3.12374
1.91217
0.903753
0.0303999
-0.584503
-0.984248
-1.12642
-0.952337
-0.420516
0.511526
1.95514
3.92387
6.49293
9.82324
14.0446
19.2722
25.6609
33.4772
42.9006
54.2159
67.7655
83.7982
102.63
124.502
149.61
177.872
208.856
241.428
44.7992
43.1519
41.578
40.1436
38.7796
37.5145
36.3013
35.1993
34.1895
33.2681
32.4693
31.7865
31.2409
30.8214
30.551
30.4776
30.5759
30.9057
31.4686
32.3345
33.4796
34.9856
36.8724
39.2837
42.171
45.6545
49.8459
54.7589
60.5897
67.3637
75.2449
84.2931
94.7321
106.634
120.098
135.289
152.304
171.096
191.604
213.712
237.086
261.222
285.468
56.3277
55.1393
54.1476
53.2515
52.3985
51.669
51.0045
50.4152
49.9581
49.5801
49.3285
49.1777
49.1852
49.3309
49.6216
50.1207
50.8314
51.7287
52.8649
54.3149
56.0351
58.0767
60.5453
63.4153
66.7519
70.6421
75.1282
80.2879
86.2647
93.0548
100.85
109.636
119.651
130.892
143.536
157.618
173.203
190.263
208.691
228.395
249.035
270.201
291.434
66.6538
65.7706
65.2064
64.7301
64.2793
63.9464
63.7028
63.5662
63.5139
63.5983
63.7848
64.1055
64.5691
65.1604
65.9559
66.8936
68.1335
69.5758
71.1812
73.1697
75.4192
78.0459
81.0593
84.4711
88.4206
92.864
97.8481
103.554
109.975
117.207
125.278
134.299
144.339
155.463
167.762
181.28
195.981
211.861
228.817
246.743
265.327
284.269
303.229
75.6064
75.087
74.8644
74.7402
74.6053
74.5643
74.6383
74.8494
75.0926
75.5051
76.0174
76.6347
77.3666
78.2455
79.2784
80.453
82.0738
83.8555
85.7284
88.0033
90.5624
93.4651
96.702
100.406
104.545
109.222
114.381
120.195
126.601
133.902
141.861
150.837
160.612
171.458
183.291
196.163
210.133
225.113
240.914
257.612
274.889
292.402
309.901
84.0142
83.6223
83.4818
83.5833
83.5759
83.7463
84.0405
84.509
84.9196
85.5839
86.4218
87.2521
88.272
89.4382
90.5345
91.7084
93.6674
95.8493
97.7531
100.219
103.101
106.219
109.565
113.637
117.968
122.863
128.072
133.872
140.258
147.775
155.578
164.355
173.777
184.441
195.966
208.179
221.615
235.894
250.67
266.499
282.864
299.071
315.432
92.9402
92.2475
91.5301
91.5364
91.1946
91.1666
91.3429
91.9441
92.1008
92.6306
93.5144
94.2427
95.1932
96.8571
99.6445
99.0158
101.038
105.011
106.032
107.878
110.688
113.739
116.29
120.656
125.412
130.849
136.221
141.787
147.187
157.956
166.592
175.071
183.284
193.659
205.355
216.834
230.009
244.098
258.323
275.127
290.649
305.489
321.365
28.1832
148.062
225.962
284.997
331.272
368.043
397.562
421.406
440.703
456.521
469.555
480.353
489.339
496.886
503.192
508.488
512.981
516.801
520.037
522.768
525.079
527.047
528.706
530.081
531.248
532.201
532.971
533.597
534.087
534.453
534.707
534.869
534.94
534.94
534.847
534.703
534.48
534.206
533.873
533.478
532.989
532.55
532.748
313.303
347.176
376.544
402.082
423.916
442.387
457.973
470.978
481.851
490.915
498.47
504.758
509.997
514.362
518.002
521.025
523.534
525.598
527.302
528.716
529.881
530.837
531.61
532.239
532.726
533.09
533.352
533.514
533.587
533.586
533.509
533.376
533.187
532.949
532.657
532.334
531.97
531.572
531.139
530.689
530.197
529.718
529.552
273.101
302.912
330.448
355.366
377.544
397.14
414.285
429.282
442.326
453.64
463.51
472.068
479.535
486.038
491.742
496.719
501.074
504.893
508.25
511.168
513.738
515.971
517.919
519.609
521.07
522.322
523.392
524.3
525.061
525.695
526.206
526.607
526.91
527.13
527.265
527.327
527.324
527.26
527.13
526.945
526.689
526.436
526.395
309.243
332.012
353.483
373.352
391.473
407.779
422.323
435.233
446.588
456.577
465.319
472.974
479.646
485.501
490.608
495.073
498.984
502.414
505.416
508.042
510.351
512.372
514.134
515.683
517.029
518.2
519.221
520.105
520.868
521.514
522.064
522.526
522.903
523.209
523.446
523.622
523.741
523.805
523.823
523.807
523.721
523.653
524.481
312.345
332.595
351.853
369.89
386.517
401.674
415.38
427.669
438.65
448.408
457.047
464.724
471.485
477.498
482.788
487.489
491.653
495.338
498.612
501.512
504.077
506.356
508.359
510.138
511.715
513.102
514.329
515.404
516.349
517.174
517.89
518.512
519.048
519.503
519.884
520.196
520.451
520.644
520.778
520.863
520.871
520.813
520.713
321.892
340.022
357.313
373.616
388.734
402.632
415.315
426.769
437.067
446.299
454.512
461.856
468.369
474.196
479.348
483.952
488.031
491.669
494.919
497.795
500.358
502.645
504.656
506.458
508.056
509.482
510.742
511.867
512.877
513.773
514.551
515.239
515.846
516.383
516.848
517.244
517.586
517.864
518.084
518.27
518.401
518.495
518.371
327.159
343.949
359.999
375.164
389.282
402.325
414.28
425.159
435.015
443.858
451.76
458.907
465.293
470.974
476.032
480.566
484.617
488.246
491.493
494.402
497
499.298
501.327
503.152
504.783
506.25
507.545
508.778
509.888
510.827
511.627
512.367
513.055
513.662
514.188
514.654
515.062
515.399
515.681
515.946
516.153
516.363
516.652
331.682
347.592
362.682
376.879
390.169
402.529
413.948
424.422
433.974
442.435
450.023
457.015
463.303
468.709
473.625
478.106
482.094
485.713
488.988
491.932
494.477
496.688
498.673
500.486
502.189
503.646
504.992
506.381
507.471
508.288
509.049
509.904
510.698
511.311
511.839
512.358
512.843
513.194
513.491
513.829
514.055
514.267
514.231
337.203
352.97
367.027
380.041
392.226
403.886
415.004
425.232
434.656
442.324
448.892
455.077
461.094
466.471
471.334
475.792
479.749
483.373
486.583
489.474
491.647
493.754
495.816
497.806
499.591
500.933
502.258
503.638
503.864
505.345
506.526
507.639
508.42
508.931
509.565
510.289
510.876
511.344
511.806
512.35
512.68
513.088
512.85
64.0485
63.4907
63.0901
62.6542
62.1918
61.7137
61.2242
60.7253
60.2198
59.7099
59.1981
58.6865
58.1774
57.6731
57.1753
56.6872
56.2101
55.7468
55.2993
54.8691
54.4579
54.0673
53.6982
53.3512
53.0269
52.7253
52.4459
52.1886
51.9516
51.7352
51.5376
51.3584
51.1979
51.0579
50.9433
50.865
50.8474
50.9394
51.2095
51.7408
52.6841
54.6732
59.7011
65.0502
64.3716
63.7895
63.2148
62.648
62.0933
61.5528
61.027
60.5165
60.0216
59.5427
59.0802
58.6337
58.2024
57.7851
57.3807
56.9878
56.6052
56.232
55.867
55.5094
55.1585
54.8138
54.475
54.1423
53.816
53.4971
53.187
52.8875
52.602
52.3351
52.0938
51.8887
51.7363
51.6632
51.7062
51.9131
52.368
53.2464
54.909
58.0237
63.2747
70.4766
66.1549
65.5356
64.9898
64.4585
63.9372
63.4261
62.9236
62.4286
61.9397
61.4558
60.9769
60.5033
60.0351
59.5728
59.1156
58.6635
58.2162
57.774
57.3373
56.9068
56.4829
56.0664
55.6582
55.2593
54.8711
54.4955
54.1347
53.792
53.472
53.1811
52.9287
52.7283
52.6
52.5706
52.6781
52.9839
53.5829
54.6174
56.3246
59.1127
63.556
70.1138
78.6673
67.145
66.5904
66.0837
65.5824
65.0872
64.5996
64.1172
63.6392
63.1646
62.6921
62.2212
61.7528
61.2894
60.8318
60.3793
59.9307
59.485
59.0422
58.6026
58.1669
57.7356
57.3096
56.8902
56.4796
56.0802
55.6951
55.3287
54.9866
54.6768
54.4095
54.1996
54.0663
54.0371
54.1496
54.4555
55.0292
55.9825
57.4841
59.7897
63.2581
68.2523
74.9087
82.8936
68.0901
67.5694
67.0986
66.6265
66.1569
65.6973
65.2403
64.7861
64.3337
63.8808
63.4246
62.9643
62.5049
62.0511
61.6039
61.1598
60.717
60.2749
59.8337
59.3957
58.9607
58.53
58.106
57.6914
57.2906
56.9075
56.5482
56.2204
55.9352
55.7067
55.5528
55.4982
55.5755
55.8287
56.3181
57.1283
58.376
60.2369
62.9596
66.8333
72.0852
78.6857
86.0987
68.8943
68.46
68.0324
67.5876
67.1392
66.7103
66.2799
65.8511
65.4263
64.9991
64.5643
64.1138
63.657
63.2062
62.7689
62.3384
61.9069
61.4734
61.0369
60.6054
60.1776
59.7526
59.3334
58.9227
58.5291
58.1564
57.8111
57.5017
57.242
57.0542
56.9541
56.969
57.1376
57.5104
58.1599
59.1744
60.6491
62.7547
65.74
69.8434
75.2238
81.7396
88.8073
69.6213
69.2715
68.9023
68.4799
68.0374
67.6454
67.2453
66.8434
66.4518
66.0609
65.6666
65.2248
64.7606
64.2966
63.8741
63.4746
63.074
62.6626
62.2294
61.8046
61.3861
60.9722
60.5598
60.1471
59.7577
59.3955
59.0633
58.7696
58.5241
58.372
58.3121
58.3723
58.5972
59.0444
59.795
60.9794
62.6218
64.8702
68.0526
72.3655
77.9468
84.4665
91.3347
70.2408
70.0555
69.763
69.3466
68.823
68.4298
68.046
67.647
67.2728
66.9204
66.6091
66.2157
65.7361
65.1696
64.6748
64.2705
63.9148
63.5754
63.1705
62.7682
62.3731
62.0027
61.6484
61.2524
60.882
60.5513
60.2487
59.9888
59.7693
59.698
59.7196
59.8461
60.1354
60.64
61.4671
62.9935
64.9285
67.105
70.1455
74.4044
80.0185
86.3118
92.9
70.6649
71.1363
71.4311
71.4015
70.8567
70.4485
70.0875
69.6276
69.1718
68.7152
68.6071
68.5132
68.335
67.696
67.0881
66.4739
65.8515
65.4991
64.9294
64.3887
63.9229
63.2833
62.9061
62.4174
61.8595
61.4412
60.9797
60.6761
60.0631
59.7625
59.5855
59.4672
59.4141
59.4259
59.0394
60.9911
64.2706
67.2105
70.4441
75.5813
83.1803
90.1974
97.4627
75.0262
86.8848
96.2447
104.689
112.21
118.946
125.021
130.556
135.651
140.381
144.802
148.963
152.899
156.639
160.207
163.62
166.891
170.034
173.058
175.968
178.774
181.479
184.085
186.596
189.016
191.342
193.577
195.72
197.771
199.729
201.592
203.359
205.026
206.593
208.055
209.41
210.655
211.785
212.797
213.684
214.457
215.141
215.52
80.6343
87.6098
94.3819
101.501
108.424
115.059
121.321
127.192
132.681
137.808
142.602
147.091
151.303
155.264
158.992
162.512
165.837
168.985
171.968
174.797
177.481
180.028
182.447
184.743
186.92
188.983
190.937
192.785
194.528
196.169
197.71
199.15
200.492
201.734
202.876
203.916
204.853
205.684
206.406
207.005
207.468
207.875
208.351
88.0576
94.8603
100.91
106.846
112.581
118.139
123.464
128.539
133.356
137.912
142.218
146.284
150.122
153.748
157.174
160.414
163.481
166.386
169.138
171.747
174.222
176.569
178.794
180.903
182.9
184.789
186.573
188.254
189.835
191.316
192.701
193.986
195.175
196.265
197.256
198.148
198.935
199.62
200.199
200.657
200.974
201.321
201.96
91.0607
97.5231
103.058
108.454
113.678
118.73
123.574
128.207
132.622
136.822
140.809
144.589
148.172
151.567
154.782
157.827
160.711
163.443
166.032
168.483
170.804
173.002
175.08
177.044
178.897
180.643
182.284
183.824
185.265
186.61
187.857
189.01
190.069
191.033
191.903
192.676
193.351
193.927
194.401
194.753
194.955
195.184
195.59
93.4066
99.3104
104.284
109.264
114.139
118.886
123.461
127.853
132.048
136.044
139.841
143.443
146.855
150.086
153.142
156.031
158.761
161.341
163.777
166.077
168.247
170.293
172.219
174.029
175.726
177.315
178.801
180.187
181.474
182.666
183.762
184.768
185.683
186.508
187.241
187.883
188.434
188.895
189.262
189.522
189.664
189.846
190.269
95.6633
101.192
105.795
110.457
115.017
119.474
123.786
127.935
131.907
135.692
139.289
142.698
145.926
148.979
151.863
154.583
157.148
159.566
161.843
163.988
166.01
167.907
169.686
171.348
172.894
174.333
175.674
176.917
178.062
179.114
180.072
180.946
181.737
182.439
183.047
183.574
184.014
184.379
184.648
184.82
184.884
184.899
184.956
97.8044
102.904
107.165
111.548
115.835
120.038
124.119
128.045
131.803
135.381
138.779
142
145.049
147.938
150.661
153.223
155.633
157.903
160.042
162.054
163.947
165.71
167.349
168.864
170.262
171.563
172.777
173.897
174.922
175.852
176.684
177.448
178.133
178.724
179.224
179.654
179.996
180.291
180.462
180.548
180.527
180.422
180.353
99.0038
103.865
108.036
112.292
116.412
120.413
124.321
128.056
131.665
135.079
138.326
141.391
144.294
147.057
149.638
152.05
154.316
156.463
158.473
160.354
162.131
163.757
165.282
166.685
167.95
169.138
170.268
171.286
172.188
172.974
173.639
174.346
174.966
175.425
175.801
176.136
176.377
176.653
176.715
176.743
176.659
176.608
176.768
102.435
105.479
108.952
112.935
116.874
120.633
124.531
128.094
131.603
134.775
137.796
140.668
143.409
146.066
148.461
150.723
152.864
154.904
156.787
158.588
160.35
161.857
163.365
164.566
165.537
166.588
167.63
168.465
169.176
169.811
170.36
171.359
171.865
172.073
172.273
172.652
172.863
173.384
173.212
173.171
172.836
172.635
172.595
-309.515
-313
-316.636
-317.887
-317.231
-315.108
-310.96
-304.503
-296.451
-287.265
-277.348
-266.656
-255.628
-244.367
-233.078
-221.738
-210.604
-199.702
-189
-178.631
-168.578
-158.92
-149.578
-140.68
-132.061
-123.817
-115.912
-108.294
-100.954
-93.8719
-87.0283
-80.3896
-73.9204
-67.6103
-61.4498
-55.4267
-49.5287
-43.7479
-38.0602
-32.4636
-26.9201
-21.358
-15.7401
-279.435
-278.848
-277.668
-276.173
-274.651
-273.243
-272.066
-271.105
-270.257
-269.4
-268.679
-267.921
-266.914
-265.139
-262.447
-258.712
-253.88
-248.113
-241.262
-233.624
-225.084
-215.937
-206.284
-196.329
-186.052
-175.759
-165.513
-155.357
-145.399
-135.714
-126.289
-117.142
-108.284
-99.7213
-91.439
-83.4251
-75.6712
-68.1508
-60.8407
-53.7393
-46.8127
-40.0415
-34.0349
-290.722
-290.68
-290.627
-290.573
-290.521
-290.453
-290.306
-289.981
-289.377
-288.422
-287.064
-285.303
-283.188
-280.795
-278.163
-275.229
-271.778
-267.766
-262.968
-257.537
-251.254
-244.139
-236.318
-227.817
-218.581
-208.911
-198.867
-188.528
-178.067
-167.615
-157.245
-146.989
-136.95
-127.154
-117.603
-108.33
-99.338
-90.6054
-82.1243
-73.8827
-65.8477
-57.9477
-50.4914
-287.273
-287.16
-286.889
-286.514
-286.089
-285.643
-285.194
-284.75
-284.308
-283.855
-283.369
-282.828
-282.178
-281.353
-280.27
-278.887
-277.235
-275.242
-272.715
-269.605
-265.792
-261.132
-255.669
-249.323
-242.033
-233.945
-225.121
-215.616
-205.602
-195.241
-184.648
-173.942
-163.255
-152.658
-142.216
-131.988
-122.001
-112.268
-102.806
-93.6019
-84.6471
-75.9171
-68.0683
-289.662
-289.63
-289.541
-289.395
-289.213
-289.004
-288.771
-288.513
-288.227
-287.904
-287.529
-287.091
-286.572
-285.953
-285.197
-284.268
-283.11
-281.69
-279.971
-277.898
-275.357
-272.226
-268.457
-263.928
-258.581
-252.333
-245.195
-237.177
-228.352
-218.858
-208.739
-198.247
-187.439
-176.518
-165.555
-154.652
-143.903
-133.35
-123.033
-112.979
-103.195
-93.6732
-85.2155
-290.225
-290.171
-290.053
-289.886
-289.686
-289.462
-289.22
-288.966
-288.701
-288.425
-288.136
-287.832
-287.503
-287.138
-286.71
-286.197
-285.557
-284.754
-283.719
-282.44
-280.829
-278.804
-276.281
-273.172
-269.377
-264.771
-259.293
-252.97
-245.672
-237.517
-228.481
-218.815
-208.488
-197.799
-186.781
-175.633
-164.473
-153.368
-142.415
-131.661
-121.15
-110.862
-101.625
-291.781
-291.737
-291.648
-291.525
-291.379
-291.214
-291.033
-290.841
-290.637
-290.419
-290.187
-289.939
-289.672
-289.382
-289.054
-288.676
-288.22
-287.661
-286.958
-286.075
-284.954
-283.557
-281.792
-279.58
-276.837
-273.466
-269.346
-264.445
-258.614
-251.901
-244.186
-235.677
-226.277
-216.248
-205.618
-194.642
-183.415
-172.049
-160.72
-149.469
-138.39
-127.48
-117.665
-293.119
-293.071
-292.98
-292.863
-292.728
-292.577
-292.414
-292.241
-292.061
-291.872
-291.673
-291.464
-291.246
-291.017
-290.771
-290.497
-290.18
-289.796
-289.321
-288.723
-287.96
-286.986
-285.756
-284.189
-282.209
-279.726
-276.65
-272.862
-268.309
-262.881
-256.503
-249.21
-240.961
-231.874
-221.989
-211.524
-200.553
-189.247
-177.79
-166.272
-154.801
-143.408
-133.124
-294.639
-294.592
-294.509
-294.407
-294.29
-294.161
-294.021
-293.874
-293.72
-293.557
-293.387
-293.208
-293.02
-292.825
-292.62
-292.397
-292.145
-291.853
-291.497
-291.056
-290.502
-289.79
-288.889
-287.734
-286.277
-284.416
-282.089
-279.182
-275.609
-271.27
-266.088
-259.951
-252.91
-244.88
-235.953
-226.217
-215.799
-204.842
-193.497
-181.932
-170.28
-158.554
-148.048
-296.156
-296.106
-296.022
-295.923
-295.813
-295.692
-295.563
-295.429
-295.289
-295.144
-294.992
-294.832
-294.666
-294.495
-294.317
-294.13
-293.927
-293.695
-293.42
-293.087
-292.668
-292.137
-291.462
-290.597
-289.487
-288.074
-286.294
-284.04
-281.219
-277.771
-273.562
-268.469
-262.523
-255.548
-247.662
-238.817
-229.143
-218.756
-207.766
-196.372
-184.738
-172.851
-162.582
-297.661
-297.612
-297.531
-297.439
-297.337
-297.225
-297.108
-296.985
-296.858
-296.726
-296.588
-296.445
-296.295
-296.141
-295.984
-295.819
-295.644
-295.45
-295.227
-294.961
-294.631
-294.218
-293.693
-293.023
-292.163
-291.069
-289.668
-287.897
-285.664
-282.884
-279.452
-275.262
-270.256
-264.29
-257.393
-249.505
-240.675
-231.001
-220.559
-209.518
-198.063
-186.134
-175.905
-299.127
-299.078
-299.002
-298.916
-298.82
-298.716
-298.606
-298.491
-298.373
-298.25
-298.123
-297.991
-297.853
-297.711
-297.566
-297.417
-297.262
-297.091
-296.901
-296.678
-296.41
-296.077
-295.659
-295.126
-294.445
-293.568
-292.452
-291.041
-289.24
-286.979
-284.18
-280.702
-276.493
-271.43
-265.448
-258.487
-250.549
-241.66
-231.889
-221.349
-210.215
-198.372
-187.103
-300.582
-300.532
-300.453
-300.367
-300.273
-300.17
-300.063
-299.953
-299.84
-299.724
-299.604
-299.479
-299.349
-299.216
-299.08
-298.941
-298.799
-298.647
-298.48
-298.287
-298.06
-297.784
-297.438
-296.999
-296.447
-295.739
-294.83
-293.674
-292.205
-290.354
-288.034
-285.145
-281.594
-277.285
-272.114
-266.004
-258.939
-250.885
-241.856
-231.971
-221.347
-209.964
-198.917
-301.968
-301.917
-301.838
-301.753
-301.659
-301.559
-301.454
-301.348
-301.238
-301.125
-301.009
-300.889
-300.766
-300.639
-300.51
-300.38
-300.245
-300.105
-299.954
-299.785
-299.585
-299.347
-299.054
-298.687
-298.221
-297.628
-296.877
-295.921
-294.701
-293.156
-291.215
-288.797
-285.793
-282.117
-277.668
-272.331
-266.06
-258.807
-250.554
-241.382
-231.355
-220.56
-209.042
-303.283
-303.232
-303.153
-303.068
-302.975
-302.876
-302.773
-302.667
-302.56
-302.451
-302.338
-302.223
-302.103
-301.981
-301.856
-301.73
-301.602
-301.469
-301.326
-301.169
-300.992
-300.785
-300.53
-300.216
-299.825
-299.326
-298.688
-297.881
-296.857
-295.554
-293.913
-291.854
-289.294
-286.125
-282.272
-277.608
-272.074
-265.585
-258.085
-249.626
-240.214
-229.949
-218.672
-304.506
-304.456
-304.38
-304.296
-304.205
-304.108
-304.007
-303.904
-303.799
-303.692
-303.582
-303.47
-303.354
-303.235
-303.114
-302.992
-302.868
-302.742
-302.609
-302.465
-302.301
-302.11
-301.883
-301.606
-301.261
-300.828
-300.28
-299.587
-298.709
-297.598
-296.194
-294.431
-292.23
-289.504
-286.158
-282.081
-277.18
-271.374
-264.601
-256.845
-248.117
-238.547
-227.398
-305.659
-305.607
-305.531
-305.448
-305.358
-305.261
-305.161
-305.058
-304.953
-304.847
-304.738
-304.627
-304.514
-304.397
-304.278
-304.158
-304.037
-303.912
-303.784
-303.646
-303.494
-303.32
-303.115
-302.87
-302.567
-302.188
-301.709
-301.108
-300.348
-299.384
-298.168
-296.643
-294.73
-292.353
-289.419
-285.843
-281.501
-276.313
-270.211
-263.125
-255.053
-246.155
-235.576
-306.747
-306.692
-306.612
-306.525
-306.431
-306.333
-306.231
-306.128
-306.023
-305.917
-305.809
-305.7
-305.587
-305.471
-305.354
-305.236
-305.117
-304.997
-304.871
-304.737
-304.593
-304.431
-304.242
-304.014
-303.738
-303.401
-302.978
-302.446
-301.775
-300.928
-299.866
-298.534
-296.857
-294.781
-292.205
-289.04
-285.184
-280.551
-275.034
-268.563
-261.088
-252.684
-242.596
-307.705
-307.653
-307.576
-307.491
-307.399
-307.301
-307.201
-307.098
-306.994
-306.888
-306.781
-306.672
-306.562
-306.448
-306.333
-306.215
-306.097
-305.977
-305.856
-305.727
-305.587
-305.432
-305.255
-305.048
-304.797
-304.492
-304.109
-303.633
-303.041
-302.293
-301.352
-300.17
-298.69
-296.854
-294.568
-291.761
-288.317
-284.162
-279.168
-273.271
-266.373
-258.502
-248.884
-308.586
-308.533
-308.456
-308.371
-308.279
-308.182
-308.082
-307.98
-307.876
-307.77
-307.663
-307.554
-307.444
-307.331
-307.216
-307.101
-306.984
-306.866
-306.745
-306.619
-306.485
-306.337
-306.169
-305.974
-305.742
-305.461
-305.115
-304.689
-304.151
-303.479
-302.64
-301.59
-300.273
-298.633
-296.6
-294.093
-291.01
-287.278
-282.752
-277.394
-271.054
-263.753
-254.56
-309.383
-309.329
-309.252
-309.166
-309.073
-308.975
-308.873
-308.771
-308.666
-308.56
-308.453
-308.344
-308.234
-308.122
-308.009
-307.893
-307.776
-307.658
-307.539
-307.414
-307.282
-307.14
-306.98
-306.796
-306.578
-306.319
-305.999
-305.606
-305.122
-304.518
-303.76
-302.812
-301.631
-300.161
-298.335
-296.086
-293.314
-289.947
-285.848
-280.972
-275.156
-268.42
-259.4
-310.11
-310.051
-309.967
-309.876
-309.779
-309.678
-309.574
-309.469
-309.363
-309.256
-309.149
-309.04
-308.929
-308.816
-308.702
-308.588
-308.473
-308.357
-308.238
-308.116
-307.987
-307.847
-307.691
-307.515
-307.31
-307.068
-306.773
-306.412
-305.964
-305.412
-304.725
-303.87
-302.803
-301.476
-299.832
-297.799
-295.295
-292.246
-288.527
-284.086
-278.768
-272.599
-263.903
-310.683
-310.629
-310.55
-310.463
-310.368
-310.27
-310.168
-310.064
-309.959
-309.853
-309.746
-309.638
-309.529
-309.418
-309.306
-309.192
-309.077
-308.961
-308.843
-308.722
-308.594
-308.46
-308.311
-308.143
-307.948
-307.717
-307.44
-307.107
-306.697
-306.189
-305.557
-304.775
-303.803
-302.593
-301.098
-299.256
-296.987
-294.214
-290.837
-286.797
-281.956
-276.351
-267.906
-311.19
-311.135
-311.055
-310.968
-310.874
-310.775
-310.673
-310.57
-310.465
-310.36
-310.253
-310.144
-310.035
-309.924
-309.812
-309.7
-309.586
-309.47
-309.353
-309.234
-309.109
-308.975
-308.829
-308.667
-308.48
-308.263
-308.006
-307.692
-307.309
-306.84
-306.258
-305.539
-304.652
-303.55
-302.184
-300.503
-298.438
-295.908
-292.837
-289.141
-284.728
-279.691
-272.163
-311.608
-311.553
-311.473
-311.385
-311.289
-311.19
-311.087
-310.984
-310.879
-310.772
-310.666
-310.559
-310.451
-310.342
-310.23
-310.118
-310.005
-309.891
-309.775
-309.657
-309.533
-309.403
-309.261
-309.103
-308.925
-308.717
-308.47
-308.176
-307.819
-307.381
-306.845
-306.183
-305.362
-304.348
-303.099
-301.555
-299.662
-297.342
-294.526
-291.132
-287.066
-282.376
-275.628
-311.934
-311.876
-311.796
-311.707
-311.612
-311.512
-311.409
-311.306
-311.201
-311.096
-310.989
-310.882
-310.773
-310.664
-310.554
-310.443
-310.331
-310.218
-310.102
-309.984
-309.863
-309.734
-309.597
-309.445
-309.272
-309.075
-308.842
-308.563
-308.227
-307.82
-307.32
-306.703
-305.947
-305.009
-303.854
-302.434
-300.689
-298.544
-295.939
-292.775
-288.941
-284.392
-277.92
-312.169
-312.111
-312.031
-311.942
-311.845
-311.745
-311.642
-311.537
-311.432
-311.325
-311.219
-311.113
-311.006
-310.897
-310.787
-310.677
-310.566
-310.453
-310.341
-310.226
-310.108
-309.982
-309.846
-309.698
-309.531
-309.34
-309.118
-308.855
-308.54
-308.154
-307.686
-307.111
-306.407
-305.537
-304.465
-303.15
-301.541
-299.564
-297.161
-294.249
-290.725
-286.548
-280.82
-312.324
-312.264
-312.179
-312.086
-311.988
-311.886
-311.783
-311.678
-311.573
-311.468
-311.361
-311.254
-311.148
-311.041
-310.932
-310.823
-310.714
-310.603
-310.491
-310.377
-310.258
-310.135
-310.005
-309.861
-309.701
-309.518
-309.305
-309.054
-308.753
-308.392
-307.952
-307.412
-306.754
-305.945
-304.95
-303.728
-302.227
-300.385
-298.134
-295.4
-292.084
-288.1
-280.633
-312.355
-312.297
-312.215
-312.125
-312.028
-311.928
-311.826
-311.722
-311.617
-311.513
-311.408
-311.303
-311.197
-311.09
-310.984
-310.877
-310.77
-310.661
-310.55
-310.438
-310.325
-310.205
-310.075
-309.935
-309.779
-309.604
-309.402
-309.163
-308.878
-308.535
-308.124
-307.618
-306.999
-306.24
-305.309
-304.167
-302.766
-301.052
-298.958
-296.419
-293.348
-289.735
-284.273
-312.313
-312.253
-312.171
-312.08
-311.983
-311.883
-311.781
-311.678
-311.574
-311.47
-311.366
-311.261
-311.157
-311.053
-310.948
-310.842
-310.736
-310.629
-310.522
-310.413
-310.299
-310.181
-310.057
-309.924
-309.775
-309.604
-309.407
-309.179
-308.91
-308.586
-308.191
-307.714
-307.133
-306.42
-305.545
-304.477
-303.17
-301.567
-299.603
-297.233
-294.404
-291.131
-284.566
-312.169
-312.11
-312.029
-311.939
-311.844
-311.745
-311.644
-311.542
-311.44
-311.338
-311.236
-311.133
-311.03
-310.927
-310.824
-310.721
-310.617
-310.513
-310.408
-310.301
-310.192
-310.078
-309.956
-309.822
-309.677
-309.516
-309.329
-309.11
-308.851
-308.542
-308.17
-307.718
-307.168
-306.498
-305.677
-304.667
-303.435
-301.937
-300.1
-297.877
-295.185
-291.989
-287.41
-311.943
-311.884
-311.803
-311.714
-311.618
-311.52
-311.42
-311.319
-311.218
-311.117
-311.015
-310.914
-310.813
-310.713
-310.612
-310.511
-310.409
-310.307
-310.204
-310.1
-309.992
-309.881
-309.764
-309.637
-309.497
-309.339
-309.16
-308.952
-308.706
-308.413
-308.061
-307.633
-307.109
-306.472
-305.693
-304.747
-303.584
-302.162
-300.427
-298.337
-295.837
-292.901
-287.233
-311.629
-311.571
-311.49
-311.401
-311.307
-311.209
-311.11
-311.01
-310.909
-310.809
-310.709
-310.61
-310.51
-310.41
-310.311
-310.212
-310.114
-310.015
-309.916
-309.815
-309.713
-309.605
-309.492
-309.37
-309.236
-309.085
-308.911
-308.709
-308.471
-308.189
-307.85
-307.443
-306.948
-306.347
-305.609
-304.709
-303.609
-302.27
-300.633
-298.653
-296.26
-293.467
-289.648
-311.24
-311.179
-311.096
-311.006
-310.911
-310.813
-310.714
-310.614
-310.514
-310.415
-310.317
-310.218
-310.121
-310.025
-309.928
-309.831
-309.734
-309.638
-309.541
-309.442
-309.341
-309.237
-309.127
-309.008
-308.876
-308.732
-308.567
-308.376
-308.151
-307.884
-307.563
-307.173
-306.699
-306.126
-305.425
-304.572
-303.527
-302.259
-300.703
-298.819
-296.584
-294.046
-289.183
-310.751
-310.69
-310.608
-310.518
-310.423
-310.326
-310.228
-310.129
-310.031
-309.933
-309.835
-309.738
-309.642
-309.546
-309.453
-309.359
-309.266
-309.172
-309.079
-308.986
-308.889
-308.788
-308.683
-308.571
-308.447
-308.306
-308.146
-307.961
-307.745
-307.487
-307.178
-306.808
-306.357
-305.809
-305.139
-304.328
-303.334
-302.125
-300.66
-298.888
-296.743
-294.193
-291.433
-310.172
-310.112
-310.031
-309.942
-309.848
-309.752
-309.655
-309.558
-309.461
-309.365
-309.269
-309.175
-309.082
-308.99
-308.897
-308.806
-308.715
-308.625
-308.534
-308.443
-308.35
-308.254
-308.152
-308.042
-307.923
-307.791
-307.639
-307.462
-307.253
-307.008
-306.714
-306.358
-305.926
-305.405
-304.766
-303.987
-303.04
-301.884
-300.478
-298.768
-296.655
-293.986
-291.354
-309.511
-309.45
-309.369
-309.28
-309.188
-309.093
-308.997
-308.901
-308.805
-308.71
-308.617
-308.524
-308.431
-308.341
-308.252
-308.163
-308.076
-307.989
-307.903
-307.816
-307.728
-307.636
-307.538
-307.434
-307.32
-307.192
-307.044
-306.875
-306.679
-306.442
-306.16
-305.818
-305.407
-304.908
-304.298
-303.556
-302.651
-301.543
-300.189
-298.532
-296.527
-294.043
-290.573
-308.762
-308.702
-308.622
-308.534
-308.441
-308.347
-308.253
-308.158
-308.064
-307.971
-307.879
-307.789
-307.701
-307.613
-307.526
-307.441
-307.357
-307.274
-307.191
-307.106
-307.021
-306.934
-306.843
-306.743
-306.633
-306.511
-306.373
-306.211
-306.02
-305.794
-305.524
-305.198
-304.803
-304.322
-303.74
-303.03
-302.166
-301.118
-299.849
-298.316
-296.482
-294.344
-293.154
-307.929
-307.868
-307.789
-307.702
-307.611
-307.518
-307.425
-307.332
-307.239
-307.149
-307.059
-306.97
-306.882
-306.797
-306.714
-306.633
-306.551
-306.47
-306.39
-306.311
-306.231
-306.147
-306.058
-305.966
-305.862
-305.745
-305.612
-305.459
-305.278
-305.062
-304.805
-304.492
-304.115
-303.657
-303.097
-302.417
-301.591
-300.587
-299.366
-297.884
-296.077
-293.885
-291.696
-307.018
-306.957
-306.877
-306.79
-306.699
-306.607
-306.514
-306.422
-306.332
-306.242
-306.154
-306.069
-305.984
-305.901
-305.819
-305.739
-305.662
-305.587
-305.513
-305.437
-305.361
-305.284
-305.201
-305.111
-305.013
-304.903
-304.776
-304.628
-304.454
-304.246
-303.998
-303.699
-303.336
-302.895
-302.361
-301.71
-300.919
-299.951
-298.772
-297.344
-295.623
-293.567
-290.342
-306.016
-305.955
-305.876
-305.791
-305.702
-305.611
-305.52
-305.43
-305.341
-305.254
-305.168
-305.085
-305.003
-304.924
-304.847
-304.771
-304.696
-304.622
-304.55
-304.479
-304.406
-304.331
-304.254
-304.171
-304.078
-303.973
-303.853
-303.713
-303.55
-303.354
-303.116
-302.829
-302.483
-302.061
-301.545
-300.917
-300.155
-299.23
-298.104
-296.746
-295.109
-293.167
-290.407
-304.94
-304.879
-304.799
-304.714
-304.626
-304.536
-304.447
-304.358
-304.271
-304.185
-304.101
-304.019
-303.939
-303.861
-303.786
-303.713
-303.642
-303.573
-303.505
-303.439
-303.372
-303.304
-303.231
-303.152
-303.066
-302.968
-302.855
-302.72
-302.561
-302.372
-302.146
-301.869
-301.534
-301.127
-300.633
-300.033
-299.299
-298.408
-297.321
-296.005
-294.399
-292.434
-289.559
-303.779
-303.719
-303.641
-303.557
-303.469
-303.381
-303.293
-303.205
-303.12
-303.036
-302.955
-302.875
-302.798
-302.724
-302.652
-302.582
-302.515
-302.45
-302.387
-302.323
-302.26
-302.194
-302.125
-302.051
-301.969
-301.875
-301.768
-301.644
-301.495
-301.313
-301.097
-300.834
-300.514
-300.125
-299.648
-299.067
-298.362
-297.503
-296.462
-295.207
-293.689
-291.839
-289.345
-302.544
-302.482
-302.405
-302.321
-302.235
-302.147
-302.06
-301.974
-301.89
-301.808
-301.729
-301.652
-301.577
-301.506
-301.437
-301.37
-301.305
-301.242
-301.181
-301.122
-301.064
-301.007
-300.946
-300.879
-300.803
-300.717
-300.616
-300.496
-300.353
-300.18
-299.968
-299.714
-299.405
-299.027
-298.57
-298.01
-297.328
-296.499
-295.488
-294.271
-292.799