/*--------------------------------*- C++ -*----------------------------------*\
| =========                 |                                                 |
| \\      /  F ield         | OpenFOAM: The Open Source CFD Toolbox           |
|  \\    /   O peration     | Version:  2.3.0                                 |
|   \\  /    A nd           | Web:      www.OpenFOAM.org                      |
|    \\/     M anipulation  |                                                 |
\*---------------------------------------------------------------------------*/
FoamFile
{
    version     2.0;
    format      ascii;
    class       volScalarField;
    location    "4000";
    object      p;
}
// * * * * * * * * * * * * * * * * * * * * * * * * * * * * * * * * * * * * * //

dimensions      [0 2 -2 0 0 0 0];

internalField   nonuniform List<scalar> 
38144
(
3.60828e-05
-1.2691
-2.84132
-4.47129
-6.14824
-7.87395
-9.65277
-11.4898
-13.3861
-15.3458
-17.3712
-19.465
-21.6348
-23.8776
-26.1969
-28.5924
-31.0639
-33.6153
-36.2369
-38.927
-41.6765
-44.4851
-47.3422
-50.2435
-53.1666
-56.122
-59.1077
-62.1065
-65.1336
-68.1865
-71.2792
-74.4162
-77.6152
-80.8092
-84.0112
-87.1015
-89.9461
-92.1731
-92.5603
-90.1956
-87.4162
-84.7928
-52.9614
3.37332
2.34549
1.0744
-0.2344
-1.57292
-2.94136
-4.34059
-5.77233
-7.23655
-8.73537
-10.2716
-11.8404
-13.4527
-15.1038
-16.8
-18.5405
-20.33
-22.1742
-24.0691
-26.0181
-28.0262
-30.0865
-32.1911
-34.3407
-36.4982
-38.6554
-40.7759
-42.7948
-44.6557
-46.2703
-47.5339
-48.2779
-48.3397
-47.4547
-45.3691
-41.6986
-36.007
-27.7829
-16.3241
-1.02614
18.9618
45.6678
80.4608
6.56886
5.77078
4.78786
3.78334
2.76962
1.74692
0.714482
-0.326063
-1.37447
-2.42964
-3.4907
-4.55248
-5.61708
-6.67651
-7.73171
-8.77398
-9.79784
-10.7986
-11.7658
-12.6924
-13.5626
-14.3683
-15.0966
-15.7271
-16.2404
-16.6207
-16.8298
-16.835
-16.6028
-16.0748
-15.1871
-13.8668
-12.0045
-9.48879
-6.19174
-1.92835
3.47235
10.2084
18.4725
28.4174
40.1825
53.9347
69.4335
9.41394
8.82057
8.06171
7.28944
6.51479
5.73986
4.96254
4.18618
3.41257
2.64275
1.88012
1.12485
0.377375
-0.354342
-1.07185
-1.77308
-2.4458
-3.09001
-3.69676
-4.25862
-4.75267
-5.18013
-5.50976
-5.72455
-5.8051
-5.71119
-5.40984
-4.85775
-4.01265
-2.80168
-1.15699
0.987132
3.74028
7.1912
11.4573
16.6485
22.8862
30.2573
38.8233
48.5894
59.4798
71.2931
83.5799
12.0035
11.5747
10.9966
10.4078
9.82182
9.2466
8.67035
8.10409
7.54958
7.00759
6.48312
5.98014
5.49754
5.04398
4.61924
4.22669
3.87792
3.57652
3.32827
3.14835
3.04538
3.03142
3.12792
3.35567
3.72556
4.27975
5.03493
6.02498
7.29646
8.89913
10.8819
13.2996
16.2281
19.7389
23.9075
28.8001
34.4963
41.0345
48.4186
56.6303
65.5746
75.0871
84.8701
14.3361
14.0343
13.6055
13.1665
12.7238
12.3065
11.8781
11.4643
11.0689
10.6891
10.3287
9.99768
9.69856
9.4296
9.1951
8.99046
8.84134
8.73836
8.69495
8.72017
8.82522
9.02611
9.33793
9.79096
10.391
11.1781
12.1746
13.4052
14.9107
16.7283
18.9121
21.506
24.5611
28.143
32.2951
37.0799
42.5385
48.6972
55.5026
62.9377
70.8898
79.2329
87.7502
16.419
16.2431
15.9271
15.6017
15.2605
14.9895
14.6765
14.3768
14.1068
13.8535
13.6116
13.408
13.2439
13.1277
13.0481
12.9903
13.0036
13.0615
13.1884
13.3687
13.6359
13.9865
14.459
15.0668
15.8305
16.7808
17.9274
19.3103
20.9279
22.8511
25.1143
27.7603
30.7934
34.3101
38.2945
42.8316
47.9344
53.6923
59.9465
66.7604
73.9507
81.4357
89.0601
18.3554
18.2817
17.9946
17.7181
17.4128
17.3133
17.1023
16.8866
16.7142
16.5678
16.3959
16.2706
16.1692
16.1503
16.1851
16.2462
16.3943
16.5546
16.8253
17.1471
17.5568
17.9624
18.5138
19.1925
20.0351
21.1086
22.3774
23.8843
25.545
27.522
29.8254
32.5251
35.575
39.0827
42.9013
47.3157
52.3121
57.7645
63.5434
69.8872
76.5286
83.4457
90.4401
20.2458
20.2161
19.9608
19.8519
19.4138
19.4782
19.275
19.0098
18.8599
18.8082
18.6866
18.5855
18.4895
18.5979
18.806
18.7842
19.0021
19.134
19.4255
19.8411
20.4765
20.9003
21.4292
22.0485
22.8127
23.8266
25.1927
26.9115
28.5688
30.5652
32.8461
35.4945
38.5741
42.201
45.9691
50.4873
55.9523
62.3443
67.4996
73.2834
79.5393
86.2624
92.9887
55.333
99.0235
124.163
142.228
156.175
166.715
174.655
180.53
184.855
187.989
190.181
191.676
192.597
193.072
193.212
193.096
192.78
192.304
191.7
191
190.232
189.409
188.546
187.657
186.753
185.844
184.934
184.033
183.137
182.256
181.39
180.54
179.706
178.887
178.087
177.303
176.535
175.783
175.045
174.319
173.605
172.912
172.33
114.07
137.943
154.74
167.06
176.202
182.843
187.531
190.694
192.692
193.811
194.271
194.259
193.908
193.317
192.548
191.661
190.705
189.711
188.705
187.701
186.713
185.749
184.811
183.899
183.017
182.163
181.335
180.532
179.75
178.99
178.25
177.528
176.822
176.133
175.459
174.8
174.155
173.522
172.903
172.296
171.699
171.121
170.666
85.388
100.536
114.141
125.919
135.938
144.327
151.264
156.939
161.544
165.251
168.201
170.528
172.351
173.758
174.833
175.638
176.218
176.614
176.861
176.983
176.998
176.93
176.787
176.585
176.334
176.04
175.714
175.358
174.98
174.584
174.174
173.754
173.324
172.89
172.45
172.007
171.563
171.117
170.671
170.224
169.776
169.333
168.977
95.8049
107.374
117.963
127.383
135.607
142.645
148.606
153.581
157.7
161.077
163.83
166.053
167.834
169.236
170.334
171.173
171.806
172.262
172.576
172.774
172.875
172.897
172.857
172.762
172.626
172.451
172.25
172.021
171.774
171.51
171.233
170.945
170.647
170.342
170.029
169.711
169.388
169.06
168.73
168.396
168.06
167.729
167.471
94.6464
104.115
113.023
121.189
128.535
135.015
140.668
145.537
149.695
153.219
156.184
158.67
160.74
162.457
163.878
165.04
165.991
166.758
167.375
167.858
168.233
168.515
168.72
168.852
168.932
168.958
168.944
168.888
168.807
168.696
168.563
168.412
168.243
168.06
167.863
167.655
167.437
167.211
166.978
166.739
166.495
166.252
166.071
96.2199
104.454
112.278
119.519
126.123
132.039
137.276
141.855
145.823
149.249
152.185
154.681
156.796
158.58
160.081
161.342
162.393
163.262
163.988
164.575
165.06
165.445
165.754
165.991
166.171
166.293
166.37
166.406
166.414
166.398
166.353
166.292
166.209
166.112
165.995
165.867
165.726
165.577
165.42
165.254
165.082
164.913
164.814
96.6482
104.063
111.166
117.767
123.834
129.322
134.261
138.635
142.466
145.809
148.734
151.238
153.385
155.22
156.786
158.134
159.275
160.243
161.064
161.742
162.324
162.797
163.202
163.53
163.798
163.998
164.149
164.261
164.351
164.425
164.449
164.473
164.452
164.426
164.366
164.305
164.224
164.136
164.034
163.92
163.805
163.698
163.701
97.4663
104.345
110.884
117.009
122.716
127.823
132.544
136.741
140.444
143.631
146.508
148.902
150.98
152.809
154.396
155.769
156.937
157.938
158.787
159.5
160.134
160.663
161.144
161.537
161.854
162.098
162.298
162.483
162.67
162.817
162.865
162.971
162.968
163.006
162.969
162.967
162.918
162.868
162.793
162.708
162.627
162.555
162.697
99.719
106.15
112.02
117.566
122.978
128.284
132.861
136.514
139.979
143.245
146.12
148.061
149.936
151.724
153.225
154.47
155.515
156.402
157.175
157.851
158.51
159.049
159.579
159.999
160.314
160.537
160.719
160.936
161.22
161.351
161.274
161.526
161.461
161.634
161.568
161.642
161.586
161.622
161.637
161.609
161.548
161.459
161.718
72.2863
72.6508
72.9965
73.3578
73.7221
74.0879
74.4535
74.8175
75.1781
75.5339
75.8835
76.2254
76.558
76.8798
77.1894
77.4854
77.766
78.0298
78.276
78.5029
78.7098
78.8953
79.0584
79.1983
79.3149
79.4075
79.4753
79.5191
79.5385
79.5342
79.5073
79.4587
79.3896
79.3021
79.1988
79.0827
78.9576
78.8283
78.7012
78.5861
78.4998
78.5147
78.8594
72.9868
73.2956
73.5376
73.7771
74.0077
74.2302
74.4436
74.6486
74.8448
75.0326
75.2128
75.386
75.5529
75.7142
75.8707
76.0235
76.1735
76.3215
76.4683
76.6147
76.7615
76.9094
77.059
77.2107
77.3652
77.5225
77.6831
77.8472
78.0149
78.1864
78.3619
78.5416
78.7254
78.9136
79.1063
79.3031
79.5034
79.7055
79.9083
80.1252
80.4126
80.8813
81.3649
73.7058
73.9339
74.1371
74.3402
74.5382
74.7331
74.9255
75.1158
75.3041
75.491
75.6765
75.861
76.0447
76.2272
76.4087
76.589
76.7682
76.946
77.1228
77.2982
77.4725
77.6462
77.8193
77.992
78.165
78.3383
78.5119
78.6869
78.8633
79.042
79.2235
79.4083
79.5968
79.7887
79.9839
80.1819
80.3814
80.5813
80.7825
81.0036
81.3122
81.8602
82.6358
74.3014
74.587
74.8022
75.0199
75.2357
75.4503
75.6641
75.8767
76.088
76.2981
76.5067
76.714
76.9198
77.1236
77.3253
77.525
77.7226
77.9176
78.1101
78.2997
78.4865
78.6709
78.853
79.0333
79.2124
79.3901
79.5664
79.7418
79.9166
80.0915
80.2668
80.4432
80.6206
80.7988
80.9779
81.1568
81.3346
81.512
81.6944
81.9086
82.2199
82.7289
83.5085
74.9364
75.1566
75.3695
75.5852
75.797
76.007
76.2156
76.4223
76.6276
76.8312
77.0334
77.2345
77.4354
77.6361
77.8352
78.0327
78.2295
78.426
78.6216
78.8156
79.0072
79.197
79.3852
79.5727
79.7604
79.9487
80.136
80.3212
80.5047
80.6876
80.8704
81.0532
81.2362
81.4191
81.6019
81.7844
81.9663
82.1496
82.3451
82.5856
82.9395
83.4557
84.239
75.3784
75.6456
75.8498
76.0559
76.2574
76.4571
76.6565
76.8551
77.0538
77.2511
77.4478
77.6436
77.8412
78.041
78.2405
78.4387
78.6377
78.8378
79.0389
79.2402
79.4382
79.6343
79.8275
80.0178
80.2074
80.4017
80.5983
80.7905
80.9785
81.163
81.345
81.5263
81.7063
81.8835
82.0593
82.2345
82.4096
82.5869
82.7815
83.0319
83.4118
83.935
84.7535
75.8807
76.0831
76.2757
76.4776
76.6711
76.8626
77.057
77.251
77.4487
77.6447
77.8414
78.0342
78.231
78.4347
78.6393
78.8367
79.0358
79.2392
79.4473
79.6596
79.863
80.0663
80.265
80.4606
80.6486
80.8481
81.0584
81.2561
81.4455
81.6286
81.8062
81.9822
82.1563
82.3207
82.4769
82.6278
82.78
82.933
83.1103
83.3673
83.8003
84.4213
85.3567
76.2479
76.4964
76.6745
76.8726
77.052
77.2297
77.4167
77.5978
77.7872
77.9719
78.1638
78.3357
78.5111
78.7132
78.9325
79.127
79.3167
79.5138
79.7096
79.9472
80.1649
80.3774
80.5835
80.7668
80.9119
81.0927
81.359
81.5943
81.7957
81.9763
82.1413
82.3151
82.4965
82.6546
82.8056
82.9541
83.1081
83.2329
83.3402
83.493
83.8222
84.3563
85.3953
76.4424
76.7246
76.9137
77.1771
77.374
77.5344
77.7542
77.9594
78.1942
78.395
78.6454
78.8513
78.9922
79.1639
79.4342
79.6362
79.8489
80.0368
80.153
80.4178
80.6427
80.9036
81.1598
81.5461
81.6246
81.5647
81.8146
82.0965
82.357
82.5623
82.6993
82.8283
83.034
83.1783
83.2218
83.2338
83.3521
83.4464
83.4913
83.6419
84.2417
85.7079
87.5112
81.4692
83.7276
86.0442
88.0331
89.8437
91.4843
92.9802
94.3531
95.6219
96.8038
97.9128
98.9594
99.9523
100.9
101.811
102.689
103.542
104.373
105.187
105.987
106.776
107.555
108.325
109.087
109.843
110.592
111.335
112.07
112.799
113.521
114.236
114.943
115.643
116.334
117.017
117.691
118.357
119.012
119.658
120.294
120.918
121.529
122.13
82.826
83.9231
85.3576
86.7994
88.3083
89.7999
91.2565
92.6634
94.0163
95.3131
96.5555
97.7459
98.8889
99.9871
101.045
102.065
103.051
104.003
104.925
105.819
106.685
107.526
108.343
109.137
109.909
110.662
111.395
112.11
112.809
113.492
114.16
114.815
115.457
116.088
116.707
117.316
117.915
118.505
119.086
119.659
120.224
120.78
121.337
84.1363
85.3293
86.6741
87.967
89.3032
90.6304
91.9481
93.2415
94.5042
95.7308
96.9185
98.0656
99.173
100.24
101.27
102.263
103.22
104.145
105.037
105.9
106.735
107.543
108.327
109.088
109.827
110.546
111.246
111.928
112.594
113.244
113.879
114.501
115.11
115.706
116.291
116.864
117.427
117.98
118.524
119.059
119.586
120.102
120.596
84.8392
86.048
87.3725
88.6594
89.9727
91.267
92.5436
93.7911
95.0053
96.1821
97.3193
98.4165
99.4736
100.492
101.473
102.417
103.328
104.207
105.056
105.876
106.671
107.441
108.189
108.915
109.622
110.309
110.979
111.633
112.27
112.894
113.504
114.102
114.687
115.26
115.821
116.373
116.914
117.445
117.966
118.478
118.982
119.473
119.933
85.468
86.6374
87.8907
89.1381
90.4153
91.6797
92.9279
94.147
95.3324
96.48
97.5878
98.6557
99.6842
100.675
101.628
102.546
103.431
104.285
105.11
105.907
106.679
107.427
108.152
108.855
109.538
110.201
110.845
111.473
112.085
112.683
113.267
113.837
114.394
114.939
115.473
115.996
116.509
117.013
117.506
117.991
118.467
118.933
119.386
85.9937
87.1844
88.4205
89.6526
90.9016
92.1361
93.3535
94.5429
95.6992
96.8174
97.8971
98.9375
99.9399
100.905
101.834
102.728
103.589
104.421
105.223
105.999
106.749
107.476
108.179
108.859
109.517
110.155
110.774
111.378
111.966
112.54
113.1
113.644
114.174
114.692
115.198
115.695
116.183
116.658
117.123
117.58
118.026
118.468
118.931
86.6144
87.7998
89.0064
90.2088
91.4246
92.6272
93.8113
94.9665
96.0873
97.1707
98.2151
99.2232
100.196
101.133
102.035
102.902
103.738
104.546
105.326
106.082
106.814
107.523
108.207
108.865
109.501
110.118
110.716
111.299
111.867
112.42
112.958
113.48
113.985
114.478
114.962
115.437
115.902
116.351
116.791
117.223
117.643
118.059
118.523
86.7882
88.1018
89.3926
90.6366
91.8428
93.0278
94.1936
95.3242
96.4302
97.489
98.506
99.4956
100.449
101.371
102.25
103.097
103.913
104.703
105.468
106.21
106.933
107.631
108.289
108.921
109.53
110.118
110.688
111.247
111.802
112.34
112.86
113.358
113.835
114.301
114.762
115.22
115.67
116.088
116.501
116.909
117.302
117.695
118.144
88.227
89.2192
90.2603
91.2696
92.3799
93.5334
94.6495
95.7436
96.7917
97.7936
98.7472
99.7096
100.621
101.516
102.35
103.162
103.953
104.724
105.471
106.199
106.912
107.591
108.207
108.818
109.411
110.002
110.585
111.164
111.737
112.243
112.744
113.21
113.648
114.103
114.573
115.037
115.484
115.831
116.218
116.632
117.031
117.436
117.874
-600.444
-547.205
-486.508
-440.205
-397.631
-355.93
-317.389
-282.98
-252.521
-225.673
-202.124
-181.508
-163.498
-147.743
-133.953
-121.828
-111.133
-101.642
-93.1689
-85.5643
-78.6984
-72.4495
-66.7249
-61.4579
-56.5792
-52.0413
-47.7951
-43.8111
-40.0606
-36.5209
-33.1711
-29.9924
-26.9725
-24.0998
-21.3612
-18.7492
-16.2515
-13.863
-11.5763
-9.38383
-7.28193
-5.2676
-3.65809
-363.954
-360.378
-349.903
-336.401
-320.423
-302.56
-283.859
-264.922
-246.127
-227.795
-210.198
-193.535
-177.961
-163.504
-150.182
-137.961
-126.777
-116.567
-107.242
-98.7161
-90.9237
-83.7749
-77.2035
-71.1475
-65.5445
-60.3534
-55.5175
-51.0054
-46.782
-42.817
-39.0854
-35.565
-32.2368
-29.0833
-26.0892
-23.2449
-20.5338
-17.9496
-15.4804
-13.1176
-10.8537
-8.67787
-6.87625
-288.384
-288.204
-285.989
-280.129
-272.108
-262.735
-252.321
-241.094
-229.286
-217.133
-204.847
-192.59
-180.524
-168.784
-157.483
-146.7
-136.47
-126.824
-117.757
-109.255
-101.307
-93.8733
-86.9372
-80.4563
-74.3995
-68.7393
-63.4394
-58.4713
-53.8112
-49.4299
-45.3036
-41.4157
-37.7427
-34.2693
-30.9785
-27.8577
-24.891
-22.0706
-19.3819
-16.815
-14.3631
-12.0134
-10.057
-239.063
-239.61
-239.924
-238.747
-235.845
-231.512
-225.989
-219.458
-212.067
-203.995
-195.406
-186.465
-177.304
-168.038
-158.791
-149.661
-140.747
-132.109
-123.789
-115.821
-108.217
-100.98
-94.1155
-87.6099
-81.4553
-75.6362
-70.1398
-64.9427
-60.0343
-55.3938
-51.0038
-46.8502
-42.9142
-39.1846
-35.6457
-32.2844
-29.089
-26.0476
-23.1513
-20.3859
-17.7461
-15.2185
-13.1147
-208.557
-208.981
-209.423
-209.148
-207.817
-205.438
-202.141
-198.035
-193.207
-187.75
-181.759
-175.328
-168.552
-161.512
-154.287
-146.949
-139.582
-132.26
-125.048
-117.992
-111.121
-104.467
-98.0488
-91.8696
-85.9453
-80.2705
-74.8504
-69.6738
-64.7385
-60.0352
-55.5571
-51.2912
-47.229
-43.3612
-39.6766
-36.1657
-32.8185
-29.6247
-26.5771
-23.6632
-20.8752
-18.2007
-15.9834
-184.648
-185.009
-185.44
-185.498
-184.96
-183.726
-181.795
-179.215
-176.034
-172.306
-168.094
-163.447
-158.432
-153.104
-147.522
-141.73
-135.776
-129.727
-123.637
-117.564
-111.543
-105.611
-99.7947
-94.1147
-88.5905
-83.2302
-78.0481
-73.0475
-68.2309
-63.5979
-59.1516
-54.8848
-50.7959
-46.8793
-43.1297
-39.5396
-36.1039
-32.8149
-29.6655
-26.6472
-23.7527
-20.9764
-18.7119
-165.999
-166.327
-166.733
-166.913
-166.739
-166.112
-164.984
-163.354
-161.236
-158.66
-155.659
-152.265
-148.517
-144.456
-140.122
-135.547
-130.762
-125.81
-120.727
-115.57
-110.374
-105.178
-100.004
-94.8858
-89.8397
-84.8861
-80.038
-75.3088
-70.7097
-66.2427
-61.9185
-57.7359
-53.6984
-49.8052
-46.0561
-42.4463
-38.976
-35.6392
-32.433
-29.3506
-26.3879
-23.5372
-21.1995
-151.126
-151.421
-151.789
-152.012
-152.002
-151.688
-151.015
-149.96
-148.52
-146.706
-144.533
-142.019
-139.189
-136.065
-132.677
-129.046
-125.198
-121.155
-116.94
-112.595
-108.152
-103.646
-99.1026
-94.5494
-90.0068
-85.495
-81.0334
-76.6324
-72.3109
-68.0763
-63.938
-59.9057
-55.9818
-52.1718
-48.4773
-44.9019
-41.4432
-38.1023
-34.8784
-31.7669
-28.7663
-25.8603
-23.3848
-138.973
-139.236
-139.562
-139.791
-139.863
-139.725
-139.326
-138.633
-137.638
-136.339
-134.74
-132.852
-130.686
-128.258
-125.584
-122.68
-119.565
-116.254
-112.759
-109.107
-105.322
-101.435
-97.4705
-93.4509
-89.3982
-85.3286
-81.263
-77.2163
-73.2018
-69.235
-65.324
-61.4823
-57.7156
-54.0324
-50.4373
-46.9356
-43.5292
-40.2218
-37.014
-33.9051
-30.8964
-27.9742
-25.4103
-128.914
-129.144
-129.432
-129.654
-129.767
-129.728
-129.495
-129.036
-128.337
-127.392
-126.197
-124.756
-123.075
-121.164
-119.031
-116.686
-114.143
-111.412
-108.501
-105.426
-102.201
-98.8513
-95.3984
-91.8632
-88.2619
-84.6132
-80.9322
-77.2364
-73.5379
-69.8513
-66.1893
-62.5624
-58.9808
-55.453
-51.9886
-48.5905
-45.2675
-42.0216
-38.858
-35.7758
-32.7777
-29.8513
-27.2317
-120.504
-120.698
-120.949
-121.155
-121.282
-121.299
-121.17
-120.863
-120.363
-119.66
-118.751
-117.636
-116.314
-114.79
-113.067
-111.154
-109.058
-106.786
-104.345
-101.743
-98.9871
-96.0965
-93.0881
-89.9804
-86.7857
-83.522
-80.2021
-76.8404
-73.4506
-70.0445
-66.6359
-63.2346
-59.8532
-56.4987
-53.1833
-49.912
-46.6938
-43.5321
-40.4343
-37.3987
-34.4295
-31.5188
-28.921
-113.387
-113.544
-113.763
-113.951
-114.08
-114.127
-114.061
-113.855
-113.494
-112.964
-112.262
-111.384
-110.328
-109.095
-107.687
-106.108
-104.363
-102.456
-100.392
-98.1752
-95.8092
-93.3062
-90.6783
-87.9422
-85.1075
-82.1894
-79.1982
-76.1483
-73.0489
-69.9137
-66.7534
-63.5787
-60.401
-57.23
-54.0747
-50.9438
-47.8458
-44.7864
-41.775
-38.8112
-35.9019
-33.0534
-30.7435
-107.303
-107.432
-107.624
-107.794
-107.919
-107.98
-107.953
-107.814
-107.548
-107.142
-106.589
-105.887
-105.032
-104.022
-102.858
-101.54
-100.072
-98.4556
-96.695
-94.7919
-92.7483
-90.5697
-88.2657
-85.849
-83.3287
-80.7158
-78.0202
-75.2531
-72.4232
-69.5411
-66.619
-63.6635
-60.6882
-57.7008
-54.7106
-51.7276
-48.7593
-45.8124
-42.8979
-40.0159
-37.175
-34.3668
-32.0484
-102.067
-102.176
-102.342
-102.495
-102.613
-102.681
-102.677
-102.583
-102.382
-102.065
-101.625
-101.055
-100.35
-99.5109
-98.5358
-97.4232
-96.1743
-94.7903
-93.2743
-91.6264
-89.8481
-87.9411
-85.9113
-83.7682
-81.5196
-79.175
-76.741
-74.2281
-71.6437
-68.9957
-66.2958
-63.5496
-60.7686
-57.9612
-55.1359
-52.3015
-49.4664
-46.6387
-43.826
-41.0318
-38.2641
-35.5044
-33.0702
-97.5327
-97.6255
-97.7703
-97.9055
-98.0139
-98.0813
-98.0903
-98.0256
-97.8724
-97.62
-97.2609
-96.7893
-96.2021
-95.4958
-94.6682
-93.7181
-92.6448
-91.4489
-90.1315
-88.6929
-87.1332
-85.4526
-83.6546
-81.7445
-79.7306
-77.6188
-75.416
-73.1295
-70.7654
-68.3314
-65.836
-63.285
-60.6883
-58.0535
-55.3886
-52.7019
-50.0009
-47.2952
-44.5908
-41.895
-39.2181
-36.5506
-34.1913
-93.5877
-93.667
-93.7924
-93.9118
-94.0089
-94.0716
-94.0868
-94.0403
-93.9196
-93.7148
-93.4177
-93.0226
-92.5252
-91.9221
-91.2108
-90.3895
-89.4573
-88.4139
-87.2579
-85.9911
-84.6115
-83.1201
-81.5173
-79.8067
-77.994
-76.0848
-74.0838
-71.9978
-69.831
-67.5896
-65.2813
-62.9104
-60.4864
-58.0146
-55.5027
-52.9593
-50.3904
-47.8051
-45.2099
-42.6118
-40.0196
-37.4198
-35.0099
-90.1366
-90.2041
-90.3118
-90.4163
-90.5027
-90.5603
-90.5781
-90.5433
-90.4449
-90.2738
-90.0216
-89.6835
-89.2559
-88.7344
-88.1157
-87.3981
-86.5797
-85.6597
-84.637
-83.5118
-82.2826
-80.9495
-79.512
-77.9709
-76.3314
-74.5975
-72.7734
-70.8631
-68.8723
-66.8038
-64.6646
-62.4594
-60.1936
-57.8746
-55.508
-53.1005
-50.6589
-48.1907
-45.7015
-43.1961
-40.6814
-38.1439
-35.6781
-87.1046
-87.1608
-87.2531
-87.3437
-87.4186
-87.4692
-87.4856
-87.4572
-87.374
-87.2281
-87.0117
-86.7188
-86.3455
-85.8884
-85.3437
-84.7096
-83.984
-83.1656
-82.2525
-81.2446
-80.141
-78.9402
-77.6422
-76.2458
-74.7554
-73.173
-71.5028
-69.7478
-67.9122
-65.9985
-64.012
-61.9571
-59.8373
-57.6596
-55.4286
-53.1505
-50.8312
-48.4776
-46.0959
-43.6922
-41.2734
-38.8462
-36.6468
-84.4259
-84.473
-84.5523
-84.6308
-84.6958
-84.7399
-84.7542
-84.7291
-84.6566
-84.5281
-84.3374
-84.0796
-83.7494
-83.3433
-82.8581
-82.2917
-81.6416
-80.9063
-80.0843
-79.1745
-78.1758
-77.0867
-75.9067
-74.6344
-73.272
-71.8213
-70.2854
-68.6669
-66.9682
-65.1927
-63.3431
-61.4238
-59.4376
-57.3901
-55.285
-53.1284
-50.9244
-48.6798
-46.3992
-44.0881
-41.7503
-39.3784
-37.1634
-82.0554
-82.0938
-82.1609
-82.2282
-82.2834
-82.3199
-82.3303
-82.3066
-82.2404
-82.1248
-81.9538
-81.7224
-81.4266
-81.0621
-80.6252
-80.1145
-79.5272
-78.8611
-78.1148
-77.287
-76.3765
-75.3821
-74.3025
-73.1362
-71.8841
-70.5476
-69.129
-67.6301
-66.0527
-64.4002
-62.673
-60.8763
-59.0115
-57.0832
-55.0946
-53.0507
-50.9561
-48.8152
-46.6347
-44.4196
-42.1772
-39.9098
-37.9714
-79.96
-79.9885
-80.0436
-80.0992
-80.1446
-80.1732
-80.1785
-80.1532
-80.0906
-79.9844
-79.8284
-79.6175
-79.3478
-79.0159
-78.6187
-78.1535
-77.6173
-77.0087
-76.326
-75.5678
-74.732
-73.8176
-72.8231
-71.7481
-70.5914
-69.3542
-68.0375
-66.6438
-65.1738
-63.6299
-62.0132
-60.3263
-58.5717
-56.7522
-54.8709
-52.9313
-50.9382
-48.8946
-46.8059
-44.6754
-42.5079
-40.2884
-38.283
-78.0831
-78.1049
-78.1513
-78.1981
-78.2349
-78.2562
-78.2565
-78.2298
-78.1698
-78.0698
-77.9247
-77.7302
-77.4826
-77.1778
-76.8124
-76.384
-75.8908
-75.3305
-74.7008
-74.0006
-73.2286
-72.3833
-71.4626
-70.4658
-69.3913
-68.2404
-67.0135
-65.7121
-64.337
-62.8896
-61.3714
-59.7838
-58.1285
-56.4081
-54.6254
-52.7823
-50.8833
-48.931
-46.9298
-44.8817
-42.7915
-40.6457
-38.7653
-76.4087
-76.424
-76.4614
-76.4994
-76.5283
-76.543
-76.5384
-76.5089
-76.449
-76.3534
-76.2171
-76.0354
-75.8045
-75.5214
-75.1829
-74.7863
-74.3292
-73.8094
-73.2252
-72.5747
-71.8565
-71.0694
-70.212
-69.2828
-68.2805
-67.2046
-66.0565
-64.8364
-63.5452
-62.184
-60.7536
-59.2551
-57.6901
-56.0596
-54.3668
-52.6134
-50.802
-48.9354
-47.0177
-45.0485
-43.0331
-40.9568
-39.2104
-74.9156
-74.9241
-74.9533
-74.9831
-75.004
-75.0116
-75.0017
-74.9693
-74.9088
-74.8156
-74.6854
-74.5136
-74.2965
-74.0307
-73.7137
-73.3427
-72.9157
-72.4301
-71.8841
-71.2762
-70.6049
-69.8683
-69.0651
-68.1943
-67.2542
-66.2444
-65.1654
-64.0166
-62.8002
-61.5156
-60.1638
-58.7452
-57.2616
-55.7136
-54.1026
-52.4316
-50.7017
-48.9159
-47.0773
-45.185
-43.2463
-41.2477
-39.6621
-73.5717
-73.5755
-73.598
-73.6202
-73.6344
-73.6364
-73.6216
-73.5858
-73.5244
-73.4331
-73.3071
-73.1428
-72.9364
-72.6855
-72.3869
-72.0377
-71.6357
-71.1792
-70.666
-70.0941
-69.4625
-68.7696
-68.014
-67.1943
-66.3086
-65.3564
-64.338
-63.2527
-62.1024
-60.8858
-59.6044
-58.2579
-56.8475
-55.3741
-53.8386
-52.2428
-50.5891
-48.8792
-47.1175
-45.3058
-43.4527
-41.549
-40.1474
-72.3715
-72.3694
-72.3853
-72.4008
-72.408
-72.4034
-72.3834
-72.3439
-72.2806
-72.1893
-72.0663
-71.908
-71.7106
-71.4715
-71.1875
-70.8565
-70.4762
-70.0442
-69.5589
-69.0186
-68.4215
-67.7664
-67.0515
-66.2759
-65.4379
-64.5365
-63.5716
-62.5428
-61.4509
-60.2953
-59.0766
-57.7951
-56.4508
-55.0449
-53.5779
-52.0511
-50.4663
-48.8249
-47.1307
-45.3836
-43.5891
-41.7146
-40.1357
-71.2899
-71.2834
-71.2936
-71.3029
-71.3041
-71.294
-71.2692
-71.2263
-71.1613
-71.07
-70.949
-70.7949
-70.6043
-70.3745
-70.1029
-69.7869
-69.4247
-69.0138
-68.5525
-68.0391
-67.4719
-66.8497
-66.1705
-65.4339
-64.6378
-63.7812
-62.8636
-61.8847
-60.8449
-59.7434
-58.5812
-57.3581
-56.0734
-54.7287
-53.3238
-51.8597
-50.3381
-48.7594
-47.1264
-45.4386
-43.7003
-41.8834
-40.2635
-70.3214
-70.3098
-70.3142
-70.3171
-70.3122
-70.2965
-70.2669
-70.2198
-70.1519
-70.0598
-69.9401
-69.7893
-69.6044
-69.3825
-69.1214
-68.8187
-68.472
-68.0792
-67.6384
-67.1481
-66.6069
-66.0136
-65.366
-64.6632
-63.9036
-63.0863
-62.2106
-61.276
-60.2827
-59.23
-58.1182
-56.9474
-55.7167
-54.4274
-53.0793
-51.6724
-50.209
-48.6891
-47.115
-45.4868
-43.8097
-42.0678
-40.4963
-69.4449
-69.4301
-69.4304
-69.4285
-69.4185
-69.3979
-69.3639
-69.3137
-69.2437
-69.1505
-69.031
-68.8822
-68.7015
-68.4861
-68.2334
-67.9412
-67.6076
-67.2303
-66.8077
-66.3379
-65.819
-65.2503
-64.6299
-63.9571
-63.2303
-62.4481
-61.6097
-60.7145
-59.7626
-58.7535
-57.6871
-56.5634
-55.3817
-54.1424
-52.8458
-51.4915
-50.0815
-48.6158
-47.0964
-45.5247
-43.906
-42.2281
-40.7056
-68.6654
-68.6451
-68.6395
-68.6314
-68.6155
-68.5896
-68.5511
-68.4969
-68.4237
-68.3289
-68.2097
-68.0626
-67.8851
-67.6747
-67.4293
-67.1461
-66.8234
-66.4595
-66.0521
-65.5999
-65.1013
-64.555
-63.9591
-63.3126
-62.6142
-61.8628
-61.0574
-60.1976
-59.2825
-58.3126
-57.2871
-56.2057
-55.0682
-53.8744
-52.6245
-51.3182
-49.9565
-48.5397
-47.069
-45.5448
-43.9703
-42.3329
-40.8128
-67.95
-67.9283
-67.9203
-67.9087
-67.8891
-67.8594
-67.8169
-67.7591
-67.6835
-67.5873
-67.4675
-67.3218
-67.1473
-66.9411
-66.7015
-66.4265
-66.1137
-65.7609
-65.367
-64.9301
-64.4484
-63.921
-63.3465
-62.7235
-62.0507
-61.3268
-60.5509
-59.7227
-58.841
-57.906
-56.9172
-55.874
-54.7765
-53.624
-52.4164
-51.1537
-49.8363
-48.4642
-47.0386
-45.5598
-44.0302
-42.4405
-40.9782
-67.3183
-67.2921
-67.2792
-67.2626
-67.2377
-67.2033
-67.157
-67.096
-67.0175
-66.9195
-66.799
-66.6534
-66.4804
-66.2777
-66.0429
-65.7738
-65.4688
-65.1265
-64.7443
-64.3209
-63.8549
-63.3446
-62.7887
-62.1863
-61.5361
-60.8367
-60.0872
-59.287
-58.4352
-57.5317
-56.5761
-55.5677
-54.5062
-53.3913
-52.2223
-50.9994
-49.7224
-48.3914
-47.007
-45.5691
-44.0788
-42.5239
-41.0668
-66.7479
-66.7184
-66.7016
-66.6805
-66.6515
-66.6126
-66.562
-66.4973
-66.4161
-66.3158
-66.194
-66.0485
-65.8769
-65.6768
-65.4463
-65.1833
-64.8855
-64.5513
-64.1791
-63.7675
-63.3147
-62.8195
-62.2807
-61.6968
-61.0667
-60.3892
-59.6635
-58.8885
-58.0638
-57.1887
-56.2629
-55.286
-54.2572
-53.1763
-52.0426
-50.8561
-49.6163
-48.323
-46.9767
-45.5762
-44.1228
-42.6031
-41.1582
-66.2339
-66.2014
-66.1815
-66.1566
-66.1236
-66.0808
-66.0264
-65.9584
-65.8744
-65.7722
-65.6495
-65.5038
-65.3329
-65.1347
-64.9074
-64.6488
-64.3569
-64.0305
-63.6674
-63.266
-62.825
-62.3432
-61.8192
-61.2516
-60.6394
-59.9815
-59.277
-58.5246
-57.7242
-56.8747
-55.9761
-55.0277
-54.0288
-52.979
-51.8776
-50.7246
-49.5189
-48.2609
-46.9503
-45.5863
-44.1699
-42.6901
-41.2762
-65.7658
-65.7315
-65.7093
-65.6815
-65.6453
-65.5995
-65.5421
-65.4712
-65.3846
-65.2806
-65.1567
-65.0109
-64.8409
-64.6444
-64.4197
-64.165
-63.8784
-63.5581
-63.2027
-62.8106
-62.3802
-61.9103
-61.3995
-60.8469
-60.2508
-59.6106
-58.925
-58.1931
-57.4147
-56.5885
-55.7146
-54.792
-53.8204
-52.799
-51.7272
-50.6049
-49.431
-48.2058
-46.9289
-45.599
-44.218
-42.7757
-41.3955
-65.3562
-65.3183
-65.292
-65.2599
-65.2194
-65.1695
-65.1085
-65.0346
-64.9455
-64.8393
-64.7138
-64.5671
-64.3971
-64.2021
-63.98
-63.7288
-63.4469
-63.1323
-62.7837
-62.3995
-61.9783
-61.5187
-61.0196
-60.48
-59.8983
-59.2737
-58.6055
-57.8922
-57.1335
-56.3284
-55.4769
-54.5778
-53.6311
-52.6356
-51.5911
-50.4971
-49.3527
-48.1577
-46.9123
-45.6148
-44.267
-42.8589
-41.5173
-64.9801
-64.9407
-64.9127
-64.8781
-64.8351
-64.7825
-64.7186
-64.6417
-64.5501
-64.442
-64.3152
-64.168
-63.998
-63.8035
-63.5827
-63.334
-63.0556
-62.7459
-62.4034
-62.0263
-61.6136
-61.1636
-60.6752
-60.1474
-59.5789
-58.9686
-58.3159
-57.6193
-56.8784
-56.0927
-55.2615
-54.3838
-53.4599
-52.4883
-51.4688
-50.4007
-49.2837
-48.1169
-46.9004
-45.6331
-44.3153
-42.9389
-41.6503
-64.6456
-64.6047
-64.5745
-64.5373
-64.4911
-64.4352
-64.3684
-64.2888
-64.1948
-64.0846
-63.9563
-63.8081
-63.6381
-63.4447
-63.2257
-62.9796
-62.7046
-62.399
-62.0617
-61.6908
-61.2852
-60.8434
-60.3645
-59.8472
-59.2903
-58.6928
-58.0541
-57.3728
-56.6482
-55.88
-55.0671
-54.2093
-53.306
-52.3562
-51.3597
-50.3156
-49.2237
-48.0833
-46.8945
-45.6565
-44.3707
-43.0288
-41.8123
-64.3558
-64.311
-64.2771
-64.236
-64.1863
-64.1271
-64.0571
-63.9746
-63.8782
-63.7659
-63.6358
-63.4864
-63.3159
-63.1224
-62.9041
-62.6598
-62.3876
-62.0857
-61.7529
-61.3877
-60.9888
-60.5546
-60.0843
-59.5764
-59.03
-58.4443
-57.818
-57.1505
-56.4407
-55.6884
-54.8924
-54.0527
-53.1682
-52.2386
-51.2631
-50.241
-49.172
-48.0556
-46.8916
-45.6787
-44.4176
-43.0966
-41.9022
-64.0919
-64.0458
-64.0103
-63.9669
-63.9146
-63.8526
-63.7797
-63.6944
-63.5952
-63.4806
-63.349
-63.1986
-63.0275
-62.8342
-62.6169
-62.374
-62.1038
-61.8052
-61.4762
-61.1157
-60.7224
-60.2949
-59.8323
-59.3331
-58.7963
-58.2209
-57.6062
-56.9511
-56.2549
-55.5169
-54.7365
-53.913
-53.0459
-52.1345
-51.1782
-50.1765
-49.1285
-48.0343
-46.8933
-45.705
-44.471
-43.1796
-42.0262
-63.8564
-63.8084
-63.7709
-63.7251
-63.6702
-63.6056
-63.5301
-63.4426
-63.3415
-63.2252
-63.0921
-62.9405
-62.7688
-62.5754
-62.3587
-62.1172
-61.849
-61.5531
-61.2279
-60.8718
-60.4836
-60.062
-59.606
-59.1144
-58.5863
-58.0206
-57.4164
-56.7726
-56.0888
-55.3638
-54.5975
-53.789
-52.9379
-52.0432
-51.1046
-50.1212
-49.0928
-48.0183
-46.898
-45.7308
-44.5177
-43.2443
-42.0716
-63.6514
-63.6014
-63.5618
-63.5135
-63.456
-63.3888
-63.311
-63.2209
-63.1172
-62.9987
-62.8639
-62.711
-62.5385
-62.3449
-62.1285
-61.8879
-61.6215
-61.3279
-61.0056
-60.6534
-60.27
-59.854
-59.4042
-58.9196
-58.3991
-57.8419
-57.2471
-56.6137
-55.9411
-55.2283
-54.4748
-53.68
-52.8434
-51.9641
-51.0416
-50.0752
-49.0643
-48.0081
-46.9062
-45.7575
-44.5616
-43.305
-42.1213
-63.4702
-63.4188
-63.3772
-63.3265
-63.2666
-63.1968
-63.1163
-63.0239
-62.9183
-62.7981
-62.6616
-62.5075
-62.3342
-62.1402
-61.9241
-61.6843
-61.4192
-61.1276
-60.8079
-60.459
-60.0795
-59.6682
-59.224
-58.7458
-58.2325
-57.6832
-57.097
-56.4731
-55.8105
-55.1088
-54.3671
-53.5848
-52.7616
-51.8964
-50.9888
-50.038
-49.0433
-48.0043
-46.9197
-45.7893
-44.612
-43.3771
-42.1984
-63.3134
-63.2598
-63.2163
-63.1634
-63.1009
-63.0286
-62.9458
-62.851
-62.743
-62.6206
-62.4825
-62.327
-62.1528
-61.9584
-61.7422
-61.5029
-61.2391
-60.9493
-60.632
-60.2861
-59.9103
-59.5033
-59.064
-58.5915
-58.0846
-57.5426
-56.9642
-56.3489
-55.6958
-55.0042
-54.2733
-53.5027
-52.6917
-51.8395
-50.9457
-50.0093
-49.03
-48.0067
-46.9389
-45.826
-44.6672