# Forces     
# CofR       : (0.000000e+00 0.000000e+00 0.000000e+00)
# Time       forces(pressure viscous porous) moment(pressure viscous porous)
5.000000e+00	((-4.411239e-19 -2.881281e-02 -4.861985e-36) (4.772095e-01 2.211966e-06 4.609703e-38) (0.000000e+00 0.000000e+00 0.000000e+00)) ((1.440640e-03 -2.205619e-20 5.129552e-03) (-1.105983e-07 2.386047e-02 -1.187758e-06) (0.000000e+00 0.000000e+00 0.000000e+00))
1.000000e+01	((-7.044187e-19 3.394427e-01 -1.863735e-37) (4.241814e-01 -4.160649e-06 -6.424007e-39) (0.000000e+00 0.000000e+00 0.000000e+00)) ((-1.697213e-02 -3.522094e-20 8.371801e-02) (2.080324e-07 2.120907e-02 3.492043e-06) (0.000000e+00 0.000000e+00 0.000000e+00))
1.500000e+01	((-1.522414e-18 1.626663e-01 -2.123730e-36) (3.609251e-01 8.201077e-07 3.587572e-38) (0.000000e+00 0.000000e+00 0.000000e+00)) ((-8.133315e-03 -7.612070e-20 2.471013e-04) (-4.100538e-08 1.804626e-02 -1.946595e-06) (0.000000e+00 0.000000e+00 0.000000e+00))
2.000000e+01	((-1.314307e-18 3.365100e-01 -3.444418e-36) (3.138014e-01 9.736786e-06 9.811510e-38) (0.000000e+00 0.000000e+00 0.000000e+00)) ((-1.682550e-02 -6.571537e-20 7.246185e-02) (-4.868393e-07 1.569007e-02 2.142625e-06) (0.000000e+00 0.000000e+00 0.000000e+00))
2.500000e+01	((-2.279037e-18 2.609940e-01 -2.994227e-36) (2.900722e-01 -4.075901e-06 1.229927e-37) (0.000000e+00 0.000000e+00 0.000000e+00)) ((-1.304970e-02 -1.139518e-19 -8.232776e-04) (2.037950e-07 1.450361e-02 -4.046681e-06) (0.000000e+00 0.000000e+00 0.000000e+00))
3.000000e+01	((-1.505878e-18 3.097793e-01 -3.881537e-36) (2.760748e-01 1.145103e-05 2.212578e-37) (0.000000e+00 0.000000e+00 0.000000e+00)) ((-1.548896e-02 -7.529388e-20 4.686371e-02) (-5.725515e-07 1.380374e-02 -1.226325e-06) (0.000000e+00 0.000000e+00 0.000000e+00))
3.500000e+01	((-1.081633e-18 1.841345e-01 -2.710736e-36) (2.668822e-01 3.989763e-06 1.564182e-37) (0.000000e+00 0.000000e+00 0.000000e+00)) ((-9.206726e-03 -5.408167e-20 -6.369359e-03) (-1.994881e-07 1.334411e-02 -1.301756e-06) (0.000000e+00 0.000000e+00 0.000000e+00))
4.000000e+01	((-1.824250e-18 2.356706e-01 -2.173627e-36) (2.610237e-01 6.301117e-06 8.139254e-38) (0.000000e+00 0.000000e+00 0.000000e+00)) ((-1.178353e-02 -9.121249e-20 1.812754e-02) (-3.150558e-07 1.305119e-02 -3.549173e-06) (0.000000e+00 0.000000e+00 0.000000e+00))
4.500000e+01	((-7.605428e-19 1.906689e-01 -1.847418e-36) (2.570454e-01 1.034936e-05 7.096799e-38) (0.000000e+00 0.000000e+00 0.000000e+00)) ((-9.533446e-03 -3.802714e-20 5.480436e-03) (-5.174680e-07 1.285227e-02 -1.630394e-06) (0.000000e+00 0.000000e+00 0.000000e+00))
5.000000e+01	((-1.435595e-18 2.204053e-01 -2.270649e-36) (2.538136e-01 1.341571e-05 9.498292e-38) (0.000000e+00 0.000000e+00 0.000000e+00)) ((-1.102027e-02 -7.177975e-20 1.235401e-02) (-6.707856e-07 1.269068e-02 -3.438580e-06) (0.000000e+00 0.000000e+00 0.000000e+00))
5.500000e+01	((-1.132667e-18 2.107199e-01 -1.858886e-36) (2.514026e-01 1.101516e-05 7.717554e-38) (0.000000e+00 0.000000e+00 0.000000e+00)) ((-1.053599e-02 -5.663335e-20 5.769785e-03) (-5.507578e-07 1.257013e-02 -3.323255e-06) (0.000000e+00 0.000000e+00 0.000000e+00))
6.000000e+01	((-1.300559e-18 2.241225e-01 -1.885032e-36) (2.498929e-01 1.389833e-05 7.582028e-38) (0.000000e+00 0.000000e+00 0.000000e+00)) ((-1.120612e-02 -6.502793e-20 7.793991e-03) (-6.949164e-07 1.249464e-02 -3.395902e-06) (0.000000e+00 0.000000e+00 0.000000e+00))
6.500000e+01	((-1.299062e-18 2.232587e-01 -1.712448e-36) (2.488450e-01 1.307911e-05 7.033076e-38) (0.000000e+00 0.000000e+00 0.000000e+00)) ((-1.116294e-02 -6.495312e-20 2.615231e-03) (-6.539555e-07 1.244225e-02 -4.321975e-06) (0.000000e+00 0.000000e+00 0.000000e+00))
7.000000e+01	((-1.258770e-18 2.262515e-01 -1.560200e-36) (2.481071e-01 1.615631e-05 6.469823e-38) (0.000000e+00 0.000000e+00 0.000000e+00)) ((-1.131257e-02 -6.293850e-20 2.143696e-03) (-8.078156e-07 1.240536e-02 -4.262308e-06) (0.000000e+00 0.000000e+00 0.000000e+00))
7.500000e+01	((-1.362139e-18 2.311908e-01 -1.466850e-36) (2.476005e-01 1.589996e-05 6.146510e-38) (0.000000e+00 0.000000e+00 0.000000e+00)) ((-1.155954e-02 -6.810694e-20 -4.179029e-04) (-7.949981e-07 1.238002e-02 -4.978230e-06) (0.000000e+00 0.000000e+00 0.000000e+00))
8.000000e+01	((-1.271211e-18 2.286479e-01 -1.399059e-36) (2.472180e-01 1.771907e-05 5.901204e-38) (0.000000e+00 0.000000e+00 0.000000e+00)) ((-1.143239e-02 -6.356054e-20 -2.400348e-03) (-8.859535e-07 1.236090e-02 -4.957335e-06) (0.000000e+00 0.000000e+00 0.000000e+00))
8.500000e+01	((-1.387474e-18 2.378945e-01 -1.369397e-36) (2.469311e-01 1.844803e-05 5.807197e-38) (0.000000e+00 0.000000e+00 0.000000e+00)) ((-1.189473e-02 -6.937372e-20 -2.089062e-03) (-9.224016e-07 1.234656e-02 -5.431271e-06) (0.000000e+00 0.000000e+00 0.000000e+00))
9.000000e+01	((-1.347067e-18 2.342650e-01 -1.345003e-36) (2.467120e-01 1.934571e-05 5.717728e-38) (0.000000e+00 0.000000e+00 0.000000e+00)) ((-1.171325e-02 -6.735334e-20 -4.787463e-03) (-9.672857e-07 1.233560e-02 -5.626402e-06) (0.000000e+00 0.000000e+00 0.000000e+00))
9.500000e+01	((-1.338109e-18 2.371572e-01 -1.324567e-36) (2.465520e-01 2.017125e-05 5.638719e-38) (0.000000e+00 0.000000e+00 0.000000e+00)) ((-1.185786e-02 -6.690544e-20 -3.881678e-03) (-1.008562e-06 1.232760e-02 -5.584522e-06) (0.000000e+00 0.000000e+00 0.000000e+00))
1.000000e+02	((-1.409669e-18 2.404409e-01 -1.349646e-36) (2.464365e-01 1.987194e-05 5.744717e-38) (0.000000e+00 0.000000e+00 0.000000e+00)) ((-1.202204e-02 -7.048345e-20 -3.755622e-03) (-9.935971e-07 1.232182e-02 -5.779361e-06) (0.000000e+00 0.000000e+00 0.000000e+00))
1.050000e+02	((-1.342870e-18 2.363746e-01 -1.327046e-36) (2.463570e-01 2.007825e-05 5.653684e-38) (0.000000e+00 0.000000e+00 0.000000e+00)) ((-1.181873e-02 -6.714348e-20 -4.316784e-03) (-1.003913e-06 1.231785e-02 -5.662074e-06) (0.000000e+00 0.000000e+00 0.000000e+00))
1.100000e+02	((-1.383302e-18 2.396654e-01 -1.334893e-36) (2.463050e-01 1.984520e-05 5.684987e-38) (0.000000e+00 0.000000e+00 0.000000e+00)) ((-1.198327e-02 -6.916508e-20 -3.054625e-03) (-9.922600e-07 1.231525e-02 -5.660569e-06) (0.000000e+00 0.000000e+00 0.000000e+00))
1.150000e+02	((-1.374277e-18 2.375185e-01 -1.339393e-36) (2.462762e-01 1.974044e-05 5.705928e-38) (0.000000e+00 0.000000e+00 0.000000e+00)) ((-1.187592e-02 -6.871385e-20 -2.275238e-03) (-9.870219e-07 1.231381e-02 -5.509076e-06) (0.000000e+00 0.000000e+00 0.000000e+00))
1.200000e+02	((-1.377438e-18 2.380848e-01 -1.352784e-36) (2.462663e-01 1.932981e-05 5.757414e-38) (0.000000e+00 0.000000e+00 0.000000e+00)) ((-1.190424e-02 -6.887189e-20 -1.637148e-03) (-9.664907e-07 1.231332e-02 -5.442880e-06) (0.000000e+00 0.000000e+00 0.000000e+00))
1.250000e+02	((-1.380977e-18 2.368650e-01 -1.354938e-36) (2.462669e-01 1.911087e-05 5.767319e-38) (0.000000e+00 0.000000e+00 0.000000e+00)) ((-1.184325e-02 -6.904887e-20 -7.196607e-04) (-9.555434e-07 1.231335e-02 -5.323751e-06) (0.000000e+00 0.000000e+00 0.000000e+00))
1.300000e+02	((-1.378329e-18 2.367470e-01 -1.353521e-36) (2.462774e-01 1.881761e-05 5.761057e-38) (0.000000e+00 0.000000e+00 0.000000e+00)) ((-1.183735e-02 -6.891645e-20 -1.678273e-04) (-9.408806e-07 1.231387e-02 -5.260043e-06) (0.000000e+00 0.000000e+00 0.000000e+00))
1.350000e+02	((-1.385497e-18 2.365177e-01 -1.354899e-36) (2.462913e-01 1.872721e-05 5.767001e-38) (0.000000e+00 0.000000e+00 0.000000e+00)) ((-1.182588e-02 -6.927486e-20 4.982560e-04) (-9.363604e-07 1.231456e-02 -5.180782e-06) (0.000000e+00 0.000000e+00 0.000000e+00))
1.400000e+02	((-1.383007e-18 2.361855e-01 -1.353812e-36) (2.463076e-01 1.856899e-05 5.762454e-38) (0.000000e+00 0.000000e+00 0.000000e+00)) ((-1.180928e-02 -6.915037e-20 7.896162e-04) (-9.284497e-07 1.231538e-02 -5.165370e-06) (0.000000e+00 0.000000e+00 0.000000e+00))
1.450000e+02	((-1.387400e-18 2.365229e-01 -1.354117e-36) (2.463231e-01 1.859835e-05 5.763701e-38) (0.000000e+00 0.000000e+00 0.000000e+00)) ((-1.182615e-02 -6.937001e-20 1.138603e-03) (-9.299173e-07 1.231616e-02 -5.144043e-06) (0.000000e+00 0.000000e+00 0.000000e+00))
1.500000e+02	((-1.387229e-18 2.365699e-01 -1.354003e-36) (2.463369e-01 1.865010e-05 5.763240e-38) (0.000000e+00 0.000000e+00 0.000000e+00)) ((-1.182850e-02 -6.936143e-20 1.244905e-03) (-9.325048e-07 1.231685e-02 -5.169177e-06) (0.000000e+00 0.000000e+00 0.000000e+00))
1.550000e+02	((-1.388501e-18 2.368529e-01 -1.351665e-36) (2.463482e-01 1.877278e-05 5.753823e-38) (0.000000e+00 0.000000e+00 0.000000e+00)) ((-1.184265e-02 -6.942503e-20 1.316306e-03) (-9.386388e-07 1.231741e-02 -5.189644e-06) (0.000000e+00 0.000000e+00 0.000000e+00))
1.600000e+02	((-1.387970e-18 2.371100e-01 -1.349393e-36) (2.463567e-01 1.887937e-05 5.744823e-38) (0.000000e+00 0.000000e+00 0.000000e+00)) ((-1.185550e-02 -6.939851e-20 1.240203e-03) (-9.439687e-07 1.231783e-02 -5.232565e-06) (0.000000e+00 0.000000e+00 0.000000e+00))
1.650000e+02	((-1.388117e-18 2.373337e-01 -1.348876e-36) (2.463623e-01 1.903645e-05 5.742672e-38) (0.000000e+00 0.000000e+00 0.000000e+00)) ((-1.186668e-02 -6.940587e-20 1.124708e-03) (-9.518225e-07 1.231812e-02 -5.267487e-06) (0.000000e+00 0.000000e+00 0.000000e+00))
1.700000e+02	((-1.388142e-18 2.376177e-01 -1.349539e-36) (2.463653e-01 1.919342e-05 5.745451e-38) (0.000000e+00 0.000000e+00 0.000000e+00)) ((-1.188089e-02 -6.940711e-20 9.437867e-04) (-9.596709e-07 1.231826e-02 -5.319293e-06) (0.000000e+00 0.000000e+00 0.000000e+00))
1.750000e+02	((-1.387606e-18 2.377554e-01 -1.348607e-36) (2.463659e-01 1.937075e-05 5.741636e-38) (0.000000e+00 0.000000e+00 0.000000e+00)) ((-1.188777e-02 -6.938028e-20 7.724863e-04) (-9.685376e-07 1.231829e-02 -5.362513e-06) (0.000000e+00 0.000000e+00 0.000000e+00))
1.800000e+02	((-1.387818e-18 2.380283e-01 -1.346207e-36) (2.463643e-01 1.955453e-05 5.732247e-38) (0.000000e+00 0.000000e+00 0.000000e+00)) ((-1.190142e-02 -6.939090e-20 5.752843e-04) (-9.777267e-07 1.231822e-02 -5.413966e-06) (0.000000e+00 0.000000e+00 0.000000e+00))
1.850000e+02	((-1.386976e-18 2.380827e-01 -1.345276e-36) (2.463615e-01 1.969619e-05 5.728470e-38) (0.000000e+00 0.000000e+00 0.000000e+00)) ((-1.190413e-02 -6.934878e-20 3.585485e-04) (-9.848095e-07 1.231808e-02 -5.452148e-06) (0.000000e+00 0.000000e+00 0.000000e+00))
1.900000e+02	((-1.387334e-18 2.383137e-01 -1.346158e-36) (2.463573e-01 1.983230e-05 5.732093e-38) (0.000000e+00 0.000000e+00 0.000000e+00)) ((-1.191569e-02 -6.936671e-20 1.970149e-04) (-9.916149e-07 1.231787e-02 -5.488503e-06) (0.000000e+00 0.000000e+00 0.000000e+00))
1.950000e+02	((-1.386670e-18 2.383370e-01 -1.346191e-36) (2.463526e-01 1.991887e-05 5.732320e-38) (0.000000e+00 0.000000e+00 0.000000e+00)) ((-1.191685e-02 -6.933348e-20 4.500907e-05) (-9.959434e-07 1.231763e-02 -5.512274e-06) (0.000000e+00 0.000000e+00 0.000000e+00))
2.000000e+02	((-1.386700e-18 2.384156e-01 -1.345712e-36) (2.463475e-01 1.998278e-05 5.730335e-38) (0.000000e+00 0.000000e+00 0.000000e+00)) ((-1.192078e-02 -6.933498e-20 -6.383214e-05) (-9.991392e-07 1.231737e-02 -5.528988e-06) (0.000000e+00 0.000000e+00 0.000000e+00))
2.050000e+02	((-1.387180e-18 2.385330e-01 -1.345202e-36) (2.463421e-01 2.003690e-05 5.728458e-38) (0.000000e+00 0.000000e+00 0.000000e+00)) ((-1.192665e-02 -6.935902e-20 -1.448599e-04) (-1.001845e-06 1.231710e-02 -5.541876e-06) (0.000000e+00 0.000000e+00 0.000000e+00))
2.100000e+02	((-1.386879e-18 2.385254e-01 -1.344940e-36) (2.463369e-01 2.006151e-05 5.727419e-38) (0.000000e+00 0.000000e+00 0.000000e+00)) ((-1.192627e-02 -6.934393e-20 -1.962201e-04) (-1.003076e-06 1.231684e-02 -5.549238e-06) (0.000000e+00 0.000000e+00 0.000000e+00))
2.150000e+02	((-1.387374e-18 2.385617e-01 -1.344701e-36) (2.463318e-01 2.007971e-05 5.726426e-38) (0.000000e+00 0.000000e+00 0.000000e+00)) ((-1.192809e-02 -6.936868e-20 -2.213860e-04) (-1.003986e-06 1.231659e-02 -5.549698e-06) (0.000000e+00 0.000000e+00 0.000000e+00))
2.200000e+02	((-1.387751e-18 2.386282e-01 -1.345334e-36) (2.463288e-01 2.007258e-05 5.729062e-38) (0.000000e+00 0.000000e+00 0.000000e+00)) ((-1.193141e-02 -6.938754e-20 -2.105776e-04) (-1.003629e-06 1.231644e-02 -5.548407e-06) (0.000000e+00 0.000000e+00 0.000000e+00))
2.250000e+02	((-1.388023e-18 2.386087e-01 -1.344953e-36) (2.463303e-01 2.005962e-05 5.727527e-38) (0.000000e+00 0.000000e+00 0.000000e+00)) ((-1.193043e-02 -6.940114e-20 -1.984748e-04) (-1.002981e-06 1.231652e-02 -5.543863e-06) (0.000000e+00 0.000000e+00 0.000000e+00))
2.300000e+02	((-1.388614e-18 2.386543e-01 -1.344847e-36) (2.463270e-01 2.004297e-05 5.727065e-38) (0.000000e+00 0.000000e+00 0.000000e+00)) ((-1.193272e-02 -6.943072e-20 -1.575369e-04) (-1.002148e-06 1.231635e-02 -5.536793e-06) (0.000000e+00 0.000000e+00 0.000000e+00))
2.350000e+02	((-1.388868e-18 2.386570e-01 -1.345370e-36) (2.463234e-01 2.001588e-05 5.729222e-38) (0.000000e+00 0.000000e+00 0.000000e+00)) ((-1.193285e-02 -6.944338e-20 -1.199512e-04) (-1.000794e-06 1.231617e-02 -5.530195e-06) (0.000000e+00 0.000000e+00 0.000000e+00))
2.400000e+02	((-1.389374e-18 2.386707e-01 -1.344948e-36) (2.463203e-01 1.999254e-05 5.727503e-38) (0.000000e+00 0.000000e+00 0.000000e+00)) ((-1.193354e-02 -6.946870e-20 -6.969658e-05) (-9.996271e-07 1.231602e-02 -5.522913e-06) (0.000000e+00 0.000000e+00 0.000000e+00))
2.450000e+02	((-1.389709e-18 2.386910e-01 -1.345024e-36) (2.463177e-01 1.996807e-05 5.727803e-38) (0.000000e+00 0.000000e+00 0.000000e+00)) ((-1.193455e-02 -6.948547e-20 -2.690468e-05) (-9.984033e-07 1.231589e-02 -5.516253e-06) (0.000000e+00 0.000000e+00 0.000000e+00))
2.500000e+02	((-1.390023e-18 2.386979e-01 -1.345173e-36) (2.463156e-01 1.994742e-05 5.728444e-38) (0.000000e+00 0.000000e+00 0.000000e+00)) ((-1.193489e-02 -6.950113e-20 1.808963e-05) (-9.973711e-07 1.231578e-02 -5.510430e-06) (0.000000e+00 0.000000e+00 0.000000e+00))
2.550000e+02	((-1.390364e-18 2.387221e-01 -1.344888e-36) (2.463138e-01 1.992986e-05 5.727251e-38) (0.000000e+00 0.000000e+00 0.000000e+00)) ((-1.193611e-02 -6.951819e-20 5.467694e-05) (-9.964932e-07 1.231569e-02 -5.505805e-06) (0.000000e+00 0.000000e+00 0.000000e+00))
2.600000e+02	((-1.390541e-18 2.387328e-01 -1.345024e-36) (2.463123e-01 1.991613e-05 5.727832e-38) (0.000000e+00 0.000000e+00 0.000000e+00)) ((-1.193664e-02 -6.952703e-20 8.431375e-05) (-9.958065e-07 1.231562e-02 -5.502134e-06) (0.000000e+00 0.000000e+00 0.000000e+00))
2.650000e+02	((-1.390747e-18 2.387505e-01 -1.345006e-36) (2.463111e-01 1.989571e-05 5.727775e-38) (0.000000e+00 0.000000e+00 0.000000e+00)) ((-1.193752e-02 -6.953736e-20 1.055072e-04) (-9.947853e-07 1.231556e-02 -5.497679e-06) (0.000000e+00 0.000000e+00 0.000000e+00))
2.700000e+02	((-1.390832e-18 2.387706e-01 -1.344837e-36) (2.463101e-01 1.990169e-05 5.727063e-38) (0.000000e+00 0.000000e+00 0.000000e+00)) ((-1.193853e-02 -6.954162e-20 1.227472e-04) (-9.950845e-07 1.231551e-02 -5.497808e-06) (0.000000e+00 0.000000e+00 0.000000e+00))
2.750000e+02	((-1.390959e-18 2.387931e-01 -1.344829e-36) (2.463093e-01 1.989737e-05 5.727042e-38) (0.000000e+00 0.000000e+00 0.000000e+00)) ((-1.193966e-02 -6.954797e-20 1.317224e-04) (-9.948684e-07 1.231547e-02 -5.498899e-06) (0.000000e+00 0.000000e+00 0.000000e+00))
2.800000e+02	((-1.391149e-18 2.388113e-01 -1.344911e-36) (2.463087e-01 1.991348e-05 5.727423e-38) (0.000000e+00 0.000000e+00 0.000000e+00)) ((-1.194057e-02 -6.955746e-20 1.322991e-04) (-9.956738e-07 1.231543e-02 -5.502261e-06) (0.000000e+00 0.000000e+00 0.000000e+00))
2.850000e+02	((-1.391122e-18 2.388362e-01 -1.344901e-36) (2.463081e-01 1.991373e-05 5.727378e-38) (0.000000e+00 0.000000e+00 0.000000e+00)) ((-1.194181e-02 -6.955609e-20 1.295515e-04) (-9.956864e-07 1.231541e-02 -5.503401e-06) (0.000000e+00 0.000000e+00 0.000000e+00))
2.900000e+02	((-1.391017e-18 2.388485e-01 -1.344759e-36) (2.463077e-01 1.992894e-05 5.726736e-38) (0.000000e+00 0.000000e+00 0.000000e+00)) ((-1.194242e-02 -6.955083e-20 1.218097e-04) (-9.964471e-07 1.231538e-02 -5.506464e-06) (0.000000e+00 0.000000e+00 0.000000e+00))
2.950000e+02	((-1.391183e-18 2.388702e-01 -1.344702e-36) (2.463072e-01 1.993727e-05 5.726576e-38) (0.000000e+00 0.000000e+00 0.000000e+00)) ((-1.194351e-02 -6.955913e-20 1.146915e-04) (-9.968637e-07 1.231536e-02 -5.509525e-06) (0.000000e+00 0.000000e+00 0.000000e+00))
3.000000e+02	((-1.391335e-18 2.388883e-01 -1.344939e-36) (2.463069e-01 1.994082e-05 5.727619e-38) (0.000000e+00 0.000000e+00 0.000000e+00)) ((-1.194442e-02 -6.956675e-20 9.850153e-05) (-9.970408e-07 1.231534e-02 -5.512863e-06) (0.000000e+00 0.000000e+00 0.000000e+00))
3.050000e+02	((-1.391116e-18 2.388997e-01 -1.344238e-36) (2.463065e-01 1.995499e-05 5.724742e-38) (0.000000e+00 0.000000e+00 0.000000e+00)) ((-1.194498e-02 -6.955578e-20 8.914118e-05) (-9.977494e-07 1.231533e-02 -5.512996e-06) (0.000000e+00 0.000000e+00 0.000000e+00))
3.100000e+02	((-1.390908e-18 2.389025e-01 -1.344016e-36) (2.463062e-01 1.995954e-05 5.723795e-38) (0.000000e+00 0.000000e+00 0.000000e+00)) ((-1.194513e-02 -6.954542e-20 8.162939e-05) (-9.979769e-07 1.231531e-02 -5.516563e-06) (0.000000e+00 0.000000e+00 0.000000e+00))
3.150000e+02	((-1.391155e-18 2.389220e-01 -1.343913e-36) (2.463058e-01 1.996565e-05 5.723514e-38) (0.000000e+00 0.000000e+00 0.000000e+00)) ((-1.194610e-02 -6.955773e-20 7.107235e-05) (-9.982824e-07 1.231529e-02 -5.519917e-06) (0.000000e+00 0.000000e+00 0.000000e+00))
3.200000e+02	((-1.391516e-18 2.389307e-01 -1.344200e-36) (2.463055e-01 1.997522e-05 5.724677e-38) (0.000000e+00 0.000000e+00 0.000000e+00)) ((-1.194654e-02 -6.957580e-20 5.699337e-05) (-9.987608e-07 1.231528e-02 -5.520900e-06) (0.000000e+00 0.000000e+00 0.000000e+00))
3.250000e+02	((-1.390893e-18 2.389251e-01 -1.344458e-36) (2.463052e-01 1.997874e-05 5.725632e-38) (0.000000e+00 0.000000e+00 0.000000e+00)) ((-1.194625e-02 -6.954463e-20 4.773963e-05) (-9.989369e-07 1.231526e-02 -5.519669e-06) (0.000000e+00 0.000000e+00 0.000000e+00))
3.300000e+02	((-1.390577e-18 2.389296e-01 -1.344280e-36) (2.463050e-01 1.997794e-05 5.724796e-38) (0.000000e+00 0.000000e+00 0.000000e+00)) ((-1.194648e-02 -6.952883e-20 4.804504e-05) (-9.988969e-07 1.231525e-02 -5.518021e-06) (0.000000e+00 0.000000e+00 0.000000e+00))
3.350000e+02	((-1.391162e-18 2.389521e-01 -1.343443e-36) (2.463046e-01 1.997676e-05 5.721420e-38) (0.000000e+00 0.000000e+00 0.000000e+00)) ((-1.194760e-02 -6.955808e-20 4.746790e-05) (-9.988379e-07 1.231523e-02 -5.522740e-06) (0.000000e+00 0.000000e+00 0.000000e+00))
3.400000e+02	((-1.391675e-18 2.389569e-01 -1.343645e-36) (2.463044e-01 1.996360e-05 5.722579e-38) (0.000000e+00 0.000000e+00 0.000000e+00)) ((-1.194784e-02 -6.958373e-20 4.318230e-05) (-9.981799e-07 1.231522e-02 -5.522976e-06) (0.000000e+00 0.000000e+00 0.000000e+00))
3.450000e+02	((-1.391720e-18 2.389382e-01 -1.344691e-36) (2.463043e-01 1.996499e-05 5.726736e-38) (0.000000e+00 0.000000e+00 0.000000e+00)) ((-1.194691e-02 -6.958601e-20 3.543639e-05) (-9.982497e-07 1.231521e-02 -5.516992e-06) (0.000000e+00 0.000000e+00 0.000000e+00))
3.500000e+02	((-1.390623e-18 2.389294e-01 -1.344559e-36) (2.463040e-01 1.997317e-05 5.725909e-38) (0.000000e+00 0.000000e+00 0.000000e+00)) ((-1.194647e-02 -6.953117e-20 4.040990e-05) (-9.986585e-07 1.231520e-02 -5.511643e-06) (0.000000e+00 0.000000e+00 0.000000e+00))
3.550000e+02	((-1.390376e-18 2.389630e-01 -1.343752e-36) (2.463038e-01 1.996423e-05 5.722415e-38) (0.000000e+00 0.000000e+00 0.000000e+00)) ((-1.194815e-02 -6.951881e-20 5.343104e-05) (-9.982117e-07 1.231519e-02 -5.516791e-06) (0.000000e+00 0.000000e+00 0.000000e+00))
3.600000e+02	((-1.391354e-18 2.389734e-01 -1.343142e-36) (2.463037e-01 1.996110e-05 5.720342e-38) (0.000000e+00 0.000000e+00 0.000000e+00)) ((-1.194867e-02 -6.956768e-20 5.438891e-05) (-9.980549e-07 1.231518e-02 -5.519991e-06) (0.000000e+00 0.000000e+00 0.000000e+00))
3.650000e+02	((-1.392456e-18 2.389264e-01 -1.345126e-36) (2.463036e-01 1.995640e-05 5.728879e-38) (0.000000e+00 0.000000e+00 0.000000e+00)) ((-1.194632e-02 -6.962278e-20 3.733017e-05) (-9.978200e-07 1.231518e-02 -5.519809e-06) (0.000000e+00 0.000000e+00 0.000000e+00))
3.700000e+02	((-1.390664e-18 2.389232e-01 -1.345304e-36) (2.463034e-01 1.996550e-05 5.728994e-38) (0.000000e+00 0.000000e+00 0.000000e+00)) ((-1.194616e-02 -6.953318e-20 4.658082e-05) (-9.982750e-07 1.231517e-02 -5.511033e-06) (0.000000e+00 0.000000e+00 0.000000e+00))
3.750000e+02	((-1.389697e-18 2.389718e-01 -1.342735e-36) (2.463033e-01 1.996713e-05 5.718373e-38) (0.000000e+00 0.000000e+00 0.000000e+00)) ((-1.194859e-02 -6.948485e-20 6.861242e-05) (-9.983565e-07 1.231517e-02 -5.513489e-06) (0.000000e+00 0.000000e+00 0.000000e+00))
3.800000e+02	((-1.392640e-18 2.389662e-01 -1.344114e-36) (2.463033e-01 1.994289e-05 5.724718e-38) (0.000000e+00 0.000000e+00 0.000000e+00)) ((-1.194831e-02 -6.963202e-20 5.660557e-05) (-9.971443e-07 1.231516e-02 -5.526731e-06) (0.000000e+00 0.000000e+00 0.000000e+00))
3.850000e+02	((-1.392362e-18 2.389208e-01 -1.345496e-36) (2.463032e-01 1.996391e-05 5.730174e-38) (0.000000e+00 0.000000e+00 0.000000e+00)) ((-1.194604e-02 -6.961809e-20 4.523030e-05) (-9.981955e-07 1.231516e-02 -5.511184e-06) (0.000000e+00 0.000000e+00 0.000000e+00))
3.900000e+02	((-1.390417e-18 2.389442e-01 -1.344191e-36) (2.463032e-01 1.996705e-05 5.724234e-38) (0.000000e+00 0.000000e+00 0.000000e+00)) ((-1.194721e-02 -6.952083e-20 6.025500e-05) (-9.983523e-07 1.231516e-02 -5.510312e-06) (0.000000e+00 0.000000e+00 0.000000e+00))
3.950000e+02	((-1.390046e-18 2.389946e-01 -1.342479e-36) (2.463031e-01 1.995521e-05 5.717349e-38) (0.000000e+00 0.000000e+00 0.000000e+00)) ((-1.194973e-02 -6.950231e-20 7.821341e-05) (-9.977605e-07 1.231515e-02 -5.517958e-06) (0.000000e+00 0.000000e+00 0.000000e+00))
4.000000e+02	((-1.392375e-18 2.389615e-01 -1.343783e-36) (2.463031e-01 1.995414e-05 5.723118e-38) (0.000000e+00 0.000000e+00 0.000000e+00)) ((-1.194807e-02 -6.961876e-20 6.234281e-05) (-9.977070e-07 1.231515e-02 -5.519490e-06) (0.000000e+00 0.000000e+00 0.000000e+00))
4.050000e+02	((-1.390423e-18 2.389312e-01 -1.344421e-36) (2.463031e-01 1.996671e-05 5.725410e-38) (0.000000e+00 0.000000e+00 0.000000e+00)) ((-1.194656e-02 -6.952115e-20 5.599346e-05) (-9.983355e-07 1.231516e-02 -5.509666e-06) (0.000000e+00 0.000000e+00 0.000000e+00))
4.100000e+02	((-1.389819e-18 2.390141e-01 -1.340935e-36) (2.463031e-01 1.995549e-05 5.710948e-38) (0.000000e+00 0.000000e+00 0.000000e+00)) ((-1.195070e-02 -6.949093e-20 8.634532e-05) (-9.977743e-07 1.231515e-02 -5.519874e-06) (0.000000e+00 0.000000e+00 0.000000e+00))
4.150000e+02	((-1.392106e-18 2.389255e-01 -1.346163e-36) (2.463030e-01 1.996177e-05 5.732971e-38) (0.000000e+00 0.000000e+00 0.000000e+00)) ((-1.194627e-02 -6.960532e-20 4.911723e-05) (-9.980885e-07 1.231515e-02 -5.513638e-06) (0.000000e+00 0.000000e+00 0.000000e+00))
4.200000e+02	((-1.390469e-18 2.389741e-01 -1.342817e-36) (2.463030e-01 1.996227e-05 5.718502e-38) (0.000000e+00 0.000000e+00 0.000000e+00)) ((-1.194870e-02 -6.952345e-20 6.741769e-05) (-9.981135e-07 1.231515e-02 -5.515211e-06) (0.000000e+00 0.000000e+00 0.000000e+00))
4.250000e+02	((-1.390905e-18 2.389903e-01 -1.342883e-36) (2.463030e-01 1.995826e-05 5.719225e-38) (0.000000e+00 0.000000e+00 0.000000e+00)) ((-1.194951e-02 -6.954523e-20 7.236947e-05) (-9.979131e-07 1.231515e-02 -5.518873e-06) (0.000000e+00 0.000000e+00 0.000000e+00))
4.300000e+02	((-1.392638e-18 2.389315e-01 -1.347120e-36) (2.463030e-01 1.995780e-05 5.736901e-38) (0.000000e+00 0.000000e+00 0.000000e+00)) ((-1.194658e-02 -6.963191e-20 4.620601e-05) (-9.978901e-07 1.231515e-02 -5.518297e-06) (0.000000e+00 0.000000e+00 0.000000e+00))
4.350000e+02	((-1.389497e-18 2.389895e-01 -1.340570e-36) (2.463030e-01 1.997603e-05 5.708801e-38) (0.000000e+00 0.000000e+00 0.000000e+00)) ((-1.194948e-02 -6.947486e-20 7.366693e-05) (-9.988016e-07 1.231515e-02 -5.507623e-06) (0.000000e+00 0.000000e+00 0.000000e+00))
4.400000e+02	((-1.392651e-18 2.389699e-01 -1.345989e-36) (2.463029e-01 1.995199e-05 5.732339e-38) (0.000000e+00 0.000000e+00 0.000000e+00)) ((-1.194850e-02 -6.963254e-20 5.729208e-05) (-9.975997e-07 1.231515e-02 -5.524557e-06) (0.000000e+00 0.000000e+00 0.000000e+00))
4.450000e+02	((-1.391392e-18 2.389416e-01 -1.344190e-36) (2.463030e-01 1.996845e-05 5.724541e-38) (0.000000e+00 0.000000e+00 0.000000e+00)) ((-1.194708e-02 -6.956962e-20 5.095658e-05) (-9.984225e-07 1.231515e-02 -5.511911e-06) (0.000000e+00 0.000000e+00 0.000000e+00))
4.500000e+02	((-1.390669e-18 2.389823e-01 -1.342729e-36) (2.463029e-01 1.995957e-05 5.718241e-38) (0.000000e+00 0.000000e+00 0.000000e+00)) ((-1.194912e-02 -6.953343e-20 6.418199e-05) (-9.979785e-07 1.231515e-02 -5.519464e-06) (0.000000e+00 0.000000e+00 0.000000e+00))
4.550000e+02	((-1.392603e-18 2.389635e-01 -1.346320e-36) (2.463029e-01 1.995955e-05 5.733676e-38) (0.000000e+00 0.000000e+00 0.000000e+00)) ((-1.194818e-02 -6.963014e-20 5.534368e-05) (-9.979777e-07 1.231514e-02 -5.518811e-06) (0.000000e+00 0.000000e+00 0.000000e+00))
4.600000e+02	((-1.389485e-18 2.389629e-01 -1.341078e-36) (2.463030e-01 1.996828e-05 5.711280e-38) (0.000000e+00 0.000000e+00 0.000000e+00)) ((-1.194815e-02 -6.947425e-20 5.886843e-05) (-9.984141e-07 1.231515e-02 -5.512082e-06) (0.000000e+00 0.000000e+00 0.000000e+00))
4.650000e+02	((-1.392541e-18 2.389769e-01 -1.347111e-36) (2.463028e-01 1.995845e-05 5.737020e-38) (0.000000e+00 0.000000e+00 0.000000e+00)) ((-1.194885e-02 -6.962707e-20 5.932591e-05) (-9.979226e-07 1.231514e-02 -5.520460e-06) (0.000000e+00 0.000000e+00 0.000000e+00))
4.700000e+02	((-1.391659e-18 2.389512e-01 -1.343934e-36) (2.463030e-01 1.996731e-05 5.723438e-38) (0.000000e+00 0.000000e+00 0.000000e+00)) ((-1.194756e-02 -6.958296e-20 4.808674e-05) (-9.983656e-07 1.231515e-02 -5.513088e-06) (0.000000e+00 0.000000e+00 0.000000e+00))
4.750000e+02	((-1.391739e-18 2.389590e-01 -1.344581e-36) (2.463028e-01 1.995827e-05 5.726370e-38) (0.000000e+00 0.000000e+00 0.000000e+00)) ((-1.194795e-02 -6.958697e-20 5.459674e-05) (-9.979133e-07 1.231514e-02 -5.520834e-06) (0.000000e+00 0.000000e+00 0.000000e+00))
4.800000e+02	((-1.391844e-18 2.389706e-01 -1.344443e-36) (2.463029e-01 1.995857e-05 5.725600e-38) (0.000000e+00 0.000000e+00 0.000000e+00)) ((-1.194853e-02 -6.959218e-20 5.459467e-05) (-9.979283e-07 1.231515e-02 -5.518460e-06) (0.000000e+00 0.000000e+00 0.000000e+00))
4.850000e+02	((-1.390292e-18 2.389441e-01 -1.341373e-36) (2.463029e-01 1.996579e-05 5.712462e-38) (0.000000e+00 0.000000e+00 0.000000e+00)) ((-1.194720e-02 -6.951460e-20 5.416049e-05) (-9.982896e-07 1.231514e-02 -5.516081e-06) (0.000000e+00 0.000000e+00 0.000000e+00))
4.900000e+02	((-1.392993e-18 2.389882e-01 -1.347299e-36) (2.463028e-01 1.995414e-05 5.737722e-38) (0.000000e+00 0.000000e+00 0.000000e+00)) ((-1.194941e-02 -6.964967e-20 5.773828e-05) (-9.977071e-07 1.231514e-02 -5.521961e-06) (0.000000e+00 0.000000e+00 0.000000e+00))
4.950000e+02	((-1.390024e-18 2.389442e-01 -1.340936e-36) (2.463029e-01 1.996706e-05 5.710879e-38) (0.000000e+00 0.000000e+00 0.000000e+00)) ((-1.194721e-02 -6.950122e-20 5.361588e-05) (-9.983529e-07 1.231515e-02 -5.514138e-06) (0.000000e+00 0.000000e+00 0.000000e+00))
5.000000e+02	((-1.393626e-18 2.389740e-01 -1.347266e-36) (2.463028e-01 1.995405e-05 5.737810e-38) (0.000000e+00 0.000000e+00 0.000000e+00)) ((-1.194870e-02 -6.968132e-20 5.418783e-05) (-9.977026e-07 1.231514e-02 -5.523617e-06) (0.000000e+00 0.000000e+00 0.000000e+00))
