/*--------------------------------*- C++ -*----------------------------------*\
| =========                 |                                                 |
| \\      /  F ield         | OpenFOAM: The Open Source CFD Toolbox           |
|  \\    /   O peration     | Version:  2.3.0                                 |
|   \\  /    A nd           | Web:      www.OpenFOAM.org                      |
|    \\/     M anipulation  |                                                 |
\*---------------------------------------------------------------------------*/
FoamFile
{
    version     2.0;
    format      ascii;
    class       volScalarField;
    location    "6000";
    object      nuTilda;
}
// * * * * * * * * * * * * * * * * * * * * * * * * * * * * * * * * * * * * * //

dimensions      [0 2 -1 0 0 0 0];

internalField   nonuniform List<scalar> 
14769
(
0.0521053
0.0489721
0.0459354
0.0430201
0.0402454
0.0376328
0.0352025
0.0329783
0.0309868
0.0292273
0.0275643
0.0259324
0.0243547
0.0228441
0.0214015
0.0200216
0.0186961
0.0174191
0.0161826
0.0149811
0.0138042
0.0126436
0.0115145
0.0106481
0.0559719
0.0533634
0.0508456
0.0484251
0.0461066
0.0438932
0.0417885
0.0397962
0.0379201
0.036163
0.0345235
0.032999
0.0315933
0.0303124
0.0291637
0.0281529
0.0272869
0.0265709
0.0260113
0.025612
0.0253772
0.0253065
0.0254005
0.0256554
0.0594377
0.0572604
0.0551653
0.0531559
0.0512343
0.0494029
0.0476625
0.0460158
0.0444653
0.0430127
0.0416606
0.0404126
0.0392721
0.0382435
0.0373315
0.0365408
0.0358763
0.0353426
0.0349428
0.0346795
0.0345524
0.034561
0.0346993
0.03496
0.0625292
0.0607041
0.0589502
0.0572693
0.0556629
0.0541315
0.0526767
0.0512997
0.0500024
0.0487868
0.0476556
0.0466121
0.0456597
0.0448018
0.0440435
0.0433885
0.0428412
0.0424058
0.0420848
0.0418809
0.0417938
0.0418232
0.0419664
0.0422178
0.0652803
0.0637384
0.0622589
0.0608394
0.0594803
0.0581827
0.0569476
0.0557765
0.0546704
0.0536319
0.0526629
0.0517674
0.0509478
0.0502089
0.0495544
0.0489895
0.0485178
0.0481436
0.0478703
0.0477006
0.0476358
0.0476754
0.0478183
0.0480611
0.0677104
0.0664061
0.0651486
0.0639375
0.0627737
0.0616585
0.0605932
0.0595803
0.0586206
0.0577162
0.0568697
0.0560831
0.0553612
0.054708
0.0541278
0.0536253
0.0532054
0.0528725
0.05263
0.0524816
0.0524294
0.0524739
0.0526146
0.0528497
0.069864
0.0687519
0.0676736
0.0666298
0.0656214
0.0646498
0.0637173
0.0628263
0.0619798
0.0611788
0.0604261
0.0597237
0.0590759
0.0584867
0.0579613
0.0575047
0.0571219
0.0568175
0.0565964
0.0564621
0.0564177
0.0564646
0.0566026
0.0568309
0.0717724
0.0708165
0.0698827
0.0689743
0.0680912
0.0672346
0.0664061
0.0656099
0.064851
0.0641319
0.0634532
0.0628171
0.0622275
0.0616883
0.0612044
0.0607831
0.0604284
0.060145
0.0599378
0.0598133
0.059774
0.0598218
0.059957
0.0601792
0.0734615
0.0726377
0.0718184
0.0710204
0.0702402
0.0694771
0.068733
0.0680091
0.0673184
0.0666628
0.0660441
0.0654627
0.0649202
0.0644232
0.0639696
0.0635758
0.063245
0.0629792
0.062779
0.0626607
0.0626247
0.0626727
0.0628055
0.0630222
0.0749632
0.074259
0.0735167
0.0728078
0.0721146
0.0714281
0.0707605
0.0700861
0.0694445
0.0688354
0.0682627
0.0677315
0.0672272
0.0667809
0.0663434
0.0659701
0.0656579
0.0654147
0.0652136
0.0650996
0.0650647
0.0651126
0.065244
0.0654557
0.011677
0.0139144
0.0154111
0.0168706
0.0184564
0.020203
0.0221116
0.0241703
0.0263657
0.0286848
0.0311166
0.0336527
0.0362857
0.0390093
0.0418177
0.0447053
0.0476656
0.0506923
0.0537779
0.0569153
0.0600962
0.0633118
0.0665526
0.0698082
0.0260556
0.0266134
0.0273543
0.0282796
0.0293875
0.0306716
0.0321217
0.0337253
0.03547
0.0373427
0.039331
0.0414251
0.0436145
0.0458902
0.0482448
0.0506717
0.0531645
0.0557171
0.0583237
0.0609784
0.0636756
0.0664092
0.069173
0.0719685
0.0353321
0.0358273
0.0364648
0.0372475
0.0381739
0.0392404
0.040441
0.0417682
0.0432134
0.0447681
0.0464229
0.0481697
0.0500004
0.0519081
0.0538858
0.0559281
0.0580295
0.0601849
0.0623896
0.0646391
0.0669288
0.0692544
0.0716123
0.0740074
0.0425708
0.0430322
0.043614
0.0443168
0.0451388
0.0460771
0.0471263
0.0482806
0.0495324
0.0508751
0.0523011
0.0538034
0.0553751
0.0570106
0.0587045
0.0604518
0.0622482
0.0640896
0.0659725
0.0678933
0.0698488
0.0718362
0.0738532
0.0759061
0.0483996
0.0488375
0.049382
0.0500321
0.0507849
0.0516374
0.0525846
0.05362
0.0547372
0.0559299
0.0571912
0.0585148
0.0598947
0.061326
0.0628041
0.0643245
0.0658837
0.0674782
0.069105
0.0707618
0.0724459
0.0741556
0.0758896
0.0776564
0.0531757
0.0535952
0.0541113
0.0547224
0.0554252
0.0562158
0.057089
0.0580386
0.0590574
0.0601396
0.0612784
0.062468
0.0637029
0.0649786
0.0662911
0.067636
0.0690099
0.07041
0.0718334
0.0732783
0.0747429
0.0762258
0.0777262
0.0792532
0.0571467
0.057551
0.0580447
0.058625
0.0592894
0.0600328
0.0608499
0.0617346
0.0626792
0.0636768
0.0647213
0.065807
0.0669293
0.0680841
0.0692673
0.0704748
0.0717025
0.072948
0.0742087
0.0754827
0.0767688
0.0780664
0.0793748
0.0806996
0.0604864
0.0608783
0.061353
0.0619088
0.0625414
0.0632474
0.0640213
0.064856
0.065743
0.0666741
0.0676431
0.0686457
0.0696786
0.0707381
0.0718193
0.0729172
0.0740284
0.0751495
0.0762786
0.0774137
0.0785538
0.0796992
0.0808489
0.082005
0.0633217
0.0637052
0.0641615
0.0646963
0.065302
0.0659776
0.0667179
0.0675149
0.0683574
0.0692331
0.0701388
0.0710728
0.0720338
0.0730175
0.0740181
0.0750272
0.076044
0.077064
0.0780855
0.0791062
0.080125
0.0811455
0.0821641
0.0831762
0.0657418
0.066124
0.0665558
0.0670748
0.0676567
0.0683104
0.0690256
0.0697921
0.0705952
0.0714146
0.0722655
0.0731412
0.0740464
0.0749716
0.0759083
0.0768427
0.0777844
0.0787211
0.079655
0.0805795
0.0814906
0.0824118
0.0833493
0.0842353
0.0747387
0.069226
0.0640603
0.0591753
0.0545313
0.050103
0.0458753
0.0418412
0.0379977
0.034345
0.0308843
0.0276194
0.0245549
0.0216953
0.0190428
0.0165959
0.0143506
0.0123024
0.0104661
0.00889906
0.00767006
0.00645816
0.00514543
0.00361637
0.0773466
0.0726128
0.0681624
0.0639354
0.0598944
0.0560132
0.0522774
0.048679
0.0452159
0.0418889
0.0387001
0.035652
0.0327515
0.0300145
0.0274717
0.0251623
0.02307
0.0210894
0.0191257
0.0171238
0.0150587
0.0128841
0.0105396
0.00794569
0.0801461
0.0761362
0.0723649
0.0687776
0.0653387
0.0620223
0.0588112
0.0556978
0.0526827
0.0497709
0.0469675
0.0442712
0.0416713
0.0391509
0.0366881
0.0342639
0.0318525
0.0294238
0.0269387
0.0243548
0.0216291
0.0187202
0.0155851
0.0121782
0.083055
0.0797107
0.0765689
0.0735807
0.0707136
0.0679347
0.0652147
0.0625351
0.0598872
0.0572667
0.0546702
0.0520928
0.0495263
0.046958
0.0443722
0.0417486
0.0390658
0.0362979
0.0334143
0.03038
0.0271563
0.023703
0.0199802
0.0159521
0.0860194
0.0832628
0.0806777
0.0782013
0.0757779
0.0733719
0.0709636
0.0685413
0.0660983
0.0636307
0.0611333
0.0586003
0.0560235
0.0533918
0.0506912
0.0479047
0.0450111
0.041985
0.0387987
0.0354181
0.0318062
0.027924
0.0237338
0.0191986
0.0889553
0.0866991
0.0845371
0.0824041
0.0802647
0.0780981
0.0758916
0.0736361
0.0713271
0.0689578
0.0665228
0.0640158
0.0614271
0.0587452
0.0559563
0.0530427
0.0499839
0.0467563
0.0433296
0.0396708
0.0357436
0.0315094
0.0269282
0.0219627
0.09177
0.0898761
0.087993
0.0860887
0.0841439
0.0821455
0.0800834
0.0779498
0.075738
0.073442
0.0710551
0.0685689
0.0659722
0.0632533
0.0603963
0.0573836
0.0541944
0.0508028
0.0471797
0.0432911
0.0391009
0.0345682
0.0296525
0.0243144
0.0943702
0.0927075
0.0910184
0.0892808
0.0874813
0.0856106
0.0836597
0.0816201
0.0794857
0.077249
0.0749021
0.0724344
0.0698346
0.0670876
0.0641779
0.0610863
0.0577911
0.0542657
0.0504783
0.0463956
0.041982
0.0371928
0.031985
0.0263193
0.0966882
0.0951929
0.093649
0.0920404
0.090358
0.0885895
0.0867276
0.0847629
0.082692
0.0805062
0.0781942
0.0757454
0.073146
0.0703765
0.0674241
0.0642672
0.0608853
0.0572494
0.0533252
0.0490731
0.0444695
0.0394596
0.033995
0.0280357
0.0987311
0.0973623
0.095934
0.0944257
0.092848
0.0911646
0.0893788
0.0874701
0.0854497
0.0833086
0.0810313
0.0786005
0.0760087
0.0732169
0.070228
0.0670124
0.0635567
0.059832
0.0558057
0.0513901
0.0466283
0.0414364
0.0357444
0.0295146
0.00185514
0.000912307
0.00111732
0.00141481
0.00169855
0.0019843
0.00229015
0.00264288
0.00308042
0.00364568
0.0043239
0.00510409
0.00598621
0.00697493
0.00807764
0.00930186
0.010655
0.0121453
0.0137815
0.0155731
0.0175297
0.0196604
0.021975
0.0244878
0.00501657
0.00233096
0.00148751
0.00171298
0.00202112
0.00235457
0.00273627
0.0031916
0.00374191
0.00440673
0.00516345
0.00600634
0.00693764
0.00796177
0.00908423
0.0103106
0.0116467
0.0130995
0.0146763
0.0163847
0.0182329
0.0202293
0.0223822
0.0246923
0.00842633
0.0045134
0.00214858
0.00201411
0.00235896
0.00276684
0.00324407
0.00380361
0.00445228
0.00520007
0.00602382
0.00692136
0.00789521
0.00894861
0.0100856
0.0113097
0.0126259
0.0140394
0.0155561
0.0171825
0.018925
0.0207907
0.0227869
0.0249224
0.0115468
0.00681382
0.00312062
0.00234364
0.00271074
0.00320478
0.00377747
0.00442974
0.00516239
0.00597926
0.00686032
0.00780474
0.00881457
0.00989177
0.0110384
0.0122571
0.0135518
0.0149267
0.016386
0.0179349
0.0195787
0.0213227
0.0231709
0.0251203
0.0142507
0.00890208
0.00423749
0.00272092
0.00307259
0.00365176
0.00431062
0.00504152
0.00584914
0.00672501
0.00765596
0.00864102
0.00968127
0.0107773
0.0119302
0.013142
0.0144151
0.0157528
0.0171585
0.0186357
0.0201882
0.0218198
0.0235335
0.0253353
0.0165516
0.0107015
0.00533929
0.00313941
0.00343758
0.00409416
0.0048286
0.00562889
0.00650147
0.00742913
0.00840382
0.00942453
0.0104905
0.0116017
0.0127585
0.0139623
0.0152146
0.0165175
0.0178732
0.0192843
0.0207532
0.0222829
0.0238771
0.0255429
0.0184995
0.0122233
0.00633974
0.003577
0.00379795
0.00452237
0.00532376
0.0061869
0.00711494
0.0080884
0.0091018
0.0101532
0.0112411
0.0123647
0.0135239
0.0147194
0.0159518
0.0172222
0.018532
0.0198827
0.0212758
0.0227137
0.0241999
0.0257397
0.0201491
0.0135068
0.00721345
0.00400906
0.00414963
0.00493216
0.00579177
0.00671213
0.00768772
0.00870164
0.00974923
0.0108273
0.011934
0.013068
0.0142287
0.015416
0.0166299
0.0178705
0.0191383
0.0204339
0.0217583
0.0231133
0.0245007
0.0259222
0.0215443
0.0145795
0.00796929
0.00443106
0.00447542
0.00530637
0.00622066
0.0071952
0.00821474
0.00926622
0.0103454
0.0114484
0.0125729
0.0137172
0.0148798
0.0160601
0.017257
0.0184698
0.0196984
0.0209432
0.0222049
0.0234843
0.0247822
0.0260967
0.0227025
0.0153839
0.0084233
0.00470315
0.00484075
0.00574727
0.00670243
0.00771756
0.00877247
0.00986028
0.0109691
0.012092
0.0132293
0.0143794
0.0155374
0.0167057
0.0178797
0.0190557
0.0202389
0.0214286
0.0226275
0.0238402
0.0250629
0.0262802
0.000414987
0.00139655
0.00292907
0.00474084
0.00655543
0.00835115
0.0101434
0.0119336
0.0137233
0.0155153
0.0173134
0.0191239
0.0209519
0.0228002
0.0246697
0.0265873
0.0286173
0.0307961
0.0330897
0.0355947
0.0384442
0.0415616
0.0448738
0.0483184
0.000315626
0.000820402
0.00190491
0.00340099
0.00500081
0.00658133
0.00814961
0.00972543
0.0113289
0.012971
0.0146536
0.0163774
0.0181434
0.019953
0.0218094
0.0237225
0.0257177
0.0278269
0.0300678
0.032495
0.0351787
0.0380535
0.0412797
0.0447958
0.000168607
0.000512926
0.00121231
0.00220358
0.00350091
0.00513
0.00697969
0.00877035
0.010493
0.0121642
0.013804
0.0154303
0.0170589
0.018706
0.0203889
0.0221265
0.0239427
0.0258682
0.0279389
0.0301989
0.0326968
0.0354381
0.0384812
0.0417356
0.000183127
0.000427634
0.000993618
0.00178987
0.00283723
0.00416793
0.0058202
0.00770883
0.00960724
0.0114669
0.0132787
0.0150362
0.0167369
0.0183856
0.0199966
0.0215945
0.0232136
0.0248986
0.0267029
0.0286864
0.0309097
0.0334181
0.0362464
0.0393644
0.000154596
0.000373064
0.000859798
0.00154604
0.00244904
0.00359278
0.00500953
0.00673621
0.00871092
0.0107122
0.0126806
0.0146029
0.0164685
0.0182637
0.0199781
0.0216112
0.0231795
0.0247202
0.0262931
0.0279766
0.0298599
0.0320289
0.0345483
0.0374371
0.000148937
0.000341444
0.000779329
0.00139304
0.00220208
0.00322559
0.00449314
0.00603979
0.00790054
0.00995341
0.0120328
0.0140892
0.0161053
0.0180647
0.0199464
0.0217293
0.0233999
0.0249633
0.0264527
0.0279365
0.0295159
0.0313127
0.0334459
0.0360196
0.000138819
0.000317183
0.000717607
0.00127836
0.00202035
0.00295787
0.00411714
0.00552996
0.00723302
0.00924044
0.0113841
0.0135443
0.015683
0.0177813
0.0198191
0.0217704
0.0236073
0.0253067
0.0268641
0.0283085
0.0297157
0.0312104
0.032949
0.0350816
0.000134663
0.00030344
0.000672559
0.00119335
0.00188418
0.00275661
0.0038346
0.00514753
0.00672996
0.00861862
0.0107618
0.0129905
0.0152266
0.0174407
0.019612
0.0217158
0.023721
0.0255932
0.0273027
0.0288387
0.03023
0.0315642
0.0329927
0.0346993
0.000131815
0.000296997
0.000636841
0.00112638
0.00177553
0.00259648
0.00361017
0.00484391
0.00632986
0.00810497
0.0101872
0.0124463
0.0147566
0.0170664
0.0193507
0.0215858
0.0237422
0.0257833
0.0276688
0.0293639
0.0308553
0.0321775
0.0334366
0.0348017
0.000130548
0.000293931
0.00060848
0.00107283
0.0016877
0.00246686
0.0034285
0.00459809
0.00600607
0.00768784
0.00967856
0.0119275
0.0142864
0.0166736
0.0190534
0.0214013
0.0236898
0.0258836
0.0279401
0.0298135
0.0314651
0.0328839
0.0341165
0.0352849
0.000129712
0.000292062
0.000585145
0.00102857
0.0016152
0.00235977
0.00327837
0.00439487
0.00573816
0.00734179
0.00924337
0.011447
0.0138278
0.0162748
0.0187348
0.0211798
0.023583
0.0259119
0.0281245
0.0301719
0.0320031
0.0335776
0.0348906
0.0360008
0.000129367
0.000290757
0.000566031
0.000992037
0.00155511
0.00227092
0.00315349
0.00422559
0.0055146
0.0070528
0.00887696
0.0110147
0.0133919
0.0158802
0.018407
0.0209352
0.0234384
0.0258856
0.0282377
0.030446
0.0324546
0.0342075
0.0356645
0.0368279
0.000129346
0.00028993
0.000550292
0.000961687
0.00150508
0.00219674
0.00304913
0.00408374
0.00532697
0.00680956
0.00856737
0.0106357
0.0129874
0.0154997
0.0180798
0.0206798
0.02327
0.0258212
0.0282968
0.0306504
0.0328253
0.0347586
0.0363905
0.0376877
0.000129584
0.000289323
0.000537359
0.000936606
0.00146349
0.00213496
0.00296191
0.00396494
0.00516932
0.00660477
0.00830575
0.0103097
0.0126213
0.0151409
0.0177623
0.0204237
0.0230902
0.0257331
0.0283182
0.0308017
0.0331287
0.0352344
0.0370495
0.0385175
0.000130051
0.000288879
0.000526842
0.000916003
0.00142913
0.00208354
0.00288914
0.00386553
0.00503707
0.0064325
0.00808516
0.0100324
0.0122966
0.0148103
0.0174615
0.0201755
0.0229097
0.0256341
0.0283167
0.0309162
0.0333809
0.0356465
0.0376399
0.0392878
0.0001307
0.000288542
0.000518341
0.000899228
0.00140118
0.00204078
0.00282841
0.00378242
0.00492629
0.00628776
0.00789918
0.00979748
0.0120137
0.0145115
0.0171826
0.0199413
0.0227362
0.0255344
0.0283046
0.0310088
0.0335979
0.0360105
0.0381733
0.0400085
0.000131566
0.000288271
0.000511409
0.000885364
0.00137798
0.00200515
0.00277764
0.00371285
0.00483332
0.00616611
0.00774254
0.00959873
0.0117701
0.0142451
0.0169283
0.0197249
0.022575
0.0254408
0.0282914
0.0310908
0.0337933
0.0363403
0.038661
0.0406752
0.00013256
0.000288069
0.000505768
0.000873733
0.00135852
0.00197512
0.00273489
0.00365417
0.00475496
0.00606329
0.00760995
0.00943025
0.0115612
0.0140099
0.0166984
0.0195276
0.0224282
0.0253574
0.0282826
0.03117
0.0339764
0.0366468
0.0391127
0.0412934
0.000133666
0.000287921
0.000501239
0.000863941
0.00134199
0.00194963
0.00269854
0.00360433
0.00468824
0.00597583
0.00749696
0.00928629
0.0113816
0.0138023
0.0164912
0.0193479
0.0222955
0.0252844
0.0282802
0.0312498
0.0341526
0.0369364
0.0395358
0.0418712
0.000134875
0.000287871
0.000497692
0.000855549
0.00132778
0.00192765
0.00266725
0.00356135
0.00463076
0.00590042
0.00739959
0.00916207
0.0112259
0.0136185
0.0163032
0.0191833
0.0221743
0.0252202
0.0282834
0.0313307
0.0343234
0.0372122
0.0399337
0.0424084
0.000136098
0.000287868
0.00049495
0.000848305
0.00131541
0.00190844
0.00263986
0.00352381
0.00458051
0.0058345
0.00731427
0.00905324
0.011089
0.0134544
0.0161311
0.0190302
0.0220614
0.0251619
0.0282898
0.0314113
0.0344891
0.0374763
0.0403127
0.0429239
0.000137368
0.000287952
0.000492929
0.000841922
0.00130433
0.00189128
0.00261542
0.00349029
0.00453569
0.00577573
0.00723842
0.0089564
0.0109671
0.0133063
0.0159715
0.0188853
0.0219533
0.0251057
0.028296
0.0314886
0.034647
0.0377257
0.0406657
0.0433888
0.000138628
0.000288075
0.000491435
0.000836141
0.00129429
0.00187568
0.00259322
0.00345986
0.00449508
0.00572246
0.00716965
0.00886873
0.0108565
0.0131707
0.0158216
0.0187455
0.0218466
0.0250484
0.0282989
0.0315602
0.0347958
0.0379618
0.0410012
0.0438401
0.000139856
0.000288237
0.000490351
0.000830824
0.00128499
0.00186121
0.00257263
0.00343172
0.00445756
0.00567335
0.00710629
0.00878797
0.0107547
0.0130452
0.0156792
0.0186087
0.0217388
0.024987
0.0282956
0.0316234
0.0349336
0.0381831
0.0413162
0.0442582
0.000141044
0.000288427
0.000489594
0.000825851
0.00127621
0.00184756
0.00255325
0.00340525
0.00442231
0.00562728
0.00704698
0.00871246
0.0106595
0.0129274
0.0155428
0.0184732
0.0216279
0.0249192
0.0282834
0.0316758
0.0350585
0.0383893
0.041615
0.0446667
0.000142165
0.000288638
0.000489044
0.000821091
0.00126778
0.00183449
0.00253473
0.00337999
0.00438872
0.00558347
0.00699066
0.00864088
0.0105695
0.0128157
0.0154113
0.0183381
0.0215126
0.0248432
0.0282602
0.0317148
0.0351675
0.0385766
0.0418896
0.0450372
0.000143221
0.000288866
0.000488657
0.000816502
0.00125965
0.00182189
0.00251689
0.00335565
0.00435638
0.00554134
0.00693659
0.00857231
0.0104833
0.0127087
0.0152838
0.0182031
0.0213925
0.0247581
0.0282248
0.0317391
0.0352597
0.0387446
0.0421428
0.0453872
0.000144209
0.000289109
0.000488385
0.000812054
0.00125173
0.00180962
0.00249952
0.00333203
0.00432505
0.00550058
0.00688434
0.00850612
0.0104003
0.0126057
0.0151598
0.0180681
0.0212675
0.0246638
0.0281767
0.0317481
0.035334
0.0388925
0.0423739
0.0457136
0.000145129
0.000289362
0.00048819
0.000807725
0.00124403
0.00179769
0.00248264
0.00330906
0.00429462
0.00546102
0.00683365
0.00844198
0.0103199
0.0125059
0.015039
0.0179335
0.0211383
0.0245607
0.028116
0.0317415
0.0353902
0.0390197
0.0425812
0.0460128
0.000146002
0.000289633
0.00048807
0.000803528
0.00123654
0.00178608
0.00246621
0.00328675
0.00426507
0.0054226
0.00678447
0.00837976
0.0102419
0.0124093
0.0149215
0.0177999
0.0210056
0.0244495
0.0280434
0.0317198
0.0354289
0.0391271
0.0427665
0.0462862
0.000146831
0.000289921
0.000488028
0.000799472
0.00122927
0.00177482
0.00245029
0.00326512
0.00423642
0.00538537
0.00673682
0.00831949
0.0101665
0.0123157
0.0148073
0.017668
0.0208706
0.0243313
0.0279595
0.0316834
0.0354498
0.0392143
0.0429296
0.0465353
0.000147598
0.000290219
0.000487999
0.000795556
0.00122224
0.00176393
0.0024349
0.0032442
0.00420873
0.00534942
0.00669083
0.00826135
0.0100937
0.0122254
0.0146968
0.0175388
0.0207347
0.0242077
0.027866
0.0316336
0.035454
0.0392812
0.0430691
0.0467627
0.000148324
0.000290534
0.000488019
0.000791832
0.00121552
0.00175349
0.0024201
0.00322406
0.00418206
0.0053148
0.00664656
0.00820543
0.0100238
0.0121386
0.0145905
0.0174132
0.0205998
0.0240811
0.0277652
0.0315726
0.035443
0.0393288
0.0431837
0.046953
0.000149016
0.000290857
0.000488063
0.000788304
0.00120916
0.00174357
0.00240591
0.00320474
0.00415645
0.00528158
0.0066041
0.00815185
0.00995678
0.0120555
0.0144887
0.0172923
0.0204675
0.0239538
0.0276602
0.0315038
0.035421
0.0393616
0.0432786
0.047117
0.000149689
0.000291197
0.000488166
0.000784995
0.00120318
0.00173429
0.00239238
0.00318625
0.00413197
0.00524979
0.00656349
0.00810058
0.00989273
0.0119762
0.0143915
0.0171763
0.020339
0.0238276
0.0275533
0.0314306
0.0353923
0.0393859
0.0433638
0.0472724
0.000150331
0.000291534
0.000488267
0.000781841
0.00119747
0.00172543
0.00237948
0.00316864
0.00410864
0.00521947
0.00652472
0.00805163
0.00983157
0.0119005
0.0142987
0.0170652
0.0202146
0.0237035
0.0274461
0.031355
0.0353595
0.0394051
0.0434434
0.0474222
0.000150954
0.000291876
0.000488388
0.00077887
0.00119208
0.00171705
0.00236727
0.00315193
0.00408646
0.00519063
0.00648781
0.00800499
0.00977327
0.0118282
0.01421
0.0169587
0.020094
0.0235813
0.0273385
0.031277
0.035323
0.0394193
0.043517
0.0475644
0.000151561
0.000292223
0.000488528
0.000776077
0.001187
0.00170915
0.00235574
0.00313615
0.00406549
0.00516336
0.00645285
0.00796074
0.00971784
0.0117595
0.0141255
0.0168567
0.0199772
0.0234608
0.0272302
0.0311961
0.0352818
0.0394277
0.0435838
0.047699
0.000152153
0.000292572
0.000488685
0.00077346
0.00118223
0.00170172
0.0023449
0.0031213
0.00404575
0.00513764
0.00641985
0.00791892
0.00966538
0.0116942
0.0140451
0.0167592
0.0198645
0.0233424
0.0271213
0.0311118
0.0352346
0.0394276
0.0436401
0.0478229
0.000152736
0.000292922
0.000488856
0.000771006
0.00117775
0.00169474
0.00233472
0.00310735
0.00402722
0.00511349
0.00638885
0.00787959
0.00961599
0.0116327
0.0139691
0.0166669
0.0197566
0.0232272
0.027013
0.0310251
0.0351819
0.0394184
0.0436815
0.0479213
0.000153309
0.000293271
0.000489033
0.000768705
0.00117354
0.00168819
0.00232516
0.00309428
0.00400986
0.00509087
0.00635981
0.00784275
0.00956968
0.011575
0.0138978
0.0165799
0.0196543
0.0231166
0.0269071
0.0309384
0.0351268
0.0394039
0.0437142
0.0480047
0.000153867
0.000293613
0.000489204
0.000766544
0.00116958
0.00168204
0.00231619
0.00308203
0.00399359
0.00506969
0.00633263
0.00780827
0.00952636
0.011521
0.0138311
0.0164984
0.0195581
0.0230116
0.0268055
0.0308543
0.0350726
0.0393893
0.0437465
0.0480896
0.000154423
0.000293951
0.000489383
0.000764513
0.00116586
0.00167626
0.00230778
0.00307053
0.00397836
0.00504988
0.00630722
0.00777606
0.00948592
0.0114706
0.0137687
0.0164222
0.0194679
0.0229124
0.0267089
0.030774
0.0350213
0.0393776
0.0437838
0.0481877
0.000154979
0.000294286
0.00048958
0.000762606
0.00116236
0.00167083
0.00229987
0.00305975
0.00396408
0.00503132
0.00628344
0.00774594
0.00944812
0.0114236
0.0137105
0.0163511
0.0193834
0.0228189
0.026617
0.0306973
0.0349725
0.0393669
0.0438194
0.0482756
0.000155519
0.000294608
0.000489754
0.000760798
0.00115904
0.00166569
0.00229239
0.00304957
0.00395062
0.00501387
0.00626113
0.00771771
0.00941272
0.0113795
0.0136561
0.0162845
0.0193041
0.0227307
0.0265299
0.0306244
0.0349266
0.0393585
0.0438567
0.0483673
0.000156035
0.000294914
0.000489891
0.000759077
0.0011559
0.00166081
0.00228531
0.00303994
0.00393791
0.0049974
0.0062401
0.00769115
0.00937948
0.0113382
0.0136051
0.0162221
0.0192297
0.0226474
0.026447
0.0305548
0.0348832
0.0393523
0.0438963
0.0484574
0.00015655
0.000295207
0.000490017
0.000757456
0.00115292
0.00165619
0.00227858
0.00303079
0.00392584
0.00498179
0.0062202
0.00766606
0.00934813
0.0112993
0.0135572
0.0161636
0.0191597
0.0225686
0.0263678
0.0304879
0.0348412
0.0393467
0.0439371
0.0485561
0.000157086
0.000295496
0.000490193
0.000755959
0.00115011
0.0016518
0.00227218
0.00302209
0.00391435
0.00496692
0.00620125
0.00764221
0.00931836
0.0112625
0.0135119
0.0161083
0.0190936
0.0224939
0.0262922
0.0304232
0.0347999
0.0393398
0.0439743
0.0486467
0.000157614
0.000295774
0.000490375
0.000754534
0.00114745
0.00164764
0.00226611
0.00301379
0.00390337
0.0049527
0.00618312
0.00761938
0.00928993
0.0112273
0.0134687
0.0160558
0.0190309
0.0224229
0.0262201
0.0303611
0.0347597
0.0393317
0.0440062
0.0487259
0.000158117
0.000296046
0.000490536
0.000753192
0.00114494
0.00164371
0.00226035
0.00300588
0.00389289
0.00493908
0.00616573
0.00759745
0.00926258
0.0111935
0.0134273
0.0160054
0.0189709
0.022355
0.026151
0.0303017
0.034722
0.0393254
0.0440376
0.0487944
0.000158609
0.000296312
0.000490697
0.000751936
0.00114258
0.00163999
0.00225489
0.00299838
0.00388288
0.00492605
0.00614903
0.00757635
0.0092362
0.0111609
0.0133872
0.0159567
0.0189128
0.022289
0.0260836
0.0302439
0.0346859
0.0393225
0.0440781
0.0488911
0.000159079
0.000296565
0.000490836
0.000750753
0.00114036
0.00163649
0.00224971
0.00299126
0.00387338
0.00491363
0.00613306
0.00755607
0.00921075
0.0111293
0.0133483
0.0159093
0.018856
0.0222241
0.0260165
0.0301854
0.0346484
0.039317
0.0441136
0.0489734
0.000159544
0.000296809
0.000490965
0.000749654
0.00113828
0.00163321
0.00224485
0.00298453
0.0038644
0.00490185
0.00611785
0.00753668
0.00918632
0.0110988
0.0133106
0.015863
0.0188004
0.0221598
0.025949
0.0301251
0.0346079
0.0393081
0.0441459
0.0490552
0.000160017
0.000297054
0.000491123
0.000748641
0.00113634
0.00163012
0.00224029
0.00297822
0.00385593
0.0048907
0.00610342
0.00751824
0.00916299
0.0110695
0.0132742
0.0158182
0.0187459
0.0220962
0.0258809
0.0300626
0.0345635
0.0392939
0.0441722
0.0491309
0.00016048
0.000297286
0.000491273
0.000747696
0.00113454
0.00162725
0.002236
0.00297231
0.00384797
0.00488023
0.00608975
0.00750075
0.00914084
0.0110417
0.0132394
0.0157752
0.0186932
0.022034
0.0258129
0.0299981
0.0345146
0.0392725
0.0441876
0.0491882
0.000160927
0.000297516
0.000491409
0.000746815
0.0011328
0.00162452
0.00223196
0.00296668
0.00384039
0.0048703
0.00607697
0.00748431
0.00912003
0.0110154
0.0132066
0.0157343
0.0186431
0.0219741
0.0257465
0.0299333
0.0344632
0.0392461
0.0441967
0.049241
0.000161373
0.000297734
0.000491553
0.000745985
0.00113121
0.00162193
0.00222814
0.0029614
0.00383333
0.00486092
0.00606483
0.00746886
0.00910031
0.0109907
0.0131756
0.0156958
0.0185957
0.0219175
0.0256831
0.0298705
0.0344118
0.039218
0.0442022
0.0492907
0.000161819
0.000297959
0.000491723
0.000745251
0.00112973
0.00161958
0.00222458
0.00295644
0.00382662
0.00485214
0.00605338
0.0074542
0.0090818
0.0109673
0.0131465
0.0156596
0.0185514
0.0218644
0.0256236
0.0298114
0.0343632
0.0391907
0.044206
0.0493337
0.000162244
0.00029817
0.000491873
0.00074455
0.00112836
0.00161736
0.00222126
0.00295176
0.00382033
0.00484382
0.00604262
0.0074404
0.00906421
0.0109453
0.013119
0.0156256
0.0185096
0.0218145
0.0255679
0.0297563
0.0343186
0.0391672
0.0442121
0.0493723
0.000162668
0.000298358
0.000492003
0.000743972
0.00112716
0.00161536
0.00221818
0.00294748
0.00381448
0.00483601
0.00603239
0.00742724
0.0090476
0.0109243
0.0130929
0.0155932
0.0184699
0.0217673
0.0255151
0.0297044
0.0342778
0.0391487
0.0442269
0.0494333
0.000163092
0.000298561
0.000492172
0.000743414
0.00112603
0.00161351
0.00221537
0.00294345
0.00380895
0.00482867
0.00602282
0.00741484
0.00903174
0.0109044
0.0130679
0.0155624
0.0184321
0.021722
0.0254643
0.029654
0.0342377
0.0391301
0.0442401
0.0494865
0.000163466
0.000298754
0.000492287
0.000742965
0.00112509
0.00161187
0.00221283
0.00293981
0.00380393
0.00482186
0.00601378
0.00740312
0.0090167
0.0108854
0.0130441
0.0155328
0.0183957
0.0216786
0.0254151
0.0296047
0.0341976
0.03911
0.0442497
0.049534
0.00016389
0.000298959
0.000492502
0.000742635
0.00112429
0.00161051
0.00221063
0.00293661
0.00379937
0.00481566
0.0060055
0.0073922
0.00900266
0.0108674
0.0130214
0.0155044
0.018361
0.0216366
0.0253675
0.0295567
0.0341582
0.0390895
0.0442575
0.0495762
0.00016428
0.000299149
0.000492698
0.000742348
0.00112363
0.0016093
0.0022087
0.00293371
0.0037953
0.00480997
0.00599784
0.00738214
0.00898944
0.0108504
0.0129998
0.0154774
0.0183273
0.021596
0.0253212
0.0295098
0.0341199
0.0390707
0.0442679
0.0496219
0.000164663
0.000299317
0.000492859
0.000742141
0.00112309
0.00160834
0.00220705
0.00293124
0.00379173
0.00480501
0.005991
0.00737293
0.00897736
0.0108346
0.0129796
0.0154516
0.0182951
0.0215567
0.0252757
0.0294631
0.0340814
0.0390521
0.0442821
0.0496848
0.000165055
0.000299507
0.000493081
0.000742002
0.00112268
0.00160756
0.00220571
0.00292915
0.00378865
0.00480065
0.00598502
0.00736475
0.0089664
0.0108202
0.0129608
0.0154275
0.0182644
0.0215187
0.0252311
0.0294157
0.0340399
0.0390279
0.0442861
0.0497231
0.000165393
0.000299687
0.000493221
0.000741938
0.00112243
0.00160696
0.00220465
0.00292746
0.00378613
0.00479696
0.00597977
0.00735755
0.00895667
0.0108073
0.0129437
0.0154053
0.0182359
0.0214829
0.025188
0.0293689
0.0339968
0.0389992
0.0442823
0.0497536
0.000165759
0.000299869
0.00049342
0.000741982
0.00112232
0.00160664
0.00220392
0.00292622
0.0037841
0.00479396
0.00597545
0.00735144
0.00894835
0.010796
0.0129287
0.0153855
0.0182102
0.02145
0.0251481
0.0293245
0.033955
0.0389696
0.0442763
0.0497813
0.000166121
0.000300037
0.000493619
0.000742089
0.00112236
0.0016065
0.0022035
0.00292531
0.00378259
0.00479151
0.00597184
0.00734637
0.00894115
0.0107862
0.0129155
0.0153681
0.0181873
0.0214208
0.0251121
0.0292842
0.0339165
0.0389426
0.0442711
0.0498109
0.000166503
0.000300221
0.00049387
0.000742323
0.00112258
0.00160664
0.00220337
0.00292483
0.00378156
0.00478978
0.00596905
0.00734221
0.00893529
0.010778
0.0129044
0.015353
0.0181676
0.0213952
0.0250807
0.0292489
0.0338827
0.0389183
0.0442656
0.0498334
0.000166879
0.000300413
0.000494135
0.000742619
0.00112293
0.00160698
0.00220358
0.00292475
0.00378108
0.00478867
0.00596711
0.00733904
0.00893049
0.0107712
0.0128949
0.0153402
0.0181506
0.0213732
0.0250536
0.0292188
0.0338546
0.0388991
0.0442617
0.0498492
0.000167211
0.000300565
0.000494328
0.000743051
0.00112352
0.00160762
0.00220416
0.00292521
0.0037812
0.00478827
0.00596587
0.00733677
0.00892685
0.0107657
0.0128872
0.0153294
0.0181359
0.0213544
0.0250306
0.0291941
0.0338336
0.0388888
0.0442664
0.0498607
0.000167567
0.00030074
0.000494582
0.000743598
0.00112425
0.00160851
0.00220512
0.00292608
0.00378185
0.00478856
0.00596563
0.00733557
0.00892446
0.0107616
0.0128808
0.0153204
0.0181236
0.0213379
0.0250106
0.0291732
0.0338186
0.0388894
0.0442953
0.0499388
0.000167929
0.000300905
0.00049486
0.000744259
0.00112524
0.00160971
0.0022065
0.00292752
0.00378324
0.00478964
0.00596625
0.00733555
0.00892324
0.0107589
0.0128761
0.0153131
0.0181129
0.0213236
0.0249926
0.029154
0.0338044
0.0388899
0.0443219
0.0500039
0.000168299
0.000301082
0.000495181
0.000745079
0.00112644
0.00161129
0.00220832
0.00292956
0.0037853
0.00479165
0.00596792
0.00733666
0.00892354
0.0107578
0.0128732
0.0153076
0.0181045
0.0213112
0.0249766
0.0291363
0.0337904
0.0388878
0.04434
0.0500462
0.000168654
0.000301248
0.000495508
0.000746006
0.00112788
0.00161315
0.0022106
0.00293212
0.00378814
0.00479453
0.00597075
0.00733915
0.00892527
0.0107586
0.0128723
0.0153045
0.0180983
0.0213015
0.024963
0.0291209
0.0337787
0.0388885
0.0443632
0.0501028
0.000169014
0.000301393
0.000495836
0.00074709
0.00112953
0.00161538
0.00221334
0.00293533
0.0037917
0.00479839
0.00597467
0.00734293
0.00892872
0.0107611
0.0128737
0.0153039
0.0180949
0.0212946
0.0249524
0.0291084
0.0337691