/*--------------------------------*- C++ -*----------------------------------*\
| =========                 |                                                 |
| \\      /  F ield         | OpenFOAM: The Open Source CFD Toolbox           |
|  \\    /   O peration     | Version:  2.3.0                                 |
|   \\  /    A nd           | Web:      www.OpenFOAM.org                      |
|    \\/     M anipulation  |                                                 |
\*---------------------------------------------------------------------------*/
FoamFile
{
    version     2.0;
    format      ascii;
    class       volVectorField;
    location    "6000";
    object      U;
}
// * * * * * * * * * * * * * * * * * * * * * * * * * * * * * * * * * * * * * //

dimensions      [0 1 -1 0 0 0 0];

internalField   nonuniform List<vector> 
14769
(
(21.8135 9.6015 5.38628e-21)
(21.6469 9.988 -5.18033e-20)
(21.4767 10.3831 0)
(21.2966 10.7889 0)
(21.1054 11.2068 1.96529e-20)
(20.901 11.6353 -2.10074e-20)
(20.6794 12.0711 5.5497e-20)
(20.435 12.5086 -1.59264e-20)
(20.1597 12.9409 -7.53523e-20)
(19.8439 13.3605 6.19351e-20)
(19.476 13.7609 -9.99173e-20)
(19.0442 14.1369 2.70189e-20)
(18.5367 14.4856 4.77091e-20)
(17.9424 14.8061 -3.24812e-20)
(17.251 15.0998 0)
(16.4533 15.3694 0)
(15.541 15.6182 2.56593e-20)
(14.5088 15.8519 2.41514e-19)
(13.3505 16.0693 1.79209e-19)
(12.0591 16.2586 -3.82731e-19)
(10.6315 16.4012 0)
(9.10215 16.5398 0)
(7.53822 16.7735 5.57887e-19)
(5.93118 16.8942 -5.27166e-19)
(21.4585 9.46226 -6.69257e-20)
(21.2773 9.78669 5.38017e-20)
(21.0885 10.114 0)
(20.8857 10.4431 -2.38238e-19)
(20.6669 10.7761 8.94196e-20)
(20.43 11.1132 2.30951e-19)
(20.1734 11.4551 -2.11433e-19)
(19.895 11.8016 -2.72529e-19)
(19.5928 12.152 2.76289e-19)
(19.2646 12.5046 -5.46618e-20)
(18.9075 12.8563 -8.10526e-20)
(18.5192 13.2025 4.97248e-19)
(18.0972 13.5374 -4.94995e-19)
(17.6394 13.8536 -6.26663e-19)
(17.1438 14.1423 6.85118e-19)
(16.6097 14.3937 -8.83093e-19)
(16.0371 14.5967 8.93528e-19)
(15.4276 14.7394 -1.23713e-18)
(14.7841 14.8089 1.22239e-18)
(14.1118 14.7913 4.91625e-20)
(13.421 14.6718 0)
(12.7268 14.4386 -6.21047e-20)
(12.0392 14.0842 6.87895e-20)
(11.3517 13.6057 -2.83472e-20)
(21.1575 9.30509 -1.81629e-19)
(20.9713 9.57774 8.18383e-20)
(20.7765 9.85116 9.05255e-20)
(20.5695 10.1224 6.28014e-20)
(20.3486 10.392 4.325e-19)
(20.1122 10.6591 -4.2244e-19)
(19.8587 10.9228 3.69948e-19)
(19.586 11.1817 3.80716e-20)
(19.2919 11.4345 -5.45505e-19)
(18.9746 11.6795 5.37698e-20)
(18.6318 11.9145 6.00074e-20)
(18.2619 12.1367 -3.36909e-20)
(17.8634 12.3432 3.805e-20)
(17.4355 12.53 0)
(16.9781 12.6928 9.63e-19)
(16.4923 12.8267 -9.5884e-19)
(15.9802 12.9264 6.65936e-19)
(15.4457 12.9861 -1.24791e-18)
(14.8941 13.0001 6.59366e-19)
(14.3331 12.963 5.56836e-20)
(13.7728 12.8703 -8.79115e-19)
(13.226 12.7188 1.95848e-18)
(12.7066 12.5074 -1.02144e-18)
(12.2303 12.2356 -1.11448e-18)
(20.9146 9.14525 1.09753e-19)
(20.7282 9.37108 -2.02536e-19)
(20.5349 9.59715 3.29572e-19)
(20.3319 9.82102 1.50586e-20)
(20.1177 10.0419 -3.00041e-19)
(19.8912 10.259 3.24912e-19)
(19.6513 10.4713 -2.07837e-19)
(19.3969 10.6778 0)
(19.127 10.8769 4.10481e-19)
(18.8406 11.0672 -7.08733e-19)
(18.5369 11.2465 3.70657e-19)
(18.215 11.4124 0)
(17.8745 11.5622 0)
(17.5152 11.6926 5.29602e-19)
(17.1374 11.8 -5.98472e-19)
(16.7423 11.8806 0)
(16.3316 11.9303 -7.7126e-20)
(15.9082 11.945 0)
(15.4761 11.921 -1.02243e-19)
(15.0405 11.855 -1.02332e-18)
(14.6078 11.7449 1.04614e-18)
(14.1857 11.5898 -6.13662e-20)
(13.7823 11.3911 1.3657e-19)
(13.406 11.1524 0)
(20.7106 8.97321 2.04579e-20)
(20.5308 9.16827 0)
(20.3444 9.35747 4.07474e-19)
(20.1499 9.54344 -3.41725e-19)
(19.9462 9.7255 1.45545e-19)
(19.7321 9.90297 0)
(19.5066 10.075 3.42603e-19)
(19.2688 10.2407 -3.43258e-19)
(19.0179 10.3988 1.00178e-19)
(18.753 10.548 0)
(18.4734 10.6867 0)
(18.1788 10.8129 -3.6638e-19)
(17.8689 10.9247 4.94858e-19)
(17.544 11.0194 0)
(17.2048 11.0944 7.01452e-19)
(16.8524 11.1467 -6.3195e-19)
(16.4889 11.1733 -7.35453e-19)
(16.1168 11.1713 7.45335e-19)
(15.7395 11.1378 9.67018e-19)
(15.3615 11.0708 -9.87862e-19)
(14.9878 10.9687 8.79199e-19)
(14.6243 10.8316 -1.00906e-18)
(14.277 10.6605 -1.53774e-21)
(13.9518 10.4581 1.46429e-19)
(20.5392 8.81647 -1.37313e-19)
(20.3706 8.97982 0)
(20.1947 9.1385 -1.40977e-19)
(20.0111 9.29415 4.00285e-19)
(19.8198 9.44607 -7.48066e-19)
(19.6198 9.59359 3.43616e-19)
(19.4103 9.73602 0)
(19.1906 9.8724 4.08597e-19)
(18.9601 10.0018 -5.10704e-19)
(18.7181 10.1228 0)
(18.4638 10.2341 0)
(18.1972 10.3341 -1.24339e-19)
(17.9179 10.4209 0)
(17.6262 10.4925 -4.65655e-19)
(17.3227 10.5466 -1.18722e-19)
(17.0087 10.581 -1.3175e-19)
(16.6857 10.5931 1.60404e-18)
(16.3559 10.5805 -8.91697e-19)
(16.0222 10.5411 -1.10092e-19)
(15.6879 10.4734 4.82734e-19)
(15.3572 10.3761 -1.00861e-18)
(15.0345 10.2493 5.23583e-19)
(14.7245 10.094 2.9987e-19)
(14.4316 9.91206 -7.38585e-19)
(20.3993 8.6698 2.23286e-19)
(20.2411 8.80644 -8.36014e-20)
(20.0764 8.9407 -1.71815e-19)
(19.9041 9.07208 -8.50313e-21)
(19.7249 9.20032 2.75079e-19)
(19.538 9.32463 9.99579e-20)
(19.3427 9.44443 -4.17582e-19)
(19.1383 9.55891 4.18537e-19)
(18.9243 9.66719 0)
(18.7002 9.76808 -1.2366e-19)
(18.4655 9.86024 1.31308e-19)
(18.2197 9.94229 7.03604e-19)
(17.9626 10.0125 -5.7062e-19)
(17.6945 10.0691 -1.54277e-19)
(17.4159 10.1102 1.70851e-19)
(17.1281 10.1339 8.94757e-20)
(16.8325 10.138 4.02541e-19)
(16.5312 10.1204 1.26893e-19)
(16.2265 10.0792 -3.25352e-19)
(15.9212 10.0133 -5.67794e-22)
(15.6191 9.92148 -1.28267e-19)
(15.3238 9.80367 0)
(15.0392 9.66059 1.44716e-19)
(14.7688 9.49369 0)
(20.2862 8.53589 1.36319e-21)
(20.1374 8.64925 2.62889e-19)
(19.9833 8.76372 -8.41179e-20)
(19.8216 8.87563 -9.77403e-20)
(19.6539 8.9852 -9.58094e-20)
(19.4791 9.09141 -1.00358e-19)
(19.2965 9.19385 0)
(19.1055 9.29165 3.50047e-19)
(18.9052 9.38431 -2.3469e-19)
(18.6963 9.47043 1.24279e-19)
(18.4778 9.54871 4.82842e-21)
(18.2497 9.61769 -1.40654e-19)
(18.0118 9.67579 1.5443e-19)
(17.7635 9.72166 -1.64555e-19)
(17.5051 9.75366 -1.72062e-19)
(17.2375 9.77019 0)
(16.9629 9.76939 3.10501e-19)
(16.6834 9.74879 -2.01901e-19)
(16.401 9.70643 4.67798e-19)
(16.117 9.6422 -5.96992e-19)
(15.8359 9.55502 1.29384e-19)
(15.5605 9.44422 5.61429e-19)
(15.2945 9.31039 -5.67108e-19)
(15.0411 9.15468 1.58893e-19)
(20.1912 8.411 -1.8728e-19)
(20.0512 8.50608 1.8966e-19)
(19.9085 8.60551 2.03957e-19)
(19.7572 8.70199 1.06046e-19)
(19.6002 8.79685 -4.18691e-19)
(19.4361 8.88873 4.35844e-19)
(19.2645 8.97763 -3.38231e-19)
(19.0855 9.06182 -4.8077e-19)
(18.8966 9.14208 2.44567e-19)
(18.6999 9.21734 1.37301e-19)
(18.4939 9.28622 -2.69898e-19)
(18.2796 9.34694 -1.47789e-19)
(18.0577 9.39671 -1.54813e-19)
(17.8253 9.43457 3.32926e-19)
(17.5834 9.45882 3.63715e-19)
(17.3315 9.4698 -3.69337e-19)
(17.0725 9.46645 2.02428e-19)
(16.8087 9.44569 -2.14374e-19)
(16.5446 9.40195 2.30027e-19)
(16.2758 9.33875 2.43531e-19)
(16.0104 9.25515 2.64443e-19)
(15.7497 9.15013 -2.67555e-19)
(15.4978 9.02388 0)
(15.2572 8.87709 1.51547e-19)
(20.0976 8.29971 -3.01831e-22)
(19.9712 8.3793 -2.08912e-19)
(19.8463 8.46691 1.08578e-19)
(19.7067 8.54968 -1.06666e-19)
(19.56 8.63231 2.27177e-19)
(19.4062 8.71177 -2.26697e-19)
(19.2436 8.79113 1.18248e-19)
(19.0798 8.86371 -1.32301e-19)
(18.9037 8.93166 2.60571e-19)
(18.7217 8.99565 -1.44967e-19)
(18.5301 9.05531 1.37954e-19)
(18.3249 9.11241 2.9556e-19)
(18.1087 9.15994 0)
(17.8807 9.19576 -1.69714e-19)
(17.6511 9.21397 1.83311e-19)
(17.4125 9.2181 -4.00962e-19)
(17.1675 9.21042 2.00228e-19)
(16.9163 9.19391 2.20136e-19)
(16.6637 9.15154 1.1126e-20)
(16.4014 9.08891 -2.38779e-19)
(16.1499 9.00732 0)
(15.9016 8.90627 -7.16041e-21)
(15.6597 8.78638 2.84934e-19)
(15.4247 8.64733 3.099e-19)
(4.29108 16.0683 -4.13099e-20)
(4.20211 14.6481 -8.66338e-20)
(4.41172 13.3825 0)
(4.72521 12.2825 0)
(5.08564 11.3096 1.0715e-18)
(5.46982 10.4305 -5.09849e-19)
(5.87868 9.63722 -6.93904e-19)
(6.30667 8.9183 -1.45088e-19)
(6.74642 8.26539 1.18772e-19)
(7.19029 7.67155 -5.80963e-19)
(7.63156 7.13088 -4.19216e-20)
(8.06493 6.6385 0)
(8.48636 6.19006 -2.88467e-19)
(8.89325 5.78129 4.19363e-20)
(9.2843 5.40832 1.11917e-18)
(9.65936 5.06722 -1.09081e-18)
(10.0191 4.75415 5.42411e-19)
(10.3649 4.46523 -1.09094e-18)
(10.6983 4.19677 -1.01215e-18)
(11.0209 3.9455 -1.01723e-18)
(11.3344 3.70856 9.42542e-19)
(11.6401 3.48422 0)
(11.9397 3.27148 -1.6987e-18)
(12.233 3.06409 1.57244e-18)
(10.6758 13.0205 0)
(10.1436 12.3526 -9.17139e-20)
(9.76329 11.6683 0)
(9.5087 10.9956 9.50343e-19)
(9.35424 10.347 -5.78669e-19)
(9.2794 9.72863 -8.92789e-19)
(9.2685 9.14406 8.75644e-19)
(9.30959 8.59511 1.28724e-19)
(9.39322 8.08242 -2.60899e-19)
(9.51135 7.60536 -2.64024e-19)
(9.65712 7.16245 5.26536e-19)
(9.82509 6.75142 0)
(10.0105 6.36953 -2.6213e-19)
(10.2094 6.01369 0)
(10.4188 5.68086 0)
(10.6362 5.36809 2.25076e-20)
(10.8594 5.07271 4.84131e-19)
(11.0867 4.79247 0)
(11.3167 4.52557 3.40327e-20)
(11.5481 4.27068 2.33408e-19)
(11.7802 4.02692 -1.15166e-18)
(12.0123 3.79425 0)
(12.2444 3.57179 2.55958e-20)
(12.4734 3.34986 -6.36153e-21)
(11.8088 11.9038 1.04637e-18)
(11.4496 11.5128 8.83729e-20)
(11.1538 11.076 0)
(10.9213 10.6114 0)
(10.7486 10.1334 1.05452e-19)
(10.6308 9.65256 -3.12238e-19)
(10.5626 9.17681 -2.26577e-19)
(10.5382 8.71173 2.10505e-19)
(10.5521 8.26143 0)
(10.599 7.82838 0)
(10.6735 7.41431 0)
(10.7712 7.01984 0)
(10.8878 6.64515 4.54455e-19)
(11.0196 6.28976 -1.35622e-18)
(11.1636 5.95309 4.54731e-19)
(11.3171 5.63415 4.68188e-19)
(11.478 5.33191 -4.65003e-19)
(11.6448 5.04523 -2.25061e-19)
(11.8162 4.77296 1.13354e-18)
(11.9912 4.51388 -8.67234e-19)
(12.1692 4.26696 0)
(12.3499 4.03177 -8.3581e-19)
(12.5331 3.80637 8.12207e-19)
(12.7165 3.57788 1.51115e-18)
(13.0612 10.8771 -5.66226e-19)
(12.7489 10.5669 1.49262e-18)
(12.4729 10.2263 -1.40519e-18)
(12.2368 9.86393 1.09728e-18)
(12.0415 9.48783 -5.62917e-19)
(11.8864 9.10488 -1.9239e-19)
(11.7695 8.7209 1.01492e-19)
(11.6882 8.34049 -1.06141e-19)
(11.6391 7.96731 -9.87436e-20)
(11.6192 7.60384 -1.04946e-19)
(11.625 7.25197 0)
(11.6532 6.91275 0)
(11.701 6.5868 0)
(11.7657 6.2742 4.36666e-19)
(11.845 5.97473 0)
(11.9368 5.68794 0)
(12.0394 5.41321 -6.35112e-19)
(12.1511 5.14989 1.06771e-19)
(12.2707 4.89723 1.19138e-19)
(12.3969 4.65453 9.40372e-19)
(12.5289 4.42124 -1.03332e-19)
(12.666 4.19738 -1.20093e-18)
(12.8079 3.98164 1.16963e-18)
(12.9527 3.76166 7.37719e-19)
(13.6514 10.2272 1.54334e-19)
(13.3759 9.96828 -4.49073e-21)
(13.1281 9.68416 0)
(12.911 9.38061 5.38983e-19)
(12.7259 9.06342 -7.30017e-19)
(12.5731 8.73782 5.67601e-19)
(12.4518 8.40846 -2.89115e-19)
(12.3602 8.07929 9.73616e-20)
(12.2962 7.75347 5.01405e-19)
(12.2572 7.43337 1.02763e-19)
(12.2407 7.12085 -2.01204e-19)
(12.244 6.81723 -4.01204e-19)
(12.2648 6.52335 -6.07017e-19)
(12.3009 6.23966 4.01699e-19)
(12.3504 5.96621 2.03875e-19)
(12.4114 5.70295 0)
(12.4825 5.44958 8.1707e-19)
(12.5623 5.20571 1.01731e-19)
(12.6497 4.9709 -1.01246e-19)
(12.7437 4.74456 0)
(12.8434 4.52631 3.92989e-19)
(12.9483 4.31641 7.89647e-19)
(13.0584 4.11366 -7.70968e-19)
(13.1719 3.90569 -7.33353e-19)
(14.158 9.70582 4.87327e-19)
(13.9045 9.47625 -8.15632e-19)
(13.6732 9.22589 0)
(13.4669 8.95908 -3.24824e-21)
(13.2872 8.68038 1.85476e-19)
(13.1346 8.39397 1.90152e-19)
(13.009 8.10353 -1.8446e-19)
(12.9092 7.81225 -3.05328e-21)
(12.8336 7.52286 -1.94917e-19)
(12.7801 7.23732 2.93162e-19)
(12.7466 6.95736 -2.89434e-19)
(12.7306 6.6844 3.96004e-19)
(12.7306 6.41935 5.97941e-19)
(12.7447 6.16262 -5.99155e-19)
(12.7714 5.91433 1.97041e-19)
(12.809 5.67452 0)
(12.8562 5.44311 -5.95655e-19)
(12.9118 5.21974 2.94357e-19)
(12.975 5.00407 2.95283e-19)
(13.0445 4.79557 -6.072e-21)
(13.1196 4.59395 -5.81316e-19)
(13.1995 4.39975 1.90125e-19)
(13.2847 4.21183 0)
(13.3732 4.01773 7.00293e-19)
(14.5147 9.30479 0)
(14.2779 9.09512 -1.65105e-19)
(14.0601 8.86731 0)
(13.8637 8.6252 -1.79352e-19)
(13.6904 8.37275 0)
(13.5413 8.11358 9.39264e-20)
(13.4165 7.85053 9.74307e-20)
(13.3151 7.58634 0)
(13.2357 7.3233 3.79913e-19)
(13.1763 7.06309 2.83501e-19)
(13.1344 6.80733 6.76948e-19)
(13.1081 6.55776 -7.73027e-19)
(13.0964 6.3152 1.93654e-19)
(13.0977 6.07991 -3.79994e-19)
(13.1105 5.85198 -1.91581e-19)
(13.1332 5.63166 -3.79679e-19)
(13.1648 5.41895 -9.57146e-20)
(13.2042 5.21359 4.7276e-19)
(13.2507 5.01516 -3.83397e-19)
(13.303 4.82304 -3.7447e-19)
(13.3599 4.63701 0)
(13.4208 4.45817 0)
(13.4871 4.28524 0)
(13.5549 4.10853 -3.4327e-19)
(14.8023 8.97857 -1.46625e-19)
(14.5785 8.7831 -1.58725e-19)
(14.3705 8.57118 0)
(14.1814 8.3468 0)
(14.012 8.11374 3.58015e-19)
(13.8655 7.87501 9.26981e-20)
(13.7422 7.63243 -4.49731e-20)
(13.6405 7.38874 -4.49264e-20)
(13.5595 7.1459 -5.53868e-20)
(13.4969 6.90518 1.35503e-19)
(13.4496 6.66826 -1.95747e-19)
(13.4157 6.43751 4.75681e-19)
(13.396 6.21345 0)
(13.3886 5.99581 6.6596e-21)
(13.3918 5.78473 -3.7216e-19)
(13.4036 5.58103 7.48433e-19)
(13.424 5.38461 9.33856e-20)
(13.4516 5.19516 -4.67662e-19)
(13.486 5.0122 -5.79152e-21)
(13.5258 4.8348 3.77454e-19)
(13.5691 4.66284 -1.83241e-19)
(13.6151 4.49839 1.81645e-19)
(13.6685 4.33904 -2.65082e-21)
(13.7234 4.17831 6.86076e-19)
(15.0301 8.71123 1.58307e-19)
(14.8168 8.52708 -3.32981e-19)
(14.6168 8.32539 6.70147e-19)
(14.4341 8.11483 3.46197e-19)
(14.2677 7.89613 -2.66882e-19)
(14.124 7.67341 2.68906e-19)
(14.0031 7.44635 0)
(13.9013 7.21857 3.64812e-19)
(13.8204 6.99121 -3.71978e-19)
(13.7574 6.76605 -3.26461e-19)
(13.7066 6.54365 -4.19281e-19)
(13.6667 6.32816 0)
(13.6424 6.1193 3.66258e-19)
(13.6294 5.91588 3.70864e-19)
(13.6262 5.71848 7.3358e-19)
(13.6296 5.52875 -3.68328e-19)
(13.6424 5.34643 -3.61463e-19)
(13.6613 5.17065 0)
(13.6875 5.0014 0)
(13.7188 4.83694 0)
(13.7524 4.67769 0)
(13.7857 4.52669 0)
(13.8299 4.37943 -4.41841e-21)
(13.8722 4.23187 6.96011e-19)
(15.2018 8.49051 -3.12254e-19)
(15.0011 8.32165 1.6617e-19)
(14.8081 8.12427 -5.06175e-19)
(14.6339 7.92754 -3.55724e-19)
(14.4726 7.71627 0)
(14.3345 7.50384 -3.61712e-19)
(14.2175 7.28639 3.5339e-19)
(14.1138 7.07291 -3.46689e-19)
(14.0341 6.85966 3.40441e-19)
(13.9737 6.6503 0)
(13.9211 6.43774 3.54912e-19)
(13.8758 6.23392 9.119e-20)
(13.8523 6.03711 -4.61627e-19)
(13.836 5.84379 0)
(13.8292 5.65758 -4.48883e-21)
(13.8248 5.47912 9.0539e-20)
(13.8339 5.30936 6.36214e-19)
(13.8458 5.14418 0)
(13.8675 4.98723 2.85092e-21)
(13.8937 4.83388 -2.80452e-21)
(13.9219 4.68762 0)
(13.941 4.54776 0)
(13.9747 4.40593 -3.52327e-19)
(14.0102 4.26197 -3.58068e-21)
(-4.5001 -2.52767 2.27994e-21)
(-4.29469 -2.54182 3.81577e-19)
(-4.04345 -2.55769 0)
(-3.75525 -2.57213 -2.14487e-19)
(-3.43778 -2.58458 0)
(-3.09769 -2.59474 6.05344e-20)
(-2.74069 -2.60226 6.25748e-20)
(-2.37155 -2.6068 -2.63111e-19)
(-1.99418 -2.60806 -2.82256e-23)
(-1.61173 -2.60576 4.31592e-19)
(-1.22651 -2.59958 -1.60118e-19)
(-0.840214 -2.58912 7.91625e-20)
(-0.453626 -2.57356 -1.67113e-19)
(-0.0666799 -2.55166 8.17946e-20)
(0.321871 -2.52166 0)
(0.715394 -2.48116 9.85481e-20)
(1.12056 -2.42702 0)
(1.55035 -2.35535 -2.29917e-19)
(2.02969 -2.26182 1.31097e-19)
(2.6067 -2.14215 3.15583e-20)
(3.36989 -1.99618 -4.6338e-19)
(4.49585 -1.83189 1.83714e-18)
(6.36853 -1.68748 -2.82507e-18)
(9.87735 -1.84442 1.65495e-18)
(-4.46658 -2.51318 -4.36098e-22)
(-4.26552 -2.5172 3.72148e-19)
(-4.027 -2.52329 9.7824e-20)
(-3.75651 -2.52799 1.03442e-19)
(-3.45937 -2.53102 3.39314e-21)
(-3.13995 -2.53221 2.21181e-19)
(-2.80186 -2.53114 -1.16552e-19)
(-2.44791 -2.52728 4.68595e-22)
(-2.08009 -2.51994 1.23428e-19)
(-1.69952 -2.5082 1.27662e-19)
(-1.30634 -2.49092 -1.62917e-22)
(-0.899626 -2.46668 3.87614e-22)
(-0.476638 -2.43378 0)
(-0.0330177 -2.3901 -7.30748e-20)
(0.437906 -2.33316 7.62256e-20)
(0.94659 -2.26008 -7.87571e-20)
(1.50885 -2.16794 -8.00383e-20)
(2.14977 -2.05438 4.21448e-20)
(2.90968 -1.9189 -1.65791e-19)
(3.853 -1.76626 1.38384e-19)
(5.08203 -1.61305 -3.92996e-19)
(6.75578 -1.50301 4.8432e-20)
(9.10733 -1.53007 3.59691e-19)
(12.406 -1.87111 5.02811e-19)
(-4.40923 -2.46679 0)
(-4.20667 -2.45926 0)
(-3.97099 -2.45559 -3.77616e-19)
(-3.70563 -2.44985 0)
(-3.41431 -2.44175 0)
(-3.09992 -2.43092 -2.63316e-19)
(-2.76455 -2.41669 5.39469e-20)
(-2.4095 -2.3982 0)
(-2.03523 -2.3745 1.14099e-19)
(-1.6413 -2.34444 8.68023e-23)
(-1.22609 -2.30671 -1.19975e-19)
(-0.786691 -2.25983 -1.83021e-19)
(-0.318644 -2.20228 6.30909e-20)
(0.184891 -2.13241 -2.55704e-19)
(0.733631 -2.0487 6.58255e-20)
(1.34173 -1.94975 0)
(2.02951 -1.83496 1.35061e-19)
(2.82607 -1.70539 0)
(3.77306 -1.56588 1.7147e-19)
(4.92994 -1.42865 -1.09734e-19)
(6.37732 -1.31963 0)
(8.21838 -1.28732 0)
(10.5646 -1.41417 2.15074e-19)
(13.4693 -1.81658 -5.65824e-19)
(-4.3352 -2.39596 3.26989e-19)
(-4.13074 -2.37537 -8.47674e-20)
(-3.89771 -2.36023 2.69391e-19)
(-3.63712 -2.34219 0)
(-3.35121 -2.32116 0)
(-3.04131 -2.29686 9.68433e-20)
(-2.70814 -2.26867 -9.89337e-20)
(-2.35177 -2.23572 -5.11292e-20)
(-1.9714 -2.1971 5.32558e-20)
(-1.56538 -2.15184 -2.1157e-19)
(-1.13092 -2.09892 -1.08518e-19)
(-0.66374 -2.03713 2.24216e-19)
(-0.157901 -1.96523 1.1321e-19)
(0.394797 -1.88216 5.84017e-20)
(1.00554 -1.78721 -8.66077e-20)
(1.68951 -1.68047 3.01684e-20)
(2.46789 -1.56324 -1.21105e-19)
(3.36928 -1.43936 -5.95221e-20)
(4.43164 -1.31728 1.82325e-19)
(5.70513 -1.21273 -1.28356e-19)
(7.252 -1.15335 0)
(9.14228 -1.18359 0)
(11.4367 -1.36837 0)
(14.1478 -1.78537 1.25455e-19)
(-4.24508 -2.31093 -1.55762e-19)
(-4.03942 -2.27998 1.63708e-19)
(-3.80806 -2.25471 -1.71572e-19)
(-3.55074 -2.22622 0)
(-3.26848 -2.19458 0)
(-2.96143 -2.15967 -9.2316e-20)
(-2.62911 -2.1208 2.16419e-21)
(-2.27071 -2.07715 4.75655e-20)
(-1.88467 -2.02791 -4.60422e-20)
(-1.46853 -1.9723 1.97575e-19)
(-1.01858 -1.90958 5.04203e-20)
(-0.529702 -1.8389 -1.02461e-19)
(0.0048734 -1.7594 -1.06315e-19)
(0.594068 -1.67046 0)
(1.2496 -1.57204 5.53568e-20)
(1.98687 -1.4652 0)
(2.8265 -1.35276 2.98415e-20)
(3.79547 -1.24031 2.903e-20)
(4.92809 -1.13794 0)
(6.26759 -1.06258 1.06738e-19)
(7.86429 -1.04101 -1.64543e-19)
(9.77113 -1.11261 -7.55685e-20)
(12.0288 -1.33026 2.02968e-19)
(14.6377 -1.75215 -1.69408e-19)
(-4.14348 -2.2188 1.45299e-19)
(-3.938 -2.18144 7.86253e-20)
(-3.70886 -2.1478 -3.95022e-20)
(-3.45512 -2.11091 4.04093e-20)
(-3.17678 -2.07104 1.32155e-21)
(-2.87311 -2.02818 -2.28739e-20)
(-2.54247 -1.98173 1.10392e-19)
(-2.18331 -1.93066 8.79549e-20)
(-1.79361 -1.87415 1.82e-19)
(-1.37055 -1.81173 -9.4315e-20)
(-0.909871 -1.74305 9.38791e-20)
(-0.40551 -1.66766 5.14308e-20)
(0.150109 -1.58495 -4.99769e-20)
(0.766279 -1.49452 0)
(1.45486 -1.39665 1.26834e-20)
(2.23098 -1.29295 3.8142e-20)
(3.11411 -1.18708 2.62089e-20)
(4.12951 -1.08555 2.73831e-20)
(5.30882 -0.999425 1.03306e-19)
(6.69049 -0.946102 -3.55692e-21)
(8.31792 -0.951038 -5.20395e-20)
(10.2342 -1.04956 8.5354e-20)
(12.47 -1.28725 -5.21205e-20)
(15.0172 -1.71207 1.55041e-19)
(-4.03538 -2.12434 -2.17314e-19)
(-3.83099 -2.08403 -7.41159e-20)
(-3.60478 -2.04422 3.84165e-20)
(-3.35509 -2.00134 -1.17925e-19)
(-3.08121 -1.95547 0)
(-2.78184 -1.90693 0)
(-2.45378 -1.85543 -2.07169e-20)
(-2.09508 -1.79952 -1.47613e-19)
(-1.70335 -1.73834 -8.74283e-20)
(-1.27573 -1.67128 0)
(-0.808028 -1.59862 -1.35828e-19)
(-0.293427 -1.52071 4.75141e-20)
(0.276965 -1.43725 0)
(0.912806 -1.3478 0)
(1.62629 -1.25255 0)
(2.43171 -1.15315 -1.48529e-19)
(3.34738 -1.05384 -1.00759e-19)
(4.39688 -0.96165 -2.44575e-20)
(5.60927 -0.887794 -7.48724e-20)
(7.01889 -0.85036 -5.05987e-20)
(8.66679 -0.874066 0)
(10.5896 -0.99071 0)
(12.8108 -1.24094 -7.01744e-20)
(15.3159 -1.66661 7.47299e-20)
(-3.92329 -2.03524 -6.96413e-20)
(-3.72214 -1.9901 7.10046e-20)
(-3.49992 -1.94662 0)
(-3.25473 -1.89988 8.2648e-20)
(-2.98559 -1.84978 -1.06069e-20)
(-2.6918 -1.79694 1.19962e-21)
(-2.3673 -1.74224 0)
(-2.00995 -1.68347 2.23451e-20)
(-1.61708 -1.61962 -1.01297e-19)
(-1.18638 -1.54946 8.28278e-20)
(-0.714541 -1.47358 2.53906e-21)
(-0.194071 -1.39387 0)
(0.386061 -1.31082 2.22853e-20)
(1.03616 -1.22359 -2.31209e-20)
(1.76891 -1.13219 0)
(2.59722 -1.03754 9.63394e-20)
(3.53834 -0.944385 4.87037e-20)
(4.61496 -0.859913 9.48674e-20)
(5.85474 -0.794785 -4.59032e-20)
(7.2852 -0.768493 0)
(8.95221 -0.806994 8.72553e-20)
(10.8845 -0.937505 -3.30107e-20)
(13.1017 -1.19649 4.27176e-20)
(15.5804 -1.6227 2.88915e-20)
(-3.8146 -1.95238 0)
(-3.61521 -1.90328 0)
(-3.39739 -1.85675 -6.86769e-20)
(-3.15626 -1.80758 7.4867e-21)
(-2.89142 -1.7552 6.25945e-20)
(-2.60444 -1.69847 0)
(-2.2852 -1.64152 7.32305e-20)
(-1.9305 -1.581 5.82229e-20)
(-1.53629 -1.51612 7.91613e-20)
(-1.10123 -1.44448 -6.11512e-20)
(-0.625739 -1.36615 1.85354e-19)
(-0.104209 -1.2845 -2.67155e-22)
(0.479713 -1.20171 -4.26139e-20)
(1.139 -1.11645 1.11829e-20)
(1.88783 -1.0292 1.1209e-20)
(2.73659 -0.938997 0)
(3.69918 -0.852074 0)
(4.79574 -0.777238 -9.27137e-20)
(6.04926 -0.719625 7.05625e-20)
(7.47842 -0.701768 1.03959e-19)
(9.15042 -0.748423 -8.46194e-20)
(11.0863 -0.888588 -3.88119e-20)
(13.2971 -1.15205 8.31322e-22)
(15.7391 -1.57044 3.72842e-20)
(-3.70246 -1.87613 9.41504e-20)
(-3.50704 -1.82422 -3.36461e-20)
(-3.29742 -1.77583 6.85716e-20)
(-3.0681 -1.72188 -1.47791e-19)
(-2.80542 -1.6716 -6.10185e-20)
(-2.52302 -1.61025 0)
(-2.20335 -1.55249 -7.17543e-20)
(-1.85711 -1.49068 -1.85162e-20)
(-1.47014 -1.4249 3.84794e-20)
(-1.0359 -1.35171 5.82995e-20)
(-0.554742 -1.27074 -6.16038e-20)
(-0.0219536 -1.18734 -2.0659e-20)
(0.571311 -1.10861 0)
(1.22928 -1.02402 -1.03687e-20)
(1.98545 -0.940869 1.0793e-20)
(2.84298 -0.850645 0)
(3.81785 -0.761795 -5.38311e-21)
(4.9453 -0.689295 5.59642e-21)
(6.2792 -0.65295 0)
(7.73464 -0.669985 -4.48377e-20)
(9.48019 -0.733279 1.97221e-20)
(11.4054 -0.886785 6.03072e-20)
(13.6427 -1.16311 -8.806e-20)
(16.1009 -1.59623 0)
(16.5179 -3.32663 0)
(20.1111 -4.60435 -1.49351e-18)
(21.4137 -5.04845 2.25861e-18)
(22.0716 -5.22435 -8.12525e-19)
(22.5141 -5.32273 0)
(22.8199 -5.37766 -1.00166e-19)
(23.0292 -5.40092 7.9993e-20)
(23.1651 -5.40035 3.39642e-21)
(23.2432 -5.38093 0)
(23.2756 -5.34688 3.43839e-19)
(23.2733 -5.3015 -3.19334e-19)
(23.2453 -5.24761 0)
(23.1984 -5.18739 0)
(23.1375 -5.12241 0)
(23.066 -5.05369 0)
(22.9865 -4.982 0)
(22.9008 -4.90781 7.87764e-20)
(22.8102 -4.8315 9.45854e-20)
(22.7157 -4.75329 -1.85742e-19)
(22.6179 -4.67326 0)
(22.5174 -4.59147 0)
(22.4144 -4.50858 8.36654e-19)
(22.31 -4.42488 5.34158e-20)
(22.2067 -4.33081 -8.35114e-19)
(16.4594 -2.81401 -6.19895e-19)
(20.2183 -4.09378 3.94882e-19)
(21.9689 -4.72221 -3.72791e-19)
(22.604 -4.90334 -1.79467e-20)
(22.9735 -4.99572 -6.20137e-21)
(23.2098 -5.0507 -8.80856e-20)
(23.3529 -5.07838 8.06794e-20)
(23.4278 -5.08494 1.59412e-19)
(23.4525 -5.07502 1.05161e-19)
(23.4414 -5.05223 -2.48704e-19)
(23.4051 -5.01972 0)
(23.3513 -4.97969 0)
(23.2853 -4.93384 5.0451e-19)
(23.2108 -4.88342 -4.13389e-19)
(23.1301 -4.82932 5.93475e-19)
(23.0449 -4.77213 -1.12637e-18)
(22.9563 -4.71229 4.48558e-19)
(22.865 -4.65016 8.54321e-20)
(22.7715 -4.58592 5.65213e-19)
(22.6762 -4.51965 -7.21722e-19)
(22.5794 -4.45147 8.12491e-19)
(22.4812 -4.38199 -7.91462e-19)
(22.382 -4.31032 2.0981e-19)
(22.282 -4.2275 0)
(16.8108 -2.60821 6.93451e-19)
(20.1942 -3.71993 -3.12904e-19)
(22.2342 -4.47309 -1.42455e-19)
(22.9063 -4.68957 5.88055e-20)
(23.2143 -4.76764 7.64323e-20)
(23.3958 -4.81134 -3.80999e-20)
(23.4933 -4.83236 -4.02647e-20)
(23.5317 -4.83658 -1.95674e-19)
(23.529 -4.82806 5.52848e-19)
(23.4984 -4.80992 -2.79857e-19)
(23.4489 -4.78442 2.5774e-20)
(23.3866 -4.75313 4.58105e-19)
(23.3154 -4.71713 -4.61865e-19)
(23.2382 -4.6773 -6.39762e-19)
(23.1567 -4.63419 4.75879e-19)
(23.0722 -4.58827 -7.2621e-19)
(22.9854 -4.53983 1.31145e-18)
(22.8969 -4.48915 -1.29701e-18)
(22.8071 -4.4364 8.82229e-19)
(22.7162 -4.38166 0)
(22.6245 -4.32513 0)
(22.5318 -4.26746 0)
(22.4371 -4.20862 -2.18458e-19)
(22.3411 -4.14289 0)
(17.1989 -2.49845 -1.54121e-19)
(20.2767 -3.47453 0)
(22.4077 -4.26579 -8.06611e-20)
(23.1411 -4.52668 9.51466e-20)
(23.3956 -4.59383 2.03179e-20)
(23.5271 -4.62747 -1.82989e-20)
(23.5854 -4.64196 -9.20432e-21)
(23.5947 -4.64294 1.61005e-19)
(23.5718 -4.63403 -1.3702e-19)
(23.5279 -4.61776 2.41226e-20)
(23.4701 -4.59586 1.37817e-21)
(23.4031 -4.56946 2.90159e-20)
(23.3299 -4.53932 2.08838e-19)
(23.2524 -4.50609 -2.62064e-19)
(23.172 -4.47017 1.48835e-19)
(23.0896 -4.43187 -7.91187e-20)
(23.0056 -4.39144 8.35525e-20)
(22.9206 -4.34906 -5.71666e-22)
(22.8347 -4.30487 0)
(22.7481 -4.25899 -3.02547e-19)
(22.6609 -4.21155 3.90191e-19)
(22.5728 -4.16289 0)
(22.4826 -4.11255 -4.49509e-19)
(22.3904 -4.05696 4.4356e-19)
(17.5236 -2.42217 1.17729e-19)
(20.4043 -3.31074 2.00767e-20)
(22.5231 -4.09234 -8.48073e-20)
(23.311 -4.38812 5.75873e-20)
(23.5257 -4.44844 1.45502e-20)
(23.6171 -4.4741 0)
(23.6453 -4.48353 -1.25036e-19)
(23.6331 -4.48205 1.16676e-19)
(23.5955 -4.47269 0)
(23.542 -4.45755 -2.41976e-19)
(23.4783 -4.43794 1.785e-19)
(23.408 -4.41476 2.63663e-19)
(23.3334 -4.3886 -2.53476e-19)
(23.2561 -4.35994 -3.02394e-19)
(23.177 -4.3291 1.3762e-19)
(23.0967 -4.29632 -2.56654e-19)
(23.0157 -4.2618 6.81146e-19)
(22.9342 -4.22568 -1.52994e-19)
(22.8523 -4.18807 -4.55977e-19)
(22.7702 -4.14907 -5.0375e-19)
(22.6876 -4.10882 3.97643e-19)
(22.6043 -4.0674 -6.52626e-19)
(22.5194 -4.02447 4.33106e-19)
(22.4333 -3.97982 2.362e-19)
(17.796 -2.35679 -1.06925e-19)
(20.541 -3.18828 -1.63932e-21)
(22.6087 -3.94546 0)
(23.4274 -4.26408 0)
(23.6116 -4.32144 -5.64112e-21)
(23.6715 -4.34126 1.04388e-19)
(23.6772 -4.3472 -2.40373e-19)
(23.6498 -4.34412 -4.25398e-20)
(23.6023 -4.33464 1.6619e-19)
(23.5425 -4.32043 2.76049e-20)
(23.4751 -4.30262 -2.55338e-19)
(23.403 -4.28186 5.19677e-19)
(23.3281 -4.2587 -1.24023e-19)
(23.2515 -4.23351 0)
(23.174 -4.20657 7.85468e-20)
(23.0961 -4.17803 3.47533e-19)
(23.0181 -4.14807 -3.37587e-19)
(22.9401 -4.11683 1.83985e-19)
(22.8622 -4.0844 9.61458e-20)
(22.7843 -4.05092 1.00378e-19)
(22.7062 -4.01654 0)
(22.6277 -3.98126 3.28373e-19)
(22.5485 -3.94494 -2.25859e-19)
(22.4685 -3.90915 0)
(18.0198 -2.29362 -2.04797e-21)
(20.6648 -3.08496 -3.11167e-20)
(22.6734 -3.81588 -5.60831e-21)
(23.5047 -4.14865 0)
(23.6678 -4.20793 4.55218e-20)
(23.7038 -4.22484 -5.1035e-20)
(23.6931 -4.22897 0)
(23.6548 -4.22516 0)
(23.6003 -4.21583 0)
(23.5363 -4.20253 -2.74114e-19)
(23.4666 -4.18616 1.70104e-19)
(23.3936 -4.16733 2.89419e-19)
(23.3188 -4.14648 -4.24e-19)
(23.2432 -4.12402 0)
(23.1675 -4.10011 3.4225e-19)
(23.0919 -4.07486 -3.31759e-19)
(23.0167 -4.04844 -9.09048e-20)
(22.942 -4.021 -9.4206e-20)
(22.8676 -3.9926 9.88072e-20)
(22.7935 -3.96348 -3.35515e-23)
(22.7193 -3.93383 0)
(22.6452 -3.90361 2.28028e-19)
(22.5713 -3.87268 6.82667e-21)
(22.4971 -3.84337 3.6673e-19)
(18.2326 -2.23887 -2.25617e-20)
(20.7974 -3.00409 -1.87671e-20)
(22.7423 -3.71563 4.3706e-20)
(23.5637 -4.05466 2.75787e-20)
(23.7059 -4.11256 -2.41909e-20)
(23.723 -4.12506 8.28582e-20)
(23.6997 -4.12697 -1.05445e-19)
(23.6532 -4.12222 -5.49811e-20)
(23.5935 -4.11288 1.53234e-19)
(23.5262 -4.10026 0)
(23.4549 -4.08502 1.32263e-19)
(23.3814 -4.0676 0)
(23.3068 -4.04854 2.34953e-19)
(23.2322 -4.02829 -3.22416e-19)
(23.1583 -4.00684 7.71032e-20)
(23.085 -3.98415 -1.84318e-19)
(23.0124 -3.96051 8.00692e-20)
(22.9407 -3.93605 1.87874e-19)
(22.8695 -3.91084 -1.00917e-19)
(22.7987 -3.88516 -1.05294e-19)
(22.7281 -3.85933 -1.09726e-19)
(22.6579 -3.83333 -1.14495e-19)
(22.5891 -3.80684 0)
(22.5204 -3.78206 -1.25102e-19)
(18.3431 -2.167 -5.11578e-22)
(20.836 -2.89746 3.57632e-20)
(22.741 -3.59283 -4.75966e-21)
(23.58 -3.94964 -2.95765e-20)
(23.7276 -4.02117 6.28759e-21)
(23.7344 -4.0353 7.57451e-20)
(23.7025 -4.03676 6.15925e-20)
(23.6501 -4.03174 -1.94971e-19)
(23.5865 -4.02274 4.85434e-20)
(23.5171 -4.0111 0)
(23.4451 -3.99705 -6.76846e-20)
(23.3713 -3.98073 0)
(23.2968 -3.96324 -7.98081e-20)
(23.223 -3.94515 0)
(23.1509 -3.92587 8.67607e-20)
(23.0795 -3.90506 0)
(23.0088 -3.88358 0)
(22.9396 -3.86142 0)
(22.8708 -3.83838 -3.16484e-19)
(22.8024 -3.81521 2.10092e-19)
(22.7347 -3.79239 -2.29894e-19)
(22.6683 -3.77017 5.84275e-19)
(22.6046 -3.74766 -2.38116e-19)
(22.5415 -3.72685 1.26949e-19)
(18.7108 -2.2096 -4.0349e-20)
(21.1271 -2.93818 7.23529e-21)
(22.9016 -3.62103 5.65818e-21)
(23.6588 -3.94481 0)
(23.7552 -3.9729 2.3851e-20)
(23.7424 -3.96543 0)
(23.7009 -3.96046 -9.88519e-20)
(23.6416 -3.95326 -1.00858e-20)
(23.5731 -3.94392 0)
(23.5007 -3.93302 1.39574e-19)
(23.4281 -3.91939 -1.34e-19)
(23.3535 -3.90307 -7.76269e-20)
(23.278 -3.88675 8.04939e-20)
(23.2045 -3.87074 8.66522e-20)
(23.1355 -3.85302 9.51139e-20)
(23.066 -3.83303 -1.82343e-19)
(22.9971 -3.81334 -9.96463e-20)
(22.9316 -3.79321 1.08106e-19)
(22.8659 -3.77191 1.18772e-19)
(22.8004 -3.75117 -4.46947e-19)
(22.7354 -3.73111 2.25256e-19)
(22.671 -3.71201 -1.18153e-19)
(22.6136 -3.69266 0)
(22.5539 -3.67535 -2.60674e-19)
(0.0338971 1.80939 -5.44495e-19)
(1.06564 2.06594 -2.12006e-17)
(2.64725 2.78226 2.86994e-19)
(4.34437 3.70545 4.26742e-18)
(6.05922 4.64239 0)
(7.77364 5.61485 -6.91752e-20)
(9.45297 6.62758 0)
(11.095 7.6381 -4.75942e-20)
(12.683 8.60953 7.97439e-20)
(14.1912 9.5069 0)
(15.5904 10.3012 -8.34187e-19)
(16.8551 10.9693 9.35094e-19)
(17.9656 11.494 4.83849e-20)
(18.9101 11.8643 0)
(19.6875 12.078 0)
(20.3064 12.1407 -3.29019e-19)
(20.7843 12.0672 3.59595e-19)
(21.1455 11.8785 -1.70297e-19)
(21.4173 11.6006 -3.34501e-19)
(21.626 11.2599 3.04765e-19)
(21.7941 10.8809 0)
(21.9381 10.4832 -1.68354e-19)
(22.0685 10.0803 4.99653e-20)
(22.1978 9.67151 0)
(-9.63139 2.34192 -3.67027e-19)
(-8.97786 2.26145 -5.22728e-19)
(-7.85492 2.19815 0)
(-6.52877 2.30346 -5.41082e-18)
(-4.97163 2.54052 8.21907e-18)
(-3.11277 2.88109 -3.02878e-18)
(-0.954796 3.32271 0)
(1.40805 3.88198 -2.23353e-18)
(3.90833 4.5596 1.8131e-18)
(6.46272 5.34613 -1.39469e-18)
(8.98285 6.21875 1.42446e-18)
(11.3929 7.13698 -1.35304e-19)
(13.6277 8.05055 -1.12284e-19)
(15.6327 8.90549 8.54517e-19)
(17.3674 9.652 -7.90165e-19)
(18.8087 10.2496 0)
(19.9535 10.6724 -6.81063e-19)
(20.819 10.9112 1.12061e-18)
(21.4407 10.9747 -4.99658e-19)
(21.8663 10.8861 -1.26842e-19)
(22.1477 10.6783 0)
(22.3333 10.3866 3.88025e-19)
(22.4623 10.0442 -2.03203e-19)
(22.5666 9.65981 0)
(-4.56681 1.37626 5.24126e-19)