/*--------------------------------*- C++ -*----------------------------------*\
| =========                 |                                                 |
| \\      /  F ield         | OpenFOAM: The Open Source CFD Toolbox           |
|  \\    /   O peration     | Version:  2.3.0                                 |
|   \\  /    A nd           | Web:      www.OpenFOAM.org                      |
|    \\/     M anipulation  |                                                 |
\*---------------------------------------------------------------------------*/
FoamFile
{
    version     2.0;
    format      ascii;
    class       volVectorField;
    location    "5000";
    object      U;
}
// * * * * * * * * * * * * * * * * * * * * * * * * * * * * * * * * * * * * * //

dimensions      [0 1 -1 0 0 0 0];

internalField   nonuniform List<vector> 
39563
(
(22.7606 8.4108 2.54522e-21)
(22.7011 8.595 0)
(22.6404 8.78361 6.32534e-21)
(22.5772 8.9738 0)
(22.5115 9.16651 -1.80971e-20)
(22.4428 9.36189 1.14496e-20)
(22.3708 9.56006 1.78983e-20)
(22.2954 9.76117 2.70223e-21)
(22.2162 9.96541 -2.08034e-20)
(22.1327 10.173 8.52449e-22)
(22.0449 10.3841 0)
(21.9523 10.5991 -6.27791e-20)
(21.8547 10.8182 -1.136e-20)
(21.7517 11.0419 6.9792e-20)
(21.6431 11.2706 0)
(21.5285 11.5048 8.05078e-21)
(21.4079 11.7448 -9.53713e-20)
(21.2806 11.9911 1.98788e-19)
(21.1464 12.2441 -1.03724e-19)
(21.0045 12.5041 1.10422e-20)
(20.8545 12.7712 -1.24059e-19)
(20.695 13.0454 1.20039e-19)
(20.5248 13.3263 0)
(20.3422 13.6133 1.53377e-19)
(20.1447 13.9055 -1.50326e-19)
(19.9297 14.2013 1.69978e-19)
(19.6936 14.499 1.19258e-20)
(19.4321 14.7963 -3.312e-19)
(19.1398 15.0908 1.76875e-19)
(18.8098 15.38 7.4175e-21)
(18.4338 15.6615 7.96985e-21)
(18.0022 15.9333 0)
(17.5033 16.1931 8.96374e-20)
(16.9231 16.4392 -1.53837e-19)
(16.2449 16.6702 7.39519e-20)
(15.4491 16.8858 0)
(14.5138 17.0871 0)
(13.4136 17.2742 0)
(12.1147 17.4323 1.24554e-20)
(10.5814 17.5354 1.7215e-20)
(8.81717 17.6351 -1.23922e-19)
(6.87347 17.8827 3.50413e-19)
(4.73289 17.9657 -2.12558e-19)
(22.5763 8.36716 1.49609e-20)
(22.5158 8.53277 0)
(22.4537 8.70203 -9.80554e-21)
(22.3891 8.8717 -7.64894e-21)
(22.3219 9.0432 2.52354e-20)
(22.2517 9.21672 -1.69209e-20)
(22.1785 9.3924 -2.70575e-22)
(22.1019 9.57035 1.21645e-22)
(22.0216 9.75067 1.61536e-20)
(21.9374 9.93345 -2.01301e-20)
(21.8489 10.1188 -1.55006e-20)
(21.7558 10.3069 1.47007e-20)
(21.6574 10.4979 -4.84007e-21)
(21.5535 10.6919 0)
(21.4435 10.8891 0)
(21.3268 11.0898 0)
(21.2029 11.2942 -2.37916e-20)
(21.0711 11.5027 1.93155e-20)
(20.9308 11.7156 0)
(20.7811 11.9333 0)
(20.6212 12.1561 0)
(20.4501 12.3846 0)
(20.2664 12.6191 0)
(20.0687 12.86 9.74946e-22)
(19.8554 13.1079 3.72662e-20)
(19.6245 13.3628 -4.29144e-20)
(19.3741 13.6249 0)
(19.1015 13.894 -6.55142e-21)
(18.8042 14.1695 -8.02308e-20)
(18.4789 14.4502 8.23749e-20)
(18.1223 14.7343 0)
(17.7304 15.0186 0)
(17.2994 15.2987 0)
(16.8255 15.5688 1.63947e-20)
(16.3044 15.8202 1.95006e-20)
(15.7329 16.0421 0)
(15.1082 16.2203 -4.21859e-19)
(14.4287 16.3371 9.91542e-19)
(13.6946 16.3693 -9.04032e-19)
(12.9119 16.2871 7.4341e-19)
(12.0973 16.0593 -4.40127e-19)
(11.2605 15.655 0)
(10.3843 15.0428 7.16143e-19)
(22.4156 8.32303 2.26023e-20)
(22.3517 8.46993 -2.07823e-20)
(22.2874 8.62046 2.85927e-20)
(22.2205 8.77167 2.05881e-20)
(22.1508 8.92456 -7.5673e-21)
(22.078 9.07915 -2.81515e-20)
(22.0019 9.23556 4.08791e-20)
(21.9226 9.39385 0)
(21.8396 9.55407 0)
(21.7528 9.71628 -3.16458e-21)
(21.6617 9.8806 0)
(21.5659 10.0471 5.18384e-20)
(21.4653 10.2159 -4.06551e-20)
(21.3593 10.3872 -7.70701e-21)
(21.2476 10.5609 4.17952e-20)
(21.1295 10.7371 -4.16319e-20)
(21.0046 10.916 5.10636e-20)
(20.8721 11.0978 -4.63891e-20)
(20.7315 11.2824 -7.28309e-20)
(20.582 11.47 1.41982e-19)
(20.423 11.6606 -6.86761e-20)
(20.2534 11.8542 0)
(20.072 12.0507 9.40022e-20)
(19.8777 12.25 -9.64342e-20)
(19.6687 12.4518 -3.50081e-21)
(19.4434 12.6556 8.79252e-21)
(19.1998 12.861 1.3211e-19)
(18.9355 13.0669 -2.88544e-19)
(18.6485 13.2724 1.52675e-19)
(18.336 13.4758 1.89558e-19)
(17.995 13.6749 2.02179e-20)
(17.6225 13.867 -2.22639e-19)
(17.2154 14.0482 1.96221e-20)
(16.7709 14.2141 6.47235e-21)
(16.2866 14.3591 -4.42813e-20)
(15.7611 14.4759 0)
(15.1941 14.5565 -1.33025e-20)
(14.588 14.5911 0)
(13.9477 14.5692 0)
(13.283 14.4795 -3.80258e-19)
(12.61 14.3115 8.18906e-19)
(11.95 14.0538 -4.37125e-19)
(11.3325 13.6966 3.06197e-19)
(22.2728 8.27707 1.98121e-21)
(22.2104 8.40662 3.24551e-20)
(22.1458 8.5403 -3.00727e-20)
(22.0787 8.67528 -4.37667e-20)
(22.009 8.81188 2.17331e-20)
(21.9364 8.95001 2.73489e-20)
(21.8608 9.08967 -5.402e-20)
(21.782 9.23098 4.08651e-20)
(21.6999 9.37393 6.60213e-20)
(21.6141 9.51852 -5.87305e-20)
(21.5243 9.6648 -9.82351e-21)
(21.43 9.81285 -7.22359e-21)
(21.331 9.96283 0)
(21.2269 10.1148 8.44194e-20)
(21.1174 10.2687 -6.88192e-20)
(21.0018 10.4246 8.71558e-20)
(20.8797 10.5824 -8.78039e-20)
(20.7502 10.7423 -9.36368e-21)
(20.6127 10.9042 -1.02822e-19)
(20.4665 11.0682 1.80655e-19)
(20.311 11.2343 -1.07159e-19)
(20.1454 11.4025 1.21895e-19)
(19.969 11.5724 -1.3082e-19)
(19.7808 11.7439 7.27606e-21)
(19.5796 11.9164 7.96985e-21)
(19.3639 12.0893 -2.02583e-20)
(19.1322 12.2621 0)
(18.883 12.4336 -1.98678e-19)
(18.6147 12.6027 2.15318e-19)
(18.3257 12.7678 2.60083e-19)
(18.0145 12.9266 -5.59483e-19)
(17.6793 13.0764 1.36499e-19)
(17.3186 13.2136 1.49642e-19)
(16.9311 13.3341 -2.31114e-19)
(16.5161 13.4327 3.78498e-21)
(16.0736 13.5035 5.4468e-19)
(15.6049 13.5398 -5.78629e-19)
(15.1128 13.534 2.69358e-19)
(14.6023 13.4788 0)
(14.0812 13.3666 0)
(13.5599 13.1919 0)
(13.0519 12.9516 0)
(12.5736 12.6467 -3.29923e-20)
(22.1484 8.22101 0)
(22.0859 8.34053 -1.72502e-20)
(22.0222 8.46162 2.85253e-20)
(21.9561 8.58309 7.0224e-22)
(21.8873 8.70585 -3.04944e-20)
(21.8158 8.82983 -3.86309e-20)
(21.7413 8.95512 3.12554e-20)
(21.6636 9.08191 -9.26418e-21)
(21.5827 9.21022 0)
(21.4984 9.33999 -3.1891e-20)
(21.4104 9.47118 5.34218e-20)
(21.3181 9.60383 4.62002e-20)
(21.221 9.73817 -4.61341e-20)
(21.119 9.87435 -9.89548e-20)
(21.012 10.0123 -3.81558e-21)
(20.8995 10.1519 9.16229e-20)
(20.781 10.2931 -2.68663e-21)
(20.6557 10.4357 -1.18925e-19)
(20.5227 10.5797 2.76494e-19)
(20.3814 10.7251 -1.12674e-19)
(20.231 10.8719 -1.4242e-19)
(20.0709 11.02 -2.77571e-20)
(19.9003 11.1692 1.29001e-20)
(19.7188 11.3191 3.43845e-19)
(19.5255 11.4691 -8.48885e-20)
(19.319 11.6184 -8.63992e-20)
(19.0978 11.7661 1.46639e-20)
(18.8605 11.9112 0)
(18.6054 12.0527 -1.3672e-19)
(18.3316 12.1889 1.40586e-19)
(18.0378 12.3182 0)
(17.723 12.4379 0)
(17.3867 12.545 0)
(17.0283 12.6359 -2.86297e-20)
(16.6476 12.7064 -3.17462e-20)
(16.2454 12.7516 -3.29576e-20)
(15.8236 12.7664 -3.90163e-20)
(15.3855 12.7451 8.45087e-20)
(14.9358 12.6822 4.75952e-20)
(14.4815 12.5732 0)
(14.0313 12.4145 0)
(13.5957 12.205 2.54624e-19)
(13.186 11.947 -3.23107e-19)
(22.0352 8.17365 1.21374e-20)
(21.9762 8.2785 -1.0818e-20)
(21.9147 8.38735 5.72025e-20)
(21.8505 8.4967 -1.06716e-20)
(21.7836 8.60741 3.53432e-20)
(21.7141 8.71924 -4.59225e-20)
(21.6416 8.83223 -1.31262e-20)
(21.5659 8.94653 1.33318e-20)
(21.4869 9.06236 0)
(21.4049 9.17965 -1.19252e-20)
(21.3195 9.29826 5.36783e-20)
(21.2302 9.418 -1.08727e-19)
(21.1361 9.539 5.51313e-20)
(21.0368 9.66188 1.54877e-20)
(20.9325 9.78663 -1.60518e-20)
(20.8231 9.91298 0)
(20.7084 10.0408 1.5191e-20)
(20.5876 10.1697 -1.82583e-20)
(20.4599 10.2996 2.37072e-21)
(20.3242 10.4304 0)
(20.1796 10.5621 2.14955e-20)
(20.0256 10.6947 2.02208e-20)
(19.8613 10.828 7.31441e-20)
(19.6866 10.9615 -1.22794e-19)
(19.5008 11.095 -2.8038e-20)
(19.3036 11.2275 1.48815e-19)
(19.0938 11.3577 -1.36265e-19)
(18.8698 11.4841 0)
(18.6294 11.6062 0)
(18.3717 11.7223 -1.46611e-19)
(18.0959 11.8309 -1.17352e-20)
(17.8014 11.9301 1.89379e-19)
(17.4884 12.017 0)
(17.1571 12.0885 2.75096e-19)
(16.8073 12.1406 -2.21633e-19)
(16.44 12.1695 3.00426e-19)
(16.0575 12.1712 -2.69191e-19)
(15.6627 12.1409 1.3922e-19)
(15.2599 12.0745 -3.84687e-19)
(14.8548 11.9687 1.50558e-19)
(14.4543 11.8211 0)
(14.0661 11.631 0)
(13.6985 11.4012 3.38113e-19)
(21.938 8.1238 -3.88238e-20)
(21.8808 8.21876 -1.23486e-20)
(21.8212 8.31725 0)
(21.7591 8.41623 1.55027e-21)
(21.6942 8.51664 2.59862e-20)
(21.6273 8.61825 -4.03086e-20)
(21.5574 8.72073 -4.34239e-20)
(21.4841 8.82429 4.27879e-20)
(21.4071 8.92949 -1.52241e-20)
(21.3272 9.0363 0)
(21.2441 9.14463 0)
(21.1579 9.2539 -1.62427e-20)
(21.0673 9.36371 0)
(20.9707 9.47526 -1.55862e-20)
(20.8692 9.58892 1.61606e-20)
(20.7626 9.70427 0)
(20.651 9.82118 9.49187e-20)
(20.534 9.93925 -5.78156e-20)
(20.4109 10.058 -1.02655e-19)
(20.2807 10.1773 8.43395e-20)
(20.1419 10.2972 -1.14824e-19)
(19.994 10.4173 9.46647e-20)
(19.8357 10.5381 0)
(19.6671 10.6587 1.39123e-19)
(19.4873 10.7789 -1.17525e-19)
(19.2967 10.8987 -3.03935e-20)
(19.0956 11.0165 0)
(18.883 11.1297 3.80934e-20)
(18.6547 11.2377 0)
(18.4108 11.3396 -2.11136e-20)
(18.1496 11.4331 0)
(17.8701 11.5175 -2.14672e-19)
(17.574 11.5906 2.20544e-19)
(17.2619 11.6492 3.16675e-20)
(16.9341 11.6893 -1.41146e-19)
(16.5913 11.7079 -9.85869e-21)
(16.2358 11.7022 1.5835e-19)
(15.871 11.6676 0)
(15.5002 11.601 1.5274e-19)
(15.1289 11.4999 -9.91357e-20)
(14.7626 11.3621 0)
(14.4073 11.1865 -6.10744e-20)
(14.0679 10.9761 -6.49594e-20)
(21.85 8.07714 -7.64041e-22)
(21.7963 8.16268 -3.03864e-20)
(21.7393 8.25188 2.93756e-20)
(21.68 8.34162 -1.42862e-20)
(21.6169 8.43324 4.49849e-20)
(21.5527 8.52636 -3.02895e-20)
(21.4859 8.62003 0)
(21.4159 8.71426 3.18078e-20)
(21.341 8.81017 -1.63291e-20)
(21.2634 8.90784 0)
(21.1822 9.00734 -1.69573e-20)
(21.099 9.10838 1.6315e-20)
(21.0125 9.20885 -1.76893e-20)
(20.9185 9.31101 0)
(20.8196 9.41576 0)
(20.7154 9.52183 -9.87828e-20)
(20.6062 9.62954 3.99571e-20)
(20.4921 9.73863 -1.07393e-19)
(20.3727 9.84866 8.71655e-20)
(20.2475 9.95847 0)
(20.1136 10.069 -1.00843e-19)
(19.9721 10.1795 1.02456e-19)
(19.8193 10.2904 -1.13717e-19)
(19.6571 10.4016 8.65424e-20)
(19.4833 10.5111 -7.77555e-22)
(19.2978 10.6197 0)
(19.1016 10.7282 0)
(18.8998 10.8315 -7.69874e-20)
(18.6818 10.9291 0)
(18.4502 11.0215 0)
(18.2037 11.1041 0)
(17.9369 11.177 0)
(17.6545 11.2399 0)
(17.3579 11.2893 -3.14375e-20)
(17.0481 11.3208 0)
(16.7238 11.3322 7.53066e-20)
(16.3883 11.3223 8.19179e-20)
(16.0466 11.2855 8.89911e-20)
(15.699 11.2192 1.99828e-19)
(15.3523 11.1223 -3.59279e-19)
(15.0119 10.993 0)
(14.6838 10.8276 -6.3091e-20)
(14.3637 10.631 3.14176e-19)
(21.7653 8.03377 -1.54371e-20)
(21.7182 8.11087 1.56087e-20)
(21.6647 8.19196 -1.67233e-20)
(21.6108 8.27299 0)
(21.5501 8.35665 0)
(21.4893 8.44292 0)
(21.4255 8.52946 0)
(21.3607 8.61577 -1.77367e-20)
(21.2891 8.70356 -3.4724e-20)
(21.2169 8.7934 1.79913e-20)
(21.1402 8.88434 5.18819e-20)
(21.0623 8.97871 -1.89736e-20)
(20.9863 9.06926 1.79627e-20)
(20.8959 9.16214 3.80757e-20)
(20.8007 9.26135 -3.80811e-20)
(20.7006 9.35976 -1.87834e-21)
(20.5955 9.45932 -1.90278e-21)
(20.4856 9.56017 -1.99439e-21)
(20.3703 9.66331 4.50303e-20)
(20.2533 9.76402 -7.11906e-20)
(20.1225 9.86627 0)
(19.9906 9.96847 0)
(19.8427 10.0701 5.614e-20)
(19.69 10.1744 -5.91702e-20)
(19.5233 10.2781 3.04664e-20)
(19.3424 10.3777 -1.04359e-19)
(19.1441 10.4766 1.09547e-19)
(18.9565 10.571 3.90663e-20)
(18.7468 10.6584 4.48056e-20)
(18.5248 10.7453 -4.77049e-20)
(18.296 10.8204 0)
(18.0385 10.8846 5.60389e-20)
(17.7649 10.9399 0)
(17.4802 10.9826 6.38587e-20)
(17.1876 11.0062 -1.3324e-19)
(16.8774 11.0105 2.57444e-21)
(16.5521 10.9999 -2.49499e-19)
(16.2276 10.9638 1.71505e-19)
(15.8931 10.8974 -1.93513e-19)
(15.5586 10.8048 9.588e-20)
(15.2324 10.6863 -3.97272e-21)
(14.9335 10.5252 0)
(14.6248 10.3377 -1.25736e-19)
(2.57155 16.6749 0)
(2.82941 14.8325 0)
(3.29016 13.3608 5.81052e-19)
(3.79162 12.1869 -3.84903e-19)
(4.2888 11.2233 1.04412e-21)
(4.76962 10.4088 -6.76392e-20)
(5.23674 9.71512 -2.56701e-19)
(5.68647 9.11618 -2.52834e-19)
(6.11634 8.5946 4.12543e-19)
(6.52502 8.1366 -9.11949e-19)
(6.9119 7.73126 1.8245e-18)
(7.27741 7.36972 -7.85294e-19)
(7.62229 7.04483 1.0193e-19)
(7.94754 6.75073 0)
(8.25457 6.48282 0)
(8.54488 6.23723 0)
(8.81995 6.01094 1.48958e-18)
(9.08098 5.80109 -9.43326e-20)
(9.32933 5.60548 -1.31282e-18)
(9.56621 5.42218 0)
(9.79285 5.24978 -1.15742e-18)
(10.0102 5.08692 1.20987e-18)
(10.2191 4.93227 1.02623e-18)
(10.4204 4.78499 -1.00889e-18)
(10.6148 4.64418 1.40714e-19)
(10.803 4.50918 2.82083e-19)
(10.9854 4.37934 0)
(11.1625 4.25408 1.34782e-19)
(11.3349 4.13307 1.07097e-18)
(11.5027 4.01584 -2.1299e-18)
(11.6664 3.90202 9.29164e-19)
(11.8261 3.79137 -1.33628e-19)
(11.9822 3.68365 0)
(12.1348 3.57867 -2.5747e-19)
(12.284 3.47622 -5.28214e-21)
(12.4301 3.37617 0)
(12.5731 3.27836 5.08533e-19)
(12.7133 3.18277 0)
(12.8508 3.08928 -2.46066e-19)
(12.9857 2.99764 -2.45155e-19)
(13.1182 2.90724 2.36751e-19)
(13.2485 2.81837 -2.30305e-19)
(13.3812 2.75129 4.26798e-19)
(9.50679 14.2467 -7.24266e-19)
(8.8942 13.3607 4.36173e-19)
(8.52571 12.5168 -2.09075e-19)
(8.33068 11.7379 -4.01141e-19)
(8.25381 11.0285 1.15982e-19)
(8.25866 10.3855 -6.13301e-20)
(8.32081 9.80434 4.03823e-19)
(8.42363 9.27969 -2.80096e-19)
(8.5548 8.80602 -4.93156e-20)
(8.70538 8.37782 5.33874e-20)
(8.8689 7.98971 0)
(9.04039 7.63684 0)
(9.21639 7.31481 -1.89001e-19)
(9.39433 7.01974 8.9377e-20)
(9.57236 6.74808 -8.64629e-20)
(9.74925 6.49697 -8.37121e-20)
(9.92407 6.26373 1.34045e-18)
(10.0962 6.04614 -6.73633e-21)
(10.2654 5.84233 -1.26463e-18)
(10.4314 5.6506 -1.22207e-18)
(10.5941 5.46964 1.12186e-18)
(10.7534 5.29819 0)
(10.9094 5.13528 1.20716e-18)
(11.062 4.97997 1.29835e-19)
(11.2114 4.8316 -1.23863e-18)
(11.3578 4.68949 -1.21264e-18)
(11.5012 4.55309 2.13132e-18)
(11.6418 4.4219 -1.18949e-18)
(11.7797 4.29554 -1.28504e-19)
(11.9151 4.17352 -1.03185e-18)
(12.0479 4.05555 1.03421e-18)
(12.1783 3.94129 0)
(12.3065 3.83052 3.81595e-19)
(12.4324 3.72298 -2.53714e-19)
(12.5561 3.61841 2.49367e-19)
(12.6777 3.51667 -3.372e-21)
(12.7974 3.41757 -7.53811e-19)
(12.9153 3.32095 4.95757e-19)
(13.0316 3.2266 4.11252e-22)
(13.1464 3.13417 0)
(13.2601 3.04305 -5.93379e-19)
(13.3734 2.95303 -1.1433e-19)
(13.4895 2.87441 -4.33287e-19)
(10.7968 13.2399 -2.74172e-19)
(10.3759 12.7055 -2.8602e-19)
(10.0625 12.1338 5.37548e-19)
(9.84386 11.5555 -1.72496e-19)
(9.70467 10.9904 9.13189e-20)
(9.63033 10.4497 -9.49002e-20)
(9.60816 9.93958 4.19879e-20)
(9.62729 9.46251 5.04195e-20)
(9.67854 9.01888 -3.68156e-19)
(9.75443 8.6079 3.6433e-19)
(9.84898 8.22766 -8.88691e-20)
(9.95711 7.87604 0)
(10.075 7.55064 5.11174e-21)
(10.1999 7.2491 -1.69714e-19)
(10.3292 6.96911 8.16573e-19)
(10.4611 6.70851 -6.2915e-19)
(10.5945 6.46534 7.61478e-20)
(10.7282 6.23784 0)
(10.8616 6.02443 0)
(10.994 5.82358 0)
(11.1251 5.63416 6.91827e-20)
(11.2545 5.455 0)
(11.3822 5.28515 0)
(11.508 5.12371 9.22412e-19)
(11.6318 4.96999 -1.04518e-18)
(11.7539 4.82331 0)
(11.874 4.68301 5.08036e-19)
(11.9924 4.54854 -5.0532e-19)
(12.1091 4.41945 2.94885e-21)
(12.2241 4.2952 0)
(12.3373 4.17543 2.47722e-19)
(12.4489 4.05977 6.13835e-19)
(12.5588 3.94797 -4.90393e-19)
(12.6671 3.83969 1.21602e-19)
(12.7738 3.73472 -6.09306e-19)
(12.879 3.63287 3.67018e-19)
(12.9827 3.53394 -2.42557e-19)
(13.0852 3.43781 0)
(13.1866 3.34425 -2.3851e-19)
(13.287 3.25317 0)
(13.3869 3.16468 5.84581e-19)
(13.4869 3.07944 -1.15091e-19)
(13.5862 2.98754 -2.22316e-19)
(12.1413 12.284 0)
(11.7673 11.8745 -3.89398e-20)
(11.4574 11.4346 -8.27165e-20)
(11.2113 10.9811 0)
(11.025 10.5267 -2.50917e-21)
(10.8919 10.0809 3.33433e-21)
(10.8048 9.65041 -9.79447e-22)
(10.7565 9.23921 -1.82386e-19)
(10.7406 8.84951 5.41686e-19)
(10.7513 8.48228 -4.37563e-19)
(10.7833 8.13753 4.36571e-19)
(10.8324 7.81447 -2.55299e-19)
(10.895 7.51217 8.40612e-20)
(10.9683 7.2292 8.10721e-19)
(11.0496 6.96428 -7.10667e-19)
(11.137 6.71591 7.78957e-20)
(11.2291 6.48278 -7.59014e-20)
(11.3245 6.26354 -5.13025e-19)
(11.4221 6.05696 4.27137e-22)
(11.5214 5.86194 5.58273e-19)
(11.6214 5.67742 -6.9017e-20)
(11.7218 5.50256 5.34321e-19)
(11.8222 5.33649 -1.05009e-18)
(11.9223 5.17855 5.16972e-19)
(12.022 5.02802 0)
(12.1212 4.88436 -5.00885e-19)
(12.2198 4.74689 6.19626e-19)
(12.3177 4.61515 -1.21576e-19)
(12.4149 4.48861 2.43656e-19)
(12.5112 4.36684 0)
(12.6065 4.24952 -2.07277e-21)
(12.7009 4.13631 -2.40144e-19)
(12.7941 4.02692 1.20716e-19)
(12.8863 3.92108 -1.20439e-19)
(12.9774 3.8186 2.3876e-19)
(13.0675 3.71924 -3.57856e-19)
(13.1566 3.6229 5.95771e-19)
(13.2449 3.52939 2.35484e-19)
(13.3324 3.43852 2.95647e-19)
(13.4193 3.35019 -6.03632e-20)
(13.5056 3.26455 -2.87595e-19)
(13.5913 3.18201 5.68867e-20)
(13.6751 3.09359 4.26652e-19)
(12.8123 11.6454 0)
(12.4813 11.3071 -1.54109e-19)
(12.1974 10.9413 7.56074e-20)
(11.9622 10.5595 -4.15988e-20)
(11.7743 10.171 3.82225e-20)
(11.6299 9.78399 8.70731e-20)
(11.5247 9.40474 -8.76776e-20)
(11.4537 9.03768 0)
(11.4123 8.68553 -1.68777e-19)
(11.396 8.34995 3.36548e-19)
(11.4006 8.03175 0)
(11.4224 7.73097 -2.60962e-21)
(11.4583 7.44724 -3.20474e-19)
(11.5056 7.17991 -8.12611e-20)
(11.562 6.92808 9.16467e-19)
(11.6256 6.69084 -7.18308e-20)
(11.6949 6.46716 1.23909e-21)
(11.7687 6.25599 -6.40507e-19)
(11.8457 6.05641 6.24844e-19)
(11.925 5.8675 -5.43953e-19)
(12.0061 5.68842 0)
(12.0882 5.51847 0)
(12.171 5.35695 0)
(12.2543 5.20328 -5.04263e-19)
(12.3378 5.05686 1.1178e-18)
(12.4214 4.91709 -9.81761e-19)
(12.5051 4.78338 -9.58695e-22)
(12.5886 4.6552 6.02754e-19)
(12.6718 4.53208 -1.20284e-19)
(12.7545 4.41369 0)
(12.8364 4.29969 -1.18872e-19)
(12.9177 4.1898 -2.34167e-19)
(12.9982 4.0837 4.69829e-19)
(13.0779 3.98118 -1.17416e-19)
(13.1567 3.88199 1.16619e-19)
(13.2347 3.78598 -1.16095e-19)
(13.312 3.69302 -1.35178e-21)
(13.3887 3.60288 -1.18264e-19)
(13.4648 3.51538 -5.7811e-20)
(13.5405 3.43035 5.76608e-20)
(13.6157 3.34766 5.68417e-20)
(13.6901 3.26718 -5.62899e-20)
(13.7621 3.18506 -2.10672e-19)
(13.3594 11.136 -2.73282e-19)
(13.0542 10.8405 -1.51136e-19)
(12.7871 10.5212 2.28247e-19)
(12.5598 10.186 0)
(12.372 9.84224 -8.19039e-20)
(12.2211 9.49686 -8.19981e-20)
(12.1042 9.15558 0)
(12.0179 8.82252 1.67891e-19)
(11.9587 8.50049 -8.02418e-20)
(11.9233 8.19136 -1.66826e-19)
(11.9081 7.89604 1.606e-19)
(11.9098 7.61526 -3.9963e-19)
(11.9257 7.34884 -2.37811e-21)
(11.9533 7.09658 3.04411e-19)
(11.9905 6.85801 0)
(12.0356 6.63239 -2.91148e-19)
(12.0873 6.4189 -7.65979e-22)
(12.1439 6.21675 -5.16826e-22)
(12.2044 6.02522 3.39325e-19)
(12.2679 5.84354 -5.34924e-19)
(12.3336 5.67104 5.24081e-19)
(12.4009 5.50713 -6.41381e-19)
(12.4694 5.35133 1.01008e-18)
(12.5388 5.20312 -4.97109e-19)
(12.6091 5.06192 -1.2342e-19)
(12.6803 4.92709 3.62833e-19)
(12.752 4.79802 -7.16774e-19)
(12.8239 4.67418 0)
(12.8957 4.55528 -4.68059e-19)
(12.9671 4.44098 1.04694e-18)
(13.038 4.33109 -2.32713e-19)
(13.1085 4.2252 -5.78185e-19)
(13.1785 4.12306 4.60762e-19)
(13.2478 4.02447 -1.16407e-19)
(13.3164 3.92916 -1.15918e-19)
(13.3843 3.83703 2.29693e-19)
(13.4517 3.74795 -1.18986e-21)
(13.5186 3.6617 -1.15096e-19)
(13.5852 3.57805 5.69864e-20)
(13.6515 3.49686 -5.68896e-20)
(13.7176 3.41787 0)
(13.7829 3.34098 0)
(13.8475 3.26562 0)
(13.7523 10.7356 -2.09464e-19)
(13.4663 10.4691 1.40937e-19)
(13.2139 10.181 1.92447e-21)
(12.9957 9.87801 -7.57652e-20)
(12.8125 9.56551 -7.82482e-20)
(12.6608 9.24973 1.21295e-19)
(12.5389 8.93637 -3.97798e-20)
(12.445 8.62876 0)
(12.3762 8.32974 0)
(12.3296 8.04123 -1.58392e-21)
(12.3025 7.76416 7.78907e-20)
(12.2914 7.49953 0)
(12.2943 7.24749 0)
(12.3088 7.00797 2.99306e-19)
(12.333 6.78094 -2.91584e-19)
(12.3657 6.56563 5.01015e-19)
(12.4051 6.36118 -1.38044e-19)
(12.4498 6.16721 -2.73884e-19)
(12.4986 5.98314 -2.70995e-19)
(12.5507 5.80823 1.30261e-19)
(12.6051 5.64183 2.57839e-19)
(12.6612 5.48371 1.27624e-19)
(12.7186 5.33355 0)
(12.7777 5.19084 0)
(12.8383 5.05482 0)
(12.9002 4.92489 3.57728e-19)
(12.963 4.80027 -1.09356e-22)
(13.0258 4.68061 -2.32488e-19)
(13.0884 4.56592 2.30943e-19)
(13.1509 4.45591 -1.15321e-19)
(13.2131 4.35023 0)
(13.2752 4.24846 0)
(13.3367 4.15045 0)
(13.3976 4.05587 1.12637e-19)
(13.4578 3.96443 -1.13707e-19)
(13.5173 3.87639 -2.26145e-19)
(13.5764 3.79132 -1.04951e-21)
(13.6352 3.70906 0)
(13.6939 3.6294 0)
(13.7522 3.55228 -1.75057e-21)
(13.8104 3.47738 -5.39089e-20)
(13.8674 3.405 5.52636e-20)
(13.9227 3.33732 1.06559e-19)
(14.0638 10.4086 -6.57543e-20)
(13.7915 10.1631 2.10341e-19)
(13.5511 9.89659 1.88554e-21)
(13.3404 9.6177 0)
(13.163 9.32749 7.67743e-20)
(13.0112 9.03487 0)
(12.8863 8.74321 0)
(12.7879 8.45528 7.86639e-20)
(12.713 8.17416 7.72455e-20)
(12.659 7.90208 -2.33059e-19)
(12.6237 7.63953 7.46684e-20)
(12.603 7.3884 -1.49375e-19)
(12.5966 7.1481 -1.46994e-19)
(12.6013 6.91958 -1.47581e-19)
(12.6159 6.70293 2.84724e-19)
(12.6397 6.49651 -1.41096e-19)
(12.6697 6.29975 -1.36602e-19)
(12.7052 6.11337 2.68598e-19)
(12.7452 5.93621 -1.32798e-19)
(12.7886 5.76731 1.28504e-19)
(12.8339 5.60617 -2.53628e-19)
(12.8808 5.45362 0)
(12.9298 5.30918 -1.23383e-19)
(12.9811 5.17172 4.82293e-19)
(13.0343 5.04058 -2.37722e-19)
(13.0892 4.91502 0)
(13.1446 4.7942 -1.48393e-21)
(13.2001 4.6786 1.13843e-19)
(13.2554 4.56834 1.14196e-19)
(13.311 4.46262 -4.51548e-19)
(13.366 4.36095 3.36749e-19)
(13.4212 4.26309 0)
(13.4756 4.16945 1.11196e-19)
(13.5294 4.07841 -1.11668e-19)
(13.5827 3.99066 -2.22566e-19)
(13.6351 3.90703 2.2286e-19)
(13.6875 3.82561 -1.11924e-19)
(13.7399 3.74729 -1.66462e-19)
(13.792 3.67144 -8.28403e-20)
(13.8437 3.59805 2.77644e-20)
(13.8954 3.52643 0)
(13.9455 3.45652 0)
(13.9933 3.39013 -1.05931e-19)
(14.3294 10.1321 1.32043e-19)
(14.063 9.90442 -6.72755e-20)
(13.8294 9.65137 -6.84157e-20)
(13.6209 9.39402 0)
(13.4501 9.11614 0)
(13.2929 8.84935 0)
(13.1663 8.57635 0)
(13.066 8.304 1.52558e-19)
(12.987 8.03675 -1.5486e-19)
(12.9285 7.77749 0)
(12.8877 7.52555 1.51526e-19)
(12.8597 7.28615 1.49522e-19)
(12.8484 7.05467 1.66343e-21)
(12.846 6.8369 -1.43051e-19)
(12.8541 6.62938 -1.40098e-19)
(12.8725 6.42946 1.36672e-19)
(12.8951 6.23887 -1.3334e-19)
(12.9253 6.06093 -2.6598e-19)
(12.9589 5.88926 -6.04304e-22)
(12.9956 5.72467 5.0704e-19)
(13.0336 5.56771 -2.47681e-19)
(13.0736 5.42195 -2.4762e-19)
(13.1159 5.28283 -2.46571e-19)
(13.161 5.14939 2.42872e-19)
(13.2081 5.02215 2.37461e-19)
(13.2574 4.9 -3.46105e-19)
(13.3073 4.78238 -1.1381e-19)
(13.3568 4.67198 -1.10296e-21)
(13.4048 4.56639 -1.13116e-19)
(13.4538 4.46421 1.97185e-22)
(13.501 4.36539 1.12335e-19)
(13.5499 4.27133 0)
(13.5981 4.18294 -1.11382e-19)
(13.6467 4.09369 2.16017e-19)
(13.6939 4.0097 2.21841e-19)
(13.7409 3.93155 -3.34133e-22)
(13.7892 3.85245 -1.05727e-19)
(13.8364 3.77885 1.09749e-19)
(13.8818 3.70632 2.49986e-19)
(13.9264 3.6364 -2.79937e-20)
(13.9715 3.56791 2.81148e-20)
(14.0162 3.50237 -2.72796e-20)
(14.059 3.4381 -4.14624e-22)
(-0.554881 -2.31749 -7.43447e-20)
(-0.728972 -2.30869 7.81645e-20)
(-0.888568 -2.30023 2.63028e-20)
(-1.03374 -2.29337 2.67144e-20)
(-1.16448 -2.28779 -2.70324e-20)
(-1.28092 -2.28328 0)
(-1.38322 -2.27967 -2.74816e-20)
(-1.47159 -2.27682 2.89303e-20)
(-1.54627 -2.27457 0)
(-1.60752 -2.27278 -1.14615e-19)
(-1.65562 -2.27132 7.3648e-20)
(-1.69086 -2.27005 1.4241e-20)
(-1.71353 -2.26885 2.93072e-20)
(-1.72391 -2.26759 1.31546e-19)
(-1.72232 -2.26617 -1.1961e-19)
(-1.70905 -2.26446 -3.05333e-20)
(-1.68441 -2.26233 0)
(-1.64872 -2.25969 3.17872e-20)
(-1.60224 -2.25643 -3.25885e-20)
(-1.54528 -2.25244 1.6751e-20)
(-1.4781 -2.24765 -1.72961e-20)
(-1.40094 -2.24194 -9.01117e-21)
(-1.3141 -2.23526 -9.40092e-21)
(-1.21767 -2.2275 -1.57007e-19)
(-1.11188 -2.21862 1.54707e-19)
(-0.996816 -2.20853 -2.14555e-20)
(-0.872574 -2.19718 0)
(-0.739067 -2.18444 0)
(-0.596186 -2.17022 -9.71586e-20)
(-0.44386 -2.15432 2.08608e-19)
(-0.281774 -2.13641 -6.46087e-21)
(-0.109476 -2.1161 -1.30017e-19)
(0.0738145 -2.0926 -9.13623e-21)
(0.269288 -2.06487 -7.31079e-20)
(0.47917 -2.03131 9.159e-20)
(0.707199 -1.98935 4.53148e-20)
(0.960393 -1.93523 -5.06596e-20)
(1.25257 -1.8635 3.12219e-20)
(1.61257 -1.76654 -2.62731e-22)
(2.10274 -1.63241 -1.85587e-19)
(2.86422 -1.44315 3.93614e-19)
(4.25474 -1.1879 -2.33993e-19)
(7.34643 -1.03717 8.81952e-19)
(-0.581305 -2.34339 5.34109e-20)
(-0.739894 -2.33594 -4.15724e-20)
(-0.886284 -2.32881 1.41257e-20)
(-1.02073 -2.32288 2.89956e-20)
(-1.14326 -2.31792 0)
(-1.25392 -2.31378 0)
(-1.35277 -2.3103 -5.75316e-20)
(-1.43994 -2.30736 1.16977e-19)
(-1.51555 -2.30482 -2.88071e-20)
(-1.57972 -2.30258 -5.8168e-20)
(-1.63259 -2.30055 7.35464e-20)
(-1.67428 -2.29865 0)
(-1.70491 -2.29678 -1.33401e-19)
(-1.72458 -2.29486 1.20988e-19)
(-1.73339 -2.29282 -1.21493e-19)
(-1.73143 -2.29058 1.55018e-19)
(-1.71877 -2.28805 0)
(-1.69547 -2.28514 -1.27303e-19)
(-1.66157 -2.28175 1.47618e-19)
(-1.61711 -2.27779 1.5086e-19)
(-1.56208 -2.27311 7.30752e-21)
(-1.49645 -2.26761 -1.51895e-19)
(-1.42015 -2.2611 0)
(-1.33304 -2.25341 1.52072e-19)
(-1.23493 -2.2443 -1.5932e-19)
(-1.12556 -2.2335 1.00176e-20)
(-1.00455 -2.2207 1.07731e-20)
(-0.871317 -2.20544 1.13161e-20)
(-0.725123 -2.18718 0)
(-0.564908 -2.16523 0)
(-0.389095 -2.13871 1.32409e-20)
(-0.195477 -2.10639 -1.43686e-20)
(0.0191191 -2.06658 0)
(0.259281 -2.01717 0)
(0.532431 -1.95524 -1.81766e-20)
(0.850164 -1.87695 0)
(1.23031 -1.77757 1.0887e-20)
(1.70221 -1.65153 -4.79448e-20)
(2.31682 -1.4936 0)
(3.1666 -1.30202 1.54921e-20)
(4.42117 -1.09055 -1.77044e-19)
(6.39337 -0.922557 -6.23792e-20)
(9.63874 -0.967266 2.73323e-19)
(-0.60601 -2.36047 -5.4772e-20)
(-0.752807 -2.35309 -1.42016e-20)
(-0.88927 -2.34615 1.45619e-20)
(-1.01551 -2.34026 -2.87543e-20)
(-1.13143 -2.33527 3.0007e-20)
(-1.23699 -2.33102 3.01446e-20)
(-1.33216 -2.32736 3.02363e-20)
(-1.41697 -2.32414 -2.91883e-20)
(-1.49147 -2.32125 -2.92487e-20)
(-1.55573 -2.31859 -5.93274e-20)
(-1.60974 -2.31605 6.01586e-20)
(-1.65353 -2.31352 -7.50069e-20)
(-1.68713 -2.31091 4.53065e-20)
(-1.71054 -2.30811 6.04043e-20)
(-1.72375 -2.30501 -6.16392e-20)
(-1.72671 -2.30152 6.20816e-20)
(-1.71936 -2.2975 6.1649e-20)
(-1.70163 -2.29281 -1.60153e-19)
(-1.6734 -2.28732 1.65547e-20)
(-1.63452 -2.28087 -1.6474e-20)
(-1.5848 -2.27327 0)
(-1.52398 -2.2643 8.67069e-21)
(-1.45171 -2.25374 0)
(-1.36759 -2.24128 0)
(-1.27101 -2.22656 0)
(-1.1613 -2.20914 7.87836e-20)
(-1.03755 -2.18846 -1.64686e-19)
(-0.898562 -2.16384 8.66519e-20)
(-0.742791 -2.13444 -9.02452e-20)
(-0.568277 -2.09922 3.01055e-22)
(-0.372274 -2.0569 2.01594e-19)
(-0.150968 -2.00595 -1.06934e-19)
(0.100957 -1.9444 0)
(0.390871 -1.86991 -1.56176e-20)
(0.728974 -1.77993 -6.38932e-22)
(1.13097 -1.6713 -1.84566e-20)
(1.62021 -1.541 -1.05736e-20)
(2.23326 -1.38655 9.22444e-21)
(3.02743 -1.20864 -2.69313e-20)
(4.09328 -1.01665 6.27566e-20)
(5.57088 -0.841091 0)
(7.66325 -0.755883 2.40436e-20)
(10.6057 -0.912969 -3.3166e-20)
(-0.626882 -2.37171 -2.88476e-20)
(-0.762197 -2.36412 0)
(-0.889 -2.35703 -2.31389e-22)
(-1.00718 -2.35082 2.35807e-22)
(-1.11659 -2.34537 -4.47613e-20)
(-1.21704 -2.34055 -3.00123e-20)
(-1.30844 -2.33615 -4.53334e-20)
(-1.39078 -2.33202 0)
(-1.46406 -2.32802 0)
(-1.52825 -2.32405 0)
(-1.58328 -2.32004 0)
(-1.62909 -2.31587 1.50952e-20)
(-1.66558 -2.31141 7.66291e-20)
(-1.69265 -2.30656 -6.25784e-20)
(-1.71017 -2.30119 0)
(-1.71795 -2.29521 5.80983e-22)
(-1.71579 -2.28845 6.39821e-20)
(-1.70344 -2.28075 1.52958e-20)
(-1.68062 -2.27192 -8.31578e-20)
(-1.64699 -2.26177 0)
(-1.60214 -2.25005 0)
(-1.54561 -2.23649 7.06938e-20)
(-1.47681 -2.22079 -7.34173e-20)
(-1.39505 -2.20256 9.57353e-21)
(-1.29938 -2.18137 9.88911e-21)
(-1.18872 -2.15675 8.01673e-20)
(-1.06164 -2.12801 -1.77572e-19)
(-0.916334 -2.09434 7.67744e-20)
(-0.750678 -2.05474 -1.16112e-20)
(-0.561868 -2.00807 0)
(-0.346192 -1.95302 6.32717e-20)
(-0.0988498 -1.88814 -3.99969e-20)
(0.186586 -1.81172 0)
(0.519108 -1.72181 7.54577e-20)
(0.911334 -1.61621 -8.14537e-20)
(1.38107 -1.49303 8.8511e-20)
(1.95438 -1.35086 -5.90418e-20)
(2.66891 -1.19052 4.34922e-20)
(3.57985 -1.01765 0)
(4.7668 -0.848239 -3.01985e-20)
(6.34085 -0.717807 -4.25081e-20)
(8.44123 -0.694715 4.18042e-20)
(11.1936 -0.895487 -3.13441e-20)
(-0.644077 -2.37781 2.90965e-20)
(-0.769073 -2.36996 0)
(-0.887016 -2.3625 1.54664e-20)
(-0.99772 -2.35577 1.5596e-20)
(-1.101 -2.3497 0)
(-1.19652 -2.34416 -4.68979e-22)
(-1.2841 -2.33892 3.04224e-20)
(-1.36365 -2.33378 -3.12538e-20)
(-1.43515 -2.32856 1.5828e-20)
(-1.49855 -2.3232 -1.58637e-20)
(-1.55374 -2.31766 0)
(-1.60046 -2.31181 0)
(-1.63854 -2.30549 6.28625e-20)
(-1.66783 -2.29855 -6.99815e-22)
(-1.68813 -2.29089 -7.11049e-22)
(-1.69914 -2.28239 -8.1363e-20)
(-1.70048 -2.27289 -6.54923e-20)
(-1.69179 -2.26218 1.16734e-19)
(-1.67265 -2.25002 -8.57773e-20)
(-1.64258 -2.2362 0)
(-1.601 -2.22044 1.80741e-20)
(-1.54718 -2.2024 -1.85173e-20)
(-1.48041 -2.18171 1.90155e-20)
(-1.39976 -2.15794 6.69903e-20)
(-1.30409 -2.13065 -7.9278e-20)
(-1.19197 -2.09935 1.04566e-20)
(-1.06155 -2.06341 1.08473e-20)
(-0.910524 -2.02204 -1.12902e-20)
(-0.736188 -1.97421 1.13286e-20)
(-0.535253 -1.91874 -6.06842e-20)
(-0.303534 -1.85447 3.51914e-22)
(-0.0355153 -1.78012 3.96153e-20)
(0.276235 -1.69434 -1.4527e-20)
(0.641948 -1.59557 0)
(1.07544 -1.48222 -3.33933e-20)
(1.59575 -1.35318 3.54219e-20)
(2.22916 -1.20871 1.03208e-20)
(3.01314 -1.05148 -1.10853e-20)
(3.9986 -0.89 0)
(5.25586 -0.743178 0)
(6.87568 -0.647372 -1.18399e-19)
(8.96397 -0.663682 1.81589e-19)
(11.6066 -0.882615 -1.83256e-19)
(-0.657821 -2.38025 0)
(-0.773545 -2.37172 1.55987e-20)
(-0.883331 -2.36396 -1.53865e-20)
(-0.987087 -2.35667 -7.68184e-21)
(-1.08468 -2.34987 -7.92062e-21)
(-1.17558 -2.34358 1.56123e-20)
(-1.25943 -2.3375 1.56387e-20)
(-1.3361 -2.33136 0)
(-1.40557 -2.32493 -3.18158e-20)
(-1.46787 -2.31813 1.57146e-20)
(-1.52285 -2.31103 -1.62498e-20)
(-1.57005 -2.30354 0)
(-1.60918 -2.29544 6.43909e-20)
(-1.64004 -2.28651 -6.5594e-20)
(-1.66241 -2.27662 1.67462e-20)
(-1.67596 -2.26572 1.69561e-20)
(-1.68011 -2.25366 6.72642e-20)
(-1.67434 -2.24017 -1.20505e-19)
(-1.65812 -2.22495 8.75157e-20)
(-1.63089 -2.20774 7.09514e-20)
(-1.59194 -2.18835 -9.1214e-20)
(-1.54028 -2.1664 3.73689e-20)
(-1.47489 -2.14139 -1.88407e-20)
(-1.39479 -2.11277 0)
(-1.29885 -2.0801 -7.11957e-20)
(-1.18543 -2.04295 3.18818e-20)
(-1.05238 -2.00087 -1.06831e-20)
(-0.896951 -1.95332 2.26312e-20)