/*--------------------------------*- C++ -*----------------------------------*\
| =========                 |                                                 |
| \\      /  F ield         | OpenFOAM: The Open Source CFD Toolbox           |
|  \\    /   O peration     | Version:  2.3.0                                 |
|   \\  /    A nd           | Web:      www.OpenFOAM.org                      |
|    \\/     M anipulation  |                                                 |
\*---------------------------------------------------------------------------*/
FoamFile
{
    version     2.0;
    format      ascii;
    class       volScalarField;
    location    "1000";
    object      p;
}
// * * * * * * * * * * * * * * * * * * * * * * * * * * * * * * * * * * * * * //

dimensions      [0 2 -2 0 0 0 0];

internalField   nonuniform List<scalar> 
38977
(
4.57467e-05
-1.66971
-3.20352
-4.76104
-6.31159
-7.85801
-9.40206
-10.9455
-12.4888
-14.0327
-15.5795
-17.1263
-18.6679
-20.2079
-21.7334
-23.2476
-24.746
-26.2122
-27.6486
-29.0475
-30.3902
-31.6845
-32.8935
-34.0386
-35.1062
-36.0633
-36.9008
-37.6002
-38.115
-38.4273
-38.4531
-38.1594
-37.3735
-36.0565
-33.9991
-31.0021
-26.8938
-21.3764
-13.1446
-0.758818
10.977
14.06
33.0422
6.24545
5.20436
4.22757
3.26721
2.34809
1.46949
0.634345
-0.155134
-0.899044
-1.59545
-2.24458
-2.84123
-3.38594
-3.88175
-4.3174
-4.70155
-5.03642
-5.29697
-5.5105
-5.64452
-5.69551
-5.66123
-5.49833
-5.20173
-4.73918
-4.04249
-3.07667
-1.76279
-0.00939298
2.25956
5.17583
8.90885
13.6301
19.5349
26.8853
35.9418
47.0282
60.4697
76.7111
96.2336
119.185
146.079
177.148
11.8893
11.2162
10.5665
9.95227
9.37541
8.83703
8.34508
7.89473
7.49318
7.14086
6.84415
6.61334
6.44783
6.35777
6.34594
6.42782
6.60832
6.90398
7.31453
7.85825
8.54977
9.40684
10.4446
11.686
13.1476
14.8597
16.8736
19.2085
21.9278
25.0844
28.7446
32.9966
37.939
43.6597
50.295
57.9454
66.7527
76.8206
88.2368
101.03
115.191
130.814
147.718
16.6077
16.469
16.1139
15.7932
15.5145
15.275
15.0892
14.9525
14.8742
14.8537
14.8986
15.0178
15.2122
15.491
15.8551
16.3244
16.8947
17.581
18.3909
19.3447
20.4605
21.7584
23.2504
24.9678
26.9482
29.2082
31.8083
34.7702
38.1733
42.0548
46.4889
51.5442
57.2923
63.8176
71.1957
79.4881
88.7504
99.0112
110.245
122.369
135.22
148.519
161.893
21.1333
21.1369
20.9619
20.8392
20.7582
20.7126
20.7228
20.787
20.9023
21.0735
21.3178
21.6353
22.0327
22.5199
23.0996
23.7839
24.581
25.5031
26.5508
27.7548
29.1163
30.6616
32.4062
34.3612
36.5775
39.0521
41.8386
44.9569
48.4678
52.3998
56.8013
61.73
67.2407
73.3963
80.2389
87.802
96.128
105.197
114.978
125.406
136.312
147.513
158.723
25.1568
25.1962
25.1919
25.2337
25.3006
25.3929
25.5517
25.7658
26.028
26.336
26.7157
27.1723
27.7113
28.3405
29.0609
29.8906
30.837
31.9027
33.0945
34.4456
35.9493
37.644
39.5434
41.6472
44.0112
46.6383
49.5648
52.8112
56.4371
60.4526
64.9117
69.8469
75.3106
81.3354
87.9605
95.1972
103.075
111.527
120.541
130.034
139.852
149.846
159.797
28.6177
28.7577
28.9096
29.0976
29.2686
29.4427
29.7164
30.0703
30.4568
30.8684
31.3311
31.8932
32.5382
33.2582
34.0809
35.0093
36.0693
37.2346
38.5311
39.9748
41.5753
43.3607
45.3415
47.5256
49.9666
52.6635
55.6471
58.9238
62.5666
66.5525
70.9637
75.7763
81.076
86.8743
93.2292
100.087
107.506
115.362
123.693
132.415
141.43
150.521
159.625
31.8038
31.8031
31.9819
32.3266
32.602
32.7817
33.0444
33.5
34.0324
34.5399
35.0316
35.6453
36.3654
37.1426
38.0387
38.989
40.126
41.373
42.7537
44.2562
45.9166
47.7298
49.7616
51.9495
54.3955
57.0981
60.125
63.3738
67.0289
70.9617
75.3197
80.0283
85.1172
90.6525
96.8149
103.333
110.516
117.959
125.769
133.875
142.345
150.807
159.358
34.3696
34.1542
34.2821
34.683
35.2221
35.2532
35.163
35.5274
36.0702
36.4832
36.7379
37.1584
37.8449
38.5921
39.4031
40.1223
41.111
42.2823
43.5504
44.8659
46.3454
47.8907
49.8695
52.0036
54.3544
56.8522
59.7215
62.745
66.2465
70.0884
74.4496
79.223
84.279
89.4432
95.4685
101.755
109.065
116.62
124.384
132.204
140.76
149.095
157.663
130.237
182.02
210.342
228.813
242.344
252.588
260.334
266.163
270.512
273.684
275.932
277.441
278.378
278.814
278.876
278.61
278.088
277.351
276.434
275.367
274.184
272.905
271.55
270.134
268.669
267.168
265.638
264.091
262.531
260.96
259.387
257.81
256.235
254.659
253.085
251.511
249.943
248.377
246.816
245.265
243.734
242.164
240.241
205.855
225.536
240.247
251.613
260.417
267.111
272.066
275.601
277.994
279.475
280.234
280.431
280.183
279.599
278.758
277.723
276.542
275.257
273.896
272.482
271.031
269.558
268.068
266.567
265.064
263.559
262.052
260.547
259.044
257.543
256.045
254.552
253.066
251.585
250.113
248.65
247.197
245.752
244.316
242.893
241.489
240.027
238.194
164.753
180.633
194.811
207.092
217.551
226.326
233.605
239.58
244.428
248.316
251.403
253.808
255.647
257.014
257.983
258.622
258.985
259.115
259.047
258.813
258.436
257.939
257.341
256.65
255.886
255.056
254.17
253.238
252.266
251.26
250.225
249.165
248.085
246.989
245.877
244.754
243.619
242.476
241.325
240.171
239.016
237.78
236.151
174.851
186.951
197.972
207.763
216.315
223.659
229.884
235.088
239.392
242.904
245.734
247.974
249.716
251.036
251.996
252.655
253.062
253.252
253.262
253.12
252.847
252.466
251.993
251.44
250.821
250.145
249.421
248.655
247.854
247.023
246.166
245.287
244.39
243.479
242.554
241.619
240.672
239.715
238.751
237.78
236.806
235.762
234.407
169.683
180.125
189.864
198.732
206.668
213.649
219.714
224.917
229.337
233.052
236.147
238.695
240.77
242.443
243.76
244.778
245.539
246.076
246.423
246.605
246.643
246.557
246.367
246.082
245.72
245.288
244.799
244.259
243.675
243.052
242.395
241.711
241.004
240.277
239.532
238.771
237.997
237.209
236.412
235.609
234.799
233.964
233.199
169.497
178.772
187.478
195.493
202.739
209.188
214.865
219.795
224.04
227.658
230.717
233.275
235.395
237.143
238.552
239.682
240.564
241.234
241.706
242.016
242.184
242.23
242.167
242.013
241.781
241.482
241.124
240.717
240.265
239.773
239.247
238.695
238.118
237.523
236.911
236.285
235.643
234.987
234.317
233.639
232.941
232.247
231.719
168.456
176.936
184.924
192.352
199.104
205.185
210.584
215.311
219.432
222.984
226.023
228.586
230.738
232.56
234.06
235.296
236.307
237.082
237.66
238.085
238.364
238.517
238.561
238.52
238.398
238.211
237.964
237.67
237.329
236.944
236.518
236.065
235.592
235.113
234.619
234.11
233.57
233.008
232.436
231.861
231.26
230.67
230.342
167.622
175.55
183.009
190.029
196.413
202.214
207.387
211.914
215.931
219.432
222.443
224.959
227.088
229
230.613
231.923
233.005
233.813
234.462
234.957
235.276
235.473
235.576
235.603
235.548
235.448
235.297
235.087
234.813
234.48
234.119
233.75
233.39
233.056
232.656
232.215
231.715
231.222
230.745
230.284
229.782
229.294
229.175
165.875
173.649
181.007
187.978
194.236
199.898
204.882
209.231
213.191
216.657
219.627
222.003
224.014
226.091
227.588
228.751
229.883
230.758
231.312
231.684
232.213
232.442
232.551
232.621
232.641
232.683
232.666
232.492
232.23
231.957
231.746
231.573
231.4
231.15
230.729
230.244
229.852
229.583
229.315
229.039
228.606
228.178
228.119
126.395
126.534
126.677
126.811
126.941
127.067
127.186
127.299
127.405
127.505
127.597
127.68
127.756
127.823
127.88
127.928
127.965
127.992
128.007
128.012
128.005
127.986
127.956
127.913
127.859
127.793
127.715
127.626
127.525
127.413
127.29
127.157
127.014
126.863
126.703
126.537
126.365
126.19
126.016
125.849
125.7
125.616
125.791
126.589
126.642
126.656
126.663
126.668
126.669
126.669
126.668
126.665
126.662
126.658
126.655
126.652
126.65
126.649
126.649
126.65
126.653
126.656
126.661
126.667
126.673
126.68
126.687
126.694
126.701
126.707
126.712
126.717
126.72
126.721
126.721
126.721
126.72
126.718
126.718
126.72
126.727
126.74
126.775
126.879
127.153
127.557
127.022
126.978
126.973
126.974
126.982
126.995
127.012
127.032
127.054
127.078
127.104
127.132
127.159
127.188
127.216
127.243
127.268
127.292
127.312
127.33
127.345
127.358
127.368
127.374
127.378
127.379
127.377
127.372
127.365
127.355
127.344
127.331
127.318
127.305
127.294
127.284
127.278
127.278
127.289
127.33
127.459
127.827
128.432
127.254
127.337
127.358
127.382
127.409
127.44
127.474
127.509
127.544
127.581
127.616
127.651
127.687
127.721
127.755
127.788
127.818
127.846
127.871
127.894
127.913
127.929
127.942
127.952
127.96
127.964
127.965
127.963
127.957
127.948
127.936
127.921
127.904
127.886
127.867
127.849
127.833
127.823
127.83
127.879
128.029
128.422
129.072
127.692
127.677
127.706
127.738
127.769
127.803
127.84
127.879
127.916
127.955
127.992
128.028
128.063
128.098
128.134
128.17
128.204
128.235
128.262
128.285
128.304
128.321
128.336
128.348
128.357
128.365
128.369
128.371
128.369
128.362
128.353
128.342
128.327
128.311
128.293
128.275
128.26
128.254
128.27
128.34
128.521
128.934
129.593
128.049
128.026
128.053
128.092
128.124
128.158
128.201
128.248
128.286
128.33
128.374
128.409
128.443
128.479
128.514
128.55
128.588
128.625
128.653
128.675
128.692
128.706
128.717
128.726
128.731
128.736
128.741
128.743
128.74
128.733
128.722
128.709
128.692
128.672
128.651
128.628
128.611
128.606
128.63
128.718
128.931
129.371
130.041
128.282
128.35
128.393
128.45
128.487
128.519
128.572
128.638
128.674
128.725
128.785
128.82
128.852
128.891
128.925
128.961
129.005
129.057
129.094
129.116
129.129
129.137
129.144
129.153
129.15
129.15
129.152
129.159
129.155
129.14
129.12
129.104
129.083
129.057
129.026
128.99
128.958
128.939
128.947
129.015
129.207
129.619
130.256
128.797
128.689
128.74
128.848
128.874
128.85
128.874
128.974
128.984
129.007
129.095
129.124
129.121
129.144
129.156
129.161
129.179
129.254
129.316
129.342
129.349
129.34
129.329
129.34
129.322
129.303
129.294
129.325
129.347
129.342
129.314
129.305
129.288
129.271
129.246
129.208
129.174
129.169
129.201
129.304
129.567
130.044
130.714
129.131
128.825
128.945
129.434
129.776
129.767
129.732
130.052
130.072
130.03
130.237
130.351
130.385
130.471
130.513
130.51
130.45
130.5
130.593
130.652
130.676
130.673
130.618
130.648
130.599
130.533
130.411
130.379
130.37
130.357
130.257
130.206
130.154
130.086
130.024
129.927
129.822
129.717
129.59
129.415
129.326
129.437
129.596
127.387
128.403
129.52
130.448
131.285
132.034
132.703
133.301
133.835
134.315
134.747
135.139
135.497
135.828
136.137
136.429
136.709
136.982
137.251
137.52
137.794
138.073
138.359
138.653
138.955
139.266
139.583
139.906
140.235
140.569
140.906
141.246
141.589
141.932
142.277
142.622
142.966
143.311
143.654
143.996
144.339
144.681
144.985
128.511
128.793
129.268
129.705
130.195
130.699
131.209
131.716
132.216
132.708
133.192
133.666
134.13
134.587
135.036
135.477
135.91
136.336
136.755
137.166
137.569
137.963
138.349
138.726
139.095
139.456
139.809
140.155
140.494
140.826
141.153
141.475
141.792
142.105
142.414
142.721
143.025
143.328
143.628
143.927
144.226
144.523
144.776
129.313
129.654
130.086
130.453
130.867
131.298
131.747
132.208
132.675
133.145
133.614
134.079
134.539
134.994
135.44
135.878
136.306
136.725
137.134
137.532
137.92
138.297
138.663
139.02
139.368
139.707
140.038
140.361
140.678
140.988
141.292
141.591
141.885
142.175
142.462
142.744
143.023
143.299
143.573
143.844
144.114
144.382
144.611
129.902
130.348
130.822
131.234
131.676
132.121
132.575
133.029
133.483
133.932
134.376
134.812
135.238
135.655
136.061
136.456
136.841
137.215
137.578
137.932
138.276
138.612
138.94
139.261
139.575
139.883
140.185
140.482
140.773
141.061
141.344
141.623
141.899
142.171
142.44
142.706
142.969
143.229
143.486
143.741
143.994
144.248
144.486
130.386
130.858
131.325
131.745
132.188
132.629
133.073
133.514
133.952
134.383
134.806
135.221
135.626
136.021
136.406
136.78
137.144
137.498
137.843
138.179
138.506
138.826
139.139
139.445
139.744
140.037
140.324
140.606
140.883
141.154
141.421
141.685
141.944
142.199
142.451
142.699
142.945
143.187
143.427
143.664
143.897
144.13
144.372
130.835
131.336
131.792
132.203
132.63
133.054
133.48
133.904
134.325
134.74
135.148
135.548
135.938
136.32
136.691
137.053
137.405
137.748
138.081
138.405
138.722
139.03
139.332
139.626
139.913
140.194
140.468
140.737
140.999
141.256
141.509
141.758
142.003
142.242
142.478
142.711
142.94
143.165
143.388
143.608
143.824
144.039
144.273
131.069
131.645
132.147
132.599
133.039
133.464
133.882
134.291
134.697
135.097
135.49
135.875
136.251
136.618
136.976
137.324
137.664
137.994
138.313
138.624
138.927
139.223
139.513
139.794
140.069
140.336
140.599
140.855
141.103
141.348
141.588
141.827
142.058
142.282
142.504
142.724
142.939
143.15
143.357
143.563
143.764
143.965
144.188
131.663
132.321
132.815
133.182
133.534
133.888
134.264
134.645
135.027
135.41
135.789
136.161
136.524
136.88
137.226
137.564
137.894
138.212
138.519
138.819
139.113
139.401
139.682
139.952
140.215
140.474
140.731
140.971
141.203
141.435
141.667
141.899
142.114
142.321
142.53
142.74
142.939
143.139
143.329
143.524
143.707
143.896
144.121
130.82
132.061
132.629
133.216
133.675
134.143
134.568
134.923
135.306
135.701
136.065
136.419
136.774
137.12
137.449
137.774
138.102
138.406
138.69
138.976
139.262
139.541
139.816
140.069
140.321
140.573
140.826
141.028
141.251
141.492
141.727
141.961
142.142
142.336
142.556
142.772
142.947
143.144
143.318
143.512
143.68
143.859
144.063
-250.033
-237.811
-225.323
-214.737
-202.903
-189.613
-176.156
-163.201
-150.793
-139.035
-128.003
-117.781
-108.372
-99.7864
-91.9584
-84.8973
-78.5202
-72.7986
-67.6404
-63.0011
-58.8212
-55.0432
-51.6027
-48.4397
-45.505
-42.761
-40.172
-37.7141
-35.3575
-33.0843
-30.8856
-28.7393
-26.6354
-24.571
-22.5347
-20.5222
-18.5291
-16.5481
-14.5777
-12.6134
-10.6438
-8.66746
-6.47073
-179.476
-179.023
-177.129
-174.66
-172.531
-170.786
-168.778
-166.048
-162.481
-158.199
-153.282
-147.81
-141.895
-135.625
-129.085
-122.424
-115.722
-109.102
-102.62
-96.3739
-90.3927
-84.7203
-79.3595
-74.3156
-69.5727
-65.1177
-60.9214
-56.96
-53.2063
-49.636
-46.2353
-42.9822
-39.8587
-36.8539
-33.952
-31.1413
-28.4126
-25.7546
-23.1592
-20.62
-18.1235
-15.6656
-13.051
-188.925
-188.63
-188.6
-188.379
-187.553
-185.979
-183.807
-181.275
-178.438
-175.175
-171.355
-166.985
-162.12
-156.787
-151.05
-144.964
-138.632
-132.125
-125.513
-118.921
-112.396
-106.019
-99.8459
-93.917
-88.2438
-82.8408
-77.6999
-72.8179
-68.1814
-63.7673
-59.5585
-55.5372
-51.6861
-47.9914
-44.4382
-41.0127
-37.7053
-34.5041
-31.3981
-28.381
-25.441
-22.5787
-19.6016
-180.494
-180.355
-180.051
-179.629
-179.1
-178.436
-177.598
-176.54
-175.216
-173.669
-171.905
-169.808
-167.287
-164.26
-160.725
-156.623
-152.016
-146.924
-141.396
-135.554
-129.459
-123.219
-116.946
-110.71
-104.585
-98.6291
-92.8657
-87.3229
-82.0096
-76.9197
-72.0494
-67.3885
-62.9212
-58.6333
-54.5122
-50.545
-46.7221
-43.0308
-39.4602
-36.0025
-32.6472
-29.3969
-26.0063
-180.53
-180.466
-180.397
-180.272
-180.072
-179.772
-179.336
-178.724
-177.905
-176.839
-175.514
-173.932
-172.069
-169.863
-167.293
-164.292
-160.859
-156.95
-152.568
-147.731
-142.484
-136.884
-131.025
-124.982
-118.859
-112.735
-106.675
-100.736
-94.9595
-89.3633
-83.9622
-78.761
-73.7568
-68.9418
-64.306
-59.8394
-55.535
-51.3802
-47.3667
-43.4852
-39.7245
-36.0905
-32.2712
-178.469
-178.41
-178.308
-178.157
-177.957
-177.699
-177.373
-176.963
-176.453
-175.821
-175.039
-174.074
-172.902
-171.488
-169.795
-167.759
-165.359
-162.533
-159.272
-155.525
-151.317
-146.65
-141.568
-136.129
-130.422
-124.525
-118.531
-112.509
-106.54
-100.663
-94.9211
-89.338
-83.9234
-78.6871
-73.6254
-68.7343
-64.0092
-59.4424
-55.0279
-50.7587
-46.6211
-42.6306
-38.4126
-177.708
-177.664
-177.601
-177.508
-177.383
-177.215
-176.998
-176.718
-176.362
-175.915
-175.357
-174.666
-173.813
-172.775
-171.526
-170.021
-168.226
-166.095
-163.602
-160.688
-157.348
-153.55
-149.294
-144.6
-139.518
-134.102
-128.438
-122.596
-116.674
-110.73
-104.828
-99.0186
-93.3262
-87.78
-82.3857
-77.1513
-72.0748
-67.156
-62.3894
-57.7738
-53.2919
-48.9653
-44.3501
-176.744
-176.708
-176.647
-176.561
-176.448
-176.304
-176.123
-175.9
-175.625
-175.29
-174.881
-174.383
-173.773
-173.028
-172.122
-171.029
-169.706
-168.116
-166.224
-163.98
-161.352
-158.307
-154.818
-150.874
-146.491
-141.689
-136.528
-131.062
-125.382
-119.562
-113.671
-107.784
-101.942
-96.1929
-90.5588
-85.0597
-79.7004
-74.4887
-69.4233
-64.5085
-59.7322
-55.1342
-50.2748
-176.036
-176.008
-175.958
-175.888
-175.797
-175.683
-175.541
-175.364
-175.147
-174.884
-174.565
-174.177
-173.706
-173.133
-172.435
-171.592
-170.572
-169.342
-167.868
-166.11
-164.023
-161.575
-158.726
-155.447
-151.728
-147.561
-142.977
-138.003
-132.707
-127.165
-121.435
-115.61
-109.744
-103.901
-98.1184
-92.432
-86.8573
-81.4111
-76.0974
-70.9249
-65.8839
-61.0161
-55.8932
-175.337
-175.313
-175.268
-175.205
-175.125
-175.026
-174.904
-174.755
-174.574
-174.358
-174.099
-173.788
-173.414
-172.962
-172.414
-171.753
-170.952
-169.988
-168.824
-167.429
-165.76
-163.782
-161.453
-158.735
-155.602
-152.031
-148.022
-143.586
-138.752
-133.587
-128.142
-122.496
-116.723
-110.888
-105.048
-99.2514
-93.5276
-87.9039
-82.3923
-77.0062
-71.7413
-66.6461
-61.4288
-174.696
-174.676
-174.636
-174.581
-174.512
-174.427
-174.322
-174.195
-174.042
-173.86
-173.643
-173.385
-173.077
-172.708
-172.262
-171.726
-171.078
-170.298
-169.356
-168.227
-166.871
-165.254
-163.335
-161.077
-158.439
-155.392
-151.913
-148.005
-143.659
-138.925
-133.845
-128.469
-122.886
-117.153
-111.343
-105.511
-99.7043
-93.9581
-88.2967
-82.739
-77.2858
-71.9689
-66.6394
-174.064
-174.047
-174.01
-173.96
-173.898
-173.822
-173.73
-173.619
-173.487
-173.33
-173.144
-172.925
-172.666
-172.356
-171.986
-171.541
-171.006
-170.363
-169.588
-168.658
-167.54
-166.202
-164.605
-162.715
-160.485
-157.886
-154.88
-151.456
-147.588
-143.303
-138.622
-133.585
-128.262
-122.71
-117.006
-111.211
-105.386
-99.5728
-93.8096
-88.1227
-82.5271
-77.049
-71.8325
-173.432
-173.417
-173.384
-173.339
-173.284
-173.217
-173.136
-173.038
-172.922
-172.785
-172.624
-172.434
-172.211
-171.947
-171.632
-171.255
-170.805
-170.263
-169.612
-168.832
-167.894
-166.77
-165.427
-163.829
-161.935
-159.709
-157.112
-154.117
-150.695
-146.844
-142.572
-137.908
-132.893
-127.585
-122.052
-116.359
-110.575
-104.748
-98.9284
-93.1475
-87.4292
-81.7677
-76.5501
-172.787
-172.775
-172.745
-172.705
-172.656
-172.596
-172.523
-172.437
-172.334
-172.213
-172.071
-171.905
-171.71
-171.481
-171.209
-170.885
-170.499
-170.036
-169.481
-168.817
-168.019
-167.062
-165.918
-164.554
-162.932
-161.014
-158.762
-156.138
-153.117
-149.671
-145.8
-141.513
-136.835
-131.812
-126.502
-120.967
-115.278
-109.49
-103.661
-97.8315
-92.0417
-86.2718
-81.0947
-172.129
-172.119
-172.091
-172.055
-172.01
-171.955
-171.89
-171.813
-171.721
-171.613
-171.487
-171.34
-171.168
-170.966
-170.727
-170.445
-170.109
-169.707
-169.228
-168.653
-167.965
-167.141
-166.155
-164.977
-163.574
-161.91
-159.948
-157.646
-154.975
-151.899
-148.403
-144.486
-140.152
-135.439
-130.387
-125.053
-119.506
-113.805
-108.012
-102.175
-96.3493
-90.4955
-85.1303
-171.445
-171.436
-171.411
-171.377
-171.336
-171.287
-171.228
-171.159
-171.077
-170.98
-170.867
-170.736
-170.582
-170.403
-170.193
-169.943
-169.647
-169.295
-168.875
-168.372
-167.772
-167.054
-166.194
-165.167
-163.943
-162.488
-160.767
-158.738
-156.371
-153.622
-150.472
-146.904
-142.909
-138.515
-133.742
-128.643
-123.274
-117.701
-111.983
-106.18
-100.351
-94.4737
-89.0813
-170.731
-170.723
-170.7
-170.669
-170.632
-170.587
-170.534
-170.472
-170.398
-170.311
-170.209
-170.091
-169.953
-169.793
-169.605
-169.383
-169.12
-168.808
-168.437
-167.993
-167.463
-166.831
-166.074
-165.171
-164.093
-162.811
-161.291
-159.493
-157.386
-154.927
-152.086
-148.841
-145.171
-141.09
-136.608
-131.765
-126.604
-121.191
-115.584
-109.842
-104.035
-98.1393
-92.7308
-169.984
-169.976
-169.955
-169.927
-169.893
-169.853
-169.805
-169.748
-169.681
-169.602
-169.511
-169.404
-169.281
-169.137
-168.967
-168.769
-168.533
-168.254
-167.923
-167.527
-167.056
-166.493
-165.822
-165.019
-164.063
-162.924
-161.573
-159.971
-158.087
-155.88
-153.313
-150.362
-146.998
-143.22
-139.027
-134.449
-129.517
-124.29
-118.822
-113.172
-107.411
-101.513
-96.1224
-169.197
-169.191
-169.171
-169.146
-169.115
-169.078
-169.035
-168.984
-168.923
-168.853
-168.77
-168.674
-168.563
-168.432
-168.28
-168.101
-167.889
-167.638
-167.34
-166.985
-166.562
-166.058
-165.457
-164.739
-163.884
-162.865
-161.655
-160.221
-158.526
-156.538
-154.216
-151.528
-148.446
-144.952
-141.043
-136.731
-132.04
-127.018
-121.714
-116.185
-110.503
-104.643
-99.2956
-168.371
-168.366
-168.348
-168.324
-168.296
-168.263
-168.224
-168.178
-168.124
-168.06
-167.985
-167.899
-167.798
-167.68
-167.542
-167.38
-167.189
-166.962
-166.692
-166.372
-165.99
-165.535
-164.993
-164.347
-163.576
-162.659
-161.568
-160.275
-158.744
-156.945
-154.837
-152.384
-149.559
-146.332
-142.694
-138.645
-134.2
-129.395
-124.274
-118.891
-113.316
-107.529
-102.211
-167.505
-167.5
-167.483
-167.462
-167.436
-167.406
-167.371
-167.329
-167.28
-167.223
-167.155
-167.077
-166.986
-166.879
-166.754
-166.607
-166.433
-166.227
-165.983
-165.692
-165.345
-164.933
-164.441
-163.856
-163.157
-162.326
-161.337
-160.166
-158.777
-157.14
-155.221
-152.978
-150.383
-147.401
-144.018
-140.222
-136.025
-131.443
-126.519
-121.3
-115.849
-110.159
-104.705
-166.594
-166.589
-166.573
-166.553
-166.53
-166.503
-166.471
-166.434
-166.39
-166.339
-166.278
-166.208
-166.126
-166.03
-165.916
-165.783
-165.625
-165.437
-165.214
-164.949
-164.633
-164.257
-163.809
-163.275
-162.638
-161.881
-160.981
-159.913
-158.647
-157.152
-155.395
-153.34
-150.95
-148.195
-145.05
-141.496
-137.538
-133.182
-128.462
-123.421
-118.111
-112.548
-106.661
-165.626
-165.623
-165.611
-165.594
-165.575
-165.552
-165.524
-165.491
-165.453
-165.407
-165.353
-165.29
-165.216
-165.129
-165.027
-164.906
-164.762
-164.591
-164.387
-164.145
-163.856
-163.511
-163.101
-162.613
-162.031
-161.338
-160.513
-159.534
-158.375
-157.005
-155.392
-153.502
-151.298
-148.746
-145.82
-142.495
-138.767
-134.634
-130.124
-125.271
-120.122
-114.767
-108.543
-164.624
-164.622
-164.61
-164.595
-164.578
-164.557
-164.532
-164.503
-164.469
-164.428
-164.38
-164.324
-164.258
-164.18
-164.087
-163.977
-163.846
-163.691
-163.504
-163.282
-163.017
-162.701
-162.323
-161.874
-161.338
-160.701
-159.943
-159.043
-157.977
-156.716
-155.23
-153.485
-151.446
-149.08
-146.355
-143.244
-139.736
-135.821
-131.52
-126.857
-121.875
-116.724
-110.643
-163.573
-163.57
-163.56
-163.547
-163.531
-163.513
-163.492
-163.466
-163.436
-163.401
-163.358
-163.308
-163.249
-163.179
-163.096
-162.997
-162.878
-162.735
-162.565
-162.361
-162.117
-161.826
-161.479
-161.064
-160.57
-159.982
-159.282
-158.451
-157.467
-156.302
-154.928
-153.313
-151.423
-149.225
-146.683
-143.77
-140.467
-136.761
-132.662
-128.187
-123.36
-118.336
-112.375
-162.473
-162.471
-162.462
-162.45
-162.437
-162.421
-162.403
-162.381
-162.355
-162.324
-162.287
-162.243
-162.191
-162.129
-162.054
-161.964
-161.856
-161.727
-161.571
-161.383
-161.159
-160.89
-160.569
-160.185
-159.728
-159.184
-158.536
-157.766
-156.854
-155.774
-154.499
-153
-151.242
-149.193
-146.819
-144.09
-140.979
-137.474
-133.57
-129.283
-124.622
-119.732
-113.919
-161.324
-161.323
-161.315
-161.305
-161.294
-161.281
-161.266
-161.247
-161.225
-161.198
-161.166
-161.128
-161.082
-161.027
-160.96
-160.88
-160.782
-160.664
-160.522
-160.35
-160.143
-159.895
-159.598
-159.242
-158.818
-158.312
-157.71
-156.995
-156.147
-155.143
-153.956
-152.56
-150.922
-149.009
-146.788
-144.228
-141.297
-137.981
-134.266
-130.164
-125.675
-120.93
-115.239
-160.128
-160.127
-160.12
-160.112
-160.102
-160.092
-160.079
-160.064
-160.045
-160.023
-159.996
-159.963
-159.923
-159.875
-159.816
-159.744
-159.656
-159.549
-159.419
-159.261
-159.071
-158.841
-158.566
-158.236
-157.841
-157.371
-156.811
-156.145
-155.352
-154.416
-153.309
-152.006
-150.476
-148.686
-146.604
-144.197
-141.435
-138.298
-134.767
-130.846
-126.53
-121.936
-116.454
-158.882
-158.881
-158.876
-158.869
-158.862
-158.853
-158.843
-158.831
-158.816
-158.798
-158.775
-158.747
-158.714
-158.672
-158.62
-158.557
-158.478
-158.382
-158.263
-158.119
-157.943
-157.731
-157.475
-157.168
-156.801
-156.362
-155.839
-155.216
-154.477
-153.602
-152.567
-151.346
-149.912
-148.234
-146.279
-144.015
-141.41
-138.441
-135.086
-131.343
-127.204
-122.773
-117.452
-157.588
-157.587
-157.583
-157.578
-157.572
-157.566
-157.559
-157.549
-157.538
-157.523
-157.505
-157.482
-157.454
-157.418
-157.374
-157.319
-157.249
-157.162
-157.055
-156.923
-156.761
-156.565
-156.328
-156.043
-155.7
-155.29
-154.8
-154.218
-153.525
-152.704
-151.734
-150.589
-149.244
-147.667
-145.828
-143.695
-141.236
-138.423
-135.235
-131.665
-127.695
-123.423
-118.165
-156.247
-156.247
-156.243
-156.239
-156.236
-156.231
-156.226
-156.22
-156.211
-156.2
-156.186
-156.168
-156.145
-156.116
-156.078
-156.03
-155.969
-155.891
-155.794
-155.673
-155.525
-155.344
-155.125
-154.858
-154.538
-154.155
-153.697
-153.151
-152.501
-151.73
-150.819
-149.742
-148.476
-146.992
-145.259
-143.246
-140.922
-138.257
-135.229
-131.826
-128.032
-123.948
-118.79
-154.859
-154.858
-154.854
-154.851
-154.849
-154.847
-154.844
-154.84
-154.835
-154.828
-154.818
-154.805
-154.787
-154.763
-154.732
-154.691
-154.638
-154.569
-154.482
-154.373
-154.238
-154.07
-153.867
-153.62
-153.321
-152.962
-152.531
-152.018
-151.407
-150.682
-149.824
-148.81
-147.617
-146.217
-144.582
-142.68
-140.481
-137.953
-135.075
-131.831
-128.203
-124.304
-119.19
-153.409
-153.411
-153.411
-153.411
-153.411
-153.412
-153.412
-153.412
-153.41
-153.406
-153.401
-153.392
-153.379
-153.362
-153.337
-153.303
-153.257
-153.198
-153.12
-153.021
-152.898
-152.744
-152.555
-152.325
-152.046
-151.71
-151.306
-150.824
-150.249
-149.566
-148.756
-147.8
-146.673
-145.351
-143.805
-142.004
-139.921
-137.522
-134.785
-131.69
-128.221
-124.487
-119.61
-151.927
-151.928
-151.929
-151.93
-151.932
-151.934
-151.936
-151.938
-151.94
-151.94
-151.937
-151.933
-151.925
-151.912
-151.894
-151.866
-151.828
-151.777
-151.708
-151.62
-151.507
-151.366
-151.191
-150.977
-150.717
-150.402
-150.022
-149.568
-149.027
-148.382
-147.617
-146.714
-145.649
-144.397
-142.933
-141.227
-139.25
-136.97
-134.362
-131.406
-128.081
-124.499
-119.754
-150.396
-150.397
-150.398
-150.401
-150.404
-150.408
-150.413
-150.418
-150.422
-150.425
-150.427
-150.426
-150.423
-150.415
-150.403
-150.382
-150.351
-150.307
-150.248
-150.169
-150.067
-149.938
-149.777
-149.578
-149.335
-149.04
-148.684
-148.255
-147.744
-147.135
-146.412
-145.557
-144.548
-143.364
-141.975
-140.356
-138.475
-136.305
-133.816
-130.985
-127.779
-124.278
-119.76
-148.819
-148.821
-148.823
-148.827
-148.832
-148.838
-148.844
-148.851
-148.858
-148.865
-148.87
-148.873
-148.875
-148.872
-148.865
-148.85
-148.826
-148.79
-148.739
-148.67
-148.578
-148.461
-148.312
-148.128
-147.901
-147.624
-147.29
-146.886
-146.403
-145.828
-145.143
-144.333
-143.377
-142.252
-140.933
-139.394
-137.606
-135.539
-133.164
-130.456
-127.377
-123.982
-119.676
-147.198
-147.2
-147.203
-147.208
-147.214
-147.222
-147.231
-147.24
-147.25
-147.26
-147.268
-147.275
-147.281
-147.283
-147.281
-147.272
-147.255
-147.226
-147.184
-147.123
-147.042
-146.935
-146.799
-146.628
-146.417
-146.158
-145.843
-145.463
-145.008
-144.463
-143.814
-143.046
-142.138
-141.07
-139.817
-138.353
-136.65
-134.681
-132.416
-129.834
-126.908
-123.704
-119.644
-145.533
-145.535
-145.539
-145.545
-145.552
-145.562
-145.573
-145.585
-145.597
-145.609
-145.622
-145.633
-145.642
-145.649
-145.652
-145.65
-145.639
-145.618
-145.582
-145.531
-145.459
-145.363
-145.238
-145.081
-144.884
-144.642
-144.347
-143.989
-143.557
-143.041
-142.427
-141.697
-140.834
-139.818
-138.625
-137.231
-135.608
-133.729
-131.562
-129.084
-126.264
-123.149
-118.651
-143.825
-143.827
-143.832
-143.839
-143.848
-143.86
-143.873
-143.887
-143.901
-143.917
-143.932
-143.947
-143.96
-143.972
-143.98
-143.983
-143.978
-143.964
-143.936
-143.893
-143.83
-143.744
-143.632
-143.487
-143.304
-143.077
-142.799
-142.462
-142.054
-141.566
-140.983
-140.289
-139.469
-138.502
-137.366
-136.037
-134.49
-132.696
-130.629
-128.267
-125.585
-122.633
-119.074
-142.076
-142.078
-142.084
-142.092
-142.103
-142.116
-142.13
-142.146
-142.164
-142.182
-142.2
-142.218
-142.236
-142.251
-142.264
-142.273
-142.274
-142.267
-142.247
-142.211
-142.157
-142.081
-141.979
-141.846
-141.677
-141.466
-141.205
-140.887
-140.502
-140.039
-139.486
-138.827
-138.046
-137.124
-136.041
-134.773
-133.295
-131.58
-129.602
-127.333
-124.77
-121.946
-118.11
-140.288
-140.289
-140.295
-140.304
-140.316
-140.331
-140.347
-140.365
-140.385
-140.405
-140.427
-140.449
-140.47
-140.49
-140.507
-140.521
-140.528
-140.527
-140.514
-140.487
-140.441
-140.375
-140.284
-140.163
-140.006
-139.809
-139.565
-139.265
-138.901
-138.462
-137.937
-137.309
-136.566
-135.687
-134.654
-133.442
-132.029
-130.388
-128.495
-126.32
-123.843
-121.088
-118.635
-138.453
-138.455
-138.463
-138.474
-138.488
-138.504
-138.522
-138.543
-138.565
-138.589
-138.613
-138.638
-138.663
-138.687
-138.709
-138.728
-138.742
-138.747
-138.741
-138.721
-138.684
-138.627
-138.545
-138.435
-138.291
-138.108
-137.879
-137.597
-137.253
-136.837
-136.338
-135.741
-135.032
-134.194
-133.206
-132.048
-130.696
-129.122
-127.301
-125.201
-122.794
-120.034
-117.259
-136.582
-136.585
-136.594
-136.606
-136.622
-136.64
-136.66
-136.683
-136.708
-136.734
-136.761
-136.789
-136.818
-136.846
-136.872
-136.896
-136.915
-136.926
-136.927
-136.914
-136.886
-136.837
-136.766
-136.666
-136.534
-136.365
-136.15
-135.885
-135.56
-135.166
-134.692
-134.124
-133.448
-132.648
-131.704
-130.596
-129.3
-127.791
-126.041
-124.017
-121.692
-118.996
-116.285
-134.678
-134.681
-134.69
-134.704
-134.72
-134.739
-134.761
-134.786
-134.813
-134.842
-134.872
-134.903
-134.935
-134.966
-134.997
-135.026
-135.05
-135.067
-135.074
-135.069
-135.048
-135.009
-134.946
-134.857
-134.737
-134.58
-134.38
-134.131
-133.824
-133.45
-132.999
-132.459
-131.814
-131.05
-130.147
-129.087
-127.846
-126.4
-124.722
-122.783
-120.556
-117.981
-115.488
-132.738
-132.741