/*--------------------------------*- C++ -*----------------------------------*\
| =========                 |                                                 |
| \\      /  F ield         | OpenFOAM: The Open Source CFD Toolbox           |
|  \\    /   O peration     | Version:  2.3.0                                 |
|   \\  /    A nd           | Web:      www.OpenFOAM.org                      |
|    \\/     M anipulation  |                                                 |
\*---------------------------------------------------------------------------*/
FoamFile
{
    version     2.0;
    format      ascii;
    class       volScalarField;
    location    "400";
    object      nut;
}
// * * * * * * * * * * * * * * * * * * * * * * * * * * * * * * * * * * * * * //

dimensions      [0 2 -1 0 0 0 0];

internalField   nonuniform List<scalar> 
28256
(
0.014638
0.0130229
0.0116261
0.0104321
0.00942066
0.0085753
0.00787831
0.00731732
0.00687934
0.00654368
0.00629289
0.00610403
0.00595657
0.00582936
0.00570709
0.00557176
0.005417
0.00523322
0.00502703
0.00478076
0.0155215
0.0140849
0.0128802
0.0118846
0.011079
0.0104442
0.00996075
0.00961486
0.00938487
0.00925184
0.00919565
0.00919672
0.00923844
0.00930492
0.00938511
0.00946524
0.00954754
0.00961813
0.00967848
0.00972667
0.0164881
0.0152443
0.01424
0.0134502
0.0128504
0.0124178
0.0121309
0.0119667
0.0118999
0.0119089
0.0119746
0.0120786
0.0122027
0.0123379
0.0124732
0.0126003
0.0127144
0.0128173
0.0128968
0.0129516
0.0175171
0.0164728
0.0156663
0.015071
0.0146606
0.0144068
0.0142834
0.014264
0.014321
0.0144359
0.0145905
0.0147655
0.0149481
0.0151309
0.0153032
0.0154647
0.015607
0.0157252
0.0158196
0.0158895
0.0185977
0.0177447
0.0171221
0.0167036
0.016457
0.0163511
0.0163578
0.0164492
0.0166018
0.0167947
0.0170114
0.0172389
0.0174652
0.0176831
0.0178864
0.0180713
0.0182319
0.0183682
0.018478
0.0185555
0.0197108
0.0190372
0.0185812
0.0183146
0.018203
0.0182152
0.0183213
0.0184965
0.018718
0.0189663
0.0192284
0.019494
0.0197515
0.0199943
0.0202192
0.0204221
0.0205992
0.0207516
0.0208706
0.0209599
0.0208446
0.0203305
0.0200187
0.0198778
0.0198741
0.0199767
0.0201573
0.020392
0.020661
0.0209476
0.0212419
0.0215311
0.0218095
0.0220705
0.0223109
0.0225281
0.0227187
0.0228793
0.0230093
0.0231064
0.0219841
0.0216064
0.0214137
0.0213737
0.0214531
0.0216221
0.021855
0.02213
0.0224293
0.0227411
0.0230535
0.0233579
0.0236493
0.0239215
0.0241725
0.0243979
0.0245956
0.0247646
0.0249026
0.0250052
0.0231219
0.0228533
0.0227553
0.0227921
0.0229304
0.0231445
0.023411
0.0237098
0.0240266
0.0243508
0.0246717
0.0249838
0.0252803
0.0255578
0.0258133
0.0260432
0.0262467
0.0264208
0.0265626
0.0266716
0.024237
0.02406
0.0240338
0.0241244
0.0243019
0.0245426
0.0248259
0.0251355
0.0254585
0.0257847
0.0261065
0.0264179
0.0267139
0.0269912
0.0272468
0.0274779
0.0276829
0.0278588
0.0280042
0.0281163
0.0253163
0.0252145
0.0252408
0.0253672
0.0255672
0.0258191
0.0261065
0.0264153
0.0267341
0.0270539
0.0273688
0.0276735
0.0279635
0.0282355
0.0284866
0.0287154
0.0289182
0.0290941
0.0292403
0.0293554
0.0263505
0.0263102
0.0263738
0.026521
0.026729
0.0269804
0.0272611
0.0275593
0.0278648
0.0281714
0.0284732
0.0287658
0.0290442
0.0293061
0.0295498
0.0297716
0.02997
0.0301429
0.0302879
0.0304036
0.0273511
0.0273487
0.0274343
0.0275885
0.0277931
0.0280337
0.0282986
0.0285782
0.0288645
0.0291515
0.0294345
0.0297093
0.0299718
0.0302202
0.0304518
0.0306638
0.0308546
0.0310217
0.0311636
0.0312779
0.0283096
0.0283306
0.0284242
0.0285737
0.0287657
0.0289876
0.0292301
0.0294852
0.0297465
0.0300088
0.0302683
0.0305212
0.0307644
0.0309954
0.0312114
0.0314105
0.0315905
0.0317496
0.031886
0.0319978
0.0292194
0.029255
0.0293472
0.0294842
0.029656
0.0298529
0.0300674
0.0302932
0.0305255
0.0307595
0.0309921
0.0312196
0.0314398
0.0316499
0.0318476
0.0320308
0.0321976
0.0323466
0.0324755
0.0325825
0.0300882
0.0301262
0.0302083
0.0303265
0.0304728
0.0306406
0.0308234
0.0310169
0.0312168
0.0314198
0.0316225
0.0318219
0.0320163
0.032203
0.0323798
0.032545
0.0326968
0.0328331
0.0329525
0.0330535
0.0309179
0.0309477
0.0310133
0.031108
0.031226
0.031362
0.0315112
0.0316703
0.0318362
0.0320059
0.0321766
0.0323462
0.0325129
0.0326744
0.0328284
0.0329737
0.0331084
0.0332306
0.033339
0.0334319
0.0317022
0.0317214
0.0317676
0.0318367
0.0319247
0.0320279
0.032143
0.0322675
0.0323986
0.0325341
0.0326721
0.0328107
0.0329484
0.0330834
0.0332135
0.0333375
0.0334537
0.0335605
0.0336564
0.0337399
0.0324431
0.0324499
0.0324762
0.0325193
0.0325779
0.0326492
0.0327313
0.0328219
0.032919
0.0330204
0.0331254
0.0332324
0.0333405
0.0334484
0.0335543
0.0336564
0.0337534
0.0338436
0.0339262
0.0339993
0.0331499
0.0331386
0.0331437
0.0331631
0.0331939
0.033236
0.0332875
0.0333473
0.0334128
0.0334818
0.0335527
0.0336269
0.0337052
0.0337865
0.0338693
0.0339497
0.0340267
0.0340995
0.0341679
0.0342303
0.00475667
0.00497147
0.00518578
0.00538294
0.00557477
0.00575685
0.00593652
0.00612236
0.00632281
0.00655444
0.00683453
0.00718185
0.00761245
0.00814048
0.00877572
0.00952398
0.010388
0.0113684
0.0124653
0.0136795
0.00974809
0.00974877
0.00974246
0.00972998
0.0097059
0.0096881
0.00967115
0.00966639
0.0096795
0.0097248
0.00981468
0.00996476
0.010191
0.0105087
0.0109307
0.0114665
0.0121218
0.0128993
0.0138
0.0148238
0.012983
0.0129965
0.0129841
0.0129581
0.0129244
0.0128759
0.0128236
0.0127662
0.012716
0.0126809
0.0126701
0.0126995
0.0127823
0.0129346
0.0131736
0.0135122
0.0139618
0.0145308
0.015225
0.0160493
0.0159297
0.015941
0.0159338
0.015908
0.0158634
0.0157978
0.0157213
0.0156325
0.0155406
0.0154493
0.0153704
0.0153128
0.0152866
0.015312
0.0154005
0.0155702
0.015836
0.0162108
0.0167055
0.0173303
0.0186041
0.0186243
0.018618
0.0185908
0.0185347
0.0184625
0.0183698
0.0182591
0.018136
0.0180082
0.0178787
0.0177551
0.0176527
0.0175782
0.0175489
0.0175819
0.0176923
0.0178963
0.0182087
0.0186439
0.0210164
0.0210397
0.021038
0.021007
0.0209526
0.0208722
0.0207689
0.0206436
0.0205008
0.020346
0.0201789
0.0200113
0.0198488
0.0197016
0.0195834
0.0195081
0.0194924
0.0195527
0.0197058
0.0199716
0.0231685
0.0231995
0.0231989
0.0231722
0.0231151
0.0230323
0.0229227
0.0227872
0.0226333
0.0224596
0.02227
0.0220697
0.0218662
0.0216656
0.0214809
0.0213241
0.0212094
0.0211524
0.0211731
0.0212917
0.0250751
0.02511
0.0251149
0.0250897
0.0250355
0.0249503
0.0248384
0.0247011
0.0245402
0.0243562
0.024152
0.0239317
0.0236992
0.0234628
0.023232
0.0230156
0.0228259
0.0226783
0.0225921
0.0225864
0.0267457
0.0267861
0.0267965
0.0267757
0.0267229
0.0266407
0.0265302
0.0263943
0.0262306
0.026042
0.02583
0.0255995
0.0253518
0.0250936
0.0248315
0.0245742
0.0243312
0.024117
0.0239474
0.0238416
0.0281951
0.0282415
0.0282564
0.0282399
0.0281923
0.0281153
0.0280095
0.0278758
0.0277146
0.0275255
0.0273146
0.0270809
0.0268277
0.026559
0.0262792
0.0259958
0.0257188
0.0254574
0.0252283
0.0250478
0.0294379
0.029488
0.0295078
0.0294974
0.0294571
0.029387
0.0292868
0.0291594
0.0290039
0.0288219
0.0286149
0.0283849
0.0281335
0.0278626
0.0275771
0.0272828
0.0269854
0.0266961
0.0264268
0.026192
0.0304881
0.0305428
0.0305677
0.0305636
0.0305296
0.0304672
0.0303765
0.0302584
0.0301128
0.0299405
0.0297429
0.0295218
0.029277
0.0290122
0.0287305
0.0284349
0.0281323
0.0278297
0.0275364
0.0272676
0.0313641
0.0314214
0.0314514
0.0314529
0.0314272
0.0313741
0.0312937
0.0311868
0.0310531
0.0308932
0.0307093
0.0305009
0.0302693
0.0300167
0.0297448
0.029458
0.0291591
0.028855
0.0285538
0.0282678
0.0320836
0.0321434
0.0321771
0.0321855
0.0321677
0.0321238
0.0320545
0.03196
0.0318397
0.0316954
0.0315273
0.0313353
0.0311204
0.0308843
0.0306289
0.0303565
0.0300703
0.0297751
0.0294778
0.0291888
0.0326669
0.0327274
0.0327648
0.0327787
0.0327683
0.0327342
0.0326763
0.032595
0.0324897
0.0323616
0.0322106
0.0320368
0.0318422
0.0316263
0.0313917
0.0311394
0.030872
0.0305935
0.0303087
0.0300261
0.0331344
0.0331946
0.0332341
0.0332523
0.0332494
0.0332241
0.0331778
0.0331093
0.033019
0.0329074
0.0327746
0.0326211
0.0324474
0.0322547
0.0320434
0.0318142
0.0315706
0.0313137
0.0310471
0.0307754
0.0335081
0.0335663
0.0336065
0.0336283
0.0336308
0.0336141
0.0335777
0.0335213
0.033445
0.03335
0.0332355
0.0331019
0.0329503
0.0327812
0.0325945
0.0323922
0.0321747
0.0319437
0.0317013
0.031449
0.0338098
0.0338648
0.0339046
0.033928
0.0339348
0.0339242
0.0338958
0.0338496
0.0337862
0.0337057
0.0336082
0.0334943
0.0333642
0.0332185
0.0330578
0.0328828
0.0326942
0.0324928
0.0322798
0.0320557
0.0340618
0.0341125
0.0341505
0.0341745
0.0341835
0.0341762
0.0341524
0.0341133
0.0340593
0.0339907
0.0339083
0.0338121
0.0337024
0.0335795
0.0334443
0.033297
0.0331381
0.0329678
0.0327869
0.0325962
0.0342849
0.03433
0.034366
0.0343911
0.0344014
0.0343927
0.0343655
0.0343275
0.0342786
0.0342195
0.0341511
0.0340703
0.0339767
0.0338757
0.0337659
0.0336445
0.0335137
0.0333734
0.0332249
0.0330693
0.00217291
0.00168917
0.00131444
0.0010308
0.00083531
0.000695297
0.000587851
0.000500623
0.000427057
0.000364081
0.00031047
0.000264682
0.000223574
0.000182379
0.000136712
8.6191e-05
3.84448e-05
8.13712e-06
2.11253e-08
2.91901e-09
0.00216422
0.00169717
0.00133453
0.0010595
0.000868243
0.000727991
0.000620345
0.000534659
0.000464348
0.000401127
0.000335266
0.000264224
0.000194164
0.000141954
0.000130974
0.000156281
0.000192339
0.000222339
0.000239077
0.000242451
0.00215774
0.00170917
0.00135965
0.00109549
0.000906701
0.00076636
0.000658556
0.000565545
0.000476601
0.000421042
0.00046192
0.000607726
0.000804536
0.001008
0.00119463
0.00135275
0.00147736
0.00157028
0.00163023
0.00165602
0.00215298
0.0017232
0.00138709
0.00113454
0.000947959
0.000803309
0.000687246
0.000662864
0.000840594
0.00119337
0.00161198
0.00202219
0.00238829
0.00270408
0.00296991
0.0031857
0.00335287
0.00347377
0.00355076
0.00358335
0.00214799
0.00173844
0.00141607
0.00117455
0.000989859
0.000903961
0.00108614
0.00157382
0.00219914
0.00282074
0.00337929
0.00387153
0.0042937
0.00464939
0.00494404
0.00518187
0.00536667
0.00550075
0.00558566
0.00562307
0.0021468
0.00175537
0.00144901
0.00123848
0.0012383
0.00165981
0.00240977
0.00323883
0.00401125
0.00470222
0.00530395
0.00582255
0.00626508
0.00663836
0.00694838
0.00719918
0.00739477
0.00753692
0.00762715
0.00766619
0.00214477
0.00178104
0.00154696
0.00164463
0.0022699
0.00322332
0.00421409
0.00512823
0.00593843
0.00664692
0.007262
0.0077927
0.00824713
0.00863172
0.008952
0.00921225
0.0094149
0.00956242
0.00965564
0.0096949
0.0021612
0.00190657
0.0020743
0.00285215
0.0039665
0.00510506
0.00615049
0.00707828
0.00789347
0.00860614
0.00922665
0.00976363
0.0102253
0.0106172
0.0109444
0.0112102
0.0114176
0.011568
0.0116625
0.011701
0.00230383
0.00250656
0.00338458
0.00463264
0.00590744
0.00707845
0.00812224
0.0090437
0.00985388
0.0105643
0.011185
0.0117243
0.0121889
0.0125844
0.0129151
0.013184
0.0133934
0.0135448
0.0136385
0.0136747
0.00293367
0.00387892
0.00523226
0.00662804
0.00791901
0.00907558
0.0101012
0.0110077
0.0118072
0.0125108
0.0131273
0.0136643
0.0141281
0.0145237
0.0148544
0.0151234
0.0153321
0.0154821
0.0155735
0.0156065
0.00432986
0.00577625
0.00728091
0.00868382
0.00994776
0.011074
0.012074
0.0129601
0.013744
0.0144358
0.015044
0.015575
0.0160342
0.0164261
0.0167538
0.0170196
0.0172253
0.0173717
0.0174589
0.0174872
0.00627701
0.00788162
0.0093879
0.0107522
0.0119734
0.0130618
0.0140304
0.0148916
0.0156557
0.0163318
0.0169274
0.0174482
0.0178992
0.018284
0.0186054
0.0188654
0.0190653
0.0192058
0.0192874
0.0193092
0.00845652
0.0100517
0.0115058
0.0128134
0.0139836
0.015029
0.015962
0.0167939
0.0175343
0.0181909
0.0187703
0.0192775
0.0197167
0.020091
0.0204029
0.0206542
0.0208458
0.0209783
0.0210516
0.021066
0.0107162
0.0122327
0.0136119
0.0148536
0.0159678
0.0169662
0.0178603
0.0186598
0.019373
0.0200065
0.0205662
0.0210564
0.0214805
0.0218413
0.0221408
0.0223803
0.0225609
0.0226831
0.0227467
0.0227514
0.0129658
0.0143885
0.0156865
0.016859
0.0179147
0.018864
0.0197167
0.0204811
0.0211644
0.0217723
0.0223094
0.0227796
0.0231856
0.0235298
0.023814
0.0240391
0.0242064
0.0243156
0.0243671
0.0243605
0.0151307
0.016485
0.0177091
0.0188144
0.019812
0.0207118
0.021522
0.0222502
0.0229019
0.0234818
0.0239943
0.0244419
0.0248273
0.0251524
0.0254185
0.0256269
0.0257779
0.025872
0.0259092
0.0258891
0.0172377
0.0185142
0.0196653
0.0207059
0.0216471
0.0224984
0.0232669
0.0239586
0.0245783
0.0251297
0.0256158
0.0260395
0.0264022
0.0267059
0.0269518
0.0271406
0.0272732
0.0273496
0.02737
0.0273339
0.0192664
0.0204624
0.0215413
0.0225189
0.0234064
0.0242114
0.0249403
0.0255976
0.0261866
0.0267101
0.0271704
0.0275693
0.0279083
0.0281888
0.0284121
0.0285792
0.0286907
0.0287471
0.0287478
0.0286933
0.0212031
0.0223144
0.0233198
0.0242356
0.0250725
0.0258358
0.026529
0.0271563
0.0277188
0.0282183
0.0286555
0.0290311
0.0293463
0.0296021
0.0298001
0.0299427
0.0300307
0.0300645
0.0300434
0.0299667
0.0230449
0.0240546
0.0249779
0.0258282
0.0266205
0.0273506
0.0280126
0.0286198
0.0291646
0.0296492
0.0300703
0.030428
0.0307232
0.030952
0.0311183
0.0312307
0.0312918
0.0313032
0.0312606
0.0311556
1.31038e-09
8.66336e-08
5.96267e-06
2.5237e-05
5.87367e-05
0.000100655
0.000150036
0.000209785
0.000282703
0.000372818
0.000487097
0.000638663
0.000837422
0.00109806
0.00144017
0.00188813
0.00247182
0.00322678
0.00419273
0.00540859
0.000227158
0.000192217
0.000145683
0.000100493
8.70985e-05
0.000128827
0.000207878
0.000298426
0.000396961
0.000507632
0.000638827
0.000802902
0.00101586
0.00129161
0.00164675
0.00210333
0.00268803
0.0034318
0.00436826
0.00552919
0.00164401
0.00159449
0.00150865
0.00139041
0.00124488
0.00108267
0.000919662
0.000783769
0.000714709
0.000740203
0.000850006
0.00101903
0.0012411
0.00152773
0.00189134
0.00235047
0.00292837
0.00365166
0.00454847
0.00564353
0.00357152
0.00351355
0.00341228
0.00326564
0.00307499
0.00284047
0.0025655
0.00226044
0.00194787
0.00167016
0.00148764
0.00145458
0.00157778
0.00182654
0.00217556
0.00262377
0.00318492
0.00387927
0.0047293
0.00575424
0.00561113
0.00554983
0.00544005
0.00528192
0.00507414
0.0048154
0.00450558
0.00414529
0.00374034
0.00330607
0.00287843
0.00252232
0.00232459
0.00234351
0.00256672
0.0029497
0.00346708
0.00411775
0.00491241
0.005863
0.00765298
0.00758785
0.00747122
0.00730293
0.00708227
0.0068084
0.00647955
0.00609482
0.00565479
0.00516417
0.004636
0.00410315
0.00362905
0.00331021
0.00323393
0.00341689
0.00381503
0.00438426
0.00510499
0.00597245
0.00967992
0.00960998
0.009486
0.00930832
0.00907598
0.00878839
0.00844384
0.00804106
0.00757927
0.00705904
0.00648605
0.0058741
0.00525645
0.00469803
0.00429928
0.0041601
0.00431425
0.00472184
0.00532634
0.00608866
0.0116829
0.0116078
0.0114772
0.0112901
0.0110472
0.0107471
0.0103887
0.00997087
0.0094917
0.00895102
0.00835023
0.00769596
0.00700489
0.00631341
0.00569049
0.00523988
0.00506529
0.00520501
0.00561802
0.00623579
0.0136528
0.0135728
0.0134347
0.0132396
0.0129865
0.0126757
0.0123055
0.0118746
0.0113814
0.0108248
0.0102045
0.00952332
0.00878958
0.00802336
0.00726589
0.00659153
0.00610688
0.00591367
0.00604504
0.00645239
0.0155801
0.0154942
0.0153496
0.0151465
0.0148848
0.0145643
0.0141838
0.0137421
0.0132375
0.0126686
0.0120344
0.0113352
0.0105747
0.00976398
0.00892672
0.00810966
0.00739227
0.00688308
0.00667699
0.00679526
0.0174553
0.0173637
0.0172122
0.0170016
0.0167323
0.0164031
0.016014
0.0155634
0.0150498
0.0144716
0.0138275
0.0131163
0.0123395
0.0115018
0.010617
0.00971231
0.00883991
0.00808408
0.00755196
0.0073282
0.0192712
0.0191726
0.0190143
0.0187968
0.0185199
0.0181834
0.0177868
0.0173288
0.0168082
0.0162234
0.0155724
0.0148541
0.0140677
0.0132151
0.0123027
0.0113464
0.0103772
0.00945151
0.00865611
0.00809499
0.0210203
0.0209143
0.0207488
0.020524
0.02024
0.0198966
0.0194933
0.0190294
0.0185034
0.0179137
0.0172587
0.0165366
0.0157461
0.0148865
0.0139609
0.0129765
0.011951
0.0109183
0.00993695
0.00909609
0.0226967
0.0225824
0.0224087
0.0221762
0.021885
0.0215348
0.0211254
0.0206562
0.0201258
0.0195328
0.0188755
0.0181526
0.0173617
0.0165015
0.0155721
0.0145762
0.0135224
0.0124291
0.0113308
0.0102899
0.0242952
0.0241709
0.0239881
0.023747
0.0234479
0.0230907
0.0226751
0.0222006
0.0216661
0.0210706
0.0204126
0.0196903
0.018902
0.0180454
0.0171193
0.0161237
0.0150614
0.0139406
0.012779
0.0116148
0.0258111
0.0256753
0.0254815
0.0252306
0.0249224
0.0245571
0.0241343
0.0236539
0.0231151
0.0225169
0.0218582
0.0211376
0.0203533
0.0195034
0.0185858
0.0175988
0.0165419
0.015417
0.0142302
0.0129998
0.0272411
0.0270913
0.0268848
0.0266218
0.0263026
0.025927
0.0254952
0.0250071
0.0244622
0.0238602
0.0231999
0.0224808
0.0217012
0.0208595
0.0199537
0.0189812
0.0179399
0.016828
0.0156447
0.0143966
0.0285828
0.0284164
0.0281943
0.0279168
0.0275834
0.0271944
0.02675
0.0262503
0.025696
0.0250868
0.024423
0.0237038
0.0229284
0.0220954
0.0212032
0.0202492
0.0192305
0.018143
0.0169825
0.0157492
0.0298349
0.0296488
0.0294086
0.0291137
0.0287627
0.0283544
0.0278901
0.0273717
0.0268014
0.0261802
0.0255088
0.024787
0.0240139
0.0231889
0.0223111
0.0213784
0.020387
0.0193341
0.0182165
0.0170339
0.0309944
0.0307846
0.0305262
0.0302177
0.0298463
0.0294051
0.0289054
0.0283519
0.0277559
0.0271153
0.0264325
0.0257061
0.0249317
0.0241117
0.0232481
0.0223408
0.0213863
0.0203778
0.0193127
0.0182032
5.17165e-06
0.000144894
0.000322962
0.000510957
0.000726707
0.000973563
0.00126113
0.00159454
0.00198283
0.00243368
0.00295949
0.00357107
0.00428248
0.00510821
0.00605983
0.00715092
0.00839684
0.00981395
0.0114231
0.0132408
3.28356e-15
8.72067e-13
2.1596e-11
2.63804e-10
3.93509e-06
0.000155334
0.000363307
0.000589029
0.00086807
0.00121529
0.001644
0.00216856
0.00280404
0.00356664
0.00447332
0.00554113
0.00678732
0.00823055
0.00988908
0.0117774
2.0008e-18
2.49163e-16
1.79648e-11
4.25066e-09
5.2094e-05
0.000169304
0.000307495
0.000474364
0.000686134
0.000956671
0.00130023
0.00173246
0.00227077
0.00293455
0.00374464
0.00472305
0.00589235
0.00727571
0.00889679
0.010779
3.51681e-09
2.12731e-07
2.27638e-06
1.87587e-05
8.34178e-05
0.00017893
0.000293634
0.000435797
0.000616821
0.000849083
0.00114621
0.00152368
0.00199929
0.00259331
0.00332837
0.00422911
0.00532172
0.00663331
0.00819101
0.0100192
6.74839e-09
5.23778e-07
4.54611e-06
2.2155e-05
7.62598e-05
0.000162755
0.000268043
0.00039709
0.000560825
0.000770536
0.00103906
0.00138123
0.00181442
0.00235875
0.00303721
0.00387551
0.00490179
0.00614599
0.00763893
0.0094102
6.50474e-09
5.12612e-07
4.25966e-06
1.89368e-05
6.30678e-05
0.000142242
0.000240925
0.000360533
0.000511185
0.000704022
0.000951065
0.00126645
0.00166693
0.00217215
0.00280484
0.00359102
0.00455972
0.00574244
0.00717222
0.00888073
6.14437e-09
4.90298e-07
4.03912e-06
1.72409e-05
5.23705e-05
0.00012388
0.000216737
0.000328631
0.000468429
0.000647284
0.000876581
0.00116981
0.00154305
0.00201537
0.00260908
0.00335011
0.00426776
0.00539443
0.00676466
0.00841245
5.82104e-09
4.77094e-07
3.96659e-06
1.6567e-05
4.70523e-05
0.000109251
0.000196317
0.000301696
0.000432445
0.000599217
0.000813398
0.00108772
0.00143766
0.00188169
0.00244174
0.00314356
0.00401685
0.00509554
0.00641818
0.00803011
5.59956e-09
4.73118e-07
4.00195e-06
1.66336e-05
4.54539e-05
9.79982e-05
0.000179192
0.000278876
0.000401909
0.000558268
0.00075936
0.00101735
0.00134702
0.00176624
0.00229639
0.00296266
0.0037943
0.0048244
0.00608864
0.00762045
5.36077e-09
4.63221e-07
3.97792e-06
1.64709e-05
4.389e-05
8.97678e-05
0.000164754
0.000259356
0.000375772
0.000523192
0.00071266
0.000956255
0.00126797
0.00166505
0.00216818
0.00280185
0.00359466
0.00457916
0.005791
0.00726805
5.16568e-09
4.57758e-07
3.99112e-06
1.66186e-05
4.37535e-05
8.68907e-05
0.000153234
0.000242607
0.000353121
0.000492679
0.000671793
0.000902598
0.00119836
0.00157564
0.00205447
0.00265884
0.00341703
0.0043619
0.00553143
0.00697094
5.00728e-09
4.52048e-07
4.00934e-06
1.68019e-05
4.38523e-05
8.52343e-05
0.000143701
0.000228038
0.000333317
0.000465964
0.000635996
0.000855198
0.00113668
0.00149623
0.00195326
0.00253123
0.00325789
0.00416573
0.00529165
0.00667516
4.84682e-09
4.45214e-07
3.98745e-06
1.67998e-05
4.36372e-05
8.36702e-05
0.000137037
0.000215514
0.000315873
0.000442342
0.000604273
0.000812978
0.00108162
0.00142522
0.00186262
0.00241665
0.00311466
0.00398886
0.00507677
0.00642259
4.70682e-09
4.38412e-07
3.98367e-06
1.69232e-05
4.3922e-05
8.35123e-05
0.00013445
0.00020521
0.000300512
0.00042132
0.000575941
0.000775226
0.00103216
0.00136133
0.00178088
0.00231302
0.00298443
0.00382668
0.00487591
0.00617161
4.57837e-09
4.32963e-07
3.9761e-06
1.70524e-05
4.42636e-05
8.35859e-05
0.000132724
0.000196458
0.00028689
0.000402535
0.000550566
0.000741365
0.000987503
0.00130352
0.00170679
0.0022189
0.00286605
0.00367938
0.00469561
0.00595822
4.43979e-09
4.24156e-07
3.9387e-06
1.70294e-05
4.42897e-05
8.32992e-05
0.00013102
0.000189895
0.000274898
0.000385653
0.000527649
0.000710672
0.000946886
0.00125085
0.0016392
0.00213293
0.00275762
0.00354388
0.00452766
0.00575007
4.31337e-09
4.16555e-07
3.90457e-06
1.70225e-05
4.44261e-05
8.34127e-05
0.000130456
0.000186751
0.000264759
0.0003705
0.000506874
0.000682768
0.000909914
0.0012026
0.00157709
0.00205364
0.00265708
0.00341702
0.00436787
0.00554781
4.19675e-09
4.09322e-07
3.87431e-06
1.70602e-05
4.47014e-05
8.38162e-05
0.000130452
0.000184905
0.000256047
0.000356843
0.000487943
0.000657257
0.000875998
0.00115802
0.00151948
0.00197981
0.00256296
0.0032975
0.00421669
0.00535753
4.07564e-09
4.01327e-07
3.83472e-06
1.70285e-05
4.47925e-05
8.39504e-05
0.000130157
0.000183
0.000248666
0.000344449
0.000470556
0.000633706
0.000844575
0.00111657
0.00146576
0.00191081
0.00247493
0.00318611
0.00407753
0.00518842
3.96826e-09
3.9343e-07
3.78517e-06
1.69297e-05
4.47485e-05
8.39476e-05
0.000129886
0.000181686
0.000243945
0.000333495
0.000454549
0.000611869
0.000815351
0.00107793
0.00141551
0.00184616
0.00239242
0.00308162
0.00394604
0.00502248
3.85109e-09
3.84582e-07
3.731e-06
1.68349e-05
4.47571e-05
8.40993e-05
0.000129993
0.000181213
0.000241358
0.000323908
0.000439767
0.000591486
0.000788026
0.00104184
0.00136843
0.00178573
0.00231563
0.00298528
0.00382767
0.00488361
3.73731e-09
3.76425e-07
3.68045e-06
1.67609e-05
4.48098e-05
8.43286e-05
0.000130218
0.000180919
0.00023925
0.000315348
0.000426083
0.00057244
0.000762449
0.00100801
0.00132426
0.00172919
0.00224406
0.00289566
0.00371666
0.00474589
3.63432e-09
3.67622e-07
3.61145e-06
1.66265e-05
4.47223e-05
8.43658e-05
0.000130222
0.000180435
0.000237196
0.000308247
0.000413569
0.000554759
0.000738609
0.000976488
0.00128305
0.00167642
0.0021772
0.0028116
0.00361126
0.00461331
3.49836e-09
3.54996e-07
3.54673e-06
1.64175e-05
4.44799e-05
8.42327e-05
0.000130107
0.000180043
0.00023583
0.000303749
0.000402556
0.000538544
0.000716593
0.000947296
0.00124492
0.00162724
0.00211466
0.00273239
0.00351115
0.00448677
3.40086e-09
3.48917e-07
3.46908e-06
1.61899e-05
4.42363e-05
8.40843e-05
0.000130082
0.000179965
0.00023519
0.000301059
0.000393004
0.000523764
0.000696295
0.000920303
0.00120952
0.00158129
0.00205582
0.00265736
0.00341544
0.00436424
3.324e-09
3.39978e-07
3.40581e-06
1.59885e-05
4.39607e-05
8.39346e-05
0.000130084
0.000179952
0.000234696
0.000298837
0.000384555
0.000510253
0.000677522
0.000895172
0.00117643
0.00153808
0.00200022
0.00258625
0.00332486
0.0042497
3.24991e-09
3.32097e-07
3.32433e-06
1.5727e-05
4.35949e-05
8.36177e-05
0.000129866
0.000179684
0.000233961
0.000296573
0.00037724
0.000497855
0.000660086
0.000871713
0.0011454
0.00149751
0.00194817
0.00252032
0.00324306
0.00415328
3.15741e-09
3.23414e-07
3.2593e-06
1.5446e-05
4.31385e-05
8.31192e-05
0.000129409
0.000179175
0.000233094
0.000294559
0.000371669
0.000486609
0.00064387
0.00084979
0.00111641
0.00145972
0.0018996
0.00245895
0.00316646
0.00405728
3.08964e-09
3.15892e-07
3.17965e-06
1.51713e-05
4.26262e-05
8.25712e-05
0.000128911
0.000178703
0.000232422
0.000293157
0.000367946
0.000476605
0.000628874
0.000829349
0.00108936
0.00142449
0.00185422
0.00240145
0.00309401
0.00396565
2.9976e-09
3.07519e-07
3.10184e-06
1.48747e-05
4.21219e-05
8.20108e-05
0.000128413
0.000178279
0.000231913
0.000292151
0.000365158
0.000467617
0.00061497
0.000810276
0.00106405
0.0013914
0.00181146
0.00234691
0.00302441
0.00387598
2.92212e-09
2.9983e-07
3.03272e-06
1.4619e-05
4.16564e-05
8.14772e-05
0.000127942
0.000177851
0.000231414
0.000291192
0.000362588
0.000459436
0.000602048
0.00079245
0.00104032
0.0013603
0.00177117
0.00229572
0.00296044
0.00379943
2.87703e-09
2.93999e-07
2.98158e-06
1.44113e-05
4.12305e-05
8.0988e-05
0.000127459
0.000177389
0.000230841
0.000290124
0.000360029
0.000452091
0.000590018
0.000775716
0.001018
0.00133106
0.00173327
0.00224741
0.00289944
0.00372151
2.83348e-09
2.88635e-07
2.92467e-06
1.41709e-05
4.07742e-05
8.04047e-05
0.000126882
0.000176809
0.000230134
0.000288957
0.00035761
0.00044594
0.000578918
0.000760007
0.000996957
0.00130349
0.00169769
0.00220204
0.00284262
0.00365222
2.74642e-09
2.80179e-07
2.86527e-06
1.3911e-05
4.02414e-05
7.97693e-05
0.000126219
0.000176142
0.000229371
0.000287852
0.000355595
0.000441229
0.000568758
0.000745311
0.000977226
0.00127758
0.00166416
0.00215922
0.0027887
0.00358433
2.69159e-09
2.76133e-07
2.81098e-06
1.36779e-05
3.97827e-05
7.91722e-05
0.000125597
0.000175519
0.000228692
0.000286974
0.000354078
0.000437737
0.000559557
0.000731552
0.00095864
0.00125315
0.00163249
0.0021186
0.00273732
0.00351945
2.64428e-09
2.70148e-07
2.7619e-06
1.34619e-05
3.93481e-05
7.86071e-05
0.000125019
0.000174957
0.000228134
0.000286277
0.000352867
0.000434879
0.000551166
0.000718688
0.000941087
0.00123006
0.00160259
0.00208016
0.00268881
0.00345924
2.59904e-09
2.66146e-07
2.71207e-06
1.32636e-05
3.89372e-05
7.80625e-05
0.000124479
0.000174475
0.00022767
0.000285678
0.000351779
0.000432271
0.000543434
0.000706641
0.000924561
0.0012082
0.00157412
0.00204345
0.00264198
0.00339891
2.56222e-09
2.61186e-07
2.67042e-06
1.30796e-05
3.85533e-05
7.75647e-05
0.000123985
0.000174016
0.000227178
0.000285038
0.00035066
0.000429716
0.000536282
0.000695255
0.000908861
0.00118745
0.00154712
0.00200866
0.00259797
0.0033452
2.50786e-09
2.56336e-07
2.61908e-06
1.28807e-05
3.81559e-05
7.70539e-05
0.000123465
0.000173512
0.000226641
0.000284336
0.000349464
0.00042722
0.000529875
0.000684598
0.000894068
0.00116781
0.00152152
0.00197588
0.00255682
0.00329495
2.46146e-09
2.51638e-07
2.58005e-06
1.27028e-05
3.7787e-05
7.65528e-05
0.000122915
0.000172961
0.000226063
0.000283598
0.000348285
0.000424934
0.000524397
0.000674602
0.000880002
0.00114912
0.00149721
0.00194466
0.00251686
0.00324313
2.43317e-09
2.48145e-07
2.53944e-06
1.25446e-05
3.74193e-05
7.60484e-05
0.000122351
0.000172395
0.000225477
0.000282882
0.000347227
0.000423017
0.000520028
0.000665403
0.000866771
0.00113146
0.00147428
0.00191542
0.00248066
0.00320238
2.39713e-09
2.44167e-07
2.50361e-06
1.23737e-05
3.70522e-05
7.55623e-05
0.000121823
0.000171849
0.000224918
0.000282254
0.000346352
0.000421473
0.000516576
0.000656923
0.000854293
0.0011148
0.00145272
0.00188815
0.00244707
0.00316171
2.38321e-09
2.41473e-07
2.4723e-06
1.22208e-05
3.67235e-05
7.51106e-05
0.000121327
0.000171357
0.000224425
0.000281725
0.000345653
0.000420253
0.000513769
0.000649151
0.000842616
0.0010991
0.00143235
0.00186214
0.00241375
0.00311724
2.36413e-09
2.38824e-07
2.43889e-06
1.20845e-05
3.64228e-05
7.46853e-05
0.00012089
0.000170937
0.000224014
0.000281282
0.000345077
0.000419225
0.000511318
0.000641957
0.000831615
0.00108431
0.00141322
0.00183791
0.00238383
0.0030836
2.33533e-09
2.35496e-07
2.40749e-06
1.19547e-05
3.61259e-05
7.43185e-05
0.000120503
0.000170561
0.000223658
0.000280923
0.000344593
0.000418292
0.000509065
0.000635333
0.000821318
0.00107029
0.0013948
0.00181364
0.00235036
0.00302982
2.31179e-09
2.32289e-07
2.38229e-06
1.18415e-05
3.58739e-05
7.39659e-05
0.000120127
0.000170207
0.000223333
0.000280575
0.000344104
0.00041738
0.000506902
0.000629145
0.000811535
0.00105688
0.00137708
0.00179063
0.00232161
0.00300232
2.27616e-09
2.29251e-07
2.35571e-06
1.17313e-05
3.56129e-05
7.36094e-05
0.000119759
0.000169861
0.000223008
0.000280219
0.000343602
0.000416447
0.000504798
0.000623467
0.000802265
0.00104406
0.00136003
0.00176822
0.00229188
0.0029579
2.23897e-09
2.2591e-07
2.32934e-06
1.16077e-05
3.53487e-05
7.32566e-05
0.00011939
0.000169511
0.000222665
0.000279846
0.000343093
0.000415535
0.000502824
0.000618368
0.000793455
0.00103171
0.00134345
0.00174612
0.00226213
0.00291806
2.22031e-09
2.24514e-07
2.31108e-06
1.15126e-05
3.51401e-05
7.29583e-05
0.000119051
0.000169167
0.000222314
0.000279463
0.000342569
0.000414645
0.000501033
0.000613973
0.000785134
0.00101983
0.0013275
0.00172521
0.00223609
0.00289139
2.20858e-09
2.23158e-07
2.29583e-06
1.14355e-05
3.49428e-05
7.26783e-05
0.00011873
0.000168842
0.000221999
0.00027912
0.000342113
0.00041389
0.000499507
0.000610289
0.000777271
0.00100843
0.00131221
0.00170534
0.00221068
0.00285693
2.19428e-09
2.21878e-07
2.27962e-06
1.13554e-05
3.47615e-05
7.2399e-05
0.000118429
0.000168548
0.000221709
0.000278809
0.000341713
0.000413247
0.000498253
0.000607257
0.000769907
0.000997591
0.0012977
0.0016866
0.0021873
0.00282985
2.18245e-09
2.20082e-07
2.26177e-06
1.12796e-05
3.45716e-05
7.21276e-05
0.000118137
0.000168252
0.000221425
0.00027853
0.00034137
0.00041272
0.000497234
0.000604753
0.000763079
0.000987345
0.00128394
0.00166876
0.00216433
0.00279846
2.15935e-09
2.18149e-07
2.24445e-06
1.12044e-05
3.43942e-05
7.18586e-05
0.000117832
0.000167971
0.000221187
0.000278312
0.000341129
0.000412342
0.000496414
0.000602588
0.000756683
0.000977589
0.00127072
0.00165133
0.00214108
0.00276608
2.14815e-09
2.16759e-07
2.23216e-06
1.11395e-05
3.42403e-05
7.16509e-05
0.000117603
0.000167748
0.000220982
0.000278138
0.000340953
0.00041205
0.000495731
0.000600672
0.000750708
0.000968329
0.0012581
0.00163466
0.00211942
0.00273972
2.1433e-09
2.16051e-07
2.22181e-06
1.10857e-05
3.41125e-05
7.14677e-05
0.000117416
0.000167578
0.000220829
0.000278004
0.000340814
0.000411808
0.000495102
0.000598873
0.000745072
0.000959473
0.0012458
0.00161794
0.00209606
0.00270342
2.1249e-09
2.14393e-07
2.20816e-06
1.10273e-05
3.39845e-05
7.12901e-05
0.000117232
0.000167412