/*--------------------------------*- C++ -*----------------------------------*\
| =========                 |                                                 |
| \\      /  F ield         | OpenFOAM: The Open Source CFD Toolbox           |
|  \\    /   O peration     | Version:  2.3.0                                 |
|   \\  /    A nd           | Web:      www.OpenFOAM.org                      |
|    \\/     M anipulation  |                                                 |
\*---------------------------------------------------------------------------*/
FoamFile
{
    version     2.0;
    format      ascii;
    class       volScalarField;
    location    "400";
    object      p;
}
// * * * * * * * * * * * * * * * * * * * * * * * * * * * * * * * * * * * * * //

dimensions      [0 2 -2 0 0 0 0];

internalField   nonuniform List<scalar> 
28256
(
-0.00575287
14.083
25.0456
34.2733
41.1504
44.8885
45.3803
43.1134
38.4995
32.3344
25.3623
17.8319
10.2017
2.29903
-5.67325
-14.1122
-22.3608
-30.6151
-35.5239
-41.3956
-5.64486
4.62024
12.3269
18.8148
24.0066
27.7996
30.2705
31.4993
31.3885
29.9327
27.0632
22.8269
17.3392
10.8015
3.46512
-4.43097
-12.7011
-21.2179
-29.5157
-37.9683
-11.6318
-4.37949
0.400986
3.73837
5.45364
5.39823
3.71991
0.596634
-3.60128
-8.53244
-13.8429
-19.274
-24.6109
-29.8074
-34.5663
-39.1845
-43.1321
-46.97
-50.3282
-53.4113
-18.1887
-12.6898
-9.81383
-8.17024
-7.63603
-8.14838
-9.52384
-11.5819
-14.1209
-17.0414
-20.1953
-23.4451
-26.7136
-30.027
-33.0115
-35.9317
-38.6564
-41.1514
-43.2278
-45.3317
-24.6218
-20.4047
-18.9775
-18.6429
-19.2067
-20.5723
-22.5826
-25.0462
-27.7588
-30.6053
-33.4387
-36.1364
-38.5964
-40.8664
-42.9605
-44.7145
-46.1785
-47.5448
-48.5458
-49.4983
-30.1726
-27.3172
-26.7722
-27.1407
-28.0809
-29.4721
-31.1704
-33.0636
-34.9919
-36.8751
-38.7073
-40.3699
-41.8941
-43.1645
-44.3452
-45.2927
-46.023
-46.6514
-47.0347
-47.4207
-35.2633
-33.3475
-33.4345
-34.2098
-35.361
-36.7816
-38.3451
-39.9731
-41.5501
-43.0271
-44.3754
-45.5301
-46.5104
-47.2696
-47.8773
-48.2672
-48.5715
-48.6755
-48.6185
-48.4883
-38.9107
-38.4634
-38.9728
-39.9146
-41.0618
-42.3248
-43.5926
-44.8236
-45.9255
-46.9322
-47.7022
-48.3722
-48.8149
-49.1067
-49.2677
-49.2405
-49.1031
-48.8689
-48.4923
-48.0497
-42.6358
-42.8947
-43.5994
-44.5522
-45.6107
-46.7011
-47.7225
-48.6451
-49.4296
-50.081
-50.5218
-50.8329
-50.9467
-50.937
-50.7577
-50.4698
-50.0378
-49.5674
-48.9613
-48.3158
-45.882
-46.5635
-47.3202
-48.221
-49.1409
-50.023
-50.7954
-51.4331
-51.9207
-52.2411
-52.4124
-52.4155
-52.2473
-52.0053
-51.5512
-51.0991
-50.4688
-49.7845
-49.0405
-48.2581
-48.797
-49.5202
-50.2814
-51.0956
-51.8557
-52.5337
-53.0877
-53.4945
-53.7356
-53.8347
-53.768
-53.5843
-53.2021
-52.7905
-52.2014
-51.5419
-50.8342
-50.0411
-49.1597
-48.2975
-51.1536
-51.8898
-52.6061
-53.2936
-53.886
-54.3726
-54.7242
-54.9235
-54.9623
-54.8768
-54.636
-54.2822
-53.7686
-53.2053
-52.5593
-51.7638
-50.9717
-50.1104
-49.2171
-48.2622
-53.0494
-53.7718
-54.3922
-54.9262
-55.3585
-55.6542
-55.8413
-55.8578
-55.7496
-55.4989
-55.1629
-54.662
-54.0803
-53.4242
-52.6872
-51.882
-51.042
-50.1267
-49.2267
-48.2604
-54.7231
-55.3311
-55.7623
-56.1174
-56.382
-56.5004
-56.5294
-56.3961
-56.1769
-55.7917
-55.3679
-54.7818
-54.1676
-53.4322
-52.6779
-51.8394
-50.9861
-50.101
-49.175
-48.2322
-55.8328
-56.384
-56.6779
-56.8838
-57.0013
-56.9816
-56.8678
-56.6305
-56.2951
-55.8538
-55.336
-54.7104
-54.087
-53.3044
-52.5576
-51.722
-50.8744
-49.9967
-49.1198
-48.2035
-56.7875
-57.1156
-57.2755
-57.3262
-57.3057
-57.1671
-56.9257
-56.6182
-56.1882
-55.7156
-55.1386
-54.4918
-53.8547
-53.0929
-52.3323
-51.5399
-50.718
-49.8705
-49.0254
-48.1623
-57.4749
-57.6171
-57.6123
-57.5225
-57.3657
-57.1259
-56.7927
-56.4023
-55.9311
-55.4066
-54.8144
-54.1731
-53.5212
-52.7954
-52.0342
-51.3083
-50.4959
-49.7116
-48.9085
-48.0983
-57.6749
-57.7951
-57.6742
-57.4758
-57.2271
-56.9031
-56.5253
-56.0676
-55.5831
-55.0238
-54.449
-53.8155
-53.1888
-52.5078
-51.7782
-51.0719
-50.3452
-49.5844
-48.8388
-48.0844
-57.8384
-57.7463
-57.4982
-57.1675
-56.8296
-56.4285
-55.9965
-55.4814
-54.9406
-54.349
-53.7773
-53.1607
-52.5687
-51.9227
-51.2497
-50.558
-49.9099
-49.2203
-48.5745
-47.8613
-58.175
-58.1031
-57.7558
-57.3894
-56.9672
-56.6539
-56.295
-55.8315
-55.3346
-54.7318
-54.0856
-53.5578
-53.078
-52.5456
-51.9258
-51.1993
-50.409
-49.7717
-49.2066
-48.5366
-73.3295
-97.0005
-109.844
-119.588
-128.418
-136.236
-142.951
-148.203
-152.187
-154.84
-156.142
-156.066
-154.552
-151.491
-146.734
-140.241
-132.121
-122.74
-112.478
-103.411
-46.3687
-54.966
-63.5606
-72.727
-82.1681
-91.2829
-100.255
-108.483
-115.833
-121.854
-126.374
-129.17
-130.138
-129.331
-126.854
-122.879
-117.596
-111.215
-103.861
-97.4213
-56.2355
-59.4644
-62.7955
-66.263
-70.2837
-74.5284
-79.1255
-83.8321
-88.5934
-93.1197
-97.426
-101.139
-104.075
-106.026
-106.699
-106.013
-103.91
-100.452
-95.7395
-91.131
-47.4089
-49.4702
-51.8776
-54.6357
-57.7603
-61.3034
-64.9728
-68.9471
-73.1627
-77.287
-81.301
-85.0176
-88.2562
-90.7724
-92.4447
-93.0907
-92.6005
-90.95
-88.1585
-85.0125
-50.2969
-51.2145
-52.4662
-53.8684
-55.5221
-57.5271
-59.7406
-62.1738
-64.9082
-67.7298
-70.6658
-73.5876
-76.3347
-78.8115
-80.8181
-82.1684
-82.7277
-82.3706
-81.0475
-78.9694
-47.7785
-48.1385
-48.8468
-49.6743
-50.7621
-52.1698
-53.8202
-55.6174
-57.781
-60.0098
-62.4085
-64.9301
-67.361
-69.6669
-71.7278
-73.3701
-74.4639
-74.8809
-74.5837
-73.5642
-48.3856
-48.2871
-48.4593
-48.7997
-49.3353
-50.0251
-51.0613
-52.2036
-53.628
-55.1851
-56.8915
-58.7909
-60.7226
-62.6902
-64.5449
-66.1809
-67.5156
-68.3918
-68.7421
-68.4269
-47.6614
-47.2655
-47.1276
-47.0724
-47.3098
-47.6625
-48.2178
-48.9836
-49.9177
-51.1121
-52.4073
-53.9146
-55.4921
-57.1478
-58.7926
-60.339
-61.6978
-62.81
-63.5673
-63.7328
-47.692
-47.1131
-46.7071
-46.3826
-46.2647
-46.3382
-46.5658
-46.9753
-47.4985
-48.2693
-49.2052
-50.2447
-51.4593
-52.7888
-54.1692
-55.5678
-56.8829
-58.0519
-59.0252
-59.4324
-47.4516
-46.7293
-46.1861
-45.7062
-45.3679
-45.1672
-45.1426
-45.3123
-45.571
-46.0258
-46.6626
-47.4276
-48.3354
-49.3737
-50.4977
-51.6955
-52.8801
-54.0354
-55.0962
-55.6063
-47.4392
-46.6091
-45.9063
-45.2892
-44.8219
-44.467
-44.2334
-44.1798
-44.1926
-44.4158
-44.7645
-45.2654
-45.8933
-46.6911
-47.5667
-48.5619
-49.5953
-50.6571
-51.6935
-52.1725
-47.3673
-46.4777
-45.7359
-45.0162
-44.47
-43.9764
-43.5936
-43.366
-43.2263
-43.2334
-43.3892
-43.6736
-44.074
-44.6343
-45.2918
-46.0675
-46.925
-47.8594
-48.8032
-49.1439
-47.3546
-46.4392
-45.6606
-44.8923
-44.2425
-43.6907
-43.2227
-42.8551
-42.5919
-42.4549
-42.4196
-42.4991
-42.7153
-43.0647
-43.54
-44.1196
-44.8167
-45.6007
-46.4368
-46.6449
-47.335
-46.4247
-45.6249
-44.8686
-44.1658
-43.5518
-43.0432
-42.575
-42.2006
-41.9587
-41.7919
-41.7227
-41.8033
-41.9478
-42.2595
-42.643
-43.1541
-43.7884
-44.494
-44.5274
-47.3363
-46.4435
-45.6613
-44.8907
-44.2055
-43.5252
-43.0051
-42.4646
-42.0394
-41.6933
-41.4298
-41.253
-41.169
-41.1946
-41.3147
-41.5579
-41.9197
-42.3695
-42.8984
-42.6728
-47.3331
-46.4735
-45.7277
-44.9685
-44.2793
-43.6183
-43.0418
-42.4892
-42.0271
-41.6358
-41.2562
-41.0269
-40.8255
-40.7519
-40.7159
-40.8113
-41.0099
-41.3188
-41.6496
-41.2744
-47.3212
-46.5074
-45.7772
-45.0706
-44.3801
-43.7537
-43.1532
-42.5921
-42.0999
-41.6868
-41.2635
-40.9525
-40.6822
-40.4975
-40.3607
-40.329
-40.3492
-40.4913
-40.6443
-40.3061
-47.3375
-46.5889
-45.8862
-45.1786
-44.5365
-43.8968
-43.3084
-42.7589
-42.2532
-41.7998
-41.3931
-41.009
-40.7125
-40.4275
-40.2204
-40.0759
-39.9699
-39.9372
-39.9248
-39.5833
-47.1639
-46.4681
-45.8245
-45.1583
-44.5587
-43.9171
-43.3617
-42.8401
-42.3804
-41.9278
-41.5758
-41.1566
-40.8251
-40.5191
-40.232
-40.0131
-39.8213
-39.6727
-39.5551
-39.3807
-47.7982
-47.0675
-46.4852
-45.9164
-45.1066
-44.4995
-43.5482
-43.1117
-42.6862
-42.3312
-41.833
-41.4736
-40.9672
-40.4708
-40.3755
-40.045
-39.7646
-39.5349
-39.3959
-39.5935
-145.191
-144.486
-143.837
-143.176
-142.486
-141.745
-140.947
-140.106
-139.249
-138.422
-137.653
-136.962
-136.342
-135.806
-135.404
-135.198
-135.166
-135.202
-135.182
-135.043
-143.787
-142.691
-141.732
-140.865
-140.144
-139.608
-139.289
-139.207
-139.338
-139.629
-140.081
-140.728
-141.546
-142.433
-143.282
-144.08
-145.087
-146.709
-148.209
-147.861
-142.566
-141.177
-140.007
-138.964
-138.105
-137.439
-136.942
-136.594
-136.468
-136.671
-137.216
-138.079
-139.313
-141.093
-143.544
-146.512
-149.532
-151.853
-152.554
-151.265
-141.439
-139.762
-138.323
-136.94
-135.656
-134.472
-133.473
-132.846
-132.736
-133.229
-134.365
-136.056
-138.097
-140.231
-142.171
-143.638
-144.447
-144.554
-144.06
-143.167
-140.378
-138.483
-136.8
-135.121
-133.55
-132.261
-131.52
-131.53
-132.336
-133.783
-135.579
-137.409
-139.031
-140.297
-141.15
-141.6
-141.699
-141.518
-141.121
-140.562
-139.451
-137.455
-135.628
-133.859
-132.429
-131.638
-131.677
-132.481
-133.766
-135.219
-136.604
-137.784
-138.698
-139.339
-139.728
-139.897
-139.88
-139.713
-139.42
-139.027
-138.784
-136.737
-134.914
-133.379
-132.492
-132.422
-133.043
-134.06
-135.206
-136.307
-137.264
-138.037
-138.616
-139.011
-139.241
-139.326
-139.29
-139.149
-138.918
-138.614
-138.298
-136.378
-134.817
-133.82
-133.585
-133.981
-134.742
-135.642
-136.535
-137.342
-138.021
-138.555
-138.943
-139.202
-139.34
-139.373
-139.313
-139.173
-138.962
-138.693
-138.181
-136.504
-135.451
-135.051
-135.232
-135.766
-136.461
-137.193
-137.885
-138.49
-138.986
-139.371
-139.648
-139.823
-139.905
-139.903
-139.825
-139.679
-139.471
-139.206
-138.511
-137.232
-136.714
-136.706
-137.042
-137.564
-138.159
-138.751
-139.293
-139.76
-140.142
-140.433
-140.635
-140.755
-140.797
-140.766
-140.669
-140.508
-140.289
-140.014
-139.185
-138.453
-138.315
-138.493
-138.869
-139.345
-139.852
-140.341
-140.78
-141.153
-141.455
-141.683
-141.838
-141.921
-141.934
-141.882
-141.766
-141.591
-141.357
-141.066
-140.409
-139.992
-140.054
-140.309
-140.684
-141.114
-141.55
-141.962
-142.331
-142.645
-142.896
-143.081
-143.2
-143.255
-143.247
-143.177
-143.046
-142.856
-142.609
-142.307
-141.82
-141.664
-141.834
-142.123
-142.482
-142.871
-143.258
-143.617
-143.935
-144.203
-144.417
-144.574
-144.671
-144.708
-144.684
-144.602
-144.462
-144.265
-144.01
-143.699
-143.345
-143.361
-143.605
-143.913
-144.26
-144.62
-144.968
-145.291
-145.577
-145.819
-146.009
-146.145
-146.226
-146.25
-146.219
-146.131
-145.985
-145.783
-145.527
-145.216
-144.934
-145.1
-145.373
-145.686
-146.02
-146.355
-146.677
-146.973
-147.233
-147.452
-147.625
-147.749
-147.822
-147.842
-147.807
-147.719
-147.577
-147.382
-147.132
-146.828
-146.645
-146.858
-147.151
-147.459
-147.774
-148.09
-148.393
-148.672
-148.919
-149.126
-149.29
-149.409
-149.477
-149.496
-149.463
-149.38
-149.245
-149.058
-148.819
-148.529
-148.694
-148.724
-148.977
-149.246
-149.522
-149.801
-150.073
-150.325
-150.548
-150.739
-150.893
-151.007
-151.08
-151.108
-151.089
-151.023
-150.907
-150.742
-150.526
-150.263
-150.075
-150.471
-150.766
-151.043
-151.318
-151.599
-151.883
-152.154
-152.393
-152.588
-152.738
-152.843
-152.902
-152.919
-152.893
-152.825
-152.713
-152.558
-152.359
-152.12
-152.012
-152.103
-152.322
-152.504
-152.655
-152.845
-153.045
-153.239
-153.424
-153.59
-153.757
-153.942
-154.089
-154.194
-154.252
-154.273
-154.24
-154.139
-153.976
-153.797
-154.688
-154.939
-155.614
-155.856
-155.55
-155.947
-156.705
-157.566
-157.882
-157.854
-157.416
-157.222
-157.13
-157.025
-156.81
-156.608
-156.418
-156.205
-156.141
-156.191
-134.718
-134.134
-133.324
-132.408
-131.446
-130.412
-129.274
-128.028
-126.671
-125.198
-123.613
-121.927
-120.153
-118.313
-116.44
-114.576
-112.763
-111.028
-109.44
-108.428
-145.944
-143.589
-141.449
-139.6
-137.885
-136.176
-134.437
-132.666
-130.85
-128.969
-127.023
-125.034
-123.033
-121.044
-119.089
-117.185
-115.354
-113.601
-111.958
-110.859
-148.562
-144.976
-141.038
-137.463
-134.763
-132.936
-131.603
-130.421
-129.245
-128.038
-126.777
-125.432
-123.985
-122.442
-120.829
-119.18
-117.535
-115.917
-114.365
-113.242
-142.011
-140.615
-138.936
-137.062
-135.127
-133.285
-131.628
-130.179
-128.921
-127.803
-126.753
-125.706
-124.61
-123.429
-122.15
-120.789
-119.381
-117.961
-116.577
-115.537
-139.894
-139.124
-138.234
-137.218
-136.072
-134.803
-133.438
-132.021
-130.605
-129.237
-127.95
-126.749
-125.613
-124.503
-123.376
-122.209
-121.007
-119.786
-118.594
-117.714
-138.559
-138.008
-137.37
-136.645
-135.829
-134.917
-133.909
-132.808
-131.628
-130.392
-129.135
-127.894
-126.704
-125.581
-124.516
-123.484
-122.461
-121.439
-120.446
-119.699
-138.248
-137.81
-137.289
-136.688
-136.008
-135.246
-134.401
-133.47
-132.458
-131.371
-130.225
-129.045
-127.867
-126.732
-125.673
-124.702
-123.809
-122.964
-122.171
-121.572
-138.37
-137.978
-137.513
-136.979
-136.373
-135.697
-134.947
-134.124
-133.228
-132.262
-131.232
-130.154
-129.049
-127.953
-126.91
-125.964
-125.138
-124.424
-123.811
-123.365
-138.886
-138.507
-138.062
-137.553
-136.982
-136.346
-135.649
-134.888
-134.065
-133.183
-132.245
-131.26
-130.243
-129.219
-128.226
-127.311
-126.523
-125.887
-125.407
-125.101
-139.688
-139.303
-138.858
-138.357
-137.799
-137.186
-136.519
-135.798
-135.024
-134.201
-133.333
-132.425
-131.49
-130.546
-129.621
-128.755
-128.002
-127.409
-127.006
-126.794
-140.724
-140.327
-139.877
-139.374
-138.82
-138.217
-137.567
-136.871
-136.132
-135.352
-134.537
-133.693
-132.829
-131.959
-131.106
-130.301
-129.592
-129.03
-128.665
-128.508
-141.952
-141.545
-141.086
-140.58
-140.028
-139.431
-138.794
-138.117
-137.403
-136.658
-135.886
-135.093
-134.29
-133.487
-132.703
-131.964
-131.308
-130.782
-130.44
-130.323
-143.336
-142.923
-142.462
-141.957
-141.408
-140.819
-140.193
-139.532
-138.842
-138.126
-137.391
-136.643
-135.891
-135.148
-134.427
-133.751
-133.149
-132.66
-132.327
-132.213
-144.852
-144.441
-143.984
-143.484
-142.944
-142.367
-141.756
-141.114
-140.448
-139.76
-139.059
-138.352
-137.646
-136.955
-136.29
-135.672
-135.125
-134.676
-134.363
-134.278
-146.472
-146.071
-145.626
-145.141
-144.616
-144.058
-143.468
-142.851
-142.212
-141.556
-140.891
-140.224
-139.564
-138.923
-138.313
-137.752
-137.26
-136.862
-136.59
-136.563
-148.19
-147.806
-147.381
-146.917
-146.416
-145.884
-145.322
-144.736
-144.13
-143.511
-142.885
-142.259
-141.641
-141.044
-140.479
-139.961
-139.502
-139.12
-138.832
-138.752
-149.951
-149.597
-149.201
-148.769
-148.302
-147.804
-147.279
-146.733
-146.17
-145.596
-145.017
-144.44
-143.874
-143.329
-142.816
-142.349
-141.941
-141.605
-141.363
-141.367
-151.836
-151.505
-151.137
-150.74
-150.312
-149.857
-149.38
-148.889
-148.385
-147.871
-147.349
-146.827
-146.314
-145.819
-145.352
-144.923
-144.535
-144.195
-143.932
-143.915
-153.57
-153.291
-152.997
-152.688
-152.326
-151.89
-151.439
-150.992
-150.545
-150.103
-149.641
-149.183
-148.73
-148.297
-147.897
-147.551
-147.221
-146.924
-146.737
-146.823
-156.248
-155.667
-155.099
-154.684
-154.246
-154.034
-153.679
-153.577
-153.374
-153.116
-152.759
-152.351
-151.939
-151.605
-151.387
-151.232
-150.804
-150.316
-150.217
-150.176
379.819
375.569
368.833
360.743
351.765
341.691
329.542
315.065
298.104
278.672
256.587
231.965
204.935
175.908
145.816
115.682
86.6704
59.9346
35.8246
13.5865
7.05475
7.88108
9.31749
11.1606
13.2579
15.125
16.6964
18.5067
20.6339
22.9578
25.3768
27.8012
30.0348
31.7636
32.5229
31.7445
28.8876
23.592
15.6776
4.88288
46.8369
46.8545
46.9248
47.0582
47.2214
47.2853
47.2352
47.0363
46.5715
45.7171
44.3473
42.335
39.5612
35.9423
31.4423
26.08
19.9162
13.0244
5.40472
-3.21449
14.8624
14.8774
14.9447
15.061
15.1459
15.1139
15.0135
14.8641
14.6393
14.3064
13.8219
13.1206
12.1164
10.694
8.70925
6.0067
2.44633
-2.04703
-7.45732
-13.8561
-25.9466
-25.9031
-25.7637
-25.467
-25.0626
-24.5763
-24.0147
-23.3813
-22.6897
-21.9605
-21.2217
-20.5143
-19.8917
-19.4298
-19.2292
-19.4224
-20.1706
-21.6351
-23.9023
-27.1348
-49.0516
-48.987
-48.8289
-48.5306
-48.0894
-47.5471
-46.9116
-46.1782
-45.35
-44.4361
-43.4551
-42.4305
-41.3991
-40.4103
-39.5351
-38.8628
-38.5089
-38.5921
-39.1483
-40.2903
-68.9945
-68.9346
-68.7873
-68.49
-68.043
-67.4787
-66.8028
-66.0073
-65.0855
-64.036
-62.8636
-61.5774
-60.1958
-58.7513
-57.2955
-55.8984
-54.6597
-53.6905
-53.0359
-52.6793
-85.6222
-85.5666
-85.4316
-85.1576
-84.7291
-84.1698
-83.4939
-82.6883
-81.7424
-80.6479
-79.3992
-77.9957
-76.4408
-74.7495
-72.9508
-71.0931
-69.2516
-67.5196
-65.9889
-64.9264
-98.8057
-98.753
-98.6357
-98.3898
-97.9946
-97.4688
-96.8207
-96.0434
-95.1218
-94.0437
-92.8005
-91.3816
-89.7836
-88.0079
-86.0671
-83.9896
-81.8256
-79.6483
-77.5338
-75.557
-109.463
-109.42
-109.314
-109.097
-108.741
-108.254
-107.648
-106.914
-106.038
-105.005
-103.8
-102.411
-100.826
-99.0384
-97.048
-94.8665
-92.5202
-90.0623
-87.5858
-85.1693
-118.277
-118.236
-118.145
-117.952
-117.63
-117.185
-116.621
-115.935
-115.111
-114.131
-112.981
-111.645
-110.105
-108.35
-106.371
-104.168
-101.75
-99.1463
-96.4482
-93.9807
-125.47
-125.436
-125.354
-125.184
-124.898
-124.495
-123.979
-123.346
-122.578
-121.662
-120.579
-119.312
-117.841
-116.15
-114.222
-112.048
-109.624
-106.966
-104.137
-101.257
-131.468
-131.436
-131.365
-131.214
-130.958
-130.592
-130.12
-129.535
-128.823
-127.969
-126.954
-125.761
-124.37
-122.761
-120.916
-118.822
-116.468
-113.862
-111.093
-108.586
-136.379
-136.352
-136.289
-136.155
-135.925
-135.595
-135.163
-134.625
-133.969
-133.175
-132.228
-131.109
-129.796
-128.269
-126.505
-124.483
-122.186
-119.601
-116.756
-113.869
-140.473
-140.449
-140.394
-140.274
-140.067
-139.767
-139.374
-138.88
-138.272
-137.535
-136.652
-135.603
-134.369
-132.927
-131.254
-129.328
-127.128
-124.639
-121.876
-119.064
-143.826
-143.806
-143.757
-143.65
-143.465
-143.194
-142.836
-142.384
-141.825
-141.144
-140.324
-139.347
-138.194
-136.841
-135.265
-133.443
-131.353
-128.976
-126.315
-123.545
-146.58
-146.562
-146.519
-146.424
-146.256
-146.009
-145.682
-145.265
-144.748
-144.117
-143.354
-142.442
-141.361
-140.088
-138.602
-136.876
-134.885
-132.608
-130.034
-127.273
-148.773
-148.758
-148.72
-148.635
-148.483
-148.259
-147.96
-147.578
-147.103
-146.52
-145.812
-144.962
-143.952
-142.759
-141.36
-139.73
-137.842
-135.672
-133.205
-130.526
-150.516
-150.503
-150.47
-150.393
-150.256
-150.053
-149.78
-149.43
-148.992
-148.453
-147.796
-147.005
-146.062
-144.946
-143.635
-142.103
-140.324
-138.275
-135.936
-133.385
-151.817
-151.806
-151.777
-151.709
-151.585
-151.4
-151.151
-150.831
-150.429
-149.931
-149.323
-148.59
-147.712
-146.671
-145.444
-144.005
-142.327
-140.383
-138.155
-135.689
-152.753
-152.744
-152.719
-152.658
-152.546
-152.377
-152.149
-151.856
-151.486
-151.028
-150.467
-149.788
-148.975
-148.008
-146.866
-145.525
-143.958
-142.138
-140.046
-137.786
-153.243
-153.236
-153.216
-153.164
-153.065
-152.916
-152.714
-152.452
-152.121
-151.71
-151.204
-150.588
-149.848
-148.964
-147.917
-146.685
-145.241
-143.558
-141.611
-139.5
-153.316
-153.312
-153.295
-153.251
-153.168
-153.04
-152.865
-152.639
-152.352
-151.992
-151.547
-151.002
-150.343
-149.551
-148.607
-147.488
-146.17
-144.625
-142.818
-140.796
-153.219
-153.215
-153.202
-153.165
-153.094
-152.982
-152.83
-152.632
-152.38
-152.063
-151.669
-151.185
-150.597
-149.888
-149.039
-148.027
-146.828
-145.413
-143.747
-141.843
-153.065
-153.062
-153.051
-153.019
-152.956
-152.858
-152.724
-152.548
-152.324
-152.042
-151.691
-151.258
-150.73
-150.091
-149.324
-148.408
-147.318
-146.028
-144.506
-142.744
-152.818
-152.816
-152.806
-152.779
-152.725
-152.64
-152.522
-152.368
-152.171
-151.921
-151.61
-151.225
-150.753
-150.179
-149.487
-148.658
-147.667
-146.489
-145.097
-143.483
-152.62
-152.618
-152.609
-152.584
-152.535
-152.458
-152.351
-152.211
-152.032
-151.805
-151.522
-151.171
-150.74
-150.216
-149.584
-148.826
-147.92
-146.841
-145.564
-144.101
-152.373
-152.371
-152.364
-152.342
-152.299
-152.231
-152.135
-152.01
-151.85
-151.646
-151.389
-151.071
-150.678
-150.199
-149.619
-148.92
-148.082
-147.079
-145.88
-144.478
-152.168
-152.167
-152.16
-152.14
-152.1
-152.037
-151.949
-151.835
-151.687
-151.499
-151.264
-150.97
-150.609
-150.168
-149.632
-148.986
-148.209
-147.278
-146.161
-144.836
-151.957
-151.956
-151.95
-151.932
-151.896
-151.839
-151.761
-151.656
-151.522
-151.352
-151.136
-150.868
-150.537
-150.131
-149.637
-149.041
-148.323
-147.461
-146.431
-145.21
-151.803
-151.802
-151.796
-151.779
-151.746
-151.693
-151.619
-151.522
-151.397
-151.238
-151.038
-150.789
-150.482
-150.104
-149.645
-149.092
-148.426
-147.627
-146.674
-145.56
-151.634
-151.633
-151.627
-151.612
-151.582
-151.533
-151.466
-151.377
-151.262
-151.116
-150.932
-150.703
-150.418
-150.067
-149.64
-149.122
-148.499
-147.75
-146.852
-145.802
-151.492
-151.491
-151.486
-151.472
-151.444
-151.399
-151.337
-151.254
-151.148
-151.012
-150.841
-150.627
-150.361
-150.034
-149.635
-149.151
-148.567
-147.865
-147.024
-146.056
-151.38
-151.378
-151.373
-151.36
-151.334
-151.292
-151.234
-151.157
-151.058
-150.931
-150.771
-150.57
-150.321
-150.013
-149.638
-149.182
-148.633
-147.971
-147.173
-146.247
-151.289
-151.288
-151.284
-151.271
-151.247
-151.208
-151.153
-151.081
-150.988
-150.869
-150.718
-150.529
-150.295
-150.005
-149.651
-149.221
-148.701
-148.075
-147.318
-146.428
-151.213
-151.212
-151.208
-151.197
-151.174
-151.137
-151.086
-151.019
-150.932
-150.821
-150.68
-150.502
-150.282
-150.01
-149.676
-149.271
-148.78
-148.188
-147.475
-146.628
-151.185
-151.184
-151.179
-151.168
-151.146
-151.112
-151.063
-150.998
-150.915
-150.809
-150.674
-150.505
-150.296
-150.037
-149.72
-149.334
-148.866
-148.303
-147.626
-146.822
-151.15
-151.149
-151.145
-151.135
-151.114
-151.082
-151.037
-150.977
-150.899
-150.8
-150.674
-150.516
-150.319
-150.074
-149.774
-149.408
-148.964
-148.429
-147.786
-147.037
-151.162
-151.161
-151.158
-151.148
-151.128
-151.097
-151.053
-150.996
-150.921
-150.826
-150.705
-150.554
-150.365
-150.131
-149.844
-149.494
-149.07
-148.557
-147.939
-147.218
-151.182
-151.181
-151.177
-151.168
-151.15
-151.12
-151.079
-151.025
-150.955
-150.865
-150.75
-150.606
-150.427
-150.204
-149.929
-149.594
-149.186
-148.692
-148.095
-147.395
-151.236
-151.235
-151.231
-151.222
-151.205
-151.177
-151.138
-151.085
-151.018
-150.932
-150.823
-150.685
-150.513
-150.299
-150.037
-149.717
-149.329
-148.861
-148.297
-147.653
-151.303
-151.302
-151.299
-151.29
-151.274
-151.247
-151.209
-151.16
-151.096
-151.014
-150.91
-150.779
-150.615
-150.411
-150.16
-149.853
-149.48
-149.03
-148.485
-147.851
-151.396
-151.395
-151.391
-151.383
-151.367
-151.342
-151.306
-151.259
-151.197
-151.119
-151.019
-150.892
-150.734
-150.537
-150.295
-149.998
-149.636
-149.197
-148.662
-148.028
-151.52
-151.519
-151.516
-151.508
-151.492
-151.468
-151.433
-151.387
-151.327
-151.251
-151.155
-151.033
-150.88
-150.691
-150.457
-150.171
-149.823
-149.402
-148.891
-148.284
-151.664
-151.663
-151.66
-151.652
-151.637
-151.613
-151.58
-151.536
-151.478
-151.405
-151.312
-151.194
-151.047
-150.864
-150.639
-150.362
-150.026
-149.619
-149.124
-148.503
-151.814
-151.813
-151.81
-151.803
-151.789
-151.767
-151.735
-151.694
-151.639
-151.57
-151.482
-151.37
-151.229
-151.054
-150.839
-150.574
-150.252
-149.864
-149.401
-148.856
-152.007
-152.006
-152.004
-151.996
-151.983
-151.961
-151.929
-151.888
-151.835
-151.767
-151.68
-151.57
-151.432
-151.261
-151.05
-150.79
-150.473
-150.088
-149.618
-149.019
-152.225
-152.224
-152.221
-152.214
-152.2
-152.179
-152.148
-152.108
-152.056
-151.989
-151.903
-151.795
-151.66
-151.491
-151.283
-151.027
-150.714
-150.334
-149.873
-149.291
-152.442
-152.441
-152.438
-152.431
-152.418
-152.398
-152.369
-152.331
-152.282
-152.218
-152.137
-152.034
-151.904
-151.741
-151.54
-151.293
-150.991
-150.624
-150.182
-149.624
-152.71
-152.709
-152.706
-152.7
-152.687
-152.667
-152.638
-152.6
-152.551
-152.488
-152.407
-152.305
-152.177
-152.018
-151.821
-151.578
-151.282
-150.922
-150.486
-149.923
-152.986
-152.985
-152.983
-152.976
-152.964
-152.945
-152.917
-152.881
-152.834
-152.773
-152.695
-152.596
-152.471
-152.315
-152.122
-151.884
-151.593
-151.238
-150.81
-150.256
-153.288
-153.287
-153.284
-153.278
-153.267
-153.248
-153.222
-153.187
-153.141
-153.082
-153.006
-152.91
-152.788
-152.636
-152.446
-152.213
-151.926
-151.578
-151.157
-150.611
-153.644
-153.643
-153.641
-153.634
-153.622
-153.604
-153.577
-153.542
-153.496
-153.436
-153.361
-153.264
-153.143
-152.991
-152.803
-152.571
-152.287
-151.939
-151.52
-150.983
-154.015
-154.014
-154.012
-154.006
-153.995
-153.976
-153.95
-153.916
-153.871
-153.813
-153.739
-153.644
-153.525
-153.374
-153.187
-152.957
-152.674
-152.327
-151.906
-151.371
-154.424
-154.423
-154.421
-154.415
-154.404
-154.386
-154.36
-154.326
-154.282
-154.225
-154.151
-154.057
-153.938
-153.788
-153.602
-153.372
-153.089
-152.742
-152.317
-151.756
-154.87
-154.869
-154.867
-154.861
-154.85
-154.833
-154.808
-154.774
-154.73
-154.673
-154.6
-154.506
-154.388
-154.239
-154.053
-153.824
-153.541
-153.195
-152.776
-152.212
-155.366
-155.365
-155.363
-155.357
-155.346
-155.328
-155.303
-155.269
-155.225
-155.167
-155.094
-155
-154.88
-154.73
-154.543
-154.311
-154.026
-153.678
-153.258
-152.694
-155.899
-155.898
-155.896
-155.89
-155.879
-155.861
-155.836
-155.803
-155.758
-155.701
-155.626
-155.531
-155.41
-155.258
-155.068
-154.832
-154.542
-154.186
-153.758
-153.211
-156.468
-156.467
-156.465
-156.46
-156.449
-156.431
-156.407
-156.373
-156.329
-156.271
-156.196
-156.1
-155.977
-155.822
-155.627
-155.385
-155.085
-154.715
-154.265
-153.68
-157.12
-157.12
-157.117
-157.111
-157.1
-157.082
-157.056
-157.021
-156.975
-156.914
-156.836
-156.735
-156.606
-156.443
-156.239
-155.984
-155.669
-155.281
-154.809
-154.203
-157.818
-157.817
-157.815
-157.809
-157.798
-157.78
-157.754
-157.718
-157.671
-157.609
-157.528
-157.423
-157.289
-157.119
-156.904
-156.636
-156.304
-155.895
-155.397
-154.76
-158.634
-158.634
-158.631
-158.625
-158.612
-158.591
-158.562
-158.522
-158.47
-158.401
-158.312
-158.197
-158.051
-157.865
-157.632
-157.343
-156.986
-156.548
-156.018
-155.342
-159.507
-159.506
-159.504
-159.497
-159.483
-159.462
-159.43
-159.387
-159.329
-159.254
-159.156
-159.03
-158.87
-158.666
-158.411
-158.094
-157.704
-157.228
-156.653
-155.929
-160.451
-160.45
-160.447
-160.439
-160.424
-160.399
-160.363
-160.315
-160.25
-160.166
-160.057
-159.917
-159.738
-159.511
-159.227
-158.876
-158.444
-157.918
-157.287
-156.503
-161.459
-161.459
-161.455
-161.447
-161.429
-161.4
-161.36
-161.305
-161.232
-161.136
-161.012
-160.853
-160.65
-160.394
-160.075
-159.68
-159.198
-158.613
-157.915
-157.062
-162.522
-162.522
-162.518
-162.508
-162.487
-162.454
-162.407
-162.343
-162.259
-162.148
-162.006
-161.823
-161.591
-161.3
-160.936
-160.488
-159.943
-159.286
-158.508
-157.567
-163.632
-163.631
-163.628
-163.615
-163.591
-163.552
-163.496
-163.421
-163.322
-163.192
-163.025
-162.812
-162.543
-162.204
-161.783
-161.268
-160.643
-159.897
-159.02
-157.962
-164.767
-164.767
-164.762
-164.747
-164.717
-164.67
-164.603
-164.512
-164.393
-164.238
-164.039
-163.786
-163.467
-163.069
-162.577
-161.977
-161.256
-160.402
-159.413
-158.239
-165.918
-165.917
-165.911
-165.892
-165.855
-165.796
-165.712
-165.599
-165.451
-165.261
-165.018
-164.71
-164.324
-163.846
-163.259
-162.551
-161.71
-160.728
-159.609
-158.311
-166.981
-166.979
-166.97
-166.946
-166.897
-166.819
-166.711
-166.567
-166.38
-166.141
-165.837
-165.456
-164.984
-164.403
-163.701
-162.863
-161.884
-160.763
-159.517
-158.126
-167.906
-167.903
-167.891
-167.857
-167.791
-167.686
-167.541
-167.351
-167.105
-166.793
-166.402
-165.917
-165.323
-164.605
-163.75
-162.751
-161.609
-160.335
-158.96
-157.483
-168.145
-168.14
-168.123
-168.075
-167.981
-167.835
-167.634
-167.376
-167.05
-166.645
-166.145
-165.537
-164.808
-163.946
-162.944
-161.803
-160.535
-159.163
-157.735
-156.28
-167.747
-167.739
-167.713
-167.646
-167.511
-167.303
-167.023
-166.667
-166.225
-165.684
-165.03
-164.252
-163.341
-162.296
-161.123
-159.839
-158.473
-157.068
-155.687
-154.39
-162.811
-162.805
-162.78
-162.706
-162.554
-162.317
-162.003
-161.615
-161.151
-160.606
-159.972
-159.248
-158.434
-157.535
-156.561
-155.531
-154.471
-153.423
-152.441
-151.611
-156.154
-156.141
-156.133
-156.093
-155.987
-155.807
-155.56
-155.247
-154.865
-154.401
-153.848
-153.202
-152.47
-151.676
-150.855
-150.055
-149.33
-148.734
-148.306
-148.11
-462.547
-456.332
-447.389
-438.797
-429.705
-418.66
-405.337
-389.732
-371.813
-351.482
-328.821
-304.083
-277.698
-250.327
-222.826
-196.187
-171.342
-149.035
-129.644
-113.839
-123.724
-123.953
-124.154
-124.349
-124.521
-124.718
-125.105
-125.812
-126.805
-128.079
-129.598
-131.233
-132.736
-133.757
-133.908
-132.757
-129.845
-124.846
-117.772
-109.724
-164.027
-164.032
-164.044
-164.06
-164.079
-164.026
-163.764
-163.19
-162.182
-160.601
-158.317
-155.228
-151.272
-146.458
-140.879
-134.675
-127.958
-120.808
-113.253
-105.758
-121.496
-121.497
-121.491
-121.46
-121.372
-121.216
-121.036
-120.841
-120.629
-120.385
-120.095
-119.72
-119.194
-118.407
-117.209
-115.415
-112.833
-109.326
-104.823
-99.8571
-117.586
-117.586
-117.585
-117.588
-117.591
-117.585
-117.538
-117.426
-117.208
-116.832
-116.22
-115.29
-113.969
-112.211
-110.006
-107.375
-104.346
-100.931
-97.0637
-92.8357
-101.009
-100.999
-100.989
-100.973
-100.946
-100.901
-100.834
-100.745
-100.631
-100.479
-100.27
-99.9735
-99.5382
-98.8881
-97.93
-96.5731
-94.7423
-92.3984
-89.5273
-86.28
-93.0944
-93.0832
-93.0712
-93.0599
-93.0503
-93.0417
-93.0254
-92.9869
-92.9125
-92.7868
-92.5861
-92.2778
-91.8167
-91.1472
-90.2076
-88.9428
-87.3103
-85.2926
-82.8948
-79.9567
-83.0694
-83.0552
-83.0388
-83.0193
-82.9998
-82.9791
-82.9529
-82.9133
-82.8585
-82.7817
-82.6749
-82.523
-82.3015
-81.9721
-81.4768
-80.7441
-79.7021
-78.3025
-76.5509
-74.4996
-75.8679
-75.8533
-75.8365
-75.8178
-75.801
-75.7879
-75.7757
-75.7551
-75.7172
-75.6578
-75.568
-75.436
-75.2426
-74.9604
-74.5496
-73.9597
-73.1349
-72.034
-70.6537
-68.8407
-68.6795
-68.6639
-68.6451
-68.6249
-68.6047
-68.5879
-68.5734