/*--------------------------------*- C++ -*----------------------------------*\
| =========                 |                                                 |
| \\      /  F ield         | OpenFOAM: The Open Source CFD Toolbox           |
|  \\    /   O peration     | Version:  2.3.0                                 |
|   \\  /    A nd           | Web:      www.OpenFOAM.org                      |
|    \\/     M anipulation  |                                                 |
\*---------------------------------------------------------------------------*/
FoamFile
{
    version     2.0;
    format      ascii;
    class       surfaceScalarField;
    location    "1000";
    object      phi;
}
// * * * * * * * * * * * * * * * * * * * * * * * * * * * * * * * * * * * * * //

dimensions      [0 3 -1 0 0 0 0];

internalField   nonuniform List<scalar> 
29348
(
-0.00934869
-0.0115083
0.0127587
0.00813688
-0.0104241
-0.0105543
0.0116299
-0.01136
-0.00966998
0.0106061
-0.0121645
-0.00886452
0.0096691
-0.0128584
-0.00811906
0.00881298
-0.0134535
-0.0074377
0.00803274
-0.0139586
-0.00680915
0.00731419
-0.0143817
-0.00623139
0.00665444
-0.0147282
-0.00570018
0.0060465
-0.0150004
-0.00520748
0.00547966
-0.0151968
-0.00475364
0.00494995
-0.0153143
-0.00433125
0.00444881
-0.0153517
-0.00393815
0.00397539
-0.0153058
-0.00356967
0.00352398
-0.0151775
-0.00322421
0.00309587
-0.0149701
-0.00289815
0.00269107
-0.0146858
-0.00259129
0.00230699
-0.014335
-0.00229973
0.00194938
-0.0139255
-0.00202397
0.00161436
-0.0134703
-0.00176019
0.00130552
-0.0129752
-0.00151316
0.00101782
-0.0124491
-0.00128005
0.00075459
-0.0119215
-0.00106401
0.000536059
-0.000863809
-0.0115098
0.000452411
-0.0084394
-0.0104418
0.00737261
-0.00936929
-0.0096245
-0.0101595
-0.00887977
-0.0108309
-0.00819313
-0.0113877
-0.00756224
-0.0118448
-0.00698068
-0.0122084
-0.00644559
-0.0124894
-0.00595041
-0.0126959
-0.00549375
-0.0128316
-0.0050718
-0.0129066
-0.00467865
-0.0129237
-0.00431414
-0.0128873
-0.00397466
-0.0127995
-0.00365739
-0.0126625
-0.00336125
-0.0124751
-0.00308545
-0.0122404
-0.0028261
-0.0119543
-0.0025856
-0.0116187
-0.00235977
-0.0112257
-0.00215297
-0.0107786
-0.00196041
-0.0102708
-0.00178767
-0.00970428
-0.00163075
-0.00149427
-0.00907366
-0.00761755
-0.00949613
0.00667173
-0.0084243
-0.00881784
-0.00911012
-0.008194
-0.00968067
-0.00762263
-0.0101531
-0.00708981
-0.0105279
-0.00660595
-0.0108182
-0.00615537
-0.01103
-0.00573864
-0.0111681
-0.00535562
-0.01124
-0.00499996
-0.0112501
-0.00466863
-0.0112043
-0.00435992
-0.0111059
-0.00407317
-0.0109595
-0.00380383
-0.0107678
-0.00355305
-0.0105354
-0.00331782
-0.0102649
-0.00309669
-0.00995988
-0.00289058
-0.00962248
-0.00269732
-0.00925605
-0.00251931
-0.0088626
-0.00235401
-0.00844802
-0.00220216
-0.00801109
-0.00206783
-0.00194726
-0.00755802
-0.00687309
-0.00866852
0.00604532
-0.00758086
-0.00811015
-0.00817699
-0.00759791
-0.00867606
-0.00712361
-0.00907458
-0.00669132
-0.00939303
-0.00628752
-0.00963136
-0.00591707
-0.00979907
-0.00557096
-0.00990178
-0.00525296
-0.00994629
-0.00495549
-0.00993658
-0.00467842
-0.00987758
-0.00441895
-0.00977229
-0.00417856
-0.0096243
-0.00395184
-0.00943909
-0.00373837
-0.00921884
-0.00353809
-0.00896558
-0.00335005
-0.00868324
-0.00317292
-0.00837301
-0.00300766
-0.00803953
-0.00285277
-0.00768288
-0.00271077
-0.00730566
-0.00257935
-0.00691363
-0.00245996
-0.0023523
-0.00650855
-0.00620563
-0.00792945
0.00546649
-0.00683439
-0.00748144
-0.00735835
-0.00707399
-0.00778852
-0.00669347
-0.00813921
-0.00634065
-0.00841042
-0.00601634
-0.0086121
-0.00571541
-0.00875009
-0.00543299
-0.00883102
-0.00517207
-0.00885717
-0.00492937
-0.00883678
-0.00469886
-0.00876946
-0.00448629
-0.00866292
-0.00428517
-0.00852026
-0.00409452
-0.00834375
-0.00391495
-0.00813669
-0.00374515
-0.00790217
-0.00358465
-0.00764175
-0.00343335
-0.00735936
-0.00329012
-0.00705613
-0.00315599
-0.00673664
-0.00303032
-0.00640081
-0.00291517
-0.00605223
-0.0028086
-0.00271246
-0.00569205
-0.00560865
-0.00727011
0.00494925
-0.00616518
-0.00692493
-0.00663287
-0.00660633
-0.00701434
-0.00631202
-0.00731966
-0.00603536
-0.00755614
-0.00577988
-0.00773169
-0.00553988
-0.00784693
-0.00531778
-0.00791261
-0.00510641
-0.00793132
-0.00491067
-0.00790302
-0.00472719
-0.00783714
-0.00455219
-0.00773784
-0.00438451
-0.00760245
-0.00422993
-0.00743942
-0.00407803
-0.0072483
-0.00393629
-0.00703371
-0.0037993
-0.00679738
-0.0036697
-0.00654041
-0.00354714
-0.00626587
-0.00343054
-0.00597586
-0.00332038
-0.00567205
-0.00321899
-0.00535713
-0.00312356
-0.00303736
-0.00503223
-0.00507324
-0.00668077
0.00448389
-0.00557127
-0.00642691
-0.00598743
-0.00619018
-0.00632762
-0.00597184
-0.00659953
-0.00576346
-0.00681025
-0.00556916
-0.00696164
-0.00538851
-0.00706274
-0.00521669
-0.00711412
-0.00505505
-0.00712608
-0.00489872
-0.00709863
-0.00475467
-0.00703718
-0.00461366
-0.00694082
-0.0044809
-0.00681781
-0.00435296
-0.00666559
-0.00423029
-0.00649219
-0.00410971
-0.0062962
-0.00399532
-0.0060798
-0.00388612
-0.00584731
-0.00377966
-0.00559813
-0.00367973
-0.0053355
-0.00358305
-0.00506136
-0.00349313
-0.00477577
-0.00340918
-0.00333188
-0.00448126
-0.00459488
-0.00615258
0.0040667
-0.00504184
-0.00597995
-0.00541395
-0.00581809
-0.00572096
-0.00566484
-0.00596289
-0.00552155
-0.0061478
-0.00538426
-0.00628196
-0.00525436
-0.006369
-0.00512966
-0.00641802
-0.00500604
-0.00642534
-0.00489142
-0.00639784
-0.00478219
-0.00633831
-0.0046732
-0.00625082
-0.00456842
-0.00613713
-0.00446667
-0.00599983
-0.00436762
-0.00583844
-0.00427112
-0.00565926
-0.00417453
-0.00546361
-0.00408179
-0.00525082
-0.00399249
-0.00502547
-0.0039051
-0.00478681
-0.00382174
-0.00453712
-0.00374284
-0.0042781
-0.00366822
-0.00359934
-0.00401064
-0.00416521
-0.00567647
0.00368909
-0.00456781
-0.00557736
-0.00490317
-0.00548275
-0.00517721
-0.00539081
-0.00539662
-0.00530215
-0.00556383
-0.00521706
-0.00568409
-0.00513412
-0.00576268
-0.00505108
-0.00580028
-0.00496846
-0.00580374
-0.00488798
-0.00578041
-0.00480552
-0.00572704
-0.00472657
-0.00564471
-0.00465077
-0.00553868
-0.0045727
-0.00541157
-0.00449474
-0.00526754
-0.00441517
-0.00510466
-0.00433742
-0.0049256
-0.00426088
-0.00473145
-0.00418665
-0.00452563
-0.00411092
-0.00430886
-0.00403851
-0.00408267
-0.00396905
-0.00384781
-0.00390308
-0.00384227
-0.00360489
-0.00377907
-0.00524934
0.00335195
-0.00414202
-0.00521441
-0.00444514
-0.00517963
-0.00469427
-0.00514168
-0.00489027
-0.00510614
-0.00504051
-0.00506682
-0.00515112
-0.0050235
-0.0052204
-0.0049818
-0.00525443
-0.00493444
-0.00525989
-0.00488251
-0.00523382
-0.00483158
-0.00518228
-0.00477812
-0.00510926
-0.00472377
-0.00501198
-0.00466998
-0.00489535
-0.00461138
-0.0047623
-0.00454823
-0.00461315
-0.00448659
-0.00445139
-0.00442264
-0.00427456
-0.00436348
-0.00408667
-0.0042988
-0.00388957
-0.00423561
-0.00368412
-0.00417448
-0.00347012
-0.00411709
-0.00324939
-0.00406301
-0.0102935
-0.000762955
-0.000453875
-0.009347
-0.000777746
-0.000168673
-0.00851278
-0.000828111
-6.59024e-06
-0.00775138
-0.000898403
0.000136973
-0.00704507
-0.000986945
0.000280265
-0.00638521
-0.00109205
0.000432132
-0.00576669
-0.00121597
0.000597197
-0.00518709
-0.00135712
0.000777491
-0.00464751
-0.00151578
0.000976085
-0.00414824
-0.00169497
0.00119568
-0.00369364
-0.00189309
0.00143844
-0.00328681
-0.00211309
0.00170626
-0.00293069
-0.00235694
0.00200082
-0.00263049
-0.00262562
0.00232543
-0.00239016
-0.00292165
0.00268134
-0.00221524
-0.00324759
0.00307268
-0.00211012
-0.00360687
0.00350176
-0.00208079
-0.00400255
0.00397322
-0.00213286
-0.00443914
0.00449121
-0.00227412
-0.00491929
0.00506055
-0.00251311
-0.00544847
0.00568746
-0.00285929
-0.00603085
0.00637705
-0.00332383
-0.00667163
0.00713614
-0.00737563
0.00797246
-0.0039206
-0.0084078
-0.00142903
-0.00775012
-0.00143532
-0.00712209
-0.00145634
-0.00652335
-0.00149708
-0.00595801
-0.00155246
-0.00542404
-0.00162597
-0.00492539
-0.00171474
-0.00446034
-0.00182213
-0.00403102
-0.00194517
-0.00363803
-0.00208792
-0.00328294
-0.00224821
-0.0029669
-0.00242909
-0.00269372
-0.00263012
-0.00246433
-0.00285498
-0.00228319
-0.00310278
-0.0021535
-0.00337726
-0.0020804
-0.00367997
-0.0020694
-0.00401354
-0.002128
-0.00438053
-0.00226272
-0.00478457
-0.00248251
-0.00522867
-0.0027971
-0.00571627
-0.00321637
-0.00625234
-0.00684047
-0.00375152
-0.00709472
-0.00189245
-0.00663106
-0.00189891
-0.00617092
-0.00191658
-0.00572105
-0.00194688
-0.00528333
-0.00199025
-0.00486098
-0.00204825
-0.00445665
-0.00211909
-0.00407256
-0.00220614
-0.00371138
-0.00230635
-0.00337592
-0.00242332
-0.00306868
-0.00255543
-0.00279255
-0.00270517
-0.0025506
-0.00287204
-0.00234789
-0.00305766
-0.00218709
-0.00326357
-0.00207328
-0.00349105
-0.00201129
-0.00374195
-0.00200674
-0.00401809
-0.00206495
-0.00432231
-0.00219279
-0.00465673
-0.0023977
-0.00502376
-0.00268691
-0.00542706
-0.00307001
-0.00586923
-0.00635556
-0.00355493
-0.00609974
-0.00230135
-0.00569703
-0.00230158
-0.00530316
-0.00231051
-0.00491861
-0.00233139
-0.00454642
-0.00236247
-0.00418952
-0.0024051
-0.00384863
-0.00246
-0.00352677
-0.00252795
-0.00322479
-0.00260831
-0.00294609
-0.00270196
-0.00269218
-0.00280932
-0.0024666
-0.0029307
-0.00227086
-0.00306777
-0.00210953
-0.00321895
-0.00198529
-0.0033878
-0.00190252
-0.0035738
-0.00186509
-0.00377937
-0.00187758
-0.00400559
-0.00194585
-0.00425404
-0.00207549
-0.0045271
-0.00227253
-0.00482672
-0.00254509
-0.0051545
-0.00290043
-0.0055139
-0.00590883
-0.00334717
-0.00533157
-0.00266188
-0.00497872
-0.00265442
-0.00463463
-0.00265463
-0.00430052
-0.00266548
-0.00397878
-0.00268423
-0.00366983
-0.00271402
-0.00337623
-0.00275361
-0.00309845
-0.00280569
-0.00283968
-0.00286707
-0.00260079
-0.00294081
-0.00238465
-0.00302544
-0.00219305
-0.00312227
-0.00203013
-0.00323068
-0.00189678
-0.00335228
-0.0017977
-0.00348686
-0.00173503
-0.00363645
-0.0017142
-0.00380019
-0.00173819
-0.0039816
-0.00181208
-0.00418013
-0.00194138
-0.0043978
-0.0021313
-0.0046368
-0.00238844
-0.00489737
-0.00271976
-0.00518259
-0.00549547
-0.00313314
-0.0047071
-0.00298704
-0.00439023
-0.00297128
-0.00408132
-0.00296356
-0.00378483
-0.00296196
-0.00349919
-0.00296987
-0.00322644
-0.00298675
-0.00296798
-0.00301208
-0.00272603
-0.00304761
-0.00249968
-0.00309341
-0.00229295
-0.00314752
-0.00210652
-0.00321186
-0.00194352
-0.00328524
-0.00180513
-0.00336905
-0.00169534
-0.00346205
-0.00161634
-0.00356585
-0.00157128
-0.00368151
-0.00156285
-0.00380861
-0.00159623
-0.00394822
-0.00167417
-0.00410219
-0.00180168
-0.0042703
-0.00198432
-0.00445415
-0.00222696
-0.00465474
-0.00253611
-0.00487345
-0.0051125
-0.00291909
-0.0041864
-0.00328192
-0.00389971
-0.00325798
-0.00362308
-0.00324021
-0.00335546
-0.00322957
-0.00310031
-0.00322503
-0.00285754
-0.00322951
-0.00262808
-0.00324154
-0.0024127
-0.00326297
-0.00221372
-0.00329238
-0.00203141
-0.00332981
-0.00186897
-0.00337429
-0.00172718
-0.00342701
-0.00160989
-0.00348633
-0.001518
-0.00355393
-0.00145375
-0.00363009
-0.00142154
-0.00371371
-0.0014228
-0.00380735
-0.0014611
-0.00390992
-0.00154063
-0.00402265
-0.00166464
-0.00414629
-0.00183818
-0.00428062
-0.00206665
-0.00442626
-0.00235482
-0.0045853
-0.00475856
-0.00270877
-0.00374316
-0.00354941
-0.00348318
-0.00351796
-0.00323269
-0.00349072
-0.00299207
-0.00347018
-0.00276155
-0.00345556
-0.00254373
-0.00344733
-0.00233821
-0.00344706
-0.00214597
-0.0034552
-0.00196872
-0.00346963
-0.00180751
-0.00349101
-0.00166412
-0.00351767
-0.00154096
-0.00355016
-0.00143933
-0.00358795
-0.00136176
-0.00363148
-0.00130972
-0.00368212
-0.00128608
-0.00373734
-0.00129345
-0.00379997
-0.00133546
-0.0038679
-0.00141425
-0.00394387
-0.00153398
-0.00402655
-0.00169856
-0.00411604
-0.00191237
-0.00421245
-0.00217992
-0.00431776
-0.00443145
-0.00250704
-0.00336173
-0.00379258
-0.00312557
-0.00375414
-0.00289729
-0.00371901
-0.00267896
-0.00368851
-0.00247189
-0.00366264
-0.00227541
-0.00364381
-0.00209036
-0.0036321
-0.00191819
-0.00362737
-0.00175933
-0.00362848
-0.00161539
-0.00363495
-0.00148809
-0.00364496
-0.00138021
-0.00365803
-0.00129201
-0.00367613
-0.00122493
-0.00369857
-0.00118267
-0.00372437
-0.00116559
-0.00375442
-0.00117797
-0.00378758
-0.00122049
-0.00382538
-0.00129761
-0.00386674
-0.00141187
-0.0039123
-0.00156651
-0.0039614
-0.00176637
-0.00401259
-0.00201524
-0.0040689
-0.00412982
-0.00231686
-0.00302967
-0.00401232
-0.00281549
-0.00396832
-0.00260959
-0.0039249
-0.00241089
-0.0038872
-0.0022223
-0.00385122
-0.00204383
-0.00382227
-0.00187568
-0.00380024
-0.00172099
-0.00378205
-0.00157898
-0.00377049
-0.00145038
-0.00376354
-0.00133677
-0.00375858
-0.00124173
-0.00375306
-0.00116441
-0.00375345
-0.0011072
-0.00375576
-0.00107058
-0.003761
-0.00105975
-0.00376525
-0.00107372
-0.00377361
-0.00111733
-0.00378177
-0.00119132
-0.00379275
-0.00129898
-0.00380464
-0.00144337
-0.00381701
-0.00162978
-0.00382618
-0.00185861
-0.00384007
-0.00385283
-0.00213561
0.0022266
-0.00158487
0.00174694
-0.00238868
0.00210082
-0.00134615
0.00147191
0.00200858
-0.00111625
0.00120848
0.00194607
-0.000900568
0.000963059
0.0019087
-0.000702277
0.000739635
0.00189115
-0.000522419
0.000539957
0.00188806
-0.000361503
0.000364577
0.00189339
-0.000218685
0.000213347
0.00190272
-9.33765e-05
8.40204e-05
0.00191199
1.55447e-05
-2.48286e-05
0.00191642
0.000110114
-0.000114572
0.0019125
0.000191915
-0.000187993
0.00189722
0.000261711
-0.000246468
0.00186733
0.000322285
-0.000292388
0.00181964
0.000374985
-0.000327318
0.00175106
0.00042157
-0.000352975
0.00165661
0.000465268
-0.000370842
0.00153113
0.000508426
-0.000382924
0.00136668
0.000555402
-0.000390961
0.00115113
0.000613124
-0.000397534
0.000865099
0.000692133
-0.000406126
0.000477331
0.000810472
-0.000422646
-6.80418e-05
0.00100067
-0.00045536
0.00132982
-0.000890434
-0.00050738
0.002033
-0.0014362
-0.00218168
0.00191668
-0.00122984
0.00183005
-0.00102962
0.00177026
-0.000840784
0.00173267
-0.000664704
0.00171321
-0.000502955
0.00170647
-0.000354777
0.00170794
-0.000220152
0.00171306
-9.85186e-05
0.00171719
1.14164e-05
0.00171648
0.000110804
0.00170717
0.000201223
0.0016845
0.000284358
0.0016448
0.000361978
0.00158352
0.000436243
0.00149604
0.000509052
0.00137634
0.000584956
0.0012183
0.00066647
0.00101245
0.000761232
0.000749156
0.000876425
0.000415524
0.00102575
-7.43362e-07
0.00122674
-0.000502721
0.00150262
0.0018773
-0.0010502
0.00183176
-0.00129968
-0.00196831
0.00172328
-0.00112136
0.00164171
-0.000948062
0.00158355
-0.000782634
0.00154549
-0.000626653
0.00152226
-0.000479719
0.0015101
-0.00034263
0.00150497
-0.000215023
0.00150221
-9.57663e-05
0.00149771
1.59111e-05
0.00148745
0.000121052
0.00146758
0.00022109
0.00143406
0.000317866
0.0013834
0.000412639
0.00131143
0.0005082
0.00121288
0.000607605
0.00108367
0.000714147
0.000917951
0.00083219
0.00070974
0.00096943
0.000451611
0.00113455
0.000138228
0.00133912
-0.000230736
0.0015957
-0.000649409
0.00192128
0.00232319
-0.0010953
0.00163354
-0.00117223
-0.00176099
0.00153141
-0.00101923
0.00145304
-0.000869709
0.00139563
-0.000725222
0.00135477
-0.0005858
0.00132837
-0.000453321
0.00131153
-0.000325798
0.0013003
-0.000203799
0.00129146
-8.6931e-05
0.00128129
2.60788e-05
0.00126592
0.000136415
0.00124196
0.00024505
0.00120612
0.000353697
0.001154
0.000464754
0.00108226
0.000579934
0.00098753
0.000702333
0.000865044
0.000836624
0.000709825
0.000987405
0.000517972
0.00116127
0.000285451
0.00136707
8.72021e-06
0.00161584
-0.000314592
0.00191901
-0.000678195
0.00228487
0.00272231
-0.00107732
0.00144577
-0.00105376
-0.00156424
0.00135037
-0.000923833
0.00127565
-0.000794996
0.00121939
-0.000668971
0.00117903
-0.000545448
0.0011503
-0.000424595
0.00113057
-0.00030607
0.00111682
-0.000190049
0.00110518
-7.52945e-05
0.00109238
3.88723e-05
0.00107573
0.000153063
0.00105159
0.000269191
0.00101679
0.000388496
0.000968234
0.000513308
0.000902197
0.000645966
0.000815202
0.000789327
0.000703568
0.000948252
0.000564452
0.00112652
0.000393037
0.00133268
0.000185579
0.00157453
-5.92361e-05
0.00186065
-0.00034423
0.00220401
-0.000669736
0.00261037
0.00308674
-0.00103416
0.00127453
-0.000945353
-0.00138293
0.00118544
-0.000834748
0.00111522
-0.000724778
0.00106121
-0.000614965
0.00102147
-0.000505711
0.000992669
-0.000395796
0.000972366
-0.00028577
0.000957128
-0.00017481
0.000944347
-6.2516e-05
0.000931147
5.20732e-05
0.000914882
0.000169326
0.000892787
0.000291285
0.000861266
0.000420016
0.000817714
0.000556861
0.000758559
0.000705119
0.000680614
0.000867271
0.000581719
0.00104715
0.000456826
0.00125141
0.000303796
0.00148571
0.000119438
0.00175889
-9.90494e-05
0.00207913
-0.000354726
0.00245968
-0.000648491
0.00290413
0.00341892
-0.000980676
0.00111906
-0.000844398
-0.00122002
0.00103738
-0.000753063
0.000972192
-0.00065959
0.000921795
-0.000564566
0.000883427
-0.000467343
0.000855964
-0.000368332
0.000836043
-0.000265849
0.000820648
-0.000159414
0.000807671
-4.95387e-05
0.000794956
6.479e-05
0.000779689
0.000184594
0.000759485
0.000311491
0.000732054
0.000447448
0.000693676
0.00059524
0.000641738
0.000757059
0.000573063
0.000935947
0.000484117
0.00113609
0.00037322
0.00136231
0.000236095
0.00162284
7.17829e-05
0.0019232
-0.000125011
0.00227593
-0.00035525
0.00268992
-0.000621483
0.00317036
0.00372249
-0.000925051
0.000981295
-0.00075366
-0.00107203
0.000907127
-0.000678892
0.000847382
-0.000599846
0.00080042
-0.000517603
0.000764898
-0.000431821
0.000738728
-0.000342159
0.000719242
-0.000246364
0.00070499
-0.000145161
0.00069252
-3.70679e-05
0.000680062
7.72528e-05
0.000665748
0.000198907
0.000648118
0.000329124
0.000623965
0.000471601
0.00059091
0.000628298
0.000545438
0.000802532
0.000484858
0.000996528
0.000406552
0.0012144
0.000306721
0.00146214
0.000184059
0.0017455
3.63671e-05
0.00207089
-0.000140506
0.00245281
-0.000349257
0.00289868
-0.00059334
0.00341445
0.00399964
-0.00087048
0.000860749
-0.000672177
-0.000942229
0.000792724
-0.00061087
0.000738521
-0.000545644
0.000696153
-0.000475235
0.000662503
-0.000398171
0.000638051
-0.000317714
0.000620152
-0.000228469
0.000606513
-0.000131523
0.000595138
-2.56897e-05
0.000583353
8.90353e-05
0.000570023
0.00021224
0.000554301
0.000344844
0.000533059
0.000492845
0.000504555
0.000656802
0.000464792
0.000842298
0.000411218
0.0010501
0.000341276
0.00128435
0.000253238
0.00155018
0.000142565
0.00185617
1.05876e-05
0.00220287
-0.000148699
0.00261209
-0.000336096
0.00308608
-0.000558675
0.00363704
0.0042532
-0.000812226
0.000754585
-0.000824498
-0.000602266
0.000693814
-0.000550102
0.000644864
-0.000496698
0.00060567
-0.000436045
0.000575094
-0.000367604
0.000552517
-0.000295145
0.000536077
-0.000212036
0.000523365
-0.000118815
0.000512691
-1.50205e-05
0.00050134
0.000100387
0.000488502
0.000225073
0.000474805
0.00035854
0.00045725
0.000510397
0.000431803
0.000682249
0.000396548
0.000877553
0.000347647
0.001099
0.000284531
0.00134746
0.000206328
0.00162838
0.000109997
0.0019525
-4.66062e-06
0.00231752
-0.000148254
0.00275568
-0.000319209
0.00325703
-0.000523362
0.00384119
-0.000752736
0.00448257
-0.0012929
0.00196914
-0.00156678
-0.00188634
0.00257302
-0.00197958
-0.00253574
0.00294771
-0.00229842
-0.00317586
0.00323084
-0.00259073
-0.00378992
0.00350698
-0.002893
-0.00436846
0.00378598
-0.00320746
-0.00490157
0.00407413
-0.00354106
-0.00538205
0.00437527
-0.00389481
-0.00580951
0.00469865
-0.00427122
-0.00617148
0.00503713
-0.00467518
-0.00646393
0.00540183
-0.00510939
-0.00668703
0.00579527
-0.00557219
-0.00683197
0.00621676
-0.00607183
-0.0068884
0.0066708
-0.00661438
-0.00685933
0.00716786
-0.00719695
-0.00673397
0.00770459
-0.00782996
-0.00650336
0.0082842
-0.00851483
-0.00616192
0.00891564
-0.00925709
-0.0056985
0.0095995
-0.0100629
-0.00510588
0.0103462
-0.0109389
-0.00437119
0.0111528
-0.0118876
-0.00348629
0.0120319
-0.0129168
-0.00243567
0.012984
-0.0140346
0.0140182
-0.0152448
-0.00120908
-0.00149927
0.00241817
-0.00200579
0.00307955
-0.00259185
0.00353371
-0.00317197
0.00381096
-0.00371838
0.00405335
-0.00423017
0.00429777
-0.0046969
0.00454082
-0.0051206
0.00479896
-0.00548534
0.00506338
-0.00579935
0.00535112
-0.0060506
0.00565308
-0.00623772
0.00598236
-0.00635404
0.00633308
-0.00640051
0.00671725
-0.00636302
0.00713037
-0.00623738
0.00757894
-0.00602033
0.00806715
-0.00570308
0.00859837
-0.00527773
0.00917413
-0.00473208
0.00980055
-0.00405821
0.010479
-0.00324593
0.0112196
-0.00228539
0.0120234
0.0128923
-0.0011595
-0.00153665
0.00285949
-0.0019848
0.0035277
-0.0025029
0.00405178
-0.00302871
0.00433677
-0.00352664
0.00455125
-0.00398492
0.00475604
-0.00440698
0.00496287
-0.00478032
0.00517229
-0.00510987
0.00539293
-0.00538648
0.00562772
-0.00560911
0.00587571
-0.00577298
0.00614622
-0.00587649
0.00643659
-0.00591059
0.00675135
-0.00587319
0.00709297
-0.00575669
0.00746244
-0.00555705
0.0078675
-0.00526395
0.00830526
-0.0048708
0.00878098
-0.00437156
0.0093013
-0.00375654
0.00986392
-0.00301297
0.0104761
-0.00213119
0.0111416
0.0118637
-0.00110253
-0.00149583
0.00327799
-0.00191451
0.00394637
-0.00237266
0.00450991
-0.00284809
0.0048122
-0.00330034
0.00500349
-0.00371657
0.00517227
-0.00409211
0.0053384
-0.00443087
0.00551103
-0.00472694
0.005689
-0.00497592
0.00587669
-0.00517571
0.0060755
-0.00532235
0.00629285
-0.00541409
0.00652834
-0.00544406
0.00678131
-0.00540767
0.00705659
-0.00530038
0.00735514
-0.00511629
0.00768341
-0.00484764
0.00803661
-0.00449096
0.0084243
-0.00403169
0.00884203
-0.00346879
0.00930101
-0.00279062
0.00979791
-0.00198585
0.0103369
0.0109229
-0.0010451
-0.00142317
0.00366699
-0.0018162
0.0043394
-0.00222631
0.00492001
-0.0026578
0.00524369
-0.00306576
0.00541145
-0.00344181
0.00554832
-0.00378604
0.00568262
-0.00409017
0.00581516
-0.00435682
0.00595565
-0.00457923
0.00609909
-0.00476272
0.00625899
-0.00489381
0.00642394
-0.00497486
0.0066094
-0.00500124
0.00680768
-0.00496685
0.00702221
-0.00487079
0.00725908
-0.00470003
0.00751266
-0.00445511
0.00779169
-0.0041287
0.00809788
-0.00371165
0.00842499
-0.00319679
0.00878614
-0.00257607
0.00917718
-0.00184317
0.00960396
0.0100664
-0.000986686
-0.00133892
0.00402523
-0.00170216
0.00470264
-0.00207956
0.0052974
-0.00246957
0.00563369
-0.00283742
0.0057793
-0.00317908
0.00588997
-0.00348691
0.00599045
-0.00376448
0.00609274
-0.00400223
0.0061934
-0.00420878
0.00630564
-0.00436966
0.00641987
-0.00449284
0.00654713
-0.00456566
0.00668222
-0.00458755
0.00682958
-0.00455709
0.00699175
-0.00446626
0.00716824
-0.00431265
0.00735906
-0.00409071
0.00756974
-0.00379017
0.00779734
-0.00341058
0.0080454
-0.00294092
0.00831646
-0.00237629
0.00861255
-0.00170793
0.0089356
0.00928352
-0.000925004
-0.0012548
0.00435498
-0.00159242
0.00504027
-0.00193158
0.00563657
-0.0022839
0.00598601
-0.00261916
0.00611457
-0.00292568
0.00619649
-0.00320697
0.00627175
-0.00345619
0.00634196
-0.00367632
0.00641353
-0.00385992
0.00648925
-0.00400838
0.00656834
-0.00411605
0.00665479
-0.00418227
0.00674844
-0.00420324
0.00685055
-0.00417556
0.00696406
-0.0040921
0.00708478
-0.00395228
0.00721924
-0.00374806
0.00736552
-0.00347611
0.00752539
-0.00313028
0.00769957
-0.00270275
0.00788893
-0.0021899
0.00809969
-0.00157783
0.00832354
0.00857085
-0.000865158
-0.00117214
0.00465664
-0.00147978
0.00534792
-0.0017929
0.0059497
-0.00210622
0.00629934
-0.00240958
0.00641794
-0.00269051
0.00647742
-0.00294412
0.00652537
-0.00316974
0.00656758
-0.00336694
0.00661073
-0.00353343
0.00665575
-0.00366921
0.00670412
-0.00376754
0.00675312
-0.00382825
0.00680915
-0.00384742
0.00686972
-0.00381986
0.00693651
-0.00374626
0.00701118
-0.00361897
0.00709196
-0.00343409
0.00718064
-0.00318636
0.00727765
-0.00287097
0.00738419
-0.00248224
0.0075002
-0.00201201
0.00762946
-0.00145687
0.00776839
0.00792172
-0.000807731
-0.00109374
0.00493817
-0.00137586
0.00563005
-0.00165572
0.00622956
-0.00193955
0.00658318
-0.00221522
0.00669362
-0.00246739
0.0067296
-0.00269721
0.0067552
-0.00290309
0.00677347
-0.003085
0.00679265
-0.00323593
0.00680667
-0.00335679
0.00682498
-0.0034454
0.00684174
-0.00350149
0.00686523
-0.00351797
0.0068862
-0.00349575
0.00691429
-0.00342699
0.00694242
-0.00330994
0.00697491
-0.00313947
0.00701018
-0.00291379
0.00705197
-0.00262803
0.00709844
-0.00227431
0.00714647
-0.0018451
0.00720026
-0.00134039
0.00726369
0.0073314
-0.000750066
-0.00100752
0.00519295
-0.0012618
0.00588433
-0.00151429
0.00648205
-0.00177499
0.00684389
-0.00202703
0.00694566
-0.00226172
0.0069643
-0.002472
0.00696549
-0.00265796
0.00695943
-0.00281992
0.0069546
-0.00295892
0.00694567
-0.00306779
0.00693385
-0.00315141
0.00692535
-0.00320001
0.00691383
-0.00321379
0.00689997
-0.00319201
0.0068925
-0.00313093
0.00688132
-0.00302367
0.00686765
-0.00287288
0.00685938
-0.00266891
0.006848
-0.00240465
0.00683419
-0.00208318
0.006825
-0.00169669
0.00681377
-0.00123458
0.00680159
-0.000696936
0.00679376
0.00128863
-0.000836431
0.00237352
-0.000549244
0.00342163
-0.000293495
0.00446146
-2.21728e-05
0.00547415
0.000292839
0.00643099
0.000657453
0.00730726
0.00107304
0.00807626
0.00153794
0.00872371
0.00204356
0.00923508
0.00258448
0.00960721
0.00315177
0.00984328
0.0037393
0.00994903
0.00434295
0.00994408
0.0049549
0.00984515
0.00557848
0.00967912
0.00621253
0.00946518
0.00686831
0.00922753
0.00755186
0.0089834
0.00827688
0.00873732
0.00905912
0.00850185
0.00990476
0.00827999
0.0108281
0.00807306
0.0118368
0.0129482
0.00788324
-9.43526e-05
-0.000742705
0.000144139
-0.000787997
0.000582906
-0.00073257
0.00117554
-0.000614843
0.00189411
-0.000425963
0.00271828
-0.000166694
0.00362278
0.000168356
0.00457461
0.000586166
0.00552915
0.00108883
0.00644081
0.00167287
0.0072639
0.00232851
0.007962
0.00304124
0.00851146
0.00379335
0.00889846
0.00456794
0.00912795
0.0053489
0.00921359
0.00612691
0.00918336
0.00689849
0.00906572
0.00766952
0.00888913
0.0084535
0.00868626
0.00926202
0.00846974
0.0101214
0.00825427
0.0110437
0.00804476
0.0120461
0.0131426
0.00785025
-5.06866e-06
-0.000737427
3.43533e-06
-0.000796373
5.80312e-05
-0.00078709
0.000183856
-0.000740587
0.000414975
-0.000657101
0.000777922
-0.000529557
0.00129105
-0.000344887
0.00195834
-8.10382e-05
0.00276403
0.000283003
0.00367358
0.000763422
0.00463659
0.00136537
0.00559375
0.00208416
0.00648358
0.00290341
0.00725325
0.00379833
0.00786162
0.00474043
0.00829152
0.00569705
0.00854526
0.00664473
0.00864313
0.00757168
0.00862136
0.00847533
0.00851258
0.00937083
0.00835294
0.0102811
0.00816891
0.0112277
0.00797871
0.0122364
0.0133272
0.00779379
-1.19922e-05
-0.000725158
8.70453e-06
-0.000816822
5.73995e-05
-0.000835754
0.000139342
-0.000822361
0.000262661
-0.00078045
0.000439895
-0.000706641
0.000687123
-0.000592154
0.00102848
-0.000422248
0.00148829
-0.000176907
0.00208484
0.000166991
0.00281722
0.000632868
0.00366289
0.0012386
0.00457407
0.0019921
0.00548706
0.00288542
0.00633429
0.00389312
0.0070528
0.00497861
0.00760041
0.00609711
0.00796384
0.00720831
0.00815276
0.00828647
0.00819601
0.00932765
0.00813838
0.0103388
0.00801664
0.0113495
0.00786199
0.0123909
0.0134877
0.00770143
7.42476e-06
-0.000732683
2.02326e-05
-0.000829509
4.40395e-05
-0.000859657
8.46381e-05
-0.000862852
0.000147006
-0.00084294
0.00023964
-0.000799171
0.000372661
-0.000725333
0.000562577
-0.000612058
0.000828952
-0.000443426
0.00119657
-0.000200507
0.00168728
0.000142027
0.00231332
0.000612671
0.00306824
0.00123706
0.0039216
0.00203217
0.00481776
0.00299689
0.00568608
0.00411037
0.00645438
0.00532882
0.00706455
0.00659819
0.00748808
0.00786299
0.00773245
0.00908333
0.00782108
0.0102502
0.00779606
0.0113745
0.0077002
0.0124865
0.0136167
0.00757114
-3.23817e-06
-0.000729224
2.88549e-06
-0.000835321
1.98103e-05
-0.000876602
4.90823e-05
-0.000891887
9.42399e-05
-0.000888174
0.000158912
-0.000863644
0.000249254
-0.000815743
0.000374013
-0.000736643
0.000546093
-0.000615603
0.000781573
-0.000435841
0.00110067
-0.000177188
0.00152692
0.000186562
0.00207804
0.000685833
0.00275995
0.00135037
0.00355309
0.0022037
0.00441278
0.00325076
0.00526867
0.00447293
0.00604539
0.00582153
0.00667585
0.00723257
0.00712163
0.00863756
0.00738386
0.00998796
0.00749002
0.0112682
0.0074816
0.0124948
0.0137002
0.00739792
-8.54536e-07
-0.000728273
3.43805e-06
-0.000839345
1.34981e-05
-0.000886697
3.20631e-05
-0.000910252
6.07575e-05
-0.000916973
0.000103732
-0.00090644
0.000163759
-0.000875916
0.000247885
-0.000820606
0.000363946
-0.000731789
0.000524658
-0.000596391
0.000744477
-0.000397116
0.0010427
-0.000111532
0.00144033
0.000288111
0.00195596
0.000834863
0.0025978
0.0015618
0.0033533
0.00249534
0.00418249
0.00364376
0.00501796
0.00498611
0.00578159
0.00646898
0.00640456
0.00801459
0.00684594
0.00954657
0.00710503
0.0110091
0.00720959
0.01239
0.0137038
0.00720587
-4.30211e-06
-0.000723614
-3.68433e-06
-0.000839554
1.89001e-06
-0.000892233
1.42863e-05
-0.00092235
3.42562e-05
-0.000937004
6.47884e-05
-0.00093672
0.000108618
-0.000919814
0.000169711
-0.000881479
0.000253538
-0.000815704
0.000368998
-0.000711667
0.000527131
-0.000555343
0.000742762
-0.000326994
0.00103326
-2.45678e-06
0.00141928
0.000448962
0.0019184
0.00106264
0.00253998
0.00187386
0.0032731
0.00291064
0.00407848
0.00418079
0.00489035
0.00565714
0.00562758
0.00727737
0.00622143
0.00895275
0.00663821
0.0105923
0.00687644
0.0121517
0.0136123
0.00696792
-4.94204e-06
-0.000718703
-6.45012e-06
-0.000837826
-4.31237e-06
-0.000894484
2.37508e-06
-0.000928842
1.50969e-05
-0.000949881
3.6457e-05
-0.00095788
6.72244e-05
-0.000950752
0.000111734
-0.000925789
0.000173272
-0.00087737
0.000258878
-0.00079708
0.000376146
-0.000672707
0.000537109
-0.000487796
0.000755561
-0.00022098
0.00104927
0.000155401
0.00143726
0.000674613
0.00193648
0.00137474
0.00255406
0.00229309
0.003278
0.0034569
0.00406638
0.00486881
0.00485119
0.00649259
0.00555315
0.00825083
0.00610294
0.0100425
0.00647609
0.0117785
0.0134082
0.00668031
-6.23446e-06
-0.000712235
-9.78508e-06
-0.000833917
-1.09843e-05
-0.000893307
-7.73297e-06
-0.000931807
-3.93133e-07
-0.000957321
1.39133e-05
-0.000971922
3.61231e-05
-0.00097306
6.917e-05
-0.000958589
0.000115165
-0.000923463
0.000179817
-0.00086152
0.000268935
-0.000761908
0.000391943
-0.000610614
0.000559766
-0.000388858
0.000787368
-7.20564e-05
0.0010916