/*--------------------------------*- C++ -*----------------------------------*\
| =========                 |                                                 |
| \\      /  F ield         | OpenFOAM: The Open Source CFD Toolbox           |
|  \\    /   O peration     | Version:  2.3.0                                 |
|   \\  /    A nd           | Web:      www.OpenFOAM.org                      |
|    \\/     M anipulation  |                                                 |
\*---------------------------------------------------------------------------*/
FoamFile
{
    version     2.0;
    format      ascii;
    class       volVectorField;
    location    "1000";
    object      U;
}
// * * * * * * * * * * * * * * * * * * * * * * * * * * * * * * * * * * * * * //

dimensions      [0 1 -1 0 0 0 0];

internalField   nonuniform List<vector> 
14769
(
(21.6669 6.20805 2.05468e-20)
(21.6149 6.51384 -7.01491e-20)
(21.5631 6.83873 0)
(21.5072 7.18273 0)
(21.4468 7.54953 5.57819e-21)
(21.3816 7.94161 -6.20024e-21)
(21.3107 8.36031 8.3066e-20)
(21.232 8.80548 -2.8667e-20)
(21.1408 9.27509 -9.04892e-20)
(21.0289 9.76485 7.22856e-20)
(20.8849 10.2686 -1.22221e-19)
(20.6948 10.7788 3.58285e-20)
(20.4427 11.2871 3.96546e-20)
(20.1115 11.7853 -2.51157e-20)
(19.6836 12.2665 0)
(19.1415 12.7251 0)
(18.4685 13.1569 2.49822e-20)
(17.6497 13.5602 2.58421e-19)
(16.6704 13.9309 1.7407e-19)
(15.5147 14.259 -3.9687e-19)
(14.1674 14.5254 0)
(12.6406 14.7483 0)
(10.9782 14.9952 6.39609e-19)
(9.17849 15.106 -6.22629e-19)
(21.3978 6.23299 -4.67143e-20)
(21.3181 6.49433 3.67217e-20)
(21.2298 6.76414 0)
(21.1311 7.04485 -1.42529e-19)
(21.0201 7.33659 5.09217e-20)
(20.8946 7.63981 1.3008e-19)
(20.7521 7.95518 -1.24428e-19)
(20.5906 8.28335 -1.67261e-19)
(20.4076 8.62484 1.69814e-19)
(20.2008 8.97948 -4.00749e-20)
(19.9671 9.34604 -5.77574e-20)
(19.7035 9.72188 3.54692e-19)
(19.4059 10.1028 -3.53974e-19)
(19.0701 10.4828 -4.69845e-19)
(18.6919 10.8542 5.15805e-19)
(18.2676 11.207 -6.91265e-19)
(17.7944 11.5293 6.9867e-19)
(17.2715 11.8072 -1.00476e-18)
(16.6998 12.0251 9.91178e-19)
(16.0827 12.1656 4.22912e-20)
(15.4284 12.2098 0)
(14.751 12.139 -5.4673e-20)
(14.063 11.9362 6.13185e-20)
(13.3662 11.5896 -2.75459e-20)
(21.1804 6.22916 -1.31375e-19)
(21.0798 6.45238 6.03754e-20)
(20.971 6.6801 6.56029e-20)
(20.8525 6.9147 4.15099e-20)
(20.7231 7.1558 3.04779e-19)
(20.5815 7.40261 -3.01594e-19)
(20.4258 7.65418 2.72274e-19)
(20.2536 7.90924 3.5877e-20)
(20.0623 8.16653 -4.10727e-19)
(19.849 8.42463 3.94681e-20)
(19.611 8.6817 4.50521e-20)
(19.3455 8.9354 -2.58472e-20)
(19.0501 9.18287 2.97771e-20)
(18.7227 9.42038 0)
(18.3615 9.6435 8.20627e-19)
(17.9659 9.84701 -8.15942e-19)
(17.5361 10.0248 5.79511e-19)
(17.0738 10.1703 -1.09504e-18)
(16.5826 10.2763 5.81941e-19)
(16.0684 10.3359 4.96895e-20)
(15.54 10.3425 -7.97737e-19)
(15.0092 10.2908 1.78434e-18)
(14.4904 10.1773 -9.35534e-19)
(14.001 9.99957 -1.03466e-18)
(21.0055 6.21446 8.51933e-20)
(20.8922 6.3998 -1.50013e-19)
(20.772 6.58929 2.45077e-19)
(20.6427 6.78365 1.19095e-20)
(20.503 6.98218 -2.23132e-19)
(20.3524 7.18429 2.4365e-19)
(20.1897 7.38903 -1.56632e-19)
(20.014 7.59523 0)
(19.8237 7.80152 3.19189e-19)
(19.6171 8.00631 -5.55759e-19)
(19.3927 8.20772 2.92246e-19)
(19.1489 8.40348 0)
(18.8844 8.59097 0)
(18.5983 8.76705 4.382e-19)
(18.29 8.92799 -4.95838e-19)
(17.9596 9.06968 0)
(17.6078 9.18753 -6.62565e-20)
(17.2365 9.27669 0)
(16.8487 9.33237 -8.90155e-20)
(16.4489 9.34997 -8.9992e-19)
(16.0429 9.32585 9.21041e-19)
(15.6381 9.25741 -5.53942e-20)
(15.243 9.14412 1.22967e-19)
(14.8666 8.98779 0)
(20.8642 6.18536 1.74513e-20)
(20.7458 6.34308 0)
(20.6221 6.50244 3.11745e-19)
(20.4902 6.66458 -2.6092e-19)
(20.3491 6.82917 1.11593e-19)
(20.1982 6.99573 0)
(20.0368 7.16358 2.6839e-19)
(19.8644 7.33169 -2.68591e-19)
(19.68 7.49877 8.01942e-20)
(19.4824 7.66327 0)
(19.27 7.82354 0)
(19.0416 7.97768 -3.02709e-19)
(18.7962 8.12372 4.0836e-19)
(18.5335 8.25914 0)
(18.2534 8.38109 5.96072e-19)
(17.9563 8.48629 -5.37357e-19)
(17.6431 8.57131 -6.3645e-19)
(17.3156 8.63261 6.45366e-19)
(16.9766 8.66673 8.49951e-19)
(16.6298 8.67055 -8.69985e-19)
(16.2799 8.64161 7.85968e-19)
(15.9325 8.5785 -9.02444e-19)
(15.5939 8.48106 -1.50999e-21)
(15.2704 8.35078 1.32859e-19)
(20.7482 6.15786 -1.07348e-19)
(20.6312 6.2907 0)
(20.5086 6.42552 -1.08495e-19)
(20.3785 6.56219 3.12138e-19)
(20.24 6.70037 -5.85316e-19)
(20.0922 6.83971 2.69676e-19)
(19.935 6.97987 0)
(19.7682 7.12009 3.27969e-19)
(19.5917 7.25927 -4.09482e-19)
(19.4047 7.39586 0)
(19.2061 7.52815 0)
(18.9946 7.65447 -1.02497e-19)
(18.7691 7.77305 0)
(18.5293 7.88195 -3.93427e-19)
(18.2754 7.97888 -1.05077e-19)
(18.0081 8.06115 -1.17389e-19)
(17.7281 8.12585 1.38241e-18)
(17.437 8.17001 -7.71962e-19)
(17.1367 8.191 -9.63724e-20)
(16.8303 8.18645 4.26838e-19)
(16.5216 8.15447 -8.95082e-19)
(16.2149 8.09398 4.66493e-19)
(15.9149 8.00483 2.70851e-19)
(15.6262 7.88807 -6.67577e-19)
(20.656 6.13227 1.76417e-19)
(20.5422 6.24584 -6.68604e-20)
(20.4232 6.36138 -1.36378e-19)
(20.2975 6.47821 -7.37201e-21)
(20.1642 6.59603 2.19754e-19)
(20.0222 6.71442 8.08316e-20)
(19.8707 6.83326 -3.37744e-19)
(19.7099 6.95219 3.38275e-19)
(19.5401 7.07048 0)
(19.3619 7.18665 -1.02173e-19)
(19.1744 7.29894 1.09183e-19)
(18.9763 7.40555 5.89097e-19)
(18.7659 7.50485 -4.77675e-19)
(18.5427 7.59546 -1.30209e-19)
(18.3071 7.67558 1.45919e-19)
(18.06 7.74292 7.66716e-20)
(17.8027 7.79485 3.49285e-19)
(17.5363 7.82863 1.12612e-19)
(17.2621 7.84197 -2.83974e-19)
(16.9824 7.83324 -5.32532e-22)
(16.7009 7.80081 -1.13772e-19)
(16.4212 7.74354 0)
(16.1472 7.66113 1.30023e-19)
(15.8825 7.55415 0)
(20.585 6.11427 1.69438e-21)
(20.4744 6.21135 2.11351e-19)
(20.3596 6.31134 -6.69475e-20)
(20.2391 6.41275 -7.97788e-20)
(20.1121 6.51507 -7.70775e-20)
(19.9771 6.61759 -8.10972e-20)
(19.8326 6.72018 0)
(19.6781 6.82279 2.88815e-19)
(19.5141 6.92517 -1.93247e-19)
(19.3426 7.02611 1.02655e-19)
(19.1639 7.12377 4.89721e-21)
(18.9774 7.21585 -1.17728e-19)
(18.7808 7.30071 1.30923e-19)
(18.5719 7.37756 -1.40311e-19)
(18.3509 7.44521 -1.4694e-19)
(18.1191 7.50183 0)
(17.8786 7.54491 2.69934e-19)
(17.6311 7.57139 -1.74729e-19)
(17.3771 7.57887 4.10992e-19)
(17.1169 7.56706 -5.25162e-19)
(16.855 7.5346 1.14696e-19)
(16.5948 7.47994 5.0144e-19)
(16.3401 7.40254 -5.06967e-19)
(16.0937 7.30262 1.43759e-19)
(20.5296 6.10255 -1.53533e-19)
(20.4219 6.18702 1.56009e-19)
(20.3119 6.27502 1.6896e-19)
(20.1969 6.36451 8.70889e-20)
(20.0765 6.45515 -3.45192e-19)
(19.9489 6.54578 3.60435e-19)
(19.8122 6.63626 -2.81059e-19)
(19.6654 6.72592 -4.0066e-19)
(19.5073 6.81557 2.03815e-19)
(19.3409 6.90455 1.14856e-19)
(19.1679 6.99148 -2.25586e-19)
(18.9897 7.07357 -1.25156e-19)
(18.805 7.14816 -1.31201e-19)
(18.6084 7.21432 2.84561e-19)
(18.3994 7.27127 3.13005e-19)
(18.179 7.31914 -3.17874e-19)
(17.9502 7.35615 1.75488e-19)
(17.7162 7.37829 -1.86748e-19)
(17.4785 7.38049 2.01771e-19)
(17.2322 7.36581 2.14557e-19)
(16.9845 7.33309 2.34673e-19)
(16.7384 7.28071 -2.37602e-19)
(16.4979 7.20741 0)
(16.2654 7.11312 1.36258e-19)
(20.4781 6.09986 -1.58432e-21)
(20.3761 6.17477 -1.73574e-19)
(20.2752 6.25287 9.13294e-20)
(20.167 6.33255 -8.90258e-20)
(20.0529 6.41356 1.90558e-19)
(19.9329 6.49493 -1.90007e-19)
(19.8039 6.57733 9.88838e-20)
(19.6689 6.65736 -1.12552e-19)
(19.5211 6.73591 2.20035e-19)
(19.364 6.81271 -1.23035e-19)
(19.1985 6.88858 1.16827e-19)
(19.0238 6.96298 2.50929e-19)
(18.8416 7.03294 0)
(18.6486 7.09499 -1.45394e-19)
(18.4487 7.14325 1.58451e-19)
(18.2387 7.18239 -3.47079e-19)
(18.0206 7.2119 1.73186e-19)
(17.7966 7.23216 1.92447e-19)
(17.5677 7.23136 1.07149e-20)
(17.3276 7.21554 -2.10038e-19)
(17.0922 7.18198 0)
(16.8577 7.1305 -7.01349e-21)
(16.6271 7.0602 2.53865e-19)
(16.4009 6.97034 2.7857e-19)
(7.27406 14.3948 -4.20561e-20)
(6.8477 13.0616 -8.71978e-20)
(6.80819 11.8773 0)
(6.92507 10.8204 0)
(7.14397 9.87909 1.04005e-18)
(7.42921 9.02673 -4.99146e-19)
(7.7588 8.2531 -6.75192e-19)
(8.11723 7.55128 -1.40081e-19)
(8.49292 6.9152 1.12636e-19)
(8.87633 6.33917 -5.65269e-19)
(9.25976 5.81802 -3.96053e-20)
(9.63736 5.34726 0)
(10.0048 4.92274 -2.80643e-19)
(10.3591 4.54015 4.19082e-20)
(10.6991 4.19552 1.08404e-18)
(11.0242 3.8847 -1.05285e-18)
(11.3352 3.60368 5.23094e-19)
(11.633 3.34841 -1.04842e-18)
(11.9189 3.11514 -9.7086e-19)
(12.1943 2.9005 -9.72627e-19)
(12.46 2.70167 8.99974e-19)
(12.7166 2.51687 0)
(12.9648 2.3453 -1.61495e-18)
(13.2035 2.18175 1.49305e-18)
(12.6769 11.1161 0)
(12.1111 10.5415 -8.46145e-20)
(11.6808 9.93052 0)
(11.368 9.31661 8.91087e-19)
(11.1512 8.71656 -5.43614e-19)
(11.014 8.14023 -8.46504e-19)
(10.943 7.594 8.34919e-19)
(10.9271 7.08144 1.24077e-19)
(10.9568 6.60404 -2.51762e-19)
(11.0241 6.16171 -2.53495e-19)
(11.1216 5.75334 5.07425e-19)
(11.2436 5.37688 0)
(11.3851 5.02978 -2.53114e-19)
(11.5417 4.70911 0)
(11.7101 4.41195 0)
(11.8875 4.1355 2.22978e-20)
(12.0715 3.8772 4.65374e-19)
(12.26 3.63491 0)
(12.4514 3.40691 3.25376e-20)
(12.6442 3.19196 2.23489e-19)
(12.8369 2.98917 -1.10037e-18)
(13.0283 2.79846 0)
(13.2176 2.61932 2.32063e-20)
(13.4011 2.44272 -5.43522e-21)
(13.5555 9.75838 9.74463e-19)
(13.1634 9.45516 8.23475e-20)
(12.8282 9.10166 0)
(12.5527 8.71481 0)
(12.3354 8.30872 9.99952e-20)
(12.1731 7.89422 -2.97181e-19)
(12.061 7.47979 -2.15213e-19)
(11.994 7.07174 2.00243e-19)
(11.9668 6.67485 0)
(11.9738 6.29222 0)
(12.0099 5.92612 0)
(12.0704 5.5777 0)
(12.1508 5.24754 4.36671e-19)
(12.2473 4.93559 -1.30278e-18)
(12.3568 4.64162 4.3699e-19)
(12.4764 4.36493 4.49889e-19)
(12.6041 4.10475 -4.4659e-19)
(12.7379 3.86016 -2.16066e-19)
(12.8766 3.63018 1.08681e-18)
(13.0188 3.41372 -8.30858e-19)
(13.1636 3.20987 0)
(13.3098 3.01819 -7.98968e-19)
(13.4568 2.83735 7.74919e-19)
(13.6011 2.65526 1.44107e-18)
(14.5144 8.79163 -5.18212e-19)
(14.1886 8.55743 1.37352e-18)
(13.8939 8.28935 -1.30129e-18)
(13.6354 7.99556 1.02124e-18)
(13.4152 7.68396 -5.26091e-19)
(13.2336 7.36161 -1.80615e-19)
(13.0893 7.03464 9.66597e-20)
(12.9801 6.70804 -1.01424e-19)
(12.9031 6.38585 -9.33952e-20)
(12.8552 6.07097 -9.97429e-20)
(12.8332 5.76564 0)
(12.8338 5.47131 0)
(12.8541 5.18895 0)
(12.8914 4.91902 4.18405e-19)
(12.9434 4.6616 0)
(13.0081 4.41653 0)
(13.0836 4.1834 -6.08624e-19)
(13.1684 3.96174 1.02215e-19)
(13.261 3.75094 1.14129e-19)
(13.3601 3.55041 9.00731e-19)
(13.4644 3.35968 -9.88747e-20)
(13.5727 3.17879 -1.14894e-18)
(13.6841 3.00702 1.11778e-18)
(13.7957 2.83248 7.04605e-19)
(14.9655 8.18983 1.40924e-19)
(14.6804 7.99913 -4.57e-21)
(14.4187 7.78102 0)
(14.1845 7.54088 5.01343e-19)
(13.9799 7.28428 -6.81146e-19)
(13.8059 7.01643 5.31845e-19)
(13.6624 6.74205 -2.71578e-19)
(13.5482 6.46523 9.17441e-20)
(13.4612 6.18928 4.74074e-19)
(13.3991 5.91682 9.76018e-20)
(13.3594 5.64998 -1.90947e-19)
(13.3393 5.39042 -3.81186e-19)
(13.3364 5.13934 -5.78059e-19)
(13.3487 4.89758 3.82652e-19)
(13.3744 4.66547 1.94622e-19)
(13.4117 4.44318 0)
(13.4593 4.23059 7.81523e-19)
(13.5158 4.02748 9.74055e-20)
(13.58 3.83349 -9.68693e-20)
(13.6507 3.64817 0)
(13.7267 3.47119 3.76064e-19)
(13.807 3.30288 7.55502e-19)
(13.891 3.14278 -7.37231e-19)
(13.9762 2.97874 -7.00899e-19)
(15.3516 7.74544 4.44704e-19)
(15.0925 7.57795 -7.46043e-19)
(14.8518 7.38788 0)
(14.633 7.1793 -3.64708e-21)
(14.4384 6.95663 1.72621e-19)
(14.2694 6.724 1.77428e-19)
(14.1264 6.48507 -1.71641e-19)
(14.0087 6.24303 -2.86707e-21)
(13.9149 6.0006 -1.83703e-19)
(13.8429 5.75991 2.76349e-19)
(13.7901 5.52296 -2.72952e-19)
(13.7544 5.29156 3.75259e-19)
(13.7339 5.06701 5.67834e-19)
(13.7271 4.85011 -5.70158e-19)
(13.7327 4.64122 1.87484e-19)
(13.7493 4.44053 0)
(13.7757 4.24803 -5.68791e-19)
(13.8108 4.06352 2.81093e-19)
(13.8536 3.88675 2.82067e-19)
(13.9029 3.71726 -5.80256e-21)
(13.9573 3.55479 -5.56172e-19)
(14.0158 3.39997 1.81769e-19)
(14.0781 3.25252 0)
(14.1417 3.10007 6.69722e-19)
(15.6293 7.42392 0)
(15.389 7.27161 -1.5052e-19)
(15.1639 7.09961 0)
(14.957 6.91161 -1.65399e-19)
(14.7708 6.71149 0)
(14.6074 6.5028 8.72655e-20)
(14.4676 6.2883 9.10662e-20)
(14.351 6.07057 0)
(14.2563 5.85172 3.55364e-19)
(14.1809 5.63361 2.65681e-19)
(14.1222 5.41826 6.37529e-19)
(14.0778 5.20781 -7.29613e-19)
(14.0471 5.00356 1.83317e-19)
(14.0287 4.80615 -3.59433e-19)
(14.0219 4.61576 -1.81717e-19)
(14.0252 4.43261 -3.60601e-19)
(14.0378 4.2568 -9.11734e-20)
(14.0585 4.08818 4.50168e-19)
(14.0865 3.92645 -3.65916e-19)
(14.1206 3.77104 -3.57223e-19)
(14.1592 3.62166 0)
(14.201 3.47943 0)
(14.2466 3.34408 0)
(14.2925 3.20614 -3.27877e-19)
(15.8575 7.18123 -1.31527e-19)
(15.632 7.03927 -1.43638e-19)
(15.4183 6.87952 0)
(15.22 6.70578 0)
(15.039 6.52173 3.29155e-19)
(14.8794 6.33034 8.57332e-20)
(14.7426 6.13346 -4.15323e-20)
(14.6279 5.9334 -4.1719e-20)
(14.534 5.73181 -5.26099e-20)
(14.4575 5.53046 1.2597e-19)
(14.3947 5.33147 -1.84354e-19)
(14.3437 5.13762 4.47591e-19)
(14.3055 4.94993 0)
(14.279 4.76848 7.01049e-21)
(14.2636 4.59312 -3.5174e-19)
(14.2572 4.42458 7.0926e-19)
(14.2598 4.26288 8.87031e-20)
(14.2698 4.1079 -4.44715e-19)
(14.2872 3.95937 -5.51521e-21)
(14.3104 3.81627 3.59816e-19)
(14.3372 3.6784 -1.74855e-19)
(14.3659 3.54771 1.73236e-19)
(14.3996 3.42318 -2.89736e-21)
(14.4338 3.29852 6.55386e-19)
(16.0422 6.9987 1.4303e-19)
(15.8288 6.86506 -3.02471e-19)
(15.6243 6.71283 6.09662e-19)
(15.4336 6.54999 3.16215e-19)
(15.2561 6.37738 -2.44985e-19)
(15.1001 6.19895 2.46961e-19)
(14.9665 6.01479 0)
(14.8536 5.82747 3.3734e-19)
(14.7613 5.63828 -3.45959e-19)
(14.6852 5.45003 -3.04569e-19)
(14.6195 5.26363 -3.92204e-19)
(14.5627 5.08346 0)
(14.5199 4.9097 3.43857e-19)
(14.4881 4.74115 3.49382e-19)
(14.4674 4.57765 6.91897e-19)
(14.4535 4.421 -3.48301e-19)
(14.4493 4.27124 -3.41831e-19)
(14.4513 4.12772 0)
(14.4614 3.99068 0)
(14.4772 3.85813 0)
(14.4956 3.73044 0)
(14.5127 3.61053 0)
(14.5375 3.4964 -4.8002e-21)
(14.561 3.38348 6.64134e-19)
(16.1827 6.86249 -2.80916e-19)
(15.982 6.74169 1.50707e-19)
(15.7859 6.59297 -4.59924e-19)
(15.6053 6.44166 -3.2448e-19)
(15.4339 6.27385 0)
(15.2844 6.10289 -3.31745e-19)
(15.1545 5.9254 3.23771e-19)
(15.0394 5.74757 -3.20086e-19)
(14.9469 5.56946 3.14427e-19)
(14.8727 5.39593 0)
(14.8054 5.21813 3.30304e-19)
(14.7439 5.04953 8.53612e-20)
(14.7022 4.88734 -4.32731e-19)
(14.6678 4.72753 0)
(14.6444 4.57261 -5.20714e-21)
(14.6234 4.42552 8.53978e-20)
(14.6163 4.28621 6.00191e-19)
(14.6117 4.15126 0)
(14.618 4.02443 2.70216e-21)
(14.629 3.90035 -2.658e-21)
(14.6424 3.78251 0)
(14.6471 3.67082 0)
(14.6633 3.56171 -3.35491e-19)
(14.6804 3.45087 -3.13261e-21)
(-3.4755 -2.60063 -2.44708e-21)
(-3.25749 -2.62117 3.13707e-19)
(-2.99694 -2.64023 0)
(-2.70463 -2.65608 -1.7542e-19)
(-2.38859 -2.66792 0)
(-2.05556 -2.67532 4.99361e-20)
(-1.71117 -2.67807 5.25941e-20)
(-1.35998 -2.67612 -2.18866e-19)
(-1.00563 -2.66954 3.59119e-22)
(-0.65097 -2.65844 3.59053e-19)
(-0.298174 -2.64269 -1.34112e-19)
(0.051364 -2.62215 6.46933e-20)
(0.397058 -2.59645 -1.38579e-19)
(0.739027 -2.56497 6.7733e-20)
(1.07835 -2.5266 0)
(1.41791 -2.47952 8.39497e-20)
(1.76347 -2.42097 0)
(2.12637 -2.34731 -1.98274e-19)
(2.52856 -2.25431 1.14026e-19)
(3.01432 -2.13752 2.77663e-20)
(3.66888 -1.99575 -4.11115e-19)
(4.66472 -1.83607 1.64054e-18)
(6.38169 -1.69654 -2.53305e-18)
(9.71732 -1.85378 1.48633e-18)
(-3.45507 -2.62251 -1.99639e-21)
(-3.24407 -2.63606 3.11699e-19)
(-2.99753 -2.64892 8.34057e-20)
(-2.72247 -2.65923 8.63388e-20)
(-2.42466 -2.66634 2.81951e-21)
(-2.10883 -2.66971 1.86235e-19)
(-1.77891 -2.66883 -9.64953e-20)
(-1.43796 -2.66329 -2.19205e-22)
(-1.08814 -2.65261 1.03716e-19)
(-0.73062 -2.63622 1.07209e-19)
(-0.36559 -2.61335 -4.99306e-22)
(0.00727709 -2.58296 3.03699e-22)
(0.389817 -2.54362 0)
(0.785706 -2.49355 -6.15926e-20)
(1.2011 -2.43055 6.49359e-20)
(1.64609 -2.35201 -6.72338e-20)
(2.13625 -2.25501 -6.96423e-20)
(2.69523 -2.13708 3.65121e-20)
(3.36047 -1.99755 -1.44109e-19)
(4.19383 -1.84024 1.20676e-19)
(5.29574 -1.68016 -3.39083e-19)
(6.82461 -1.55896 4.66362e-20)
(9.01666 -1.56896 3.08535e-19)
(12.159 -1.89011 3.88519e-19)
(-3.41248 -2.60723 0)
(-3.20329 -2.61163 0)
(-2.96168 -2.61753 -3.18335e-19)
(-2.69263 -2.62054 0)
(-2.40042 -2.61997 0)
(-2.08847 -2.61506 -2.20388e-19)
(-1.75937 -2.60496 4.56805e-20)
(-1.41491 -2.58884 0)
(-1.05604 -2.56585 9.69073e-20)
(-0.682776 -2.53504 -2.9293e-22)
(-0.293959 -2.49536 -1.02319e-19)
(0.113008 -2.44556 -1.55874e-19)
(0.542184 -2.38424 5.29884e-20)
(0.999695 -2.30982 -2.18883e-19)
(1.49422 -2.22079 5.64133e-20)
(2.03869 -2.11583 0)
(2.65204 -1.99434 1.1526e-19)
(3.36165 -1.85718 0)
(4.20727 -1.70871 1.44529e-19)
(5.24653 -1.56021 -9.27661e-20)
(6.55871 -1.43628 0)
(8.24703 -1.38404 0)
(10.4265 -1.48501 1.61628e-19)
(13.1636 -1.85815 -3.956e-19)
(-3.35433 -2.56258 2.80783e-19)
(-3.14649 -2.55544 -7.27376e-20)
(-2.90941 -2.55136 2.29455e-19)
(-2.64593 -2.54398 0)
(-2.35895 -2.53276 0)
(-2.05039 -2.51697 8.34429e-20)
(-1.72162 -2.49571 -8.54422e-20)
(-1.37331 -2.46806 -4.37798e-20)
(-1.00528 -2.43309 4.48843e-20)
(-0.616448 -2.38991 -1.83007e-19)
(-0.204672 -2.33757 -9.26264e-20)
(0.233616 -2.27496 1.89903e-19)
(0.70353 -2.20098 9.60911e-20)
(1.2123 -2.11463 4.91588e-20)
(1.76994 -2.01526 -7.35956e-20)
(2.39033 -1.90289 2.55408e-20)
(3.09312 -1.77865 -1.01799e-19)
(3.90515 -1.64606 -4.94092e-20)
(4.86242 -1.51295 1.50463e-19)
(6.01311 -1.39418 -1.05702e-19)
(7.41786 -1.31629 0)
(9.14617 -1.32258 0)
(11.2618 -1.47746 0)
(13.7877 -1.86043 7.50335e-20)
(-3.28112 -2.49929 -1.32514e-19)
(-3.07365 -2.48131 1.41613e-19)
(-2.83969 -2.46732 -1.46629e-19)
(-2.58022 -2.45005 0)
(-2.2968 -2.42911 0)
(-1.99026 -2.4039 -7.88783e-20)
(-1.66083 -2.37345 4.65853e-22)
(-1.30849 -2.3368 4.09506e-20)
(-0.932399 -2.29312 -4.12244e-20)
(-0.530868 -2.24166 1.70101e-19)
(-0.100936 -2.1817 4.2962e-20)
(0.361693 -2.11247 -8.77693e-20)
(0.862857 -2.03313 -8.96897e-20)
(1.41033 -1.94308 0)
(2.01448 -1.84222 4.6245e-20)
(2.6892 -1.73145 0)
(3.45336 -1.61328 2.46887e-20)
(4.33196 -1.49289 2.41338e-20)
(5.35714 -1.37967 0)
(6.56988 -1.28967 8.50352e-20)
(8.01851 -1.24859 -1.29826e-19)
(9.75506 -1.2946 -5.25576e-20)
(11.8227 -1.48003 1.52656e-19)
(14.2315 -1.86443 -1.03524e-19)
(-3.19411 -2.42404 1.29017e-19)
(-2.98841 -2.3978 6.86487e-20)
(-2.75793 -2.37484 -3.46885e-20)
(-2.50266 -2.34887 3.57792e-20)
(-2.22319 -2.31971 1.14659e-21)
(-1.91945 -2.28695 -1.9825e-20)
(-1.59059 -2.24965 9.51278e-20)
(-1.23596 -2.20661 7.68749e-20)
(-0.854365 -2.15702 1.57534e-19)
(-0.443837 -2.10038 -8.06531e-20)
(-0.000971173 -2.03636 8.0972e-20)
(0.479341 -1.96447 4.2108e-20)
(1.00358 -1.8841 -4.24234e-20)
(1.57979 -1.7948 0)
(2.21836 -1.69675 1.06322e-20)
(2.93278 -1.59133 3.22951e-20)
(3.74061 -1.48183 2.23323e-20)
(4.66494 -1.37422 2.2753e-20)
(5.73497 -1.27877 8.44555e-20)
(6.98659 -1.21183 -2.88934e-21)
(8.46092 -1.19767 -4.08726e-20)
(10.1998 -1.27026 6.39086e-20)
(12.2363 -1.47441 -3.98079e-20)
(14.5724 -1.85916 9.50649e-20)
(-3.09794 -2.3429 -1.93686e-19)
(-2.8949 -2.31114 -6.59822e-20)
(-2.66836 -2.28046 3.38588e-20)
(-2.41777 -2.24741 -1.0324e-19)
(-2.14301 -2.21165 0)
(-1.84328 -2.17305 0)
(-1.51624 -2.1309 -1.80577e-20)
(-1.16095 -2.08351 -1.28702e-19)
(-0.776006 -2.03004 -7.5466e-20)
(-0.359433 -1.96992 0)
(0.0920519 -1.90339 -1.16769e-19)
(0.584269 -1.83072 3.97453e-20)
(1.12487 -1.75151 0)
(1.72211 -1.66523 0)
(2.3866 -1.57196 0)
(3.13088 -1.47312 -1.25448e-19)
(3.97126 -1.37255 -8.43663e-20)
(4.92903 -1.27665 -2.01816e-20)
(6.03066 -1.19572 -6.14315e-20)
(7.30775 -1.14657 -4.06645e-20)
(8.79862 -1.15246 0)
(10.5386 -1.24372 0)
(12.5536 -1.45996 -4.90389e-20)
(14.8397 -1.84389 5.33268e-20)
(-2.99544 -2.26306 -6.30039e-20)
(-2.79643 -2.22436 6.41754e-20)
(-2.5748 -2.18808 0)
(-2.32948 -2.14965 7.42842e-20)
(-2.06001 -2.1086 -9.42265e-21)
(-1.7659 -2.06521 1.06233e-21)
(-1.4419 -2.01972 0)
(-1.08713 -1.96956 1.8357e-20)
(-0.700122 -1.91375 -8.96329e-20)
(-0.279528 -1.85119 7.29712e-20)
(0.177158 -1.78252 9.069e-22)
(0.676476 -1.70945 0)
(1.22803 -1.63224 1.90497e-20)
(1.84059 -1.54991 -1.98314e-20)
(2.52503 -1.46234 0)
(3.29242 -1.37029 8.10784e-20)
(4.15794 -1.27812 4.0759e-20)
(5.14193 -1.19239 8.02867e-20)
(6.26931 -1.12283 -3.93103e-20)
(7.56509 -1.08733 0)
(9.07158 -1.10988 7.16201e-20)
(10.8164 -1.21621 -2.43331e-20)
(12.822 -1.44147 3.43875e-20)
(15.0763 -1.82472 2.06943e-20)
(-2.89315 -2.1865 0)
(-2.69668 -2.14159 0)
(-2.4805 -2.10031 -6.32294e-20)
(-2.24 -2.05782 8.13873e-21)
(-1.97568 -2.01317 5.69905e-20)
(-1.68884 -1.96524 0)
(-1.36989 -1.91717 6.59752e-20)
(-1.01711 -1.86505 5.1269e-20)
(-0.628022 -1.80818 6.97718e-20)
(-0.202509 -1.74443 -5.3293e-20)
(0.258298 -1.67407 1.62028e-19)
(0.759472 -1.60023 -3.31452e-22)
(1.31573 -1.52462 -3.69043e-20)
(1.93833 -1.44574 9.7453e-21)
(2.63929 -1.36382 9.68385e-21)
(3.42706 -1.27789 0)
(4.31346 -1.19375 0)
(5.31644 -1.11953 -7.78934e-20)
(6.45659 -1.0599 5.87232e-20)
(7.75082 -1.03547 8.71081e-20)
(9.26084 -1.06885 -6.90122e-20)
(11.0063 -1.18694 -3.09177e-20)
(13.0024 -1.41865 2.05297e-21)
(15.2185 -1.79566 2.98824e-20)
(-2.7849 -2.11376 8.92638e-20)
(-2.59312 -2.06398 -3.1634e-20)
(-2.38638 -2.01927 6.295e-20)
(-2.15863 -1.9705 -1.36236e-19)
(-1.89748 -1.9265 -5.51676e-20)
(-1.61569 -1.87299 0)
(-1.29594 -1.82363 -6.43746e-20)
(-0.951333 -1.77001 -1.67079e-20)
(-0.569172 -1.7121 3.47124e-20)
(-0.144264 -1.64682 5.27872e-20)
(0.322296 -1.57424 -5.39851e-20)
(0.835094 -1.49963 -1.82369e-20)
(1.40115 -1.42915 0)
(2.02346 -1.35243 -9.03456e-21)
(2.73231 -1.27593 9.43431e-21)
(3.52919 -1.1916 0)
(4.42756 -1.10751 -4.63152e-21)
(5.45923 -1.0375 4.83019e-21)
(6.67235 -0.999682 0)
(7.98957 -1.00968 -3.74595e-20)
(9.56478 -1.06121 1.87639e-20)
(11.298 -1.19361 4.8765e-20)
(13.3158 -1.43972 -6.90538e-20)
(15.545 -1.83102 0)
(16.2387 -3.32373 0)
(19.7439 -4.57899 -1.17148e-18)
(21.0381 -5.02232 1.70153e-18)
(21.7179 -5.21427 -5.87045e-19)
(22.1862 -5.33001 0)
(22.5213 -5.40312 3.64246e-20)
(22.7635 -5.44547 -4.42382e-20)
(22.9358 -5.4648 6.67703e-21)
(23.053 -5.466 0)
(23.1259 -5.45281 4.03069e-19)
(23.1639 -5.42812 -3.74604e-19)
(23.1756 -5.39456 0)
(23.168 -5.35422 0)
(23.1465 -5.30874 0)
(23.1151 -5.25921 0)
(23.0764 -5.20642 0)
(23.0327 -5.15084 7.65702e-20)
(22.9854 -5.09279 9.01475e-20)
(22.9353 -5.03243 -1.76115e-19)
(22.8831 -4.96972 0)
(22.8291 -4.9046 0)
(22.7732 -4.83749 7.75852e-19)
(22.716 -4.76849 4.58286e-20)
(22.6596 -4.68844 -7.69442e-19)
(16.1069 -2.81952 -4.82601e-19)
(19.7991 -4.09586 2.42147e-19)
(21.5447 -4.7369 -2.25634e-19)
(22.2117 -4.94056 -1.07418e-20)
(22.6186 -5.05379 7.24269e-22)
(22.8949 -5.12934 7.20628e-20)
(23.0804 -5.1775 -6.91708e-20)
(23.1994 -5.2044 2.65798e-19)
(23.2685 -5.21449 9.06399e-20)
(23.3007 -5.21111 -3.27839e-19)
(23.3064 -5.1973 0)
(23.2935 -5.17533 0)
(23.268 -5.147 5.21702e-19)
(23.2337 -5.11364 -4.28189e-19)
(23.1935 -5.07619 5.88134e-19)
(23.1493 -5.03527 -1.10701e-18)
(23.1024 -4.99131 4.38192e-19)
(23.0534 -4.94463 8.21e-20)
(23.003 -4.89537 5.33555e-19)
(22.9514 -4.84354 -6.80623e-19)
(22.8988 -4.78913 7.55733e-19)
(22.845 -4.73261 -7.3537e-19)
(22.79 -4.67318 1.93069e-19)
(22.7338 -4.60206 0)
(16.3634 -2.62717 4.12229e-19)
(19.6738 -3.74176 -1.54487e-19)
(21.7513 -4.53249 1.06087e-20)
(22.4863 -4.78396 4.45186e-20)
(22.8458 -4.88475 -5.02827e-20)
(23.0776 -4.94906 -1.23616e-19)
(23.2254 -4.98971 -2.05412e-20)
(23.313 -5.01265 -2.5389e-19)
(23.3576 -5.02187 7.33928e-19)
(23.3719 -5.02049 -3.52125e-19)
(23.3654 -5.0109 2.88195e-20)
(23.3448 -4.99487 4.83495e-19)
(23.3148 -4.97363 -4.87303e-19)
(23.2782 -4.9481 -6.42118e-19)
(23.2373 -4.9189 4.77271e-19)
(23.1935 -4.88651 -7.04831e-19)
(23.1477 -4.85123 1.26312e-18)
(23.1005 -4.81329 -1.23497e-18)
(23.0522 -4.77282 8.34999e-19)
(23.0031 -4.72985 0)
(22.9533 -4.68446 0)
(22.9024 -4.63715 0)
(22.8493 -4.58785 -2.01229e-19)
(22.7942 -4.53084 0)
(16.6707 -2.54337 -9.65847e-20)
(19.6569 -3.51726 0)
(21.8571 -4.3631 4.97861e-20)
(22.7036 -4.67953 -5.5728e-20)
(23.026 -4.77122 1.44566e-19)
(23.2157 -4.82335 -1.18907e-19)
(23.3293 -4.85479 -1.83777e-20)
(23.3906 -4.87154 2.21792e-19)
(23.4163 -4.87729 -1.86853e-19)
(23.418 -4.87475 2.80759e-20)
(23.4038 -4.86587 1.05207e-21)
(23.379 -4.85198 3.10557e-20)
(23.3471 -4.83394 2.12634e-19)
(23.3103 -4.81246 -2.66933e-19)
(23.2702 -4.78795 1.46705e-19)
(23.2279 -4.76076 -7.65083e-20)
(23.1841 -4.73111 8.02682e-20)
(23.1391 -4.69914 -9.92531e-22)
(23.0932 -4.66495 0)
(23.0466 -4.62861 -2.81308e-19)
(22.9993 -4.59015 3.62456e-19)
(22.9507 -4.54981 0)
(22.8996 -4.50723 -4.11717e-19)
(22.8456 -4.45874 4.05999e-19)
(16.9321 -2.49852 7.32939e-20)
(19.7078 -3.37761 4.27738e-21)
(21.91 -4.21993 6.99054e-20)
(22.8661 -4.59347 4.14171e-20)
(23.1677 -4.68198 -1.19088e-19)
(23.3223 -4.72318 0)
(23.4081 -4.7463 -1.89157e-19)
(23.449 -4.75734 1.763e-19)
(23.4604 -4.75955 0)
(23.4527 -4.75524 -2.71759e-19)
(23.4327 -4.74598 1.99853e-19)
(23.4046 -4.7328 2.72445e-19)
(23.3711 -4.71638 -2.60479e-19)
(23.3342 -4.69721 -2.98308e-19)
(23.2948 -4.67564 1.36996e-19)
(23.2539 -4.65188 -2.45053e-19)
(23.2118 -4.62612 6.48317e-19)
(23.169 -4.59845 -1.46762e-19)
(23.1255 -4.56893 -4.26955e-19)
(23.0814 -4.53762 -4.6673e-19)
(23.0366 -4.50454 3.67756e-19)
(22.9905 -4.46973 -5.98064e-19)
(22.9421 -4.43285 3.96788e-19)
(22.8913 -4.3934 2.15189e-19)
(17.1549 -2.46378 -6.64585e-20)
(19.7882 -3.2798 -3.56478e-23)
(21.9466 -4.09783 0)
(22.9816 -4.51303 0)
(23.2735 -4.60429 -1.7479e-20)
(23.3993 -4.63661 1.77496e-19)
(23.4634 -4.65308 -3.644e-19)
(23.489 -4.65949 -3.20327e-20)
(23.4903 -4.65878 2.05312e-19)
(23.4761 -4.65288 3.0115e-20)
(23.4522 -4.64309 -2.66392e-19)
(23.4221 -4.63018 5.3347e-19)
(23.3879 -4.61474 -1.27238e-19)
(23.3511 -4.59714 0)
(23.3126 -4.57764 7.62317e-20)
(23.273 -4.55638 3.29429e-19)
(23.2327 -4.53349 -3.19678e-19)
(23.192 -4.50907 1.71891e-19)
(23.1507 -4.48315 8.95133e-20)
(23.109 -4.45581 9.22788e-20)
(23.0665 -4.4271 0)
(23.0229 -4.39699 3.00413e-19)
(22.9777 -4.36527 -2.05363e-19)
(22.9306 -4.3333 0)
(17.3407 -2.42793 -4.33467e-22)
(19.8712 -3.1996 -7.1285e-21)
(21.9758 -3.98906 6.69802e-21)
(23.0601 -4.43153 0)
(23.3525 -4.53175 9.72432e-20)
(23.4563 -4.55894 -9.67814e-20)
(23.5037 -4.57095 0)
(23.518 -4.57406 0)
(23.5119 -4.57114 0)
(23.4931 -4.56398 -2.89499e-19)
(23.4666 -4.55367 1.80802e-19)
(23.4351 -4.54089 2.87255e-19)
(23.4005 -4.52609 -4.18857e-19)
(23.364 -4.50961 0)
(23.3264 -4.49164 3.24148e-19)
(23.2881 -4.47224 -3.13904e-19)
(23.2495 -4.45152 -8.44339e-20)
(23.2105 -4.42957 -8.76414e-20)
(23.1713 -4.40642 9.06766e-20)
(23.1316 -4.38219 -6.27529e-22)
(23.0911 -4.357 0)
(23.0498 -4.33076 2.06795e-19)
(23.0076 -4.30326 6.41975e-21)
(22.964 -4.27665 3.31985e-19)
(17.5225 -2.39502 -1.25368e-20)
(19.9741 -3.13634 9.2492e-21)
(22.0234 -3.90429 1.90438e-20)
(23.1262 -4.36481 2.17388e-20)
(23.4159 -4.47158 -6.52286e-20)
(23.5011 -4.49211 1.16596e-19)
(23.5355 -4.49936 -1.39052e-19)
(23.5409 -4.4992 -6.12171e-20)
(23.5289 -4.49422 1.68598e-19)
(23.5065 -4.48592 0)
(23.4779 -4.47512 1.33024e-19)
(23.4454 -4.4623 0)
(23.4104 -4.4479 2.2612e-19)
(23.3742 -4.43231 -3.06589e-19)
(23.3374 -4.41554 7.38045e-20)
(23.3004 -4.39751 -1.71081e-19)
(23.2631 -4.37842 7.54001e-20)
(23.2258 -4.35835 1.73095e-19)
(23.1882 -4.33731 -9.26044e-20)
(23.1501 -4.3155 -9.6205e-20)
(23.1114 -4.29313 -9.93373e-20)
(23.0721 -4.27014 -1.03964e-19)
(23.0328 -4.24617 0)
(22.9927 -4.22339 -1.13201e-19)
(17.6161 -2.34625 9.30377e-22)
(19.9956 -3.04976 1.93084e-20)
(22.003 -3.79497 -1.17388e-20)
(23.1371 -4.27527 -4.33336e-20)
(23.4554 -4.40555 2.55655e-20)
(23.5351 -4.42871 9.58329e-20)
(23.5605 -4.43391 6.54046e-20)
(23.5596 -4.4317 -2.17547e-19)
(23.5432 -4.42536 5.23471e-20)
(23.518 -4.41642 0)
(23.4881 -4.40539 -6.71943e-20)
(23.4548 -4.39248 0)
(23.4194 -4.37842 -7.50823e-20)
(23.3833 -4.36376 0)
(23.3476 -4.34808 8.09293e-20)
(23.3116 -4.33101 0)
(23.2754 -4.31312 0)
(23.2395 -4.2945 0)
(23.2032 -4.27492 -2.86724e-19)
(23.1662 -4.2549 1.9035e-19)
(23.1288 -4.2348 -2.06887e-19)
(23.0914 -4.21473 5.26474e-19)
(23.0552 -4.19395 -2.14517e-19)
(23.0185 -4.17453 1.1411e-19)
(17.9543 -2.39645 -1.70486e-20)
(20.2719 -3.09562 -1.69123e-20)
(22.1743 -3.83548 1.99917e-20)
(23.2492 -4.30377 0)
(23.5191 -4.39391 3.82146e-20)
(23.5724 -4.38518 0)
(23.5861 -4.3792 -1.08273e-19)
(23.5772 -4.37269 -7.08815e-21)
(23.5553 -4.36423 0)
(23.5269 -4.35464 1.35983e-19)
(23.4958 -4.34319 -1.30396e-19)
(23.4614 -4.32955 -7.24884e-20)
(23.4248 -4.31566 7.56633e-20)
(23.3885 -4.3021 7.92649e-20)
(23.3546 -4.28728 8.78043e-20)
(23.3195 -4.2704 -1.66968e-19)
(23.2837 -4.25348 -8.97649e-20)
(23.2496 -4.23608 9.82653e-20)
(23.2143 -4.21744 1.06932e-19)
(23.1783 -4.19896 -4.02359e-19)
(23.1419 -4.1808 2.03238e-19)
(23.1054 -4.16324 -1.06321e-19)
(23.0734 -4.1451 0)
(23.0391 -4.12885 -2.33712e-19)
(0.875419 2.03821 -7.68009e-19)
(2.9993 2.18901 -1.97097e-17)
(5.55442 2.88078 4.20319e-19)
(8.07956 3.85403 3.92958e-18)
(10.3281 4.85023 0)
(12.3582 5.80777 -6.03203e-20)
(14.2071 6.71018 0)
(15.8726 7.52087 -4.18709e-20)
(17.3391 8.20827 7.3051e-20)
(18.5934 8.75166 0)
(19.628 9.1409 -7.59145e-19)
(20.4446 9.37375 8.70179e-19)
(21.0553 9.45587 4.59741e-20)
(21.4821 9.40101 0)
(21.7556 9.22989 0)
(21.9101 8.96728 -3.14006e-19)
(21.9816 8.64044 3.47204e-19)
(22.0021 8.27542 -1.58739e-19)
(21.9966 7.89428 -3.19367e-19)
(21.9818 7.51332 2.90472e-19)
(21.967 7.14323 0)
(21.9563 6.78969 -1.51503e-19)
(21.9517 6.45592 5.27277e-20)
(21.9564 6.12897 0)
(-11.6016 2.99788 -3.48407e-19)
(-9.92084 2.84605 -4.91345e-19)
(-7.70977 2.75436 0)
(-5.26213 2.85107 -4.51796e-18)
(-2.38853 3.0481 6.98423e-18)
(0.727221 3.37315 -2.622e-18)
(3.95223 3.81744 0)
(7.14331 4.37042 -1.89648e-18)
(10.1674 5.00901 1.55352e-18)
(12.9301 5.68912 -1.17751e-18)
(15.3648 6.3575 1.23735e-18)
(17.4279 6.96184 -1.16015e-19)
(19.0989 7.45886 -9.75816e-20)
(20.381 7.81822 7.49393e-19)
(21.3014 8.02613 -7.12224e-19)
(21.9073 8.08489 0)
(22.2603 8.01118 -6.09877e-19)
(22.428 7.83173 1.01298e-18)
(22.4741 7.57738 -4.45641e-19)
(22.4513 7.27795 -1.16931e-19)
(22.3973 6.9582 0)
(22.3353 6.63511 3.41023e-19)
(22.2778 6.32229 -1.74741e-19)
(22.2289 6.00395 0)
(-6.65038 1.97819 4.23291e-19)
(-6.73092 1.89108 -5.76169e-21)