/*--------------------------------*- C++ -*----------------------------------*\
| =========                 |                                                 |
| \\      /  F ield         | OpenFOAM: The Open Source CFD Toolbox           |
|  \\    /   O peration     | Version:  2.3.0                                 |
|   \\  /    A nd           | Web:      www.OpenFOAM.org                      |
|    \\/     M anipulation  |                                                 |
\*---------------------------------------------------------------------------*/
FoamFile
{
    version     2.0;
    format      ascii;
    class       volScalarField;
    location    "500";
    object      nut;
}
// * * * * * * * * * * * * * * * * * * * * * * * * * * * * * * * * * * * * * //

dimensions      [0 2 -1 0 0 0 0];

internalField   nonuniform List<scalar> 
7826
(
0.0668646
0.061817
0.0570896
0.0527481
0.0488495
0.0454362
0.0425307
0.0401264
0.0381802
0.0366124
0.0353145
0.0341681
0.0330576
0.0318816
0.0305849
0.0728493
0.0692851
0.0661036
0.0633355
0.0609903
0.059056
0.0575042
0.0562946
0.05538
0.0547115
0.0542424
0.0539321
0.0537454
0.0536546
0.0536381
0.0781932
0.0756515
0.0734566
0.0715974
0.0700533
0.0687954
0.0677899
0.0670013
0.0663956
0.0659416
0.0656116
0.0653829
0.0652363
0.065156
0.0651303
0.082742
0.080906
0.0793418
0.0780293
0.0769435
0.0760572
0.0753429
0.0747749
0.07433
0.0739882
0.0737328
0.0735496
0.0734273
0.0733563
0.0733293
0.0865657
0.0851982
0.0840392
0.0830665
0.0822577
0.081591
0.0810463
0.0806059
0.080254
0.0799777
0.0797663
0.0796108
0.0795039
0.0794397
0.0794133
0.0897544
0.0887083
0.0878194
0.0870685
0.0864378
0.0859113
0.0854744
0.0851152
0.0848231
0.0845893
0.0844068
0.08427
0.084174
0.0841147
0.0840892
0.0924201
0.0915992
0.0908966
0.090297
0.0897871
0.0893552
0.0889915
0.0886876
0.0884365
0.0882325
0.0880706
0.0879472
0.0878592
0.0878039
0.0877792
0.0946596
0.094001
0.0934312
0.0929388
0.0925142
0.0921496
0.0918379
0.0915737
0.0913524
0.09117
0.0910235
0.0909104
0.0908286
0.0907764
0.0907525
0.0965524
0.0960146
0.0955422
0.0951281
0.0947659
0.0944505
0.0941775
0.093943
0.0937441
0.0935785
0.0934438
0.0933387
0.0932618
0.093212
0.0931886
0.0981671
0.097718
0.0973178
0.0969623
0.0966472
0.096369
0.0961252
0.0959137
0.0957324
0.09558
0.095455
0.0953563
0.0952834
0.0952356
0.0952125
0.099554
0.0991692
0.098824
0.0985137
0.0982349
0.0979856
0.0977645
0.097571
0.0974039
0.0972623
0.0971452
0.0970521
0.0969826
0.0969364
0.0969135
0.100743
0.100412
0.100111
0.099837
0.0995868
0.0993605
0.0991568
0.0989774
0.0988222
0.09869
0.0985796
0.0984912
0.0984247
0.0983798
0.0983568
0.101768
0.101482
0.101218
0.100975
0.100746
0.10054
0.100348
0.10018
0.100035
0.0999121
0.0998069
0.0997227
0.0996589
0.0996147
0.0995911
0.102661
0.102411
0.102173
0.101962
0.101744
0.101561
0.101374
0.101216
0.101077
0.100966
0.100863
0.100783
0.100722
0.100678
0.100651
0.0306805
0.0321129
0.0332903
0.0343552
0.0354486
0.0367123
0.0382789
0.0402557
0.0427124
0.045679
0.0491503
0.0530977
0.0574776
0.0622361
0.0673136
0.0536312
0.0536357
0.0537174
0.0538997
0.0542127
0.0546919
0.0553799
0.0563232
0.05757
0.0591658
0.0611486
0.0635445
0.0663608
0.0695859
0.0731889
0.0651333
0.0651654
0.0652528
0.0654083
0.065648
0.0659907
0.0664599
0.0670837
0.0678931
0.0689223
0.0702067
0.0717796
0.0736693
0.0758954
0.0784676
0.0733331
0.0733681
0.0734477
0.0735795
0.0737732
0.0740402
0.0743947
0.074854
0.075438
0.0761701
0.0770761
0.0781832
0.0795186
0.0811077
0.0829726
0.079417
0.0794513
0.0795241
0.0796398
0.0798049
0.0800265
0.0803138
0.0806778
0.0811314
0.0816906
0.0823731
0.0831988
0.0841893
0.0853665
0.0867501
0.0840926
0.0841253
0.084192
0.0842959
0.0844409
0.0846323
0.0848757
0.0851782
0.0855488
0.085998
0.0865381
0.0871833
0.0879496
0.0888546
0.0899173
0.0877821
0.0878127
0.0878743
0.087969
0.0880995
0.0882691
0.0884817
0.088742
0.089056
0.0894308
0.0898747
0.0903977
0.0910112
0.0917279
0.0925622
0.0907547
0.0907833
0.0908404
0.0909277
0.091047
0.0912003
0.0913903
0.09162
0.0918934
0.0922153
0.0925912
0.0930279
0.0935336
0.0941169
0.0947855
0.0931902
0.0932168
0.0932701
0.0933512
0.0934615
0.0936021
0.0937748
0.0939816
0.0942249
0.0945076
0.0948336
0.0952073
0.0956346
0.0961224
0.0966803
0.0952132
0.0952379
0.0952878
0.0953638
0.0954666
0.0955972
0.0957564
0.0959454
0.0961656
0.0964187
0.0967068
0.0970328
0.0974003
0.0978143
0.0982809
0.0969133
0.096936
0.0969827
0.097054
0.0971506
0.097273
0.0974217
0.0975969
0.0977991
0.098029
0.0982876
0.0985765
0.0988977
0.0992542
0.099651
0.0983558
0.0983765
0.0984202
0.0984869
0.0985782
0.0986943
0.0988348
0.098999
0.0991867
0.0993981
0.0996335
0.0998931
0.100178
0.100488
0.100826
0.0995905
0.0996078
0.0996496
0.099711
0.0997982
0.0999097
0.100044
0.100199
0.100375
0.100572
0.100789
0.101025
0.10128
0.101554
0.101847
0.100655
0.100665
0.100709
0.100763
0.100848
0.100957
0.101088
0.101233
0.101399
0.101585
0.101788
0.102005
0.102237
0.102482
0.102743
0.0136631
0.0108338
0.00861898
0.00709942
0.00600545
0.0051412
0.00441143
0.00376892
0.00318855
0.0026566
0.00216621
0.00171534
0.00130478
0.000932291
0.000655446
0.0137199
0.0110922
0.00903525
0.00755078
0.00644733
0.00558165
0.00486114
0.00423236
0.00366513
0.00314215
0.00265392
0.00219606
0.00176576
0.00135884
0.00102464
0.0137866
0.0113755
0.0094809
0.00802669
0.00690919
0.00602655
0.005297
0.00466529
0.00409692
0.00357106
0.00307566
0.00260389
0.00214931
0.00170493
0.00132975
0.01388
0.0116689
0.00990676
0.0084905
0.00736346
0.00645756
0.00570698
0.00505984
0.00447977
0.0039431
0.00343517
0.0029466
0.00246757
0.00198877
0.00157859
0.0140056
0.0119664
0.0103033
0.00892777
0.00779843
0.00686982
0.00609258
0.00542196
0.00482268
0.00426947
0.00374543
0.00323864
0.00273613
0.00222633
0.00178439
0.0141163
0.0122477
0.0106704
0.00933468
0.00820866
0.00726094
0.00645588
0.00575751
0.00513397
0.00456002
0.00401725
0.00349135
0.00296651
0.00242859
0.00195745
0.0142377
0.0125055
0.0110076
0.00971075
0.00859193
0.00762918
0.00679771
0.00607012
0.0054194
0.00482187
0.00425839
0.00371288
0.00316672
0.00260306
0.00210511
0.014382
0.0127456
0.0113166
0.0100568
0.00894758
0.00797362
0.00711822
0.00636179
0.00568274
0.00505989
0.00447448
0.00390901
0.00334246
0.00275514
0.00223251
0.0144925
0.012966
0.0115999
0.0103747
0.00927617
0.00829394
0.00741755
0.00663376
0.00592639
0.00527758
0.00466952
0.00408402
0.00349793
0.00288869
0.00234343
0.0146074
0.0131673
0.011859
0.0106662
0.00957884
0.00859063
0.00769593
0.00688682
0.00615207
0.00547735
0.00484654
0.00424119
0.00363641
0.00300688
0.00244075
0.0147068
0.0133511
0.012096
0.0109332
0.00985696
0.00886454
0.00795389
0.00712162
0.0063609
0.00566093
0.00500757
0.00438276
0.00376
0.00311162
0.00252639
0.0147929
0.0135174
0.0123121
0.0111775
0.0101123
0.00911698
0.00819276
0.00733976
0.00655493
0.0058309
0.00515592
0.00451229
0.0038729
0.00320651
0.00260308
0.0148774
0.0136681
0.0125079
0.011399
0.0103436
0.00934514
0.00840776
0.00753476
0.00672684
0.00597989
0.00528329
0.00462213
0.00396498
0.00328576
0.00266819
0.0149959
0.0138489
0.0127309
0.0116446
0.0106032
0.00960819
0.00866376
0.00777604
0.00694456
0.00617102
0.00545735
0.00477029
0.0041074
0.0033841
0.00274105
0.000665372
0.000909884
0.00124884
0.0016146
0.0020026
0.00241055
0.00284215
0.00330962
0.00383945
0.00448858
0.00538413
0.00678126
0.00866602
0.0110617
0.0140445
0.00102701
0.001304
0.00164981
0.00201591
0.00239832
0.00279796
0.00322292
0.00369278
0.00424637
0.00495456
0.00592851
0.00729043
0.00909636
0.0113468
0.0141125
0.00132595
0.00162039
0.00197977
0.0023532
0.0027398
0.00314477
0.00358196
0.00407908
0.0046828
0.00546009
0.00648586
0.0078187
0.00954563
0.0116574
0.0142175
0.00156985
0.0018779
0.00225148
0.00263586
0.00303378
0.00345545
0.00392054
0.004462
0.00512568
0.00596348
0.00701993
0.00833056
0.00998355
0.0119685
0.0143354
0.0017717
0.00209238
0.00248002
0.00287806
0.00329331
0.00374092
0.00424482
0.0048386
0.00556082
0.00644658
0.0075217
0.00881324
0.0103981
0.012268
0.0144605
0.00194163
0.00227455
0.00267633
0.00309045
0.00352803
0.0040084
0.00455716
0.00520453
0.0059791
0.00690233
0.00798947
0.00926251
0.010785
0.0125504
0.0145864
0.00208681
0.00243171
0.00284788
0.00328022
0.003744
0.00426134
0.00485703
0.00555544
0.00637536
0.00732826
0.00842317
0.00967748
0.0111427
0.0128121
0.0147015
0.00221231
0.00256895
0.00299986
0.00345208
0.00394469
0.00450097
0.00514297
0.00588824
0.00674706
0.00772397
0.00882356
0.0100588
0.0114715
0.0130552
0.0148302
0.00232184
0.00268996
0.00313586
0.00360919
0.004132
0.00472747
0.00541358
0.0062011
0.00709339
0.00808996
0.00919187
0.0104082
0.0117735
0.0132814
0.0149496
0.00241811
0.00279741
0.00325846
0.00375358
0.00430707
0.00494077
0.00566801
0.00649329
0.00741448
0.00842728
0.00952983
0.010728
0.0120506
0.0134899
0.0150545
0.00250328
0.00289361
0.00336989
0.00388699
0.00447076
0.00514087
0.00590586
0.0067648
0.00771109
0.00873735
0.00983946
0.0110204
0.0123038
0.0136788
0.0151439
0.00257891
0.00297943
0.00347036
0.00400907
0.00462229
0.00532708
0.00612712
0.00701608
0.00798415
0.00902165
0.0101226
0.0112874
0.0125352
0.0138535
0.0152469
0.00264653
0.00305919
0.00356696
0.00412882
0.00477045
0.00550635
0.00633334
0.00724804
0.00823539
0.00928367
0.0103829
0.0115321
0.0127464
0.0140107
0.0153115
0.00270752
0.00312152
0.00363192
0.00420113
0.00486498
0.00562386
0.00651253
0.00745972
0.00846721
0.00950706
0.0105939
0.0117276
0.0129227
0.0141287
0.0153638
0.00129495
0.00391098
0.00679506
0.00990266
0.0132261
0.0167629
0.0205241
0.0245333
0.0288236
0.0334294
0.0383764
0.0436722
0.049301
0.055223
0.0613777
9.4913e-08
0.000431931
0.00175328
0.00389376
0.00640172
0.00938657
0.0128534
0.0168003
0.021223
0.0261153
0.0314658
0.0372525
0.0434375
0.0499613
0.0567413
0
0.000210773
0.00108443
0.00254416
0.00436925
0.00669087
0.00955176
0.0129832
0.0170066
0.0216305
0.0268485
0.0326363
0.0389484
0.0457188
0.0528773
4.26869e-06
0.000210488
0.00109068
0.00215948
0.00360978
0.00550989
0.00791961
0.0108959
0.0144881
0.0187331
0.0236499
0.0292339
0.0354521
0.0422379
0.0494746
9.26236e-06
0.000567246
0.00105769
0.00195319
0.00319368
0.00483504
0.00694211
0.00958298
0.0128236
0.0167222
0.0213218
0.0266425
0.0326736
0.0393669
0.0466388
0.000336927
0.000666957
0.00106598
0.00179264
0.00289142
0.00435782
0.00625263
0.00864663
0.0116134
0.0152237
0.0195376
0.024596
0.0304106
0.0369527
0.0441431
0.00038535
0.000634215
0.00106372
0.00165854
0.00264929
0.00398475
0.00571945
0.00792349
0.0106731
0.0140455
0.0181119
0.0229286
0.0285267
0.0349007
0.0420043
0.000374481
0.000588503
0.00103147
0.00155236
0.00245168
0.00368258
0.00528941
0.00734049
0.0099124
0.0130854
0.0169376
0.0215368
0.0269297
0.0331309
0.0401154
0.000366351
0.000564448
0.000999375
0.0014955
0.00229194
0.00343363
0.00493427
0.00685785
0.00928017
0.012283
0.0159487
0.020353
0.0255554
0.0315883
0.0384507
0.000361137
0.000553883
0.000976949
0.00145839
0.0021613
0.0032255
0.00463574
0.00645047
0.00874438
0.0115996
0.0151011
0.0193305
0.0243571
0.0302272
0.0369527
0.000357158
0.000548067
0.000960753
0.0014251
0.00205365
0.00304898
0.00438102
0.00610146
0.00828337
0.0110088
0.0143644
0.0184359
0.0232998
0.0290123
0.0355927
0.000353593
0.000543525
0.000948482
0.00139752
0.00197714
0.00289896
0.00416111
0.00579864
0.00788171
0.0104918
0.0137166
0.0176446
0.0223578
0.02792
0.0343609
0.000350352
0.000539871
0.000940193
0.00137917
0.00193089
0.00277194
0.00396945
0.00553306
0.00752804
0.0100348
0.0131413
0.0169382
0.021511
0.0269294
0.0332283
0.00034745
0.000537084
0.000935055
0.0013674
0.00189895
0.00266351
0.003801
0.005298
0.00721374
0.00962714
0.0126261
0.0163023
0.0207445
0.0260277
0.0321992
0.000344818
0.000534798
0.000931353
0.00135809
0.00187157
0.00257144
0.00365185
0.00508826
0.0069322
0.00926066
0.0121611
0.0157262
0.0200471
0.0252046
0.031259
0.000342369
0.000532662
0.000927989
0.00134969
0.00184801
0.00250082
0.00351994
0.00489993
0.00667827
0.00892903
0.011739
0.0152012
0.0194089
0.024447
0.0303778
0.000340069
0.000530635
0.000924972
0.00134288
0.00183057
0.00245345
0.0034041
0.00473005
0.00644791
0.00862718
0.0113535
0.0147202
0.0188218
0.0237451
0.0295521
0.000337923
0.000528822
0.00092264
0.00133818
0.00181871
0.00242062
0.00330232
0.0045762
0.00623786
0.008351
0.0109998
0.0142771
0.0182782
0.0230907
0.0287769
0.000335928
0.000527246
0.000920967
0.00133501
0.0018099
0.00239388
0.00321248
0.0044363
0.00604545
0.00809713
0.0106737
0.0138676
0.017775
0.0224885
0.0280947
0.000334057
0.000525815
0.000919604
0.00133241
0.00180205
0.00236962
0.00313493
0.00430876
0.00586847
0.00786279
0.0103718
0.0134873
0.0173058
0.0219193
0.0273958
0.000332283
0.000524425
0.000918233
0.00132984
0.00179464
0.00234834
0.00307351
0.00419292
0.00570519
0.00764569
0.0100914
0.0131334
0.016869
0.0213956
0.0268146
0.000330588
0.000523043
0.000916805
0.00132738
0.00178832
0.00233164
0.003029
0.0040884
0.00555423
0.00744394
0.00983013
0.0128029
0.0164596
0.0208965
0.0261875
0.000328968
0.000521709
0.000915461
0.00132538
0.00178361
0.00231947
0.00299637
0.00399423
0.0054144
0.0072559
0.00958598
0.0124933
0.0160751
0.0204285
0.0256427
0.000327427
0.000520468
0.000914334
0.00132398
0.00178039
0.00231037
0.00296992
0.00390912
0.00528463
0.00708023
0.00935721
0.0122026
0.0157132
0.0199871
0.0251133
0.000325963
0.000519319
0.000913418
0.00132304
0.00177805
0.00230271
0.00294616
0.0038324
0.00516395
0.0069157
0.0091423
0.0119288
0.015371
0.0195655
0.0245899
0.000324565
0.000518233
0.0009126
0.00132228
0.00177597
0.00229549
0.00292406
0.00376526
0.00505173
0.00676127
0.00893988
0.0116701
0.0150465
0.0191652
0.0241131
0.000323223
0.000517177
0.000911768
0.00132145
0.00177386
0.00228861
0.00290435
0.00371026
0.00494779
0.00661609
0.00874886
0.0114255
0.0147405
0.0187949
0.0237054
0.000321931
0.000516111
0.000910855
0.00132053
0.00177179
0.00228251
0.0028881
0.00366789
0.00485204
0.00647948
0.00856832
0.011194
0.0144503
0.0184373
0.0232455
0.000320672
0.000515055
0.000909904
0.00131959
0.00177001
0.00227767
0.00287553
0.00363536
0.00476405
0.00635086
0.00839744
0.0109745
0.0141748
0.0180999
0.0228565
0.000319461
0.000514047
0.000908984
0.00131879
0.00176872
0.00227416
0.00286588
0.00360888
0.0046831
0.00622965
0.00823554
0.0107661
0.0139132
0.0177796
0.0224736
0.000318302
0.000513083
0.000908155
0.0013182
0.00176794
0.00227169
0.00285805
0.00358558
0.00460849
0.00611533
0.00808191
0.0105681
0.0136645
0.0174742
0.0221051
0.000317181
0.000512143
0.000907402
0.00131778
0.00176751
0.00226981
0.00285109
0.00356389
0.00454006
0.00600742
0.00793606
0.0103797
0.0134274
0.0171816
0.0217449
0.00031609
0.000511257
0.000906706
0.00131746
0.00176722
0.00226813
0.00284442
0.00354339
0.0044788
0.00590563
0.00779737
0.0102
0.0132002
0.016898
0.0213872
0.000315047
0.000510403
0.000906029
0.00131713
0.00176692
0.00226644
0.00283797
0.00352457
0.00442642
0.0058099
0.00766537
0.0100285
0.0129831
0.0166301
0.021081
0.000314031
0.000509536
0.00090531
0.00131673
0.0017665
0.00226472
0.00283201
0.00350822
0.00438374
0.00572028
0.00753967
0.00986445
0.0127752
0.0163709
0.0207511
0.000313032
0.00050869
0.000904553
0.00131624
0.00176601
0.00226314
0.00282692
0.00349477
0.00434975
0.00563666
0.00741994
0.00970748
0.0125755
0.0161214
0.0204441
0.000312072
0.000507858
0.000903776
0.00131571
0.00176556
0.00226188
0.00282289
0.00348408
0.00432214
0.0055587
0.00730582
0.00955699
0.0123833
0.01588
0.0201451
0.000311133
0.000507021
0.000902993
0.0013152
0.00176524
0.00226105
0.00281994
0.00347554
0.00429858
0.00548587
0.00719697
0.00941268
0.0121991
0.0156522
0.0198885
0.000310209
0.000506209
0.000902229
0.00131475
0.00176509
0.00226065
0.00281786
0.00346844
0.00427734
0.00541773
0.0070931
0.00927426
0.0120223
0.0154321
0.0196111
0.000309317
0.000505447
0.000901522
0.00131438
0.00176512
0.00226061
0.00281634
0.00346212
0.00425741
0.00535413
0.00699391
0.00914139
0.0118522
0.0152208
0.0193607
0.000308458
0.000504691
0.000900853
0.00131409
0.00176527
0.00226076
0.00281511
0.00345615
0.00423833
0.00529544
0.00689925
0.00901391
0.0116895
0.0150213
0.019136
0.000307608
0.000503961
0.000900208
0.00131383
0.00176548
0.00226098
0.00281395
0.00345034
0.0042202
0.00524263
0.00680906
0.00889163
0.0115331
0.014827
0.0188839
0.000306784
0.000503259
0.000899582
0.00131357
0.00176567
0.00226117
0.00281277
0.00344472
0.00420347
0.00519682
0.00672342
0.00877428
0.0113825
0.014638
0.018643
0.000305987
0.000502565
0.00089895
0.00131328
0.0017658
0.00226128
0.00281157
0.0034395
0.0041887
0.00515846
0.00664237
0.00866143
0.0112363
0.0144502
0.0183889
0.000305203
0.000501854
0.000898286
0.00131293
0.00176583
0.00226132
0.00281047
0.00343494
0.00417616
0.00512686
0.00656586
0.00855283
0.0110949
0.0142708
0.0181813
0.000304425
0.000501164
0.000897603
0.00131254
0.00176582
0.00226135
0.0028096
0.0034312
0.00416588
0.0051006
0.00649366
0.00844821
0.0109577
0.0140949
0.0179491
0.000303675
0.000500489
0.000896917
0.00131211
0.00176578
0.00226146
0.00280905
0.00342836
0.00415753
0.00507811
0.00642543
0.00834734
0.0108244
0.0139239
0.0177349
0.000302936
0.000499802
0.000896218
0.00131168
0.00176576
0.00226169
0.00280887
0.00342634
0.00415063
0.00505804
0.0063608
0.00824997
0.010695
0.0137573
0.0175253
0.000302203
0.000499143
0.000895535
0.00131127
0.00176581
0.00226208
0.00280906
0.00342497
0.00414474
0.00503944
0.00629951
0.00815601
0.0105697
0.0135981
0.0173404
0.000301498
0.000498507
0.000894883
0.0013109
0.00176592
0.00226264
0.00280953
0.00342408
0.00413945
0.00502171
0.00624146
0.0080653
0.0104482
0.0134431
0.0171438
0.000300804
0.000497866
0.000894242
0.00131056
0.00176611
0.0022633
0.00281021
0.00342345
0.00413443
0.00500454
0.00618685
0.00797785
0.010331
0.0132957
0.0169759
0.000300116
0.000497241
0.00089362
0.00131024
0.00176634
0.00226405
0.00281099
0.00342293
0.00412953
0.00498791
0.00613624
0.00789363
0.0102175
0.0131504
0.0167807
0.000299448
0.000496654
0.000893023
0.00130995
0.00176658
0.00226481
0.00281177
0.00342241
0.00412471
0.00497205
0.00609041
0.00781265
0.0101074
0.01301
0.0166136
0.0002988
0.000496055
0.00089243
0.00130966
0.00176682
0.00226554
0.00281252
0.00342184
0.00412001
0.0049573
0.00605005
0.00773502
0.010001
0.0128748
0.0164507
0.000298153
0.000495469
0.000891834
0.00130935
0.00176701
0.00226622
0.00281319
0.00342126
0.00411561
0.00494402
0.00601539
0.00766084
0.00989815
0.0127432
0.0162841
0.00029752
0.0004949
0.000891237
0.00130901
0.00176715
0.00226681
0.00281379
0.00342072
0.00411167
0.00493246
0.00598599
0.0075901
0.00979846
0.0126147
0.0161198
0.000296907
0.000494335
0.000890638
0.00130865
0.00176725
0.00226734
0.00281435
0.00342031
0.00410834
0.00492266
0.005961
0.00752273
0.00970175
0.012489
0.0159592
0.000296298
0.000493751
0.000890014
0.00130825
0.00176728
0.00226782
0.00281493
0.00342011
0.00410568
0.00491447
0.00593936
0.00745849
0.00960799
0.0123664
0.0158037
0.00029569
0.000493189
0.000889389
0.00130783
0.00176729
0.00226828
0.00281558
0.00342018
0.00410372
0.00490765
0.00592013
0.00739718
0.00951685
0.0122462
0.0156462
0.000295105
0.000492627
0.000888757
0.00130739
0.00176728
0.00226876
0.00281632
0.00342054
0.00410238
0.00490189
0.00590251
0.00733851
0.00942817
0.0121282
0.0154951
0.000294517
0.000492071
0.000888127
0.00130696
0.00176727
0.00226927
0.00281718
0.00342119
0.00410156
0.0048969
0.00588594
0.00728235
0.00934208
0.0120148
0.015363
0.000293941
0.000491535
0.000887506
0.00130652
0.00176728
0.00226984
0.00281818
0.00342208
0.00410113
0.0048924
0.00587003
0.00722866
0.00925885
0.0119061
0.0152325
0.000293382
0.000491008
0.000886908
0.00130611
0.00176732
0.00227046
0.00281928
0.00342317
0.00410098
0.00488819
0.00585456
0.00717753
0.00917814
0.011799
0.0150893
0.000292832
0.000490471
0.000886313
0.00130573
0.00176739
0.00227113
0.00282047
0.00342439
0.00410097
0.00488412
0.00583946
0.00712923
0.00910002
0.0116951
0.0149622
0.000292284
0.000489945
0.000885732
0.00130534
0.00176748
0.00227184
0.00282172
0.00342568
0.00410103
0.00488013
0.0058248
0.00708419
0.00902435
0.0115939
0.0148334
0.000291757
0.000489449
0.000885171
0.00130498
0.00176758
0.00227256
0.00282298
0.00342698
0.00410111
0.0048762
0.00581076
0.00704298
0.00895126
0.0114955
0.0147084
0.00029125
0.000488959
0.000884629
0.00130463
0.0017677
0.00227328
0.00282424
0.00342827
0.00410117
0.00487239
0.00579756
0.00700601
0.0088805
0.0113978
0.0145736
0.000290749
0.000488451
0.000884074
0.00130428
0.00176779
0.00227399
0.00282547
0.00342953
0.00410123
0.00486879
0.00578548
0.0069735
0.00881238
0.0113039
0.014464
0.00029025
0.000487967
0.00088354
0.00130393
0.0017679
0.00227469
0.00282668
0.00343077
0.00410135
0.00486555
0.00577472
0.00694532
0.00874684
0.0112118
0.014339
0.000289799
0.000487471
0.000882984
0.00130355
0.00176795
0.00227533
0.00282783
0.00343198
0.00410158
0.00486278
0.00576539
0.00692099
0.00868391
0.0111221
0.0142244
0.000289323
0.000486992
0.000882547
0.0013033
0.00176812
0.00227607
0.00282907
0.00343332
0.00410204
0.00486063
0.00575755
0.00689996
0.00862366
0.011035
0.0141127
0.000289046
0.000486425
0.000881844
0.00130279
0.00176815
0.00227678
0.00283043
0.00343491
0.00410298
0.00485934
0.00575123
0.00688161
0.00856628
0.0109509
0.0140044
0.000288305
0.000486077
0.000881803
0.00130236
0.00176763
0.00227647
0.00283044
0.00343508
0.00410266
0.0048572
0.00574485
0.00686438
0.00850983
0.0108675
0.0138923
0.000290105
0.000486303
0.000884019
0.00130858
0.00177718
0.00228843
0.00284391
0.00344908
0.00411601
0.00486827
0.00575078
0.00685807
0.00846721
0.0107949
0.0137948
0.000270676
0.00046372
0.000839345
0.00124984
0.00171104
0.00221973
0.00277585
0.00338345
0.00405323
0.00480738
0.00568906
0.00678868
0.00835822
0.0106743
0.0136764
0.00127021
0.00382909
0.00665585
0.00970277
0.0129815
0.0165044
0.0202932
0.0243747
0.0287751
0.0335129
0.038594
0.0440077
0.0497278
0.0557135
0.0619208
8.78964e-08
0.000418411
0.00169807
0.00382076
0.00630516
0.00927815
0.0127529
0.0167369
0.0212306
0.026224
0.0316945
0.0376036
0.0438969
0.0505053
0.0573558
0
0.000224262
0.0011357
0.00259446
0.00442476
0.00675534
0.00963089
0.0130897
0.0171591
0.0218509
0.0271566
0.0330428
0.0394508
0.0462978
0.0534898
8.1955e-06
0.000264761
0.00113813
0.00223273
0.00370539
0.00562879
0.00806521
0.0110753
0.0147127
0.0190179
0.0240103
0.0296812
0.0359891
0.0428584
0.0501859
6.77127e-05
0.000534885
0.00107978
0.00200312
0.00327293
0.0049441
0.00708489
0.00976621
0.0130571
0.0170181
0.021693
0.0270996
0.0332211
0.0400002
0.0473389
0.000353463
0.000597233
0.000999156
0.00181091
0.00294713
0.00444752
0.00637935
0.0088171
0.011837
0.0155117
0.019902
0.0250472
0.0309543
0.0375877
0.0448618
0.000403953
0.000561028
0.00092014
0.00165334
0.0026843
0.00405738
0.0058313
0.0080804
0.0108839
0.0143212
0.0184641
0.023368
0.0290597
0.0355259
0.0427023
0.000395821
0.000531094
0.000883057
0.00152539
0.00246894
0.00373934
0.00538718
0.00748391
0.0101096
0.0133469
0.0172748
0.0219595
0.0274425
0.0337233
0.0407295
0.000388006
0.000521287
0.000870172
0.00142254
0.00229324
0.00347517
0.00501831
0.0069881
0.0094638
0.0125297
0.0162692
0.0207565
0.0260454
0.0321557
0.0390711
0.000383185
0.000519236
0.000859579
0.00133837
0.00214678
0.00325201
0.00470628
0.00656803
0.00891492
0.0118318
0.0154048
0.0197144
0.0248247
0.0307721
0.0375547
0.000379039
0.000517543
0.000847182
0.00126777
0.00202306
0.00306308
0.00443856
0.0062065
0.00844111
0.0112269
0.014652
0.0188012
0.023747
0.0295382
0.0361848
0.000374876
0.000514539
0.000833554
0.00121051
0.00191736
0.00290094
0.0042059
0.00589132
0.00802697
0.0106964
0.0139888
0.017992
0.0227846
0.0284216
0.034913
0.000371007
0.000512375
0.000826722
0.00118619
0.00182818
0.00275969
0.00400129
0.00561347
0.00766104
0.0102263
0.0133988
0.017269
0.0219201
0.027418
0.0338053
0.000367735
0.000512267
0.000827719
0.00118163
0.00175329
0.00263581
0.00382087
0.00536637
0.00733479
0.00980616
0.0128699
0.0166183
0.021139
0.026506
0.0327677
0.000364939
0.000513241
0.000831528
0.00117954
0.00168934
0.00252664
0.00366097
0.00514498
0.00704167
0.0094278
0.0123923
0.0160286
0.0204272
0.0256653
0.0317845
0.000362346
0.00051392
0.000834143
0.00117423
0.00163332
0.00242964
0.00351781
0.00494523
0.0067765
0.0090848
0.0119582
0.0154906
0.0197744
0.0248895
0.0308857
0.000359763
0.000513637
0.000834161
0.00116559
0.00158527
0.00234268
0.00338845
0.00476369
0.00653511
0.00877199
0.0115613
0.0149973
0.0191744
0.0241788
0.0300846
0.000357201
0.000512781
0.000833296
0.00115928
0.00155833
0.00226589
0.00327128
0.00459897
0.0063143
0.00848525
0.0111968
0.0145434
0.0186212
0.0235213
0.0293213
0.000354796
0.000512172
0.000833943
0.001159
0.00155065
0.00219932
0.00316511
0.00444889
0.00611145
0.00822121
0.0108606
0.0141238
0.0181086
0.0229087
0.0286015
0.000352631
0.00051217
0.000836581
0.00116289
0.00154931
0.00214132
0.00306865
0.00431133
0.00592433
0.0079771
0.0105493
0.0137346
0.0176315
0.0223352
0.0279234
0.000350677
0.000512532
0.000840128
0.00116763
0.00154726
0.00208975
0.0029806
0.00418457
0.005751
0.00775057
0.01026
0.013372
0.0171857
0.0217975
0.0272887
0.000348843
0.000512826
0.00084329
0.00117103
0.00154249
0.002043
0.0028997
0.00406728
0.00559005
0.00753965
0.00999013
0.0130333
0.0167683
0.0212928
0.0266907
0.000347052
0.000512755
0.000845309
0.00117238
0.00153552
0.00200265
0.00282523
0.00395859
0.00544089
0.00734271
0.00973765
0.0127156
0.0163751
0.0208125
0.0261043
0.000345276
0.000512316
0.000846326
0.00117271
0.00152998
0.00197736
0.00275772
0.00385781
0.00530209
0.00715832
0.00950076
0.0124171
0.0160057
0.0203674
0.0256069
0.000343542
0.000511751
0.000847141
0.00117383
0.00152892
0.00196756
0.00269765
0.00376431
0.00517241
0.00698522
0.00927791
0.0121358
0.0156569
0.0199406
0.0250684
0.000341899
0.000511318
0.000848461
0.00117663
0.0015319
0.00196518
0.00264429
0.00367749
0.00505089
0.00682231
0.00906779
0.0118701
0.0153264
0.0195355
0.0245842
0.000340365
0.000511121
0.000850454
0.00118077
0.00153679
0.00196408
0.00259623
0.00359666
0.00493669
0.00666852
0.00886915
0.0116185
0.0150125
0.0191497
0.0241192
0.000338947
0.00051106
0.000852813
0.00118535
0.00154162
0.00196165
0.00255219
0.00352116
0.00482923
0.00652371
0.00868104
0.0113799
0.0147152
0.0187887
0.0237114
0.000337595
0.000511003
0.000855077
0.00118952
0.00154527
0.00195721
0.00251155
0.00345045
0.00472807
0.00638715
0.00850268
0.0111534
0.0144333
0.0184458
0.0232989
0.000336274
0.000510845
0.000856894
0.00119276
0.0015474
0.00195132
0.00247605
0.00338423
0.00463268
0.00625803
0.00833336
0.0109384
0.0141658
0.0181208
0.0229132
0.000334984
0.000510513
0.000858154
0.00119508
0.00154858
0.00194622
0.00245123
0.00332293
0.00454261
0.00613566
0.00817242
0.0107337
0.0139104
0.0178054
0.0225122
0.000333721
0.000510029
0.000858998
0.00119694
0.00155002
0.00194423
0.00243879
0.00326709
0.00445763
0.00601949
0.00801919
0.0105386
0.0136669
0.0175074
0.0221721
0.000332472
0.000509522
0.000859732
0.00119894
0.0015526
0.00194579
0.00243428
0.00321656
0.00437744
0.00590903
0.00787307
0.0103524
0.0134341
0.0172208
0.0218145
0.000331278
0.000509076
0.000860622
0.00120145
0.00155651
0.0019498
0.00243286
0.00317057
0.00430172
0.00580391
0.00773372
0.0101742
0.0132107
0.0169438
0.0214726
0.000330154
0.000508708
0.000861772
0.0012045
0.00156135
0.00195482
0.00243161
0.00312821
0.00423018
0.00570386
0.00760101
0.0100038
0.0129972
0.0166827
0.021177
0.000329076
0.000508425
0.000863107
0.00120787
0.00156648
0.00195969
0.00242928
0.00308871
0.00416246
0.00560858
0.00747438
0.00984048
0.012792
0.0164278
0.0208464
0.000328034
0.000508199
0.00086449
0.00121122
0.00157136
0.00196371
0.00242553
0.00305179
0.00409822
0.00551775
0.00735334
0.00968386
0.0125951
0.016186
0.0205721
0.000327046
0.00050794
0.000865763
0.00121427
0.00157561
0.00196663
0.00242061
0.00301841
0.00403729
0.00543107
0.00723748
0.00953355
0.0124063
0.015954
0.0202931
0.000326075
0.000507617
0.0008668
0.00121686
0.0015791
0.00196862
0.00241566
0.00299168
0.00397986
0.00534824
0.00712643
0.00938933
0.0122255
0.0157346
0.0200437
0.000325111
0.000507244
0.000867569
0.00121898
0.00158198
0.00197034
0.00241236
0.0029744
0.00392635
0.00526916
0.00701998
0.00925089
0.0120519
0.0155214
0.0197724
0.000324179
0.000506796
0.000868122
0.00122076
0.00158463
0.00197254
0.00241177
0.0029656
0.00387702
0.00519371
0.00691786
0.00911787
0.011885
0.0153154
0.0195195
0.000323259
0.000506318
0.000868554
0.00122243
0.00158742
0.00197572
0.00241386
0.002962
0.0038317
0.00512176
0.00681986
0.00899006
0.0117234
0.0151119
0.0192501
0.000322354
0.00050587
0.000868988
0.00122418
0.00159062
0.00197995
0.00241783
0.00296063
0.00378986
0.00505315
0.00672578
0.00886715
0.0115671
0.0149172
0.019025
0.000321488
0.000505458
0.000869515
0.00122613
0.00159427
0.00198498
0.00242275
0.00295964
0.00375085
0.0049877
0.00663541
0.00874877
0.0114159
0.0147281
0.0187873
0.000320662
0.000505069
0.000870143
0.00122831
0.00159826
0.00199043
0.00242782
0.00295809
0.00371422
0.0049252
0.00654856
0.00863463
0.0112697
0.0145451
0.0185627
0.000319853
0.000504734
0.000870853
0.0012306
0.0016024
0.00199592
0.00243251
0.00295559
0.00367961
0.00486541
0.00646497
0.00852437
0.0111278
0.0143668
0.0183397
0.00031908
0.000504428
0.000871591
0.0012329
0.00160648
0.00200111
0.0024365
0.00295211
0.00364713
0.00480814
0.00638446
0.00841787
0.0109908
0.0141969
0.0181425
0.000318339
0.000504106
0.000872295
0.0012351
0.00161031
0.00200582
0.00243969
0.00294793
0.00361779
0.00475333
0.00630683
0.00831478
0.0108574
0.0140263
0.0179046
0.000317609
0.000503771
0.000872897
0.0012371
0.00161378
0.00200997
0.00244221
0.00294383
0.00359367
0.0047011
0.00623192
0.008215
0.0107285
0.0138674
0.0177458
0.000316887
0.000503434
0.000873383
0.00123885
0.00161685
0.00201362
0.00244448
0.00294084
0.00357661
0.00465176
0.00615967
0.00811838
0.0106033
0.013709
0.0175199
0.000316192
0.000503053
0.000873749
0.00124037
0.00161959
0.002017
0.00244696
0.00293983
0.00356643
0.00460557
0.00609002
0.00802474
0.0104815
0.0135535
0.0173251
0.000315507
0.000502645
0.000874011
0.0012417
0.00162214
0.00202035
0.00245007
0.00294098
0.00356131
0.00456249
0.00602289
0.00793395
0.0103632
0.0134035
0.0171449