/*--------------------------------*- C++ -*----------------------------------*\
| =========                 |                                                 |
| \\      /  F ield         | OpenFOAM: The Open Source CFD Toolbox           |
|  \\    /   O peration     | Version:  2.3.0                                 |
|   \\  /    A nd           | Web:      www.OpenFOAM.org                      |
|    \\/     M anipulation  |                                                 |
\*---------------------------------------------------------------------------*/
FoamFile
{
    version     2.0;
    format      ascii;
    class       volScalarField;
    location    "5000";
    object      p;
}
// * * * * * * * * * * * * * * * * * * * * * * * * * * * * * * * * * * * * * //

dimensions      [0 2 -2 0 0 0 0];

internalField   nonuniform List<scalar> 
37738
(
0.000439186
-0.813625
-1.72557
-2.62375
-3.55106
-4.51065
-5.50043
-6.52565
-7.5836
-8.67837
-9.80982
-10.9774
-12.1785
-13.4177
-14.685
-15.9818
-17.3048
-18.6412
-19.9923
-21.3469
-22.6799
-24.0057
-25.2909
-26.5355
-27.7165
-28.8303
-29.887
-30.8417
-31.7308
-32.4781
-33.106
-33.5868
-33.8467
-33.809
-33.2882
-32.1356
-30.3755
-28.0005
-23.9975
-17.8433
-13.552
-17.3691
-9.11995
5.75359
5.60089
5.2688
4.95944
4.64993
4.34763
4.06126
3.7872
3.53639
3.30117
3.08805
2.89528
2.72385
2.57117
2.44784
2.34525
2.27161
2.23026
2.22883
2.28512
2.41189
2.6295
2.96365
3.4594
4.16235
5.11446
6.37365
8.02718
10.1442
12.8051
16.124
20.2001
25.1829
31.1768
38.404
47.0248
57.2093
69.1976
83.2803
99.7788
118.501
139.008
161.212
11.2402
11.2035
11.0966
11.0199
10.9548
10.9047
10.8695
10.8553
10.8592
10.8905
10.9478
11.0449
11.1792
11.3531
11.5768
11.8602
12.2086
12.6266
13.1307
13.7254
14.4232
15.2291
16.1665
17.2525
18.4954
19.9367
21.5961
23.5191
25.743
28.3257
31.3292
34.8161
38.8925
43.641
49.1638
55.6012
63.0802
71.6919
81.5497
92.7135
105.2
119.058
133.93
16.0467
16.1847
16.3105
16.4634
16.6417
16.8492
17.0839
17.354
17.6605
18.0195
18.4165
18.8641
19.3691
19.9365
20.5692
21.2718
22.0619
22.9361
23.9169
25.0128
26.2521
27.64
29.209
30.9787
32.976
35.2491
37.8129
40.7208
44.0087
47.7226
51.9233
56.6549
61.977
67.942
74.6113
82.027
90.2185
99.2006
108.949
119.388
130.377
141.731
153.146
20.3734
20.5846
20.8589
21.1564
21.478
21.84
22.233
22.6586
23.1302
23.6488
24.2156
24.838
25.5256
26.2784
27.1081
28.0118
29.0049
30.0864
31.2747
32.5783
34.0139
35.5876
37.3231
39.2459
41.3742
43.7374
46.355
49.2763
52.5388
56.1617
60.2106
64.7218
69.7388
75.3158
81.4889
88.2932
95.7477
103.846
112.564
121.827
131.515
141.444
151.408
24.1431
24.447
24.8481
25.2628
25.6955
26.1752
26.6906
27.2305
27.8224
28.4694
29.1705
29.9178
30.7451
31.6453
32.63
33.6953
34.8529
36.1037
37.4722
38.9618
40.5839
42.3528
44.284
46.4057
48.7418
51.3074
54.1389
57.2531
60.6962
64.4877
68.6584
73.2523
78.3016
83.8414
89.8806
96.4504
103.545
111.16
119.252
127.752
136.549
145.493
154.418
27.5484
27.8682
28.3422
28.8537
29.3495
29.9069
30.5165
31.1276
31.8105
32.5425
33.3295
34.1472
35.0654
36.0572
37.1375
38.2974
39.5579
40.895
42.3721
43.958
45.6665
47.5209
49.513
51.6926
54.0773
56.6995
59.5774
62.719
66.1642
69.9351
74.027
78.5339
83.4597
88.8499
94.6712
100.971
107.715
114.89
122.482
130.427
138.628
146.944
155.209
30.7571
31.0447
31.4826
32.033
32.5188
33.1326
33.8104
34.4318
35.1577
35.9578
36.8358
37.6796
38.6302
39.6761
40.8867
42.1568
43.4599
44.7904
46.3543
48.0681
49.8971
51.8392
53.8391
56.0825
58.5305
61.1531
63.9702
67.1046
70.6275
74.484
78.4775
82.8724
87.6945
92.9492
98.558
104.645
111.111
117.965
125.187
132.695
140.462
148.267
156.037
34.2634
34.3587
34.4687
34.8722
35.0951
35.7237
36.8215
37.1651
37.4786
38.1487
39.4969
40.2135
40.9064
41.7089
42.9459
44.4246
45.8338
46.8438
48.2208
49.8729
51.8721
54.0031
55.8606
58.1372
60.8977
63.7571
66.4112
69.0798
72.2085
77.2311
81.4432
85.7569
90.5716
95.8684
101.308
107.309
113.85
120.901
128.301
135.673
143.203
150.474
157.841
66.7287
119.443
152.709
177.125
195.931
210.617
222.129
231.115
238.208
243.827
248.299
251.838
254.639
256.851
258.584
259.932
260.938
261.67
262.158
262.442
262.557
262.523
262.367
262.097
261.739
261.302
260.793
260.225
259.603
258.934
258.222
257.473
256.687
255.867
255.017
254.138
253.231
252.299
251.341
250.351
249.317
248.344
247.853
181.867
196.992
209.63
220.336
229.286
236.675
242.723
247.635
251.567
254.655
257.034
258.842
260.201
261.192
261.885
262.333
262.578
262.653
262.59
262.413
262.137
261.779
261.348
260.855
260.309
259.715
259.076
258.399
257.686
256.942
256.167
255.365
254.539
253.692
252.824
251.939
251.036
250.119
249.187
248.235
247.252
246.31
245.779
148.782
162.796
175.66
187.192
197.369
206.243
213.919
220.51
226.15
230.955
235.022
238.456
241.347
243.766
245.78
247.448
248.813
249.919
250.798
251.482
251.994
252.356
252.586
252.698
252.708
252.627
252.464
252.227
251.925
251.564
251.149
250.685
250.178
249.631
249.047
248.43
247.781
247.106
246.405
245.677
244.918
244.216
243.962
164.275
174.844
184.696
193.697
201.801
209.003
215.34
220.858
225.636
229.744
233.253
236.238
238.763
240.888
242.665
244.142
245.358
246.347
247.141
247.764
248.239
248.584
248.815
248.943
248.983
248.945
248.837
248.665
248.439
248.16
247.836
247.471
247.067
246.629
246.161
245.663
245.138
244.59
244.018
243.42
242.787
242.207
241.982
161.201
170.651
179.595
187.904
195.504
202.364
208.492
213.918
218.689
222.86
226.484
229.623
232.331
234.654
236.641
238.331
239.76
240.962
241.964
242.793
243.465
244.001
244.414
244.716
244.925
245.048
245.096
245.074
244.991
244.85
244.66
244.424
244.148
243.836
243.492
243.115
242.71
242.281
241.827
241.346
240.831
240.326
240.063
163.177
171.646
179.698
187.227
194.166
200.482
206.17
211.25
215.757
219.732
223.208
226.249
228.894
231.18
233.152
234.841
236.28
237.505
238.549
239.425
240.152
240.745
241.209
241.567
241.837
242.027
242.146
242.196
242.185
242.118
242.005
241.849
241.654
241.424
241.169
240.879
240.56
240.225
239.863
239.483
239.068
238.655
238.53
163.336
171.211
178.715
185.758
192.274
198.251
203.651
208.51
212.856
216.712
220.095
223.097
225.726
228.004
229.99
231.689
233.153
234.429
235.545
236.481
237.267
237.901
238.389
238.794
239.123
239.379
239.57
239.68
239.732
239.725
239.673
239.579
239.449
239.288
239.115
238.901
238.647
238.389
238.1
237.798
237.454
237.134
237.25
163.665
171.103
178.193
184.891
191.08
196.806
201.929
206.582
210.795
214.55
217.824
220.812
223.418
225.644
227.63
229.274
230.733
232.054
233.212
234.124
234.892
235.499
235.971
236.445
236.842
237.17
237.424
237.562
237.641
237.652
237.633
237.592
237.522
237.436
237.35
237.166
236.929
236.76
236.535
236.284
235.966
235.722
236.175
164.967
172.028
178.699
185.098
190.829
196.277
200.865
205.145
209.13
212.697
215.634
218.49
220.917
222.895
224.873
226.229
227.596
228.898
230.059
230.905
231.847
232.608
233.249
234.004
234.542
234.932
235.238
235.347
235.424
235.457
235.574
235.7
235.74
235.746
235.688
235.226
235.108
235.33
235.064
235.036
234.599
234.678
235.466
-81.4462
-81.296
-81.18
-81.0542
-80.9161
-80.7688
-80.6123
-80.4469
-80.2739
-80.0939
-79.9075
-79.7136
-79.5152
-79.3125
-79.1062
-78.8963
-78.6845
-78.4712
-78.2574
-78.0452
-77.8339
-77.6254
-77.4207
-77.2208
-77.0271
-76.8406
-76.6624
-76.4939
-76.3358
-76.1892
-76.0552
-75.9348
-75.8279
-75.7354
-75.656
-75.588
-75.525
-75.4542
-75.3427
-75.1284
-74.6869
-73.6764
-71.3992
-82.0066
-81.7251
-81.5038
-81.29
-81.0716
-80.8495
-80.6259
-80.4011
-80.1769
-79.954
-79.7345
-79.5196
-79.3102
-79.1051
-78.9069
-78.7163
-78.5325
-78.3565
-78.1876
-78.027
-77.8733
-77.7273
-77.5876
-77.4541
-77.3276
-77.2068
-77.0903
-76.9794
-76.8718
-76.7675
-76.6651
-76.5629
-76.4579
-76.3462
-76.2193
-76.0649
-75.8598
-75.57
-75.1254
-74.3335
-72.7685
-69.9772
-66.1926
-82.5549
-82.2501
-82.0835
-81.9295
-81.7709
-81.61
-81.4485
-81.2854
-81.1203
-80.9551
-80.7898
-80.6239
-80.4591
-80.2951
-80.1319
-79.9692
-79.8071
-79.6468
-79.4879
-79.3313
-79.177
-79.0255
-78.877
-78.7304
-78.5863
-78.4435
-78.3024
-78.1616
-78.0203
-77.8772
-77.7282
-77.5701
-77.3961
-77.1958
-76.954
-76.6463
-76.2329
-75.6398
-74.7255
-73.2102
-70.6285
-66.612
-61.2475
-82.9302
-82.659
-82.5384
-82.4154
-82.283
-82.1474
-82.0096
-81.8676
-81.7207
-81.5699
-81.4182
-81.2667
-81.1142
-80.9612
-80.8089
-80.6578
-80.5061
-80.3539
-80.2027
-80.0527
-79.9029
-79.7542
-79.6069
-79.4606
-79.314
-79.165
-79.0138
-78.8582
-78.6945
-78.5195
-78.3275
-78.1111
-77.8592
-77.5557
-77.1768
-76.6832
-76.0112
-75.0544
-73.6312
-71.4338
-68.1016
-63.4851
-57.8758
-83.2219
-83.0359
-82.9318
-82.8297
-82.7176
-82.602
-82.4902
-82.3725
-82.2466
-82.1141
-81.9777
-81.8397
-81.701
-81.5601
-81.4182
-81.2781
-81.1347
-80.9861
-80.8356
-80.6847
-80.5329
-80.3781
-80.2218
-80.0639
-79.9035
-79.7383
-79.5639
-79.3779
-79.1787
-78.9613
-78.7153
-78.4275
-78.0844
-77.6616
-77.1272
-76.4275
-75.4843
-74.161
-72.2657
-69.5199
-65.6563
-60.6367
-55.0076
-83.6025
-83.3761
-83.2687
-83.1743
-83.0709
-82.9659
-82.8784
-82.7839
-82.6755
-82.5543
-82.4241
-82.2944
-82.1665
-82.0305
-81.8876
-81.7614
-81.6322
-81.4839
-81.3284
-81.1743
-81.017
-80.8489
-80.6783
-80.5045
-80.3277
-80.1426
-79.9434
-79.7251
-79.4848
-79.2222
-78.9222
-78.5609
-78.1308
-77.5921
-76.9181
-76.0288
-74.8498
-73.2069
-70.9214
-67.7773
-63.5585
-58.2623
-52.603
-83.9185
-83.6133
-83.5306
-83.4579
-83.3633
-83.2473
-83.1864
-83.1195
-83.029
-82.9178
-82.794
-82.6731
-82.5613
-82.4355
-82.2665
-82.1477
-82.0498
-81.9072
-81.7375
-81.5783
-81.4295
-81.2408
-81.0453
-80.8482
-80.6501
-80.4463
-80.2203
-79.9671
-79.6715
-79.3566
-79.0116
-78.5709
-78.0689
-77.4139
-76.6253
-75.5576
-74.1994
-72.2841
-69.6088
-66.0965
-61.5804
-55.9156
-50.1191
-84.1586
-83.8042
-83.7562
-83.728
-83.6394
-83.4434
-83.4047
-83.3953
-83.333
-83.2184
-83.0445
-82.8825
-82.7889
-82.7277
-82.4708
-82.2939
-82.2858
-82.1953
-81.9901
-81.7651
-81.65
-81.4654
-81.2396
-80.9951
-80.7681
-80.5646
-80.3115
-80.0278
-79.6895
-79.3183
-79.0019
-78.4515
-77.9457
-77.1365
-76.316
-75.0516
-73.7018
-71.6744
-68.6193
-64.9296
-60.6928
-54.5345
-48.7095
-83.8561
-83.5029
-83.7807
-84.093
-84.0073
-83.5493
-83.5764
-83.9416
-84.191
-84.3397
-84.2285
-83.6976
-83.5723
-83.938
-83.4809
-82.9372
-83.0863
-83.3536
-83.0425
-82.5362
-82.4219
-82.3561
-82.1262
-81.719
-81.3587
-81.1817
-80.9633
-80.7089
-79.777
-79.2566
-78.9091
-78.2364
-77.5999
-76.6124
-75.6107
-74.0946
-73.1455
-71.1797
-66.0584
-61.7171
-58.1723
-49.8644
-42.8974
-63.0902
-56.121
-49.4874
-43.695
-38.4285
-33.6561
-29.2955
-25.2923
-21.5815
-18.1116
-14.8349
-11.7202
-8.74138
-5.87654
-3.10877
-0.421788
2.19245
4.7422
7.23802
9.68207
12.0817
14.4396
16.7599
19.0461
21.3002
23.5247
25.7228
27.8924
30.0383
32.1607
34.26
36.3384
38.3959
40.434
42.4545
44.4573
46.4427
48.4112
50.3624
52.2995
54.2419
56.1255
57.7485
-60.2858
-55.918
-50.9203
-45.9308
-40.9354
-36.1246
-31.5265
-27.1669
-23.0399
-19.1405
-15.4487
-11.9472
-8.61682
-5.44582
-2.41705
0.485389
3.27049
5.95083
8.53713
11.0365
13.458
15.8084
18.0923
20.3157
22.4864
24.6056
26.6796
28.71
30.7036
32.6609
34.587
36.4824
38.352
40.1971
42.0213
43.8254
45.6131
47.3849
49.1398
50.8873
52.6473
54.3373
55.7701
-55.247
-50.8095
-46.1834
-41.738
-37.3238
-33.0509
-28.9137
-24.941
-21.136
-17.4976
-14.0262
-10.7093
-7.53936
-4.50733
-1.60112
1.18903
3.87004
6.45501
8.94964
11.3613
13.6981
15.9669
18.1723
20.317
22.4102
24.4531
26.4512
28.4053
30.3213
32.1994
34.0448
35.8565
37.6404
39.3977
41.1312
42.8407
44.5301
46.1997
47.8471
49.4823
51.1224
52.6649
53.9523
-52.382
-48.0852
-43.7324
-39.526
-35.3614
-31.336
-27.4393
-23.6925
-20.0933
-16.6387
-13.3271
-10.1534
-7.11008
-4.18777
-1.38053
1.32184
3.9245
6.43567
8.86211
11.2108
13.4876
15.6951
17.8417
19.9306
21.9666
23.9541
25.8959
27.7936
29.6499
31.4684
33.2538
35.0052
36.727
38.4219
40.0914
41.7387
43.3634
44.966
46.5458
48.1038
49.6499
51.1691
52.5696
-49.8882
-45.8735
-41.8646
-37.8941
-33.9333
-30.0701
-26.312
-22.6806
-19.1802
-15.8111
-12.5739
-9.46597
-6.48129
-3.61565
-0.860105
1.79041
4.34266
6.80464
9.18307
11.4816
13.7048
15.8597
17.9505
19.9844
21.9646
23.8902
25.7671
27.5958
29.3819
31.1269
32.8349
34.5083
36.1515
37.7658
39.3582
40.9264
42.4718
43.9914
45.4879
46.9576
48.4022
49.8424
51.3379
-47.6217
-43.746
-39.9438
-36.1419
-32.3511
-28.6347
-25.0047
-21.4835
-18.0761
-14.7875
-11.6244
-8.58743
-5.66944
-2.86537
-0.169553
2.42199
4.91834
7.32665
9.65036
11.8945
14.0613
16.1588
18.1949
20.1718
22.094
23.9595
25.7718
27.5316
29.2459
30.9214
32.5576
34.1582
35.7263
37.2658
38.7888
40.285
41.758
43.197
44.6114
45.9952
47.3485
48.6959
50.1348
-45.3495
-41.7657
-38.1762
-34.5321
-30.8891
-27.302
-23.7858
-20.3678
-17.0514
-13.8375
-10.7485
-7.78799
-4.93908
-2.19649
0.441897
2.96977
5.40549
7.76889
10.0473
12.2366
14.3461
16.3889
18.3761
20.3112
22.1903
24.0069
25.759
27.4589
29.1117
30.7328
32.3125
33.852
35.3556
36.8334
38.3081
39.7417
41.1526
42.512
43.8537
45.1554
46.4295
47.7033
49.0628
-44.0521
-40.4944
-36.8944
-33.2763
-29.7007
-26.1802
-22.7239
-19.3702
-16.1113
-12.9084
-9.86919
-6.97438
-4.18433
-1.48164
1.11513
3.57767
5.97209
8.34003
10.5818
12.7115
14.7615
16.7649
18.735
20.6606
22.5038
24.2567
25.9283
27.5632
29.1437
30.7142
32.2093
33.6657
35.0721
36.4813
37.9371
39.2955
40.6609
41.9268
43.2197
44.4211
45.6145
46.8273
48.1354
-40.6695
-38.8561
-35.5744
-32.0967
-28.671
-25.2544
-21.8715
-18.6021
-15.4487
-12.1815
-9.30435
-6.55702
-3.79954
-1.111
1.44272
3.78315
6.1428
8.55272
10.6614
12.6607
14.6754
16.6725
18.6395
20.5187
22.2473
23.9269
25.4975
27.1037
28.634
30.2048
31.6711
33.1018
34.5399
36.0408
37.6526
38.8531
40.2817
41.3925
42.6658
43.6886
44.804
46.0498
47.3591
-112.931
-113.771
-114.813
-115.098
-114.258
-112.004
-108.608
-104.485
-99.8787
-94.9703
-89.8799
-84.6852
-79.5512
-74.5613
-69.7554
-65.1113
-60.7536
-56.5771
-52.6767
-49.0368
-45.6135
-42.4393
-39.4794
-36.7303
-34.1643
-31.7736
-29.5405
-27.4488
-25.4887
-23.6467
-21.9079
-20.2607
-18.6916
-17.1989
-15.7747
-14.4146
-13.111
-11.8601
-10.6602
-9.50527
-8.39681
-7.30633
-6.3438
-92.4246
-92.2157
-91.7163
-91.0146
-90.2327
-89.4921
-88.8713
-88.3666
-87.953
-87.6359
-87.388
-87.0122
-86.3629
-85.3248
-83.9085
-82.0852
-79.934
-77.4358
-74.6904
-71.7037
-68.5449
-65.2637
-61.9146
-58.5386
-55.1713
-51.8545
-48.6274
-45.4909
-42.4781
-39.59
-36.8356
-34.2137
-31.7212
-29.3492
-27.0986
-24.9632
-22.9337
-21.0051
-19.171
-17.4243
-15.7583
-14.141
-12.5842
-98.1779
-98.1412
-98.1674
-98.2206
-98.2896
-98.3426
-98.3204
-98.1581
-97.8027
-97.219
-96.4144
-95.4194
-94.2849
-93.0498
-91.729
-90.2601
-88.5846
-86.6823
-84.576
-82.2266
-79.687
-76.9303
-74.0132
-70.9473
-67.7688
-64.4986
-61.2038
-57.8927
-54.6036
-51.376
-48.227
-45.1658
-42.219
-39.3806
-36.6606
-34.0595
-31.5755
-29.2061
-26.9463
-24.7916
-22.7374
-20.7653
-18.8813
-95.4901
-95.4566
-95.3737
-95.2646
-95.1408
-95.0086
-94.8707
-94.726
-94.5655
-94.3759
-94.1451
-93.8594
-93.4957
-93.0197
-92.4087
-91.6704
-90.8225
-89.8411
-88.6748
-87.2804
-85.6641
-83.796
-81.6771
-79.3216
-76.7407
-73.9447
-70.9874
-67.8871
-64.6801
-61.4247
-58.1542
-54.8924
-51.6916
-48.5529
-45.5086
-42.5611
-39.7231
-36.9981
-34.3887
-31.8933
-29.512
-27.2317
-25.0926
-96.0159
-96.0131
-96.0091
-95.9983
-95.9809
-95.9548
-95.9164
-95.8611
-95.7832
-95.6748
-95.525
-95.3227
-95.0614
-94.7302
-94.3168
-93.8059
-93.1806
-92.4351
-91.5766
-90.5899
-89.4395
-88.1147
-86.5844
-84.8448
-82.8789
-80.6838
-78.2695
-75.6368
-72.8103
-69.8274
-66.715
-63.5155
-60.2722
-57.0161
-53.7923
-50.6177
-47.5181
-44.509
-41.6015
-38.8038
-36.1231
-33.5517
-31.3022
-95.523
-95.5121
-95.4905
-95.4603
-95.4231
-95.3789
-95.3276
-95.2684
-95.1999
-95.1195
-95.0235
-94.9056
-94.7586
-94.5747
-94.3449
-94.0609
-93.7066
-93.2713
-92.7323
-92.0829
-91.3182
-90.4152
-89.3531
-88.1119
-86.676
-85.0297
-83.1654
-81.0705
-78.745
-76.2093
-73.463
-70.5527
-67.4999
-64.3484
-61.1435
-57.9146
-54.6978
-51.5212
-48.4104
-45.3796
-42.448
-39.5907
-37.179
-95.4816
-95.4757
-95.465
-95.4492
-95.4291
-95.4041
-95.3734
-95.3359
-95.2901
-95.234
-95.165
-95.0799
-94.9739
-94.8417
-94.677
-94.4738
-94.223
-93.9169
-93.5427
-93.0886
-92.5397
-91.8842
-91.1159
-90.2068
-89.1405
-87.8978
-86.4651
-84.8246
-82.9649
-80.8907
-78.5844
-76.0727
-73.3583
-70.4675
-67.4407
-64.3147
-61.1268
-57.9136
-54.7102
-51.539
-48.437
-45.3453
-42.9886
-95.3163
-95.3096
-95.2977
-95.281
-95.2601
-95.2351
-95.2055
-95.171
-95.1308
-95.084
-95.0289
-94.9634
-94.885
-94.7901
-94.6737
-94.5317
-94.3582
-94.1469
-93.8879
-93.5726
-93.1885
-92.7224
-92.1634
-91.4957
-90.7088
-89.78
-88.6892
-87.4259
-85.9609
-84.2938
-82.4002
-80.2906
-77.9568
-75.4183
-72.6801
-69.7859
-66.7538
-63.6253
-60.4448
-57.2337
-54.0501
-50.7943
-48.4003
-95.234
-95.2274
-95.2167
-95.2022
-95.1846
-95.1635
-95.1387
-95.11
-95.0767
-95.0379
-94.9926
-94.9395
-94.8764
-94.801
-94.7107
-94.602
-94.4697
-94.3092
-94.1145
-93.8801
-93.5948
-93.2504
-92.8354
-92.3361
-91.742
-91.0361
-90.1973
-89.2158
-88.0629
-86.7362
-85.2097
-83.4721
-81.5119
-79.3337
-76.9329
-74.3344
-71.5509
-68.61
-65.5563
-62.4079
-59.2349
-55.9194
-53.5907
-95.1386
-95.1321
-95.1221
-95.1084
-95.0915
-95.0715
-95.0484
-95.022
-94.9919
-94.9575
-94.9182
-94.8727
-94.82
-94.7584
-94.6856
-94.5986
-94.4946
-94.3704
-94.221
-94.0412
-93.8239
-93.5622
-93.2472
-92.8671
-92.4097
-91.8658
-91.2203
-90.457
-89.551
-88.4931
-87.2594
-85.84
-84.214
-82.3753
-80.3186
-78.0402
-75.5525
-72.8683
-70.0174
-67.023
-63.9474
-60.6538
-58.4928
-95.0623
-95.0561
-95.0465
-95.0336
-95.0178
-94.9993
-94.9781
-94.9539
-94.9266
-94.8957
-94.8607
-94.8209
-94.7752
-94.7221
-94.6602
-94.5882
-94.5034
-94.4026
-94.2822
-94.1387
-93.967
-93.761
-93.5137
-93.217
-92.861
-92.4335
-91.9233
-91.3187
-90.6014
-89.7568
-88.7633
-87.6041
-86.2642
-84.7276
-82.9805
-81.0182
-78.8353
-76.4395
-73.844
-71.0605
-68.1575
-64.9515
-63.068
-94.9878
-94.9821
-94.9735
-94.9615
-94.9464
-94.9289
-94.9089
-94.8863
-94.8608
-94.8323
-94.8001
-94.764
-94.723
-94.6765
-94.6231
-94.561
-94.4884
-94.4034
-94.3037
-94.1856
-94.0456
-93.8788
-93.6799
-93.442
-93.1567
-92.8168
-92.4111
-91.9258
-91.3493
-90.6666
-89.8614
-88.9139
-87.8134
-86.5324
-85.0644
-83.3879
-81.4969
-79.3871
-77.0664
-74.5295
-71.8392
-68.7597
-67.0744
-94.9269
-94.9207
-94.9116
-94.8996
-94.8849
-94.8679
-94.8485
-94.8268
-94.8025
-94.7755
-94.7455
-94.712
-94.6745
-94.6321
-94.5839
-94.529
-94.4659
-94.3931
-94.3081
-94.2085
-94.0914
-93.9529
-93.7888
-93.5936
-93.3614
-93.0841
-92.7535
-92.3593
-91.8905
-91.3357
-90.6801
-89.9015
-88.9904
-87.9201
-86.6876
-85.2637
-83.6439
-81.8123
-79.7713
-77.5066
-75.0831
-72.2675
-71.1108
-94.8699
-94.8635
-94.8542
-94.8422
-94.8275
-94.8107
-94.7918
-94.7707
-94.7472
-94.7214
-94.6928
-94.6613
-94.6262
-94.5872
-94.5433
-94.4936
-94.437
-94.3719
-94.2972
-94.2107
-94.1098
-93.9918
-93.8532
-93.69
-93.4963
-93.2662
-92.9928
-92.6673
-92.2805
-91.821
-91.2774
-90.6345
-89.8793
-88.9903
-87.9512
-86.7476
-85.3663
-83.7808
-82.0008
-80.004
-77.8434
-75.3117
-73.8961
-94.813
-94.8072
-94.7985
-94.787
-94.7729
-94.7567
-94.7385
-94.7181
-94.6955
-94.6707
-94.6433
-94.6132
-94.5801
-94.5433
-94.5023
-94.4564
-94.4048
-94.3463
-94.2798
-94.2033
-94.115
-94.0125
-93.8929
-93.7527
-93.5873
-93.3925
-93.1629
-92.8912
-92.5675
-92.1852
-91.7319
-91.1947
-90.56
-89.8149
-88.9402
-87.9196
-86.7355
-85.3762
-83.8291
-82.0724
-80.1444
-77.8778
-76.489
-94.7642
-94.7582
-94.7495
-94.7381
-94.7242
-94.7083
-94.6903
-94.6703
-94.6483
-94.624
-94.5975
-94.5685
-94.5367
-94.5018
-94.4634
-94.4206
-94.3728
-94.3188
-94.2577
-94.1886
-94.1095
-94.0184
-93.9131
-93.7911
-93.6491
-93.4827
-93.286
-93.0544
-92.7804
-92.4562
-92.0721
-91.6188
-91.0845
-90.4547
-89.7108
-88.847
-87.8374
-86.6682
-85.3307
-83.8043
-82.1113
-80.1351
-79.3189
-94.7195
-94.7134
-94.7047
-94.6934
-94.6797
-94.6639
-94.6461
-94.6264
-94.6048
-94.5811
-94.5553
-94.5271
-94.4964
-94.4627
-94.4257
-94.385
-94.3399
-94.2899
-94.2336
-94.17
-94.0983
-94.017
-93.9236
-93.8155
-93.69
-93.5437
-93.3728
-93.1727
-92.9372
-92.661
-92.3344
-91.9493
-91.4934
-90.9575
-90.3273
-89.5867
-88.7214
-87.7155
-86.5553
-85.2253
-83.7386
-81.9957
-81.5275
-94.6794
-94.6731
-94.6642
-94.6528
-94.639
-94.6233
-94.6057
-94.5862
-94.5649
-94.5416
-94.5163
-94.4888
-94.4589
-94.4265
-94.3911
-94.3524
-94.3097
-94.2622
-94.2095
-94.1508
-94.0846
-94.0093
-93.924
-93.8269
-93.7156
-93.5871
-93.4378
-93.2635
-93.0586
-92.8186
-92.5353
-92.203
-91.8132
-91.3537
-90.8116
-90.1759
-89.4311
-88.5638
-87.5573
-86.3897
-85.0648
-83.4747
-83.3801
-94.6406
-94.6346
-94.6258
-94.6147
-94.6014
-94.5859
-94.5685
-94.5493
-94.5283
-94.5055
-94.4807
-94.4538
-94.4246
-94.393
-94.3587
-94.3213
-94.2804
-94.2355
-94.186
-94.1308
-94.0694
-94.0008
-93.923
-93.8347
-93.7337
-93.6179
-93.4844
-93.33
-93.1504
-92.9415
-92.6965
-92.4089
-92.0694
-91.6708
-91.2036
-90.6544
-90.0084
-89.2527
-88.3708
-87.3356
-86.1287
-84.614
-83.2487
-94.6069
-94.6007
-94.592
-94.581
-94.5676
-94.5522
-94.535
-94.516
-94.4953
-94.4727
-94.4483
-94.4219
-94.3935
-94.3628
-94.3295
-94.2934
-94.2541
-94.2111
-94.1637
-94.1116
-94.0536
-93.9891
-93.917
-93.836
-93.7444
-93.6398
-93.5199
-93.3823
-93.2231
-93.0376
-92.8211
-92.5692
-92.2739
-91.9276
-91.521
-91.0433
-90.4814
-89.8209
-89.0441
-88.1295
-87.0385
-85.6574
-83.449
-94.5768
-94.5705
-94.5615
-94.5504
-94.5371
-94.5217
-94.5046
-94.4858
-94.4653
-94.443
-94.419
-94.3931
-94.3653
-94.3352
-94.3029
-94.268
-94.2302
-94.189
-94.1439
-94.0946
-94.0402
-93.9799
-93.9128
-93.8376
-93.7531
-93.6578
-93.5494
-93.425
-93.2815
-93.1169
-92.9257
-92.7028
-92.4434
-92.1397
-91.7844
-91.3676
-90.8777
-90.3033
-89.6285
-88.8422
-87.9306
-86.9124
-84.6464
-94.5479
-94.5417
-94.5328
-94.5219
-94.5087
-94.4936
-94.4767
-94.4581
-94.4379
-94.416
-94.3924
-94.367
-94.3397
-94.3104
-94.2789
-94.2449
-94.2082
-94.1686
-94.1256
-94.0783
-94.0263
-93.9693
-93.9063
-93.8365
-93.7582
-93.6703
-93.5713
-93.4585
-93.3299
-93.1823
-93.012
-92.8145
-92.5842
-92.3161
-92.0024
-91.6362
-91.2069
-90.7046
-90.1183
-89.4415
-88.6593
-87.8222
-85.8712
-94.5222
-94.5159
-94.507
-94.4961
-94.4831
-94.4681
-94.4513
-94.433
-94.4131
-94.3915
-94.3683
-94.3434
-94.3167
-94.2881
-94.2575
-94.2247
-94.1893
-94.151
-94.1095
-94.0645
-94.0156
-93.9617
-93.9022
-93.8365
-93.7638
-93.6825
-93.5909
-93.4881
-93.3712
-93.2373
-93.0834
-92.9066
-92.7022
-92.4641
-92.1879
-91.8651
-91.4875
-91.0468
-90.5272
-89.9275
-89.2292
-88.464
-86.674
-94.4983
-94.4921
-94.4833
-94.4724
-94.4595
-94.4446
-94.4281
-94.41
-94.3903
-94.3691
-94.3463
-94.3219
-94.2958
-94.2679
-94.238
-94.2061
-94.1718
-94.135
-94.0952
-94.0521
-94.0052
-93.9539
-93.8979
-93.8365
-93.7684
-93.6927
-93.6086
-93.5139
-93.4067
-93.2855
-93.1471
-92.9878
-92.8047
-92.5933
-92.3467
-92.0603
-91.7247
-91.3332
-90.8741
-90.3392
-89.7046
-88.9802
-87.378
-94.4771
-94.4706
-94.4616
-94.4507
-94.4378
-94.4231
-94.4067
-94.3888
-94.3694
-94.3485
-94.3261
-94.3022
-94.2767
-94.2494
-94.2203
-94.1893
-94.1561
-94.1205
-94.0822
-94.0409
-93.9962
-93.9477
-93.8946
-93.8364
-93.7724
-93.7021
-93.6237
-93.5363
-93.4384
-93.3275
-93.202
-93.0589
-92.8937
-92.703
-92.4826
-92.2269
-91.9294
-91.5813
-91.1713
-90.6936
-90.1226
-89.457
-87.9925
-94.4555
-94.4493
-94.4405
-94.4298
-94.4171
-94.4026
-94.3864
-94.3687
-94.3497
-94.3291
-94.3072
-94.2837
-94.2587
-94.2321
-94.2038
-94.1737
-94.1415
-94.1072
-94.0705
-94.0311
-93.9882
-93.9417
-93.8914
-93.8366
-93.7768
-93.7108
-93.638
-93.5573
-93.4669
-93.3656
-93.2505
-93.1195
-92.9703
-92.7994
-92.6029
-92.3746
-92.1081
-91.7984
-91.4361
-91.0176
-90.5358
-90.0157
-88.8283
-94.4367
-94.4303
-94.4213
-94.4105
-94.3978
-94.3834
-94.3673
-94.3499
-94.3311
-94.3109
-94.2893
-94.2663
-94.2419
-94.2159
-94.1884
-94.1592
-94.1281
-94.0949
-94.0594
-94.0214
-93.9808
-93.9369
-93.8891
-93.837
-93.7801
-93.7183
-93.6504
-93.5751
-93.4911
-93.3974
-93.2927
-93.1744
-93.04
-92.8855
-92.7071
-92.5016
-92.2638
-91.9877
-91.6657
-91.2939
-90.8615
-90.3732
-89.4019
-94.4172
-94.4109
-94.402
-94.3913
-94.3787
-94.3644
-94.3486
-94.3313
-94.3128
-94.2929
-94.2717
-94.2492
-94.2253
-94.2
-94.1731
-94.1447
-94.1145
-94.0825
-94.0483
-94.0118
-93.9726
-93.9305
-93.8852
-93.8363
-93.7832
-93.7247
-93.6607
-93.5908
-93.5138
-93.4278
-93.3308
-93.2214
-93.0975
-92.9567
-92.7956
-92.6102
-92.3958
-92.1463
-91.8546
-91.5166
-91.1208
-90.6541
-89.7726
-94.3983
-94.3918
-94.3829
-94.3722
-94.3598
-94.3456
-94.3299
-94.3129
-94.2946
-94.2751
-94.2543
-94.2321
-94.2087
-94.184
-94.1578
-94.1302
-94.101
-94.07
-94.0372
-94.0022
-93.9648
-93.9245
-93.8812
-93.8344
-93.7838
-93.7291
-93.6694
-93.6035
-93.531
-93.4509
-93.3619
-93.2622
-93.1493
-93.021
-92.8743
-92.7054
-92.5098
-92.2817
-92.0141
-91.7015
-91.326
-90.8804
-89.9439
-94.3786
-94.3722
-94.3634
-94.3528
-94.3405
-94.3265
-94.311
-94.2942
-94.2762
-94.2569
-94.2364
-94.2148
-94.1918
-94.1677
-94.1422
-94.1153
-94.0869
-94.0568
-94.025
-93.9911
-93.9552
-93.9169
-93.8758
-93.8314
-93.7835
-93.7314
-93.675
-93.6137
-93.5461
-93.4717
-93.3888
-93.2961
-93.1919
-93.0734
-92.9386
-92.7837
-92.6051
-92.3978
-92.1539
-91.8688
-91.5285
-91.1076
-90.2374
-94.3588
-94.3524
-94.3435
-94.3329
-94.3206
-94.3067
-94.2914
-94.2748
-94.257
-94.238
-94.2179
-94.1966
-94.1741
-94.1505
-94.1255
-94.0993
-94.0717
-94.0426
-94.0119
-93.9794
-93.9449
-93.9079
-93.8685
-93.8263
-93.7808
-93.7317
-93.6783
-93.6201
-93.5567
-93.4866
-93.4094
-93.3235
-93.2267
-93.1177
-92.9936
-92.8514
-92.687
-92.4954
-92.273
-92.0144
-91.7093
-91.3297
-90.6454
-94.3373
-94.3309
-94.3222
-94.3117
-94.2996
-94.2859
-94.2708
-94.2544
-94.2369
-94.2182
-94.1984
-94.1774
-94.1554
-94.1322
-94.1078
-94.0822
-94.0553
-94.027
-93.9972
-93.9656
-93.9321
-93.8967
-93.859
-93.8185
-93.7748
-93.7279
-93.6775
-93.6226
-93.5627
-93.4974
-93.4251
-93.3443
-93.2544
-93.1528
-93.0377
-92.9057
-92.7544
-92.5779
-92.3693
-92.1238
-91.8452
-91.509
-90.5393
-94.3153
-94.3089
-94.3002
-94.2899
-94.278
-94.2644
-94.2494
-94.2332
-94.2158
-94.1973
-94.1778
-94.1571
-94.1354
-94.1126
-94.0887
-94.0636
-94.0373
-94.0096
-93.9805
-93.95
-93.9178
-93.8835
-93.8472
-93.8084
-93.767
-93.7226
-93.6745
-93.6225
-93.5658
-93.5035
-93.435
-93.3595
-93.2753
-93.1806
-93.0732
-92.9507
-92.8104
-92.6481
-92.4604
-92.2428
-91.9902
-91.7041
-91.6669
-94.2935
-94.287
-94.278
-94.2675
-94.2554
-94.2418
-94.2268
-94.2107
-94.1934
-94.1751
-94.1557
-94.1353
-94.1139
-94.0915
-94.068
-94.0434
-94.0176
-93.9906
-93.9624
-93.9326
-93.9012
-93.8681
-93.833
-93.7957
-93.7556
-93.7125
-93.6664
-93.6166
-93.5628
-93.5042
-93.4399
-93.3686
-93.2893
-93.2004
-93.1001
-92.9856
-92.8543
-92.7032
-92.5258
-92.3137
-92.0706
-91.7982
-91.3818
-94.2675
-94.2612
-94.2525
-94.2421
-94.2303
-94.2169
-94.2021
-94.1862
-94.1691
-94.151
-94.1319
-94.1117
-94.0906
-94.0685
-94.0453
-94.0211
-93.9958
-93.9693
-93.9417
-93.9126
-93.8821
-93.8498
-93.8157
-93.7796
-93.7413
-93.7004
-93.6563
-93.6086
-93.5569
-93.5008
-93.4394
-93.3718
-93.2968
-93.2126
-93.1183
-93.0118
-92.8905
-92.7519
-92.5939
-92.4134
-92.2167
-92.0625
-92.3968
-94.241
-94.2348
-94.2262
-94.216
-94.2042
-94.1909
-94.1762
-94.1603
-94.1434
-94.1254
-94.1065
-94.0865
-94.0656
-94.0437
-94.0209
-93.997
-93.9721
-93.946
-93.9188
-93.8903
-93.8604
-93.8291
-93.796
-93.7608
-93.7234
-93.6835
-93.6409
-93.5952
-93.5459
-93.4924
-93.434
-93.3696
-93.2982
-93.2187
-93.1292
-93.0276
-92.9117
-92.7788
-92.6255
-92.4427
-92.2261
-91.997
-91.9905
-94.2143
-94.2078
-94.1989
-94.1886
-94.1767
-94.1634
-94.1487
-94.1329
-94.116
-94.0981
-94.0792
-94.0594
-94.0387
-94.017
-93.9944
-93.9708
-93.9462
-93.9206
-93.8938
-93.8659
-93.8366
-93.8058
-93.7734
-93.7393
-93.7031
-93.6644
-93.623
-93.5787
-93.531
-93.479
-93.4224
-93.3605
-93.2921
-93.2157
-93.1301
-93.0334
-92.9236
-92.7974
-92.6511
-92.4798
-92.2787
-92.0454
-91.9676
-94.1837
-94.1774
-94.1687
-94.1585
-94.1467
-94.1335
-94.1189
-94.1033
-94.0865
-94.0688
-94.05
-94.0304
-94.0098
-93.9883
-93.9659
-93.9425
-93.9182
-93.8929
-93.8664
-93.8388
-93.8099
-93.7797
-93.748
-93.7144
-93.6789
-93.6414
-93.6014
-93.5584
-93.5121
-93.4621
-93.4076
-93.3477
-93.2818
-93.2087
-93.1262
-93.0329
-92.9259
-92.8024
-92.6579
-92.4826
-92.2677
-92.0024
-91.7536
-94.1519
-94.1456
-94.1371
-94.1269
-94.1152
-94.1021
-94.0876
-94.072
-94.0553
-94.0377
-94.019
-93.9995
-93.9791
-93.9577
-93.9354
-93.9123
-93.8881
-93.863
-93.8369
-93.8096
-93.7812
-93.7514
-93.7202
-93.6873
-93.6526
-93.6157
-93.5764
-93.5343
-93.4893
-93.4407
-93.3878
-93.33
-93.2662
-93.1955
-93.1167
-93.0271
-92.925
-92.8077
-92.6723
-92.5134
-92.3252
-92.1129
-92.0562
-94.1189
-94.1126
-94.104
-94.0938
-94.0822
-94.069
-94.0546
-94.039
-94.0224
-94.0048
-93.9862
-93.9668
-93.9464
-93.9252
-93.9031
-93.88
-93.8561
-93.8312
-93.8053
-93.7783
-93.7501
-93.7207
-93.6898
-93.6574
-93.6232
-93.5869
-93.5483
-93.5073
-93.4634
-93.4158
-93.3643
-93.3084
-93.2467
-93.1778
-93.1007
-93.0147
-92.9172
-92.8055
-92.6757
-92.5229
-92.344
-92.1515
-92.0592
-94.0841
-94.0778
-94.0692
-94.059
-94.0474
-94.0342
-94.0198
-94.0043
-93.9877
-93.9701
-93.9516
-93.9322
-93.912
-93.8908
-93.8688
-93.8459
-93.822
-93.7973
-93.7715
-93.7447
-93.7168
-93.6876
-93.6572
-93.6252
-93.5914
-93.556
-93.5185
-93.4781
-93.4348
-93.3884
-93.3382
-93.2831
-93.2228
-93.1568
-93.0833
-93.0004
-92.9066
-92.8
-92.679
-92.5395
-92.379
-92.2061
-92.1711
-94.0472
-94.041
-94.0324
-94.0223
-94.0107
-93.9976
-93.9832
-93.9677
-93.9512
-93.9337
-93.9153
-93.8959
-93.8757
-93.8546
-93.8327
-93.8099
-93.7861
-93.7615
-93.7359
-93.7093
-93.6816
-93.6527
-93.6226
-93.591
-93.5578
-93.5225
-93.485
-93.4455
-93.4035
-93.3581
-93.3089
-93.2556
-93.1975
-93.1331
-93.0614
-92.9812
-92.8907
-92.7879
-92.6702
-92.5346
-92.3742
-92.1793
-92.0807
-94.0088
-94.0027
-93.9942
-93.984
-93.9724
-93.9594
-93.9451
-93.9296
-93.9131
-93.8956
-93.8772
-93.858
-93.8378
-93.8167
-93.7949
-93.7721
-93.7485
-93.7239
-93.6985
-93.672
-93.6445
-93.6158
-93.5858
-93.5545
-93.5216
-93.487
-93.4504
-93.4112
-93.3694
-93.3248
-93.2768
-93.2247
-93.1676
-93.105