/*--------------------------------*- C++ -*----------------------------------*\
| =========                 |                                                 |
| \\      /  F ield         | OpenFOAM: The Open Source CFD Toolbox           |
|  \\    /   O peration     | Version:  2.3.0                                 |
|   \\  /    A nd           | Web:      www.OpenFOAM.org                      |
|    \\/     M anipulation  |                                                 |
\*---------------------------------------------------------------------------*/
FoamFile
{
    version     2.0;
    format      ascii;
    class       surfaceScalarField;
    location    "250";
    object      phi;
}
// * * * * * * * * * * * * * * * * * * * * * * * * * * * * * * * * * * * * * //

dimensions      [0 3 -1 0 0 0 0];

internalField   nonuniform List<scalar> 
15873
(
-0.00186777
-0.0198065
0.0214824
0.000192017
-0.00310591
-0.0166699
0.017908
-0.00398014
-0.0140557
0.0149299
-0.00455157
-0.0118772
0.0124487
-0.00487062
-0.0100615
0.0103805
-0.00497752
-0.00854872
0.00865563
-0.00490641
-0.00728795
0.00721684
-0.00468509
-0.00623706
0.00601574
-0.00433723
-0.00536127
0.00501341
-0.0038828
-0.00463119
0.00417676
-0.00333886
-0.00402238
0.00347845
-0.00271954
-0.00351487
0.00289555
-0.00203658
-0.00309168
0.00240873
-0.00129907
-0.00273882
0.00200131
-0.0024446
-0.000498986
0.00164451
-0.00169088
-0.0182892
0.00017356
-0.00280647
-0.0155543
-0.00358732
-0.0132748
-0.00408941
-0.0113752
-0.00435918
-0.00979169
-0.00443573
-0.00847218
-0.00435135
-0.00737233
-0.00413234
-0.00645608
-0.0038013
-0.00569231
-0.00337634
-0.00505615
-0.00287283
-0.00452589
-0.00230361
-0.0040841
-0.00167931
-0.00371598
-0.00100888
-0.00340925
-0.00315371
-0.000299759
-0.00153341
-0.016912
0.000156153
-0.00254581
-0.0145419
-0.00325355
-0.0125671
-0.00370759
-0.0109211
-0.00394952
-0.00954976
-0.00401461
-0.00840709
-0.00393241
-0.00745453
-0.0037275
-0.00666098
-0.00341989
-0.00599992
-0.00302739
-0.00544865
-0.00256371
-0.00498957
-0.0020409
-0.0046069
-0.00146886
-0.00428803
-0.00085583
-0.00402228
-0.00380081
-0.000208737
-0.00138729
-0.0156626
0.000137953
-0.00230463
-0.0136246
-0.00294518
-0.0119265
-0.00335495
-0.0105113
-0.00357253
-0.00933218
-0.00363009
-0.00834953
-0.00355397
-0.00753065
-0.0033665
-0.00684845
-0.0030866
-0.00627982
-0.00272915
-0.0058061
-0.00230766
-0.00541107
-0.0018325
-0.00508206
-0.00131271
-0.00480782
-0.000755754
-0.00457923
-0.00438873
-0.00016783
-0.00125634
-0.0145282
0.000121864
-0.0020887
-0.0127922
-0.00266992
-0.0113453
-0.00304118
-0.0101401
-0.00323806
-0.0091353
-0.00328931
-0.00829828
-0.00321925
-0.00760071
-0.00304821
-0.00701949
-0.00279307
-0.00653496
-0.00246791
-0.00613126
-0.00208403
-0.00579494
-0.0016518
-0.0055143
-0.00117899
-0.00528062
-0.000672473
-0.00508575
-0.00492336
-0.000137841
-0.00113762
-0.013498
0.000107482
-0.0018936
-0.0120362
-0.00242087
-0.0108181
-0.00275801
-0.00980293
-0.00293618
-0.00895714
-0.00298229
-0.00825217
-0.00291826
-0.00766474
-0.00276256
-0.00717519
-0.00253047
-0.00676705
-0.00223464
-0.00642709
-0.0018859
-0.00614367
-0.00149286
-0.00590734
-0.00106304
-0.00571044
-0.000602542
-0.00554626
-0.00540937
-0.000116533
-0.00103096
-0.0125622
9.51334e-05
-0.00171766
-0.0113495
-0.00219666
-0.0103391
-0.00250249
-0.00949711
-0.00266447
-0.00879515
-0.00270611
-0.00821053
-0.00264769
-0.00772316
-0.00250607
-0.00731681
-0.00229491
-0.00697822
-0.00202584
-0.00669616
-0.0017087
-0.00646081
-0.00135134
-0.00626469
-0.000960543
-0.00610124
-0.000541886
-0.00596491
-0.00585125
-0.000100006
-0.000934571
-0.011712
8.43432e-05
-0.00155851
-0.0107256
-0.00199348
-0.00990409
-0.0022716
-0.00921899
-0.00241837
-0.00864839
-0.00245627
-0.00817263
-0.00240316
-0.00777627
-0.0022743
-0.00744567
-0.00208232
-0.00717019
-0.00183766
-0.00694082
-0.00154934
-0.00674913
-0.00122442
-0.00658961
-0.000869141
-0.00645653
-0.000488525
-0.00634553
-0.00625297
-8.68055e-05
-0.000847597
-0.0109392
7.47972e-05
-0.00141438
-0.0101588
-0.00180989
-0.00950859
-0.00206242
-0.00896645
-0.00219587
-0.00851494
-0.00223029
-0.00813821
-0.00218194
-0.00782462
-0.00206467
-0.00756295
-0.0018901
-0.00734476
-0.00166786
-0.00716306
-0.00140557
-0.00701142
-0.00111015
-0.00688503
-0.000787245
-0.00677943
-0.000441209
-0.00669157
-0.00661819
-7.59873e-05
-0.000769017
-0.0102368
6.66201e-05
-0.00128413
-0.00964369
-0.00164364
-0.00914907
-0.00187305
-0.00873705
-0.00199441
-0.00839358
-0.00202539
-0.00810723
-0.00198142
-0.00786858
-0.00187495
-0.00766942
-0.0017162
-0.00750352
-0.00151399
-0.00736527
-0.00127574
-0.00724967
-0.00100726
-0.00715351
-0.000713513
-0.00707317
-0.000398936
-0.00700614
-0.00695022
-6.69127e-05
-0.000697773
-0.00959844
5.94404e-05
-0.00116609
-0.00917538
-0.00149267
-0.00882249
-0.00170119
-0.00852853
-0.00181151
-0.00828326
-0.00183986
-0.00807888
-0.00179989
-0.00790855
-0.00170283
-0.00776648
-0.0015585
-0.00764785
-0.00137492
-0.00754885
-0.0011581
-0.00746649
-0.000914061
-0.00739756
-0.000647078
-0.00734016
-0.000361079
-0.00729214
-0.00725207
-5.92314e-05
-0.000633279
-0.00901832
5.3153e-05
-0.00105905
-0.00874961
-0.00135593
-0.00852561
-0.00154559
-0.00833887
-0.00164567
-0.00818318
-0.00167121
-0.00805334
-0.00163505
-0.00794472
-0.001547
-0.00785452
-0.00141589
-0.00777896
-0.00124854
-0.0077162
-0.00105176
-0.00766327
-0.000829759
-0.00761956
-0.000587073
-0.00758284
-0.000327069
-0.00755215
-0.0075265
-5.26358e-05
-0.000574984
-0.00849097
4.7641e-05
-0.000961834
-0.00836276
-0.00123184
-0.0082556
-0.00140406
-0.00816665
-0.00149512
-0.00809211
-0.00151866
-0.0080298
-0.00148551
-0.00797788
-0.00140547
-0.00793456
-0.00128599
-0.00789844
-0.00113426
-0.00786792
-0.000955115
-0.00784241
-0.000753347
-0.00782133
-0.000532779
-0.00780341
-0.000296405
-0.00778852
-0.00777598
-4.6924e-05
-0.000522133
4.27038e-05
-0.00801154
-0.000873922
-0.00801097
-0.00111906
-0.00801046
-0.00127584
-0.00800987
-0.00135871
-0.00800924
-0.00137986
-0.00800865
-0.0013497
-0.00800803
-0.00127689
-0.00800737
-0.00116862
-0.00800671
-0.00103052
-0.00800602
-0.000867601
-0.00800533
-0.000684261
-0.00800467
-0.000483659
-0.00800401
-0.000268764
-0.00800341
-4.19496e-05
-0.00800279
0.000319172
-0.0024419
0.00162374
0.00107665
-0.00272986
0.00197238
0.00178243
-0.00307588
0.0023701
0.00242971
-0.00349162
0.00284434
0.00300846
-0.00399109
0.00341234
0.00350581
-0.00459131
0.00409396
0.00390525
-0.00531232
0.00491288
0.00418639
-0.00617861
0.00589747
0.0043239
-0.00721947
0.00708196
0.0042871
-0.00846946
0.00850626
0.00403824
-0.0099703
0.0102192
0.00353346
-0.0117727
0.0122775
0.00271984
-0.0139361
0.0147497
0.00153547
-0.0165336
0.017718
-0.0196523
0.0212803
-9.2495e-05
0.000410988
-0.00315264
0.00108686
-0.00340573
0.00172049
-0.00370951
0.00230295
-0.00407409
0.00282351
-0.00451164
0.00326901
-0.00503681
0.00362359
-0.0056669
0.00386844
-0.00642346
0.0039802
-0.00733123
0.00393194
-0.00842121
0.00369109
-0.00972945
0.00321867
-0.0113003
0.0024687
-0.0131861
0.00138559
-0.0154505
-0.0181692
-9.75257e-05
0.000438537
-0.00379992
0.00105223
-0.00401943
0.00162561
-0.00428289
0.00215062
-0.0045991
0.00261762
-0.00497864
0.00301485
-0.00543404
0.00332892
-0.00598097
0.00354238
-0.00663693
0.00363562
-0.00742446
0.00358436
-0.00836995
0.00335929
-0.00950438
0.00292516
-0.0108661
0.00224015
-0.0125011
0.00125291
-0.0144633
-0.016819
-9.72295e-05
0.000420227
-0.00438797
0.00097764
-0.00457684
0.00149832
-0.00480357
0.00197492
-0.0050757
0.00239856
-0.00540227
0.002759
-0.00579448
0.00304293
-0.0062649
0.00323565
-0.00682965
0.00331846
-0.00750728
0.00326926
-0.00832075
0.00306191
-0.00929703
0.00266447
-0.0104687
0.00203855
-0.0118752
0.0011383
-0.013563
-0.0155894
-9.13612e-05
0.00039684
-0.00492265
0.00090354
-0.00508354
0.00137672
-0.00527675
0.00180961
-0.00550859
0.0021945
-0.00578716
0.00252116
-0.00612114
0.00277843
-0.00652217
0.00295239
-0.00700361
0.00302635
-0.00758123
0.00298019
-0.0082746
0.00278983
-0.00910667
0.00242676
-0.0101056
0.00185564
-0.011304
0.0010355
-0.0127429
-0.0144694
-8.44599e-05
0.000369506
-0.00540869
0.000830122
-0.00554415
0.00126018
-0.00570681
0.00165364
-0.00590204
0.00200303
-0.00613655
0.00229983
-0.00641795
0.00253331
-0.00675565
0.00269093
-0.00716122
0.00275754
-0.00764785
0.00271484
-0.00823189
0.00254109
-0.00893293
0.00220959
-0.00977413
0.00168941
-0.0107839
0.000942209
-0.0119957
-0.01345
-7.72162e-05
0.000341891
-0.00585059
0.000760615
-0.00596288
0.00115156
-0.00609776
0.00150918
-0.00625966
0.00182675
-0.00645412
0.00209646
-0.00668767
0.00230856
-0.00696775
0.00245149
-0.00730415
0.0025117
-0.00770805
0.00247244
-0.00819264
0.0023136
-0.00877408
0.00201182
-0.00947235
0.001538
-0.01031
0.000857808
-0.0113155
-0.0125223
-6.98541e-05
0.000314925
-0.00625232
0.000695584
-0.00634354
0.00105097
-0.00645314
0.00137607
-0.00658476
0.00166469
-0.00674274
0.00190981
-0.00693279
0.00210245
-0.0071604
0.00223226
-0.00743396
0.00228667
-0.00776246
0.00225052
-0.00815649
0.00210607
-0.00862962
0.00183096
-0.00919725
0.00139986
-0.00987893
0.000780826
-0.0106965
-0.0116782
-6.33112e-05
0.00028924
-0.00661755
0.000635306
-0.0066896
0.000958279
-0.00677611
0.00125383
-0.00688031
0.00151634
-0.00700525
0.00173892
-0.00715537
0.00191399
-0.00733547
0.00203197
-0.00755195
0.0020813
-0.00781179
0.0020482
-0.00812339
0.00191652
-0.00849794
0.00166629
-0.00894702
0.00127377
-0.00948641
0.000710813
-0.0101335
-0.0109102
-5.71408e-05
0.000265114
-0.00694958
0.00057971
-0.0070042
0.000873503
-0.0070699
0.00114208
-0.00714889
0.0013805
-0.00724366
0.00158297
-0.00735784
0.00174211
-0.0074946
0.00184913
-0.00765897
0.00189385
-0.00785651
0.0018639
-0.00809344
0.00174391
-0.00837795
0.00151631
-0.00871942
0.00115914
-0.00912924
0.000647041
-0.0096214
-0.0102117
-5.15182e-05
0.000242617
-0.00725142
0.000528628
-0.00729021
0.000795648
-0.00733692
0.00103977
-0.00739301
0.00125671
-0.00746061
0.0014405
-0.00754162
0.00158513
-0.00763924
0.00168262
-0.00775646
0.00172319
-0.00789708
0.00169565
-0.00806591
0.00158643
-0.00826873
0.00137936
-0.00851234
0.00105465
-0.00880454
0.000588752
-0.00915551
-0.00957642
-4.65108e-05
0.000221796
-0.00752586
0.000481804
-0.00755022
0.000724517
-0.00757964
0.000946579
-0.00761507
0.00114347
-0.0076575
0.00131098
-0.00770914
0.00144233
-0.00777059
0.00153073
-0.00784485
0.00156738
-0.00793373
0.00154249
-0.00804103
0.0014433
-0.00816954
0.00125481
-0.00832385
0.000959456
-0.00850918
0.000535661
-0.00873171
-0.00899882
-4.19369e-05
0.000202552
-0.00777533
0.000438917
-0.00778658
0.000659506
-0.00780023
0.000861322
-0.00781689
0.00104056
-0.00783674
0.00119242
-0.007861
0.00131211
-0.00789027
0.00139242
-0.00792517
0.00142597
-0.00796728
0.00140298
-0.00801803
0.00131265
-0.00807921
0.0011414
-0.0081526
0.000872644
-0.00824043
0.000487407
-0.00834647
-0.00847352
-3.7894e-05
0.000184845
-0.00800213
0.000399737
-0.00800147
0.000600367
-0.00800086
0.000783734
-0.00800025
0.000946743
-0.00799975
0.00108495
-0.00799921
0.00119339
-0.0079987
0.00126644
-0.00799822
0.00129691
-0.00799775
0.00127623
-0.00799735
0.00119399
-0.00799697
0.00103801
-0.00799662
0.000793917
-0.00799634
0.000443505
-0.00799606
-3.42266e-05
-0.00799579
0.00164482
0.019803
-0.021463
1.51905e-05
0.00285588
0.0166367
-0.0178478
0.00368716
0.0139835
-0.0148148
0.00419609
0.0117542
-0.0122631
0.00443248
0.00987553
-0.0101119
0.00444112
0.00829201
-0.00830065
0.00426514
0.00695871
-0.00678273
0.00394334
0.00583866
-0.00551686
0.00351047
0.00489978
-0.0044669
0.00299656
0.00411284
-0.00359894
0.0024278
0.003451
-0.00288224
0.00182744
0.00288896
-0.00228859
0.00121742
0.00240125
-0.00179123
0.000612718
0.00196672
-0.00136201
0.00160788
-5.33337e-06
-0.000989832
0.00149704
0.0182947
1.1231e-05
0.00259845
0.0155353
0.00335805
0.0132239
0.00382936
0.0112829
0.00405692
0.00964797
0.00408047
0.00826847
0.00393601
0.00710317
0.00365589
0.00611878
0.00326994
0.00528572
0.00280409
0.00457869
0.00228178
0.00397332
0.00172451
0.00344622
0.00115198
0.00297378
0.000576896
0.0025418
0.00219098
-6.20448e-06
0.00136657
0.0169221
6.07171e-06
0.00237087
0.014531
0.00306555
0.0125292
0.00349974
0.0108487
0.00371349
0.00943423
0.00374214
0.00823981
0.00361748
0.00722783
0.00336815
0.00636812
0.00301946
0.00563441
0.00259525
0.0050029
0.00211603
0.00445254
0.00160145
0.0039608
0.00106948
0.00350575
0.000533118
0.00307816
0.00273085
-6.74484e-06
0.00124584
0.015674
2.21412e-06
0.00215911
0.0136178
0.00279156
0.0118968
0.00318779
0.0104525
0.00338523
0.00923679
0.00341592
0.00820912
0.00330751
0.00733624
0.00308507
0.00659056
0.00277137
0.00594811
0.00238618
0.00538809
0.00194872
0.00489
0.00147627
0.00443325
0.000985563
0.00399645
0.000489996
0.00357373
0.00322779
-6.94647e-06
0.00113402
0.0145397
3.36513e-07
0.00196381
0.012788
0.00253925
0.0113213
0.0029006
0.0100911
0.00308264
0.00905475
0.00311382
0.00817795
0.00301909
0.00743097
0.00282047
0.00678918
0.00253764
0.00623093
0.00218851
0.00573723
0.00178932
0.00528919
0.00135656
0.00486601
0.000905449
0.00444756
0.000449447
0.00402973
0.00368415
-6.91198e-06
0.00103141
0.0135091
-8.37929e-07
0.00178596
0.0120334
0.00230923
0.0107981
0.00263912
0.00976124
0.00280614
0.00888773
0.00283687
0.00814721
0.00275349
0.00751435
0.00257552
0.00696714
0.00232027
0.00648618
0.00200342
0.00605408
0.00163998
0.00565263
0.00124415
0.00526184
0.00083043
0.00486128
0.0004118
0.00444836
0.00410267
-6.72482e-06
0.000938095
0.0125723
-1.27674e-06
0.00162411
0.0113474
0.00210025
0.0103219
0.0024006
0.0094609
0.00255399
0.00873433
0.00258362
0.00811759
0.0025098
0.00758818
0.00235003
0.00712691
0.00211941
0.00671681
0.00183195
0.00634154
0.00150103
0.00598355
0.0011395
0.00562337
0.000760679
0.00524011
0.000376994
0.00483204
0.00448612
-6.45491e-06
0.000852971
0.0117209
-1.62397e-06
0.00147659
0.0107238
0.00190948
0.00988903
0.00218339
0.00918699
0.00232346
0.00859426
0.00235188
0.00808917
0.00228643
0.00765363
0.0021427
0.00727064
0.00193432
0.00692519
0.00167359
0.00660226
0.00137252
0.00628462
0.00104261
0.00595329
0.000696169
0.00558655
0.00034489
0.00518332
0.00483711
-6.09587e-06
0.000775391
0.0109468
-1.29299e-06
0.00134211
0.0101571
0.00173608
0.00949505
0.00198539
0.00893768
0.0021136
0.00846604
0.00214053
0.00806224
0.00208226
0.0077119
0.00195278
0.00740012
0.00176439
0.00711358
0.00152814
0.00683851
0.00125418
0.00655858
0.000953307
0.00625416
0.000636777
0.00590308
0.000315367
0.00550473
0.00515824
-5.76206e-06
0.000704851
0.0102434
-1.44315e-06
0.00122
0.00964191
0.00157839
0.00913667
0.0018053
0.00871077
0.00192258
0.00834876
0.00194764
0.00803719
0.00189571
0.00776382
0.00177924
0.00751659
0.00160888
0.00728394
0.00139456
0.00705283
0.00114578
0.00680736
0.000871754
0.00652818
0.000582535
0.0061923
0.000288579
0.00579869
0.00545202
-5.20679e-06
0.000640386
0.00960398
-9.38568e-07
0.00110885
0.00917345
0.00143459
0.00881092
0.00164119
0.00850418
0.00174832
0.00824163
0.00177203
0.00801348
0.00172573
0.00781012
0.00162055
0.00762177
0.00146654
0.00743795
0.0012726
0.00724677
0.00104643
0.00703353
0.000796895
0.00677772
0.00053285
0.00645634
0.000263953
0.00606759
0.005721
-5.0235e-06
0.000581734
0.00902303
-7.93584e-07
0.00100768
0.00874751
0.00130391
0.00851469
0.00149202
0.00831607
0.00158958
0.00814406
0.00161147
0.0079916
0.00157039
0.0078512
0.00147587
0.00771628
0.0013367
0.00757713
0.00116053
0.00742293
0.000956018
0.00723805
0.000729578
0.00700416
0.000488763
0.00669716
0.000242681
0.00631367
0.00596702
-3.33759e-06
0.000528498
0.0084948
-2.63943e-07
0.000915565
0.00836044
0.001185
0.00824525
0.00135595
0.00814511
0.00144502
0.008055
0.00146566
0.00797095
0.00142877
0.00788808
0.00134385
0.00780121
0.00121759
0.00770339
0.0010585
0.00758202
0.000872547
0.007424
0.000667422
0.00720928
0.000447456
0.00691712
0.000221837
0.00653929
0.00619269
-3.83802e-06
0.000479989
0.00801468
1.27612e-07
0.000832083
0.00800834
0.00107668
0.00800066
0.00123215
0.00798964
0.00131332
0.00797383
0.00133185
0.00795243
0.00129941
0.00792052
0.00122345
0.00787717
0.00110906
0.00781778
0.000964006
0.00772708
0.000797059
0.00759095
0.000615364
0.00739098
0.000413515
0.00711897
0.000205832
0.00674697
6.50274e-06
0.00639202
-0.000623238
0.00161422
-0.000996314
-0.00123147
0.00198023
-0.001372
-0.00184603
0.00241894
-0.00180439
-0.00245092
0.00291006
-0.00230517
-0.00302374
0.00347562
-0.00290279
-0.00354093
0.00414123
-0.00362405
-0.00397597
0.00493203
-0.00449699
-0.0042985
0.00587455
-0.00555202
-0.0044736
0.00699751
-0.00682241
-0.00446251
0.00833239
-0.00834348
-0.00422253
0.00991565
-0.0101556
-0.0037098
0.0117921
-0.0123048
-0.00287529
0.0140178
-0.0148524
-0.00166196
0.016667
-0.0178803
0.0198285
-0.0214897
-7.71128e-07
-0.000590114
0.00219813
-0.00116849
0.0025586
-0.00174525
0.00299571
-0.00230666
0.00347147
-0.00283254
0.0040015
-0.00330106
0.00460975
-0.00368853
0.0053195
-0.00396884
0.00615485
-0.00411207
0.00714073
-0.00408606
0.00830638
-0.00385525
0.00968485
-0.00338063
0.0113175
-0.00261817
0.0132554
-0.00151455
0.0155633
0.0183188
-4.8535e-06
-0.000547788
0.00273917
-0.00108729
0.0030981
-0.00162313
0.00353155
-0.00214144
0.00398977
-0.00262375
0.00448381
-0.00305013
0.00503613
-0.00339987
0.00566925
-0.00364903
0.00640401
-0.00377232
0.00726402
-0.00374131
0.00827537
-0.00352466
0.00946819
-0.00308755
0.0108803
-0.00239029
0.0125581
-0.00138394
0.014557
0.0169447
-9.88733e-06
-0.000505191
0.00323742
-0.00100377
0.00359669
-0.00149804
0.00402582
-0.00197381
0.00446554
-0.00241391
0.00492391
-0.00280083
0.00542306
-0.00311522
0.00598364
-0.00333728
0.00662607
-0.0034443
0.00737105
-0.00341148
0.00824255
-0.00321152
0.00926824
-0.00281278
0.0104816
-0.00217804
0.0119234
-0.00126287
0.0136418
0.0156953
-1.34542e-05
-0.000464572
0.00369508
-0.000923442
0.00405556
-0.00137782
0.0044802
-0.00181352
0.00490124
-0.00221496
0.00532535
-0.00256546
0.00577356
-0.00284871
0.00626688
-0.00304682
0.00682418
-0.00314024
0.00746447
-0.00310719
0.0082095
-0.00292301
0.00908406
-0.00255949
0.0101181
-0.00198206
0.0113459
-0.00115052
0.0128103
0.0145596
-1.48247e-05
-0.000426506
0.00411486
-0.000847835
0.00447688
-0.00126454
0.00489691
-0.00166298
0.00529968
-0.00202833
0.00569069
-0.00234627
0.0060915
-0.00260175
0.00652236
-0.00277914
0.00700158
-0.00286133
0.00754665
-0.00282896
0.00817713
-0.00266011
0.00891521
-0.00232837
0.00978635
-0.00180334
0.0108209
-0.00104719
0.0120541
0.0135277
-1.52589e-05
-0.000391096
0.0044995
-0.000777295
0.00486308
-0.00115884
0.00527845
-0.00152268
0.00566352
-0.00185523
0.00602324
-0.00214354
0.00637981
-0.00237426
0.00675309
-0.00253346
0.00716077
-0.0026062
0.00761939
-0.00257516
0.0081461
-0.0024202
0.00876024
-0.00211825
0.0094844
-0.00164056
0.0103432
-0.000953109
0.0113667
0.0125896
-1.50171e-05
-0.000358216
0.00485162
-0.000711847
0.00521671
-0.00106078
0.00562738
-0.00139275
0.00599549
-0.00169522
0.00632571
-0.00195663
0.00664123
-0.00216502
0.00696148
-0.00230821
0.00730395
-0.0023727
0.00768388
-0.00234307
0.00811646
-0.00220164
0.00861882
-0.00192633
0.00920909
-0.00149206
0.00990895
-0.000867086
0.0107417
0.0117369
-1.44254e-05
-0.000327931
0.00517379
-0.000651497
0.00554028
-0.000970273
0.00594616
-0.00127297
0.00629819
-0.00154815
0.00660089
-0.00178496
0.00687803
-0.00197332
0.00714984
-0.0021023
0.00743293
-0.00215973
0.00774132
-0.00213175
0.00808848
-0.00200236
0.00848943
-0.00175184
0.00895856
-0.00135663
0.00951374
-0.000788724
0.0101738
0.0109618
-1.36357e-05
-0.000300069
0.00546865
-0.000596137
0.00583635
-0.000887482
0.0062375
-0.00116319
0.0065739
-0.00141305
0.00685075
-0.00162784
0.00709282
-0.00179814
0.00732014
-0.00191417
0.00754896
-0.00196538
0.00779252
-0.00193941
0.00806252
-0.00182109
0.00837111
-0.00159308
0.00873055
-0.00123357
0.00915423
-0.000717307
0.00965754
0.0102573
-1.27573e-05
-0.000274928
0.00573855
-0.000545699
0.00610712
-0.000811446
0.00650325
-0.00106241
0.00682486
-0.00128961
0.00707794
-0.00148397
0.00728718
-0.00163793
0.0074741
-0.00174274
0.00765377
-0.00178842
0.00783821
-0.00176392
0.00803802
-0.00165586
0.00826305
-0.00144827
0.00852296
-0.0011215
0.00882746
-0.000652054
0.00918809
0.00961695
-1.17249e-05
-0.000251798
0.00598701
-0.000500428
0.00635575
-0.000742615
0.00674544
-0.000970827
0.00705307
-0.0011765
0.00728362
-0.0013528
0.00746348
-0.00149174
0.00761304
-0.00158612
0.00774815
-0.00162679
0.00787888
-0.00160415
0.00801537
-0.0015057
0.00816461
-0.00131663
0.00833388
-0.00101944
0.00853027
-0.00059261
0.00876126
0.00903508
-1.0745e-05
-0.000233232
0.00621641
-0.000460726
0.00658324
-0.00067859
0.0069633
-0.000885868
0.00726035
-0.0010734
0.00747115
-0.00123221
0.00762229
-0.00135842
0.00773924
-0.00144361
0.00783334
-0.00147992
0.00791519
-0.00145854
0.007994
-0.00136858
0.00807465
-0.00119676
0.00816206
-0.000926383
0.00825989
-0.000538582
0.00837346
0.00850618
-9.68402e-06
-0.000212512
0.00643542
-0.000426684
0.00679742
-0.000620785
0.0071574
-0.000810149
0.00744972
-0.000979352
0.00764036
-0.00112239
0.00776534
-0.00123556
0.0078524
-0.00131317
0.00791095
-0.00134581
0.00794784
-0.00132605
0.00797424
-0.00124407
0.00799267
-0.00108749
0.00800548
-0.000841977
0.00801438
-0.000489408
0.00802089
-8.78596e-06
0.00802556
0.000114617
0.00152987
0.000129419
0.00198648
0.000142451
0.00239569
0.000154894
0.00288309
0.000166844
0.0034665
0.000178197
0.0041654
0.000188669
0.00500294
0.000197667
0.00600674
0.000204411
0.0072101
0.00020803
0.00865201
0.00020789
0.0103806
0.000203865
0.0124527
0.00019652
0.0149373
0.000186972
0.0179176
0.0214928
0.000176538
0.00013924
0.00139063
0.000134466
0.00199125
0.000133205
0.00239695
0.000136409
0.00287989
0.000141526
0.00346138
0.000147432
0.00415949
0.000153485
0.00499689
0.000159217
0.00600101
0.000164259
0.00720505
0.000168282
0.00864798
0.000170967
0.010378
0.000171979
0.0124517
0.000171043
0.0149382
0.000168079
0.0179206
0.0214975
0.000163381
0.000145331
0.00124529
0.000154409
0.00198218
0.000151277
0.00240008
0.000149593
0.00288157
0.00014943
0.00346154
0.000150271
0.00415865
0.00015171
0.00499545
0.000153416
0.0059993
0.000155085
0.00720338
0.000156424
0.00864664
0.000157189
0.0103772
0.000157215
0.0124517
0.000156413
0.014939
0.000154719
0.0179223
0.0215001
0.000152113
6.93963e-05
0.0011759
0.000109121
0.00194245
0.000117401
0.0023918
0.000118898
0.00288007
0.000119955
0.00346049
0.000121711
0.00415689
0.000124239
0.00499292
0.000127386
0.00599615
0.000130921
0.00719985
0.000134527
0.00864303
0.000137832
0.0103739
0.000140457
0.012449
0.000142117
0.0149373
0.000142671
0.0179217
0.0215007
0.000142107
-2.27522e-05
0.00119865
4.76661e-05
0.00187203
7.49153e-05
0.00236455
8.44578e-05
0.00287053
8.93074e-05
0.00345564
9.34181e-05
0.00415278
9.7881e-05
0.00498846
0.000102879
0.00599115
0.000108292
0.00719444
0.000113872
0.00863745
0.000119299
0.0103685
0.000124207
0.0124441
0.000128236
0.0149333
0.000131102
0.0179188
0.0214991
0.000132626
-4.21239e-05
0.00124078
2.23458e-05
0.00180756
5.94152e-05
0.00232749
7.55901e-05
0.00285435
8.30488e-05
0.00344818
8.76109e-05
0.00414822
9.15852e-05
0.00498449
9.57636e-05
0.00598697
0.000100317
0.00718988
0.000105152
0.00863262
0.000110064
0.0103636
0.000114786
0.0124394
0.000119025
0.0149291
0.000122492
0.0179154
0.0214967
0.000124926
-1.71434e-05
0.00125792
2.31248e-05
0.00176729
5.86506e-05
0.00229196
7.83789e-05
0.00283463
8.78624e-05
0.0034387
9.26233e-05
0.00414346
9.56348e-05
0.00498148
9.82633e-05
0.00598434
0.000101052
0.0071871
0.000104135
0.00862953
0.000107459
0.0103602
0.000110867
0.012436
0.00011415
0.0149258
0.000117065
0.0179125
0.0214944
0.000119345
3.78554e-06
0.00125413
2.86858e-05
0.00174239
5.84536e-05
0.00226219
7.90382e-05
0.00281404
9.0253e-05
0.00342748
9.59036e-05
0.00413781
9.8861e-05
0.00497852
0.000100787
0.00598242
0.000102518
0.00718537
0.0001044
0.00862765
0.000106518
0.0103581
0.000108816
0.0124337
0.00011116
0.0149235
0.000113359
0.0179103
0.0214926
0.000115146
1.32763e-05
0.00124085
3.23662e-05
0.0017233
5.69949e-05
0.00223756
7.68105e-05
0.00279422
8.91003e-05
0.00341519
9.58558e-05
0.00413105
9.93794e-05
0.004975
0.000101331
0.00598047
0.000102711
0.00718399
0.000104023
0.00862634
0.000105473
0.0103567
0.00010709
0.0124321
0.000108811
0.0149217
0.000110516
0.0179085
0.0214911
0.000112053
1.53455e-05
0.00122551
3.337e-05
0.00170527
5.47815e-05
0.00221615
7.34896e-05
0.00277551
8.63279e-05
0.00340235
9.40382e-05
0.00412334
9.83149e-05
0.00497072
0.000100642
0.00597814
0.000102058
0.00718257
0.000103171
0.00862522
0.000104284
0.0103556
0.000105499
0.0124309
0.000106815
0.0149204
0.000108169
0.0179072
0.0214898
0.00010946
1.46344e-05
0.00121087
3.23017e-05
0.0016876
5.18393e-05
0.00219662
6.9744e-05
0.00275761
8.29255e-05
0.00338917
9.13767e-05
0.00411489
9.63761e-05
0.00496572
9.91966e-05
0.00597532
0.000100839
0.00718093
0.000101964
0.0086241
0.000102941
0.0103546
0.000103936
0.0124299
0.000104987
0.0149194
0.000106067
0.0179061
0.0214888
0.000107107
1.32764e-05
0.0011976
3.01775e-05
0.0016707
4.85265e-05
0.00217827
6.59158e-05
0.00274022
7.93491e-05
0.00337574
8.83666e-05
0.00410587
9.39822e-05
0.00496011
9.72933e-05
0.00597201
9.9231e-05
0.00717899
0.000100471
0.00862286
0.00010143
0.0103536
0.00010232
0.012429
0.000103219
0.0149185
0.000104123
0.0179052
0.0214879
0.000104993
1.20305e-05
0.00118557
2.78926e-05
0.00165484
4.5351e-05
0.00216081
6.233e-05
0.00272324
7.5922e-05
0.00336215
8.5374e-05
0.00409642
9.14979e-05
0.00495398
9.52514e-05
0.00596825
9.74908e-05
0.00717675
9.88846e-05
0.00862147
9.98807e-05
0.0103526
0.000100732
0.0124281
0.00010155
0.0149176
0.000102363
0.0179044
0.0214871
0.000103159
1.10714e-05
0.0011745
2.58848e-05
0.00164003
4.25353e-05
0.00214416
5.90658e-05
0.00270671
7.27289e-05
0.00334848
8.25275e-05
0.00408662
8.90712e-05
0.00494744
9.32117e-05
0.00596411
9.5737e-05
0.00717423
9.7296e-05
0.00861991
9.83529e-05
0.0103516
9.91927e-05
0.0124273
9.99576e-05
0.0149169
0.000100697
0.0179037
0.0214864
0.00010141
1.03233e-05
0.00116418
2.41786e-05
0.00162618
4.00071e-05
0.00212833
5.59963e-05
0.00269072
6.97024e-05
0.00333478
7.98331e-05
0.00407649
8.67428e-05
0.00494053
9.1224e-05
0.00595963
9.40136e-05
0.00717144
9.57373e-05
0.00861818
9.68655e-05
0.0103504
9.77064e-05
0.0124264
9.84261e-05
0.0149162
9.90888e-05
0.017903
0.0214858
9.96945e-05
9.6504e-06
0.00115453
2.26185e-05
0.00161321
3.76047e-05
0.00211334
5.30124e-05
0.00267532
6.67602e-05
0.00332103
7.72387e-05
0.00406601
8.44968e-05
0.00493327
8.92912e-05
0.00595484
9.23304e-05
0.0071684
9.42196e-05
0.0086163
9.54307e-05
0.0103492
9.62894e-05
0.0124256
9.69851e-05
0.0149155
9.76019e-05
0.0179024
0.0214852
9.8158e-05
8.98877e-06
0.00114554
2.11174e-05
0.00160108
3.52921e-05
0.00209917
5.01588e-05
0.00266045
6.39138e-05
0.00330728
7.47157e-05
0.00405521
8.2313e-05
0.00492567
8.74069e-05
0.00594975
9.06869e-05
0.00716512
9.2744e-05
0.00861424
9.40492e-05
0.0103479
9.49417e-05
0.0124247
9.56315e-05
0.0149148
9.62246e-05
0.0179018
0.0214847
9.67614e-05
8.3635e-06
0.00113718
1.97125e-05
0.00158974
3.31491e-05
0.00208573
4.75312e-05
0.00264607
6.12275e-05
0.00329358
7.2285e-05
0.00404416
8.01996e-05
0.00491776
8.55799e-05
0.00594437
8.90924e-05
0.0071616
9.13164e-05
0.00861201
9.27214e-05
0.0103465
9.3656e-05
0.0124238
9.43464e-05
0.0149141
9.49144e-05
0.0179012
0.0214842
9.54105e-05
7.82071e-06
0.00112936
1.84741e-05
0.00157908
3.12512e-05
0.00207296
4.51749e-05
0.00263215
5.87284e-05
0.00328003
6.99652e-05
0.00403292
7.81683e-05
0.00490956
8.38191e-05
0.00593871
8.75541e-05
0.00715787
8.99408e-05
0.00860963
9.14466e-05
0.010345
9.24263e-05
0.0124228
9.31191e-05
0.0149134
9.36591e-05
0.0179007
0.0214838
9.40889e-05
7.37352e-06
0.00112198
1.74234e-05
0.00156904
2.96003e-05
0.00206078
4.30547e-05
0.00261869
5.63772e-05
0.0032667
6.77436e-05
0.00402155
7.62257e-05
0.00490107
8.21336e-05
0.00593281
8.60811e-05
0.00715392
8.8626e-05
0.00860708
9.02339e-05
0.0103434
9.1266e-05
0.0124217
9.1975e-05
0.0149127
9.25157e-05
0.0179001
0.0214833
9.29719e-05
6.99205e-06
0.00111499
1.65109e-05
0.00155952
2.81209e-05
0.00204917
4.10819e-05
0.00260573
5.41129e-05
0.00325367
6.55846e-05
0.00401008
7.43513e-05
0.00489231
8.05128e-05
0.00592665
8.46662e-05
0.00714977
8.73658e-05
0.00860438
8.90761e-05
0.0103417
9.01638e-05
0.0124207
9.0892e-05
0.014912
9.14265e-05
0.0178996
0.0214829
9.18516e-05
6.6351e-06
0.00110836
1.56656e-05
0.00155049
2.67312e-05
0.0020381
3.91961e-05
0.00259327
5.19274e-05
0.00324094
6.3479e-05
0.00399853
7.25225e-05
0.00488326
7.89382e-05
0.00592023
8.32956e-05
0.00714541
8.61479e-05
0.00860153
8.79609e-05
0.0103399
8.91053e-05
0.0124195
8.98532e-05
0.0149112
9.03815e-05
0.0178991
0.0214825
9.07948e-05
6.28378e-06
0.00110207
1.48503e-05
0.00154192
2.53983e-05
0.00202756
3.7393e-05
0.00258127
4.98455e-05
0.00322849
6.14401e-05
0.00398694
7.07291e-05
0.00487397
7.73948e-05
0.00591356
8.19555e-05
0.00714085
8.49606e-05
0.00859853
8.68776e-05
0.010338
8.80812e-05
0.0124183
8.88503e-05
0.0149104
8.93684e-05
0.0178986
0.0214821
8.97286e-05
5.94552e-06
0.00109613
1.40729e-05
0.00153379
2.4141e-05
0.00201749
3.57057e-05
0.00256971
4.79005e-05
0.00321629
5.94943e-05
0.00397534
6.89841e-05
0.00486448
7.58874e-05
0.00590666
8.06497e-05
0.00713609
8.38083e-05
0.00859537
8.5832e-05
0.0103359
8.70999e-05
0.012417
8.78987e-05
0.0149096
8.84251e-05
0.017898
0.0214817
8.88012e-05
5.63757e-06
0.00109049
1.33598e-05
0.00152607
2.29902e-05
0.00200786
3.41612e-05
0.00255854
4.61035e-05
0.00320435
5.76476e-05
0.0039638
6.72934e-05
0.00485484
7.44193e-05
0.00589953
7.93786e-05
0.00713113
8.26902e-05
0.00859206
8.4822e-05
0.0103338
8.6157e-05
0.0124157
8.69888e-05
0.0149088
8.75232e-05
0.0178975
0.0214814
8.78859e-05
5.37105e-06
0.00108512
1.27311e-05
0.00151871
2.19645e-05
0.00199862
3.2766e-05
0.00254773
4.44439e-05
0.00319267
5.58862e-05
0.00395235
6.56563e-05
0.00484507
7.29977e-05
0.00589219
7.81482e-05
0.00712598
8.16096e-05
0.00858859
8.38481e-05
0.0103316
8.52498e-05
0.0124143
8.61141e-05
0.0149079
8.66541e-05
0.017897
0.021481
8.70018e-05
5.14293e-06
0.00107998
1.21824e-05
0.00151167
2.10514e-05
0.00198976
3.14937e-05
0.00253729