/*--------------------------------*- C++ -*----------------------------------*\
| =========                 |                                                 |
| \\      /  F ield         | OpenFOAM: The Open Source CFD Toolbox           |
|  \\    /   O peration     | Version:  2.3.0                                 |
|   \\  /    A nd           | Web:      www.OpenFOAM.org                      |
|    \\/     M anipulation  |                                                 |
\*---------------------------------------------------------------------------*/
FoamFile
{
    version     2.0;
    format      ascii;
    class       volVectorField;
    location    "250";
    object      U;
}
// * * * * * * * * * * * * * * * * * * * * * * * * * * * * * * * * * * * * * //

dimensions      [0 1 -1 0 0 0 0];

internalField   nonuniform List<vector> 
7994
(
(20.0795 0.143788 -4.08825e-23)
(20.0821 0.157481 -4.47962e-22)
(20.0854 0.173515 1.95153e-21)
(20.0896 0.192466 -1.46518e-21)
(20.0946 0.213905 -1.03186e-20)
(20.0994 0.236937 2.54429e-20)
(20.1032 0.260478 -1.48474e-20)
(20.1045 0.283495 0)
(20.1025 0.305135 0)
(20.0964 0.324753 -1.6814e-20)
(20.0858 0.341912 1.55764e-20)
(20.0705 0.356335 -1.97325e-20)
(20.0505 0.367767 1.81483e-20)
(20.0255 0.37335 0)
(19.9964 0.375943 0)
(20.0654 0.141801 0)
(20.063 0.150455 0)
(20.0593 0.158798 0)
(20.0543 0.167165 -3.78691e-21)
(20.0479 0.175734 7.86958e-21)
(20.0406 0.184571 7.06065e-22)
(20.0326 0.193585 -9.90689e-21)
(20.0242 0.202533 5.09979e-21)
(20.0154 0.211089 -7.20581e-21)
(20.0065 0.218913 -1.48791e-21)
(19.9974 0.225709 1.67047e-20)
(19.9882 0.231252 -1.34561e-20)
(19.9791 0.23539 4.63571e-21)
(19.9702 0.238012 0)
(19.9618 0.239011 1.10771e-35)
(20.0558 0.140033 0)
(20.0528 0.147295 0)
(20.0494 0.154304 8.24856e-21)
(20.0456 0.160864 -8.07336e-21)
(20.0412 0.1668 -1.05743e-20)
(20.0362 0.171962 -1.46388e-21)
(20.0307 0.176281 -1.42131e-21)
(20.0248 0.179746 1.17558e-20)
(20.0186 0.182385 0)
(20.0121 0.184245 0)
(20.0056 0.185377 0)
(19.9992 0.185835 0)
(19.9928 0.185676 0)
(19.9867 0.184959 0)
(19.9808 0.183738 0)
(20.0479 0.135444 0)
(20.0441 0.140335 -4.23627e-21)
(20.0398 0.144894 4.18733e-21)
(20.0353 0.148963 0)
(20.0305 0.152556 -1.06648e-20)
(20.0256 0.155653 1.0245e-20)
(20.0206 0.158244 -1.16575e-20)
(20.0157 0.160328 2.31862e-20)
(20.0108 0.161914 -5.31784e-21)
(20.006 0.16302 -5.92588e-21)
(20.0014 0.163671 0)
(19.9969 0.163896 0)
(19.9926 0.163728 0)
(19.9885 0.163201 -1.70504e-21)
(19.9847 0.162345 1.66965e-21)
(20.0426 0.131181 0)
(20.039 0.13467 0)
(20.0353 0.137944 5.27453e-21)
(20.0314 0.140739 4.64968e-22)
(20.0275 0.143095 -5.45034e-21)
(20.0236 0.145018 -6.15549e-21)
(20.0196 0.146527 5.94128e-21)
(20.0156 0.147645 0)
(20.0117 0.148397 0)
(20.0079 0.148812 0)
(20.0042 0.148915 0)
(20.0005 0.148732 0)
(19.997 0.148287 -3.62823e-21)
(19.9937 0.147602 3.55288e-21)
(19.9904 0.146698 -6.70542e-36)
(20.0387 0.126992 0)
(20.0353 0.12942 -2.61686e-21)
(20.0319 0.131726 2.58124e-21)
(20.0285 0.133643 0)
(20.025 0.135225 0)
(20.0216 0.136489 6.26905e-21)
(20.0182 0.137454 -1.25578e-20)
(20.0148 0.138138 -3.39411e-22)
(20.0115 0.138558 -3.25565e-22)
(20.0083 0.138731 -3.12056e-22)
(20.0052 0.138673 6.84397e-21)
(20.0022 0.138399 0)
(19.9993 0.137923 0)
(19.9964 0.137259 -1.91559e-21)
(19.9937 0.136419 1.90527e-21)
(20.0358 0.123317 0)
(20.0329 0.125012 0)
(20.0299 0.126663 0)
(20.0269 0.128024 0)
(20.0239 0.129128 0)
(20.021 0.129988 0)
(20.018 0.130619 0)
(20.0152 0.131034 0)
(20.0123 0.131245 0)
(20.0096 0.131263 0)
(20.0068 0.131097 0)
(20.0042 0.130756 0)
(20.0016 0.13025 0)
(19.9991 0.129586 0)
(19.9966 0.128773 0)
(20.0339 0.119849 -1.34014e-21)
(20.0312 0.121179 1.34291e-21)
(20.0286 0.12239 0)
(20.0259 0.123388 0)
(20.0233 0.124184 0)
(20.0207 0.12479 0)
(20.0181 0.125217 -6.78784e-21)
(20.0155 0.125473 6.71628e-21)
(20.013 0.125564 0)
(20.0105 0.125497 0)
(20.0081 0.125277 -3.83719e-21)
(20.0057 0.124908 3.82735e-21)
(20.0034 0.124395 0)
(20.0011 0.123744 0)
(19.9989 0.12296 3.84493e-36)
(20.0324 0.116715 1.36827e-21)
(20.03 0.117881 -1.3889e-21)
(20.0277 0.118808 0)
(20.0253 0.119567 0)
(20.023 0.120159 0)
(20.0206 0.120597 -3.35083e-21)
(20.0183 0.120889 6.78628e-21)
(20.016 0.12104 -7.0154e-21)
(20.0137 0.121054 -1.30031e-22)
(20.0115 0.120933 3.68807e-21)
(20.0092 0.12068 3.94502e-21)
(20.0071 0.120296 -3.95121e-21)
(20.0049 0.119782 2.10473e-21)
(20.0028 0.119141 -1.02507e-21)
(20.0008 0.118378 -1.09068e-21)
(20.0313 0.114187 0)
(20.0292 0.115125 0)
(20.0271 0.115819 0)
(20.025 0.116395 3.18564e-21)
(20.0229 0.11684 -3.16445e-21)
(20.0207 0.117158 0)
(20.0186 0.117356 0)
(20.0165 0.117434 3.63321e-21)
(20.0144 0.117396 -3.63595e-21)
(20.0123 0.117241 -3.8917e-21)
(20.0102 0.11697 5.9196e-21)
(20.0082 0.116579 -2.02293e-21)
(20.0062 0.116069 0)
(20.0042 0.115439 1.11235e-21)
(20.0023 0.114692 -1.11907e-21)
(20.0305 0.111933 -7.27214e-22)
(20.0286 0.112742 2.23508e-21)
(20.0267 0.113283 -1.50189e-21)
(20.0248 0.11373 3.21943e-21)
(20.0228 0.11407 -3.20685e-21)
(20.0209 0.114304 3.43342e-21)
(20.0189 0.114433 -3.43298e-21)
(20.017 0.11446 0)
(20.015 0.114384 0)
(20.013 0.114205 -1.97032e-21)
(20.0111 0.113922 1.98114e-21)
(20.0092 0.113532 0)
(20.0073 0.113028 0)
(20.0054 0.112407 0)
(20.0036 0.111673 0)
(20.0298 0.110045 0)
(20.0281 0.110693 0)
(20.0264 0.111122 -1.57236e-21)
(20.0247 0.111472 3.18662e-21)
(20.0229 0.111739 -1.6169e-21)
(20.0211 0.11191 0)
(20.0193 0.111988 0)
(20.0174 0.111979 0)
(20.0156 0.111874 1.91125e-21)
(20.0137 0.111674 -1.92222e-21)
(20.0119 0.111385 -2.04915e-21)
(20.01 0.110999 2.0631e-21)
(20.0083 0.110504 0)
(20.0065 0.109892 0)
(20.0048 0.109164 0)
(20.0294 0.10847 0)
(20.0278 0.108924 0)
(20.0263 0.109266 1.58238e-21)
(20.0246 0.109535 -1.57686e-21)
(20.023 0.109754 -1.67645e-21)
(20.0213 0.109892 3.40631e-21)
(20.0196 0.109931 -1.73307e-21)
(20.0178 0.109894 1.8459e-21)
(20.0161 0.109762 -1.85534e-21)
(20.0143 0.109542 0)
(20.0125 0.109252 2.04409e-21)
(20.0107 0.108874 -2.05795e-21)
(20.009 0.10839 1.09302e-21)
(20.0074 0.107787 -1.10015e-21)
(20.0057 0.10705 0)
(20.029 0.106956 0)
(20.0275 0.107353 0)
(20.0261 0.107668 0)
(20.0246 0.107852 -1.6762e-21)
(20.0231 0.108046 3.37234e-21)
(20.0215 0.108187 -1.62333e-21)
(20.0199 0.108187 0)
(20.0181 0.108131 0)
(20.0165 0.10798 0)
(20.0148 0.107732 0)
(20.013 0.107432 0)
(20.0113 0.10706 1.04187e-21)
(20.0096 0.106588 -1.04433e-21)
(20.008 0.106022 -2.72568e-22)
(20.0065 0.10527 2.79733e-22)
(19.9519 0.341833 0)
(19.9085 0.32687 0)
(19.8722 0.308277 3.59359e-20)
(19.8434 0.292069 -3.91165e-20)
(19.8227 0.27468 4.30517e-20)
(19.8103 0.255492 -4.65162e-20)
(19.8059 0.234511 0)
(19.8089 0.212003 0)
(19.8179 0.188407 -1.08043e-19)
(19.8312 0.164427 2.20453e-19)
(19.8469 0.141033 -1.10907e-19)
(19.8632 0.119322 -5.25011e-20)
(19.8789 0.100264 1.01404e-19)
(19.8933 0.0844633 -2.52753e-20)
(19.9064 0.0708772 -2.18306e-20)
(19.9539 0.238446 -1.11113e-35)
(19.9465 0.23586 0)
(19.9396 0.230807 9.90413e-21)
(19.9331 0.223428 -3.39136e-20)
(19.9271 0.213824 5.18999e-20)
(19.9218 0.202211 1.51504e-21)
(19.9174 0.188942 -3.28273e-20)
(19.9138 0.174507 3.73407e-20)
(19.9111 0.159491 -7.98172e-20)
(19.9095 0.144507 1.44168e-22)
(19.909 0.130095 8.70581e-20)
(19.9099 0.116616 -4.43877e-20)
(19.9125 0.104196 0)
(19.9166 0.0928056 0)
(19.9223 0.0815161 0)
(19.975 0.18207 0)
(19.9692 0.17987 0)
(19.9633 0.177015 0)
(19.9574 0.173485 0)
(19.9516 0.169241 0)
(19.9462 0.164255 0)
(19.9411 0.158506 0)
(19.9368 0.151987 2.76137e-20)
(19.9332 0.144699 6.00404e-22)
(19.9306 0.136665 4.9844e-22)
(19.9292 0.127937 -3.33092e-20)
(19.929 0.118628 -3.49487e-20)
(19.9299 0.108927 3.57056e-20)
(19.932 0.0991178 0)
(19.9351 0.0889129 0)
(19.9809 0.161174 1.82719e-21)
(19.9771 0.159629 -1.87e-21)
(19.9734 0.157631 0)
(19.9696 0.155144 0)
(19.9659 0.152128 0)
(19.9622 0.148549 -1.05667e-20)
(19.9588 0.14438 -1.17507e-20)
(19.9555 0.139603 4.84027e-20)
(19.9526 0.134218 -2.56876e-20)
(19.95 0.128243 2.80077e-20)
(19.948 0.12172 -2.91607e-20)
(19.9465 0.114716 0)
(19.9457 0.107323 1.5833e-20)
(19.9457 0.0996446 -1.60173e-20)
(19.9466 0.0913767 0)
(19.9873 0.145581 6.71821e-36)
(19.9842 0.144214 4.09113e-21)
(19.981 0.142555 -4.17828e-21)
(19.9779 0.140581 0)
(19.9748 0.13827 0)
(19.9717 0.135596 0)
(19.9688 0.132536 0)
(19.966 0.129067 0)
(19.9634 0.125169 1.20547e-20)
(19.961 0.120826 -1.24914e-20)
(19.959 0.116029 -1.33768e-20)
(19.9573 0.110783 -1.68373e-22)
(19.9562 0.10511 1.42887e-20)
(19.9556 0.0990453 0)
(19.9556 0.0923474 0)
(19.991 0.135406 2.03363e-21)
(19.9884 0.134192 -2.04834e-21)
(19.9858 0.13275 0)
(19.9832 0.131067 0)
(19.9806 0.129129 9.57726e-21)
(19.9781 0.126919 2.52297e-22)
(19.9756 0.124421 2.48737e-22)
(19.9733 0.121619 2.42548e-22)
(19.9711 0.118497 -2.27398e-20)
(19.969 0.11504 1.18017e-20)
(19.9672 0.111236 0)
(19.9656 0.107078 0)
(19.9643 0.102573 6.72821e-21)
(19.9633 0.0977338 -6.82113e-21)
(19.9627 0.0924254 0)
(19.9943 0.127813 0)
(19.9919 0.126686 0)
(19.9896 0.125376 0)
(19.9873 0.123875 0)
(19.985 0.122175 0)
(19.9828 0.120266 0)
(19.9807 0.118138 0)
(19.9786 0.11578 0)
(19.9767 0.113181 0)
(19.9748 0.110329 0)
(19.9732 0.107209 0)
(19.9717 0.10381 0)
(19.9704 0.100123 0)
(19.9694 0.0961336 0)
(19.9687 0.0917161 0)
(19.9967 0.122043 -3.8509e-36)
(19.9946 0.120983 0)
(19.9925 0.119768 0)
(19.9904 0.118394 4.80307e-21)
(19.9883 0.116858 -4.81555e-21)
(19.9864 0.115152 0)
(19.9845 0.113273 0)
(19.9826 0.111215 1.06694e-20)
(19.9809 0.10897 -1.07836e-20)
(19.9793 0.10653 0)
(19.9778 0.103886 0)
(19.9764 0.101029 0)
(19.9752 0.0979482 0)
(19.9742 0.0946419 3.12776e-21)
(19.9734 0.0910591 -3.15522e-21)
(19.9987 0.117495 -1.15101e-21)
(19.9968 0.116483 -1.20448e-21)
(19.9948 0.115338 2.34521e-21)
(19.9929 0.114057 -4.90035e-21)
(19.991 0.112639 4.89276e-21)
(19.9892 0.111081 5.09937e-21)
(19.9875 0.109381 9.84222e-23)
(19.9858 0.107538 -1.05347e-20)
(19.9842 0.105548 1.07736e-20)
(19.9828 0.103407 -5.47138e-21)
(19.9814 0.101111 0)
(19.9801 0.098652 0)
(19.979 0.0960225 0)
(19.978 0.0932246 -3.02773e-21)
(19.9771 0.0902309 3.03823e-21)
(20.0004 0.113833 -1.17858e-21)
(19.9985 0.112859 1.17306e-21)
(19.9967 0.111768 0)
(19.9949 0.110559 -2.48643e-21)
(19.9932 0.109232 7.52923e-21)
(19.9915 0.107784 -5.03584e-21)
(19.9899 0.106218 -5.21593e-21)
(19.9884 0.104534 5.21209e-21)
(19.9869 0.102733 0)
(19.9856 0.100816 0)
(19.9843 0.0987791 -5.58886e-21)
(19.9832 0.0966187 5.62635e-21)
(19.9821 0.0943289 0)
(19.9812 0.0919096 0)
(19.9804 0.0893263 0)
(20.0018 0.110832 0)
(20 0.109888 0)
(19.9983 0.108841 0)
(19.9966 0.107692 0)
(19.995 0.106437 2.53958e-21)
(19.9934 0.105073 -2.52573e-21)
(19.9919 0.103607 0)
(19.9905 0.102044 0)
(19.9891 0.100388 -5.35083e-21)
(19.9879 0.0986421 5.3516e-21)
(19.9867 0.0968045 -5.50724e-21)
(19.9856 0.0948742 5.52886e-21)
(19.9847 0.0928478 -2.84033e-21)
(19.9838 0.0907271 4.29823e-21)
(19.983 0.0884985 -1.44695e-21)
(20.003 0.108337 0)
(20.0013 0.107421 0)
(19.9996 0.106411 0)
(19.998 0.105312 2.50343e-21)
(19.9965 0.104114 -2.48653e-21)
(19.995 0.102815 -2.56431e-21)
(19.9936 0.101426 2.54969e-21)
(19.9922 0.0999558 0)
(19.991 0.0984137 0)
(19.9898 0.0968037 0)
(19.9887 0.0951215 -2.71511e-21)
(19.9877 0.0933724 5.47226e-21)
(19.9868 0.0915538 -2.76202e-21)
(19.986 0.0896606 0)
(19.9853 0.0876861 0)
(20.004 0.106237 0)
(20.0024 0.105348 -1.20898e-21)
(20.0007 0.104374 1.20118e-21)
(19.9992 0.10332 -2.48422e-21)
(19.9977 0.10216 2.46748e-21)
(19.9963 0.10091 0)
(19.995 0.0995821 -2.56529e-21)
(19.9937 0.0981847 2.55229e-21)
(19.9925 0.0967378 -2.61628e-21)
(19.9914 0.0952392 5.25403e-21)
(19.9904 0.0936789 -2.64253e-21)
(19.9894 0.0920785 -2.70642e-21)
(19.9886 0.090433 2.71584e-21)
(19.9879 0.0887294 0)
(19.9872 0.0870087 0)
(20.0048 0.104489 3.01372e-22)
(20.0032 0.103622 -2.9855e-22)
(20.0017 0.102658 -1.21711e-21)
(20.0001 0.101653 1.16858e-21)
(19.9988 0.100522 0)
(19.9975 0.0993251 0)
(19.9962 0.0980303 0)
(19.995 0.09667 0)
(19.9938 0.095308 0)
(19.9928 0.0938967 -2.61397e-21)
(19.9918 0.0924181 5.32449e-21)
(19.9909 0.0909507 -2.67322e-21)
(19.9902 0.0894464 0)
(19.9895 0.0878488 0)
(19.9888 0.0863331 0)
(20.0688 0.00999097 -9.06439e-21)
(20.028 0.00720816 1.01543e-20)
(19.9549 0.00403387 0)
(19.8325 0.000134877 0)
(19.6427 -0.00465871 0)
(19.3761 -0.0103293 0)
(19.0319 -0.0168155 4.27298e-23)
(18.6139 -0.0241523 -4.74534e-23)
(18.1256 -0.0322821 0)
(17.566 -0.0410894 0)
(16.9242 -0.0508346 -1.41321e-20)
(16.1688 -0.0616496 1.67179e-20)
(15.2297 -0.0753445 -2.42147e-21)
(13.9919 -0.0653581 2.852e-21)
(12.6289 -0.0790369 4.06242e-22)
(20.0667 0.00788883 0)
(20.0311 0.00563862 -2.21375e-20)
(19.9703 0.0027029 2.44115e-20)
(19.8718 -0.00153579 0)
(19.7215 -0.00743681 0)
(19.5092 -0.0147891 0)
(19.2303 -0.0231456 0)
(18.8832 -0.0320505 6.39601e-20)
(18.4665 -0.041107 -7.08704e-20)
(17.9747 -0.0500667 8.79709e-20)
(17.3931 -0.0592164 3.05545e-21)
(16.6875 -0.0687039 -1.19849e-19)
(15.7946 -0.0805709 7.46447e-20)
(14.6647 -0.0763849 -4.62937e-20)
(13.5887 -0.0484683 -6.07824e-20)
(20.0653 0.00378226 0)
(20.034 7.33877e-05 0)
(19.9825 -0.00455879 3.05109e-20)
(19.9009 -0.0102634 -3.32484e-20)
(19.7778 -0.0169054 -4.35549e-20)
(19.6033 -0.0240244 -3.35594e-21)
(19.3703 -0.0312295 -2.82423e-21)
(19.0739 -0.0383202 6.34189e-20)
(18.7087 -0.0452648 0)
(18.2659 -0.0521773 0)
(17.7272 -0.0595812 0)
(17.0566 -0.0675921 0)
(16.1967 -0.0762154 0)
(15.13 -0.0726135 0)
(14.1676 -0.0346459 0)
(20.062 0.000500535 0)
(20.0329 -0.00351046 -1.1553e-20)
(19.9866 -0.00809241 1.25248e-20)
(19.9156 -0.0132855 0)
(19.8107 -0.0190009 -3.22496e-20)
(19.6629 -0.0249989 3.48536e-20)
(19.4639 -0.0310969 -3.84912e-20)
(19.2061 -0.0372182 8.38492e-20)
(18.8813 -0.0433923 -2.29005e-20)
(18.4771 -0.0497633 -2.54401e-20)
(17.9725 -0.0568158 0)
(17.3294 -0.0646865 0)
(16.4943 -0.0718891 0)
(15.4638 -0.0676886 -1.18365e-20)
(14.5505 -0.028921 1.43785e-20)
(20.0581 -0.00118415 0)
(20.0308 -0.00481419 0)
(19.9891 -0.00884568 1.11862e-20)
(19.927 -0.0133704 1.36974e-22)
(19.837 -0.0183757 1.19858e-22)
(19.7106 -0.0237259 -2.83928e-20)
(19.5389 -0.0292785 1.53582e-20)
(19.3126 -0.0349496 -1.68254e-20)
(19.0207 -0.04076 -8.79815e-23)
(18.6486 -0.0468635 2.0184e-20)
(18.1726 -0.0536984 0)
(17.5531 -0.0614584 0)
(16.738 -0.068028 -1.50785e-20)
(15.7301 -0.0633338 1.78547e-20)
(14.8406 -0.0258265 0)
(20.0549 -0.00243228 0)
(20.0297 -0.00562638 0)
(19.9923 -0.00929022 1.05552e-20)
(19.9378 -0.0133982 -2.27532e-20)
(19.8597 -0.0179149 2.47751e-20)
(19.7503 -0.0227578 2.18037e-22)
(19.6002 -0.0278322 -2.93416e-20)
(19.399 -0.0330849 1.59003e-20)
(19.1342 -0.038555 -1.75221e-20)
(18.7888 -0.0444153 3.8369e-20)
(18.3373 -0.051063 -2.12211e-20)
(17.7384 -0.0586934 0)
(16.94 -0.0649772 0)
(15.9473 -0.0600293 0)
(15.0701 -0.0238202 0)
(20.0522 -0.00319357 0)
(20.0288 -0.00614299 0)
(19.995 -0.00959399 0)
(19.9465 -0.0133828 0)
(19.8778 -0.0175035 0)
(19.7814 -0.021942 0)
(19.6483 -0.0266568 0)
(19.4674 -0.0316223 0)
(19.2249 -0.0368823 0)
(18.9022 -0.0426071 0)
(18.4718 -0.0491525 0)
(17.891 -0.0566771 0)
(17.1069 -0.0627981 0)
(16.1251 -0.057703 0)
(15.2542 -0.0224228 0)
(20.0498 -0.00383369 0)
(20.0278 -0.0063987 4.35708e-21)
(19.9969 -0.00962321 -4.58837e-21)
(19.9533 -0.0131704 9.96934e-21)
(19.8919 -0.017036 1.71274e-22)
(19.8059 -0.0212414 -2.28591e-20)
(19.6864 -0.0257712 -2.26836e-22)
(19.5221 -0.0306102 -2.59653e-22)
(19.2982 -0.0357941 2.19942e-20)
(18.9949 -0.0414768 1.72086e-22)
(18.583 -0.0479765 -8.91454e-21)
(18.0184 -0.0554118 1.03036e-20)
(17.2469 -0.0614016 -1.74461e-20)
(16.2732 -0.0561743 6.75136e-21)
(15.4053 -0.0214809 0)
(20.0472 -0.00369546 1.93333e-21)
(20.0267 -0.00625072 -2.03207e-21)
(19.9983 -0.00941206 0)
(19.9586 -0.0128418 0)
(19.9031 -0.016605 0)
(19.8255 -0.0207461 -5.25462e-21)
(19.7171 -0.0252589 1.12735e-20)
(19.5664 -0.0301267 -1.23312e-20)
(19.3582 -0.0353686 -2.2911e-22)
(19.0716 -0.0411151 7.42218e-21)
(18.6762 -0.047633 0)
(18.1262 -0.054961 0)
(17.3659 -0.0607305 5.63737e-21)
(16.3991 -0.0552457 -3.14735e-21)
(15.5326 -0.0207779 -3.67134e-21)
(20.0449 -0.00377004 0)
(20.0257 -0.00607262 0)
(19.9993 -0.00907339 0)
(19.9629 -0.0124153 4.13958e-21)
(19.9122 -0.0161575 -4.3292e-21)
(19.8413 -0.0203464 0)
(19.7419 -0.0249808 0)
(19.6026 -0.0300294 5.73568e-21)
(19.4079 -0.0354833 -6.09552e-21)
(19.136 -0.0414365 -7.25206e-21)
(18.7553 -0.0481333 1.19465e-20)
(18.2188 -0.0555617 -4.50372e-21)
(17.4691 -0.0612518 0)
(16.508 -0.0554167 3.21559e-21)
(15.6417 -0.020791 -3.61222e-21)
(20.0427 -0.00312148 0)
(20.0246 -0.00555875 0)
(20 -0.00852075 0)
(19.9662 -0.0118253 3.70337e-21)
(19.9193 -0.0156251 4.35611e-23)
(19.8537 -0.0200023 -8.26454e-21)
(19.7615 -0.0249539 4.39671e-21)
(19.6315 -0.0304031 0)
(19.4481 -0.0362677 0)
(19.1887 -0.0426862 -3.43401e-21)
(18.8208 -0.0498314 3.67647e-21)
(18.2964 -0.0573432 0)
(17.5572 -0.0626505 0)
(16.6025 -0.0561155 0)
(15.737 -0.0205906 0)
(20.0409 -0.00273867 0)
(20.0237 -0.00491787 1.58807e-21)
(20.0006 -0.00772556 -3.22307e-21)
(19.9689 -0.010903 1.64233e-21)
(19.9251 -0.0146645 0)
(19.864 -0.0191566 0)
(19.7781 -0.0245231 3.76589e-21)
(19.6564 -0.0305987 -3.95158e-21)
(19.4833 -0.0369828 0)
(19.2354 -0.0437191 -2.96536e-21)
(18.8804 -0.0517229 -4.38076e-22)
(18.3682 -0.0610334 1.58697e-21)
(17.6383 -0.0673061 2.48953e-21)
(16.6874 -0.0599433 -1.75787e-21)
(15.8211 -0.0235951 1.94924e-21)
(20.039 -0.00182887 0)
(20.0224 -0.00410615 0)
(20.0006 -0.00681781 0)
(19.9707 -0.00984779 0)
(19.9287 -0.0136912 0)
(19.8703 -0.0185263 1.43581e-21)
(19.7873 -0.024617 -1.49463e-21)
(19.6713 -0.0319241 0)
(19.5061 -0.0390672 0)
(19.2665 -0.0465632 0)
(18.9157 -0.0556582 0)
(18.4111 -0.0658189 -2.45222e-21)
(17.6985 -0.0720754 2.6609e-21)
(16.7609 -0.0625721 0)
(15.8959 -0.0230992 0)
(20.0378 -0.000733171 0)
(20.0224 -0.00294853 0)
(20.0023 -0.0055546 0)
(19.9736 -0.00794826 -1.08941e-21)
(19.935 -0.0111667 2.01711e-21)
(19.882 -0.0151153 -9.2204e-22)
(19.8067 -0.0213788 0)
(19.6976 -0.0306385 0)
(19.5461 -0.0383477 0)
(19.3168 -0.0436299 0)
(18.9935 -0.0532233 0)
(18.4972 -0.0745279 0)
(17.7848 -0.0854114 0)
(16.8351 -0.0722943 -1.04654e-21)
(15.9632 -0.0411367 1.15274e-21)
(12.6869 0.0859901 -2.74795e-23)
(14.0917 0.0699754 4.26789e-21)
(15.3428 0.0796041 -3.26791e-21)
(16.2873 0.0659494 1.92169e-20)
(17.0458 0.0553603 -1.62513e-20)
(17.6888 0.0458601 0)
(18.2472 0.0373347 0)
(18.7312 0.0295582 5.90546e-21)
(19.1415 0.0226801 -5.31823e-21)
(19.474 0.0167766 0)
(19.7258 0.0118128 0)
(19.8986 0.00790068 0)
(20.0051 0.0049688 0)
(20.0646 0.00282298 8.07242e-21)
(20.0942 0.00103808 -7.26389e-21)
(13.6353 0.0581258 -6.04231e-20)
(14.7632 0.0838694 -4.57037e-20)
(15.9114 0.0875466 7.39784e-20)
(16.8099 0.0756992 -1.18071e-19)
(17.5172 0.0664822 3.48746e-21)
(18.0981 0.0575929 8.63121e-20)
(18.5866 0.048889 -6.84658e-20)
(18.9973 0.0401154 6.17967e-20)
(19.3351 0.0315588 0)
(19.6018 0.0236397 0)
(19.7995 0.016833 0)
(19.9345 0.0116293 0)
(20.0189 0.00817526 2.05798e-20)
(20.0675 0.00605798 -1.86653e-20)
(20.0929 0.00453467 0)
(14.2115 0.0463922 0)
(15.2285 0.0825689 0)
(16.316 0.0854921 0)
(17.1814 0.0768458 0)
(17.8524 0.0691211 0)
(18.3885 0.0620065 0)
(18.8264 0.0553614 0)
(19.1838 0.0486769 6.06258e-20)
(19.47 0.0418627 -3.32412e-21)
(19.6905 0.034968 -3.84979e-21)
(19.8511 0.0282251 -4.04752e-20)
(19.9603 0.0220734 -2.95403e-20)
(20.0293 0.0169577 2.71007e-20)
(20.07 0.0129724 0)
(20.0919 0.00987923 0)
(14.5941 0.0422919 1.42452e-20)
(15.5634 0.0795373 -1.17083e-20)
(16.6156 0.0829953 0)
(17.456 0.075753 0)
(18.0979 0.0681653 0)
(18.5985 0.0614097 -2.43456e-20)
(18.9961 0.0553024 -2.14962e-20)
(19.312 0.0493673 7.90466e-20)
(19.5588 0.0434817 -3.60781e-20)
(19.7453 0.0376361 3.17832e-20)
(19.88 0.0319395 -2.93985e-20)
(19.9723 0.0266081 0)
(20.032 0.0218755 1.0696e-20)
(20.0685 0.0178038 -9.86703e-21)
(20.0891 0.0143246 0)
(14.8847 0.0404803 0)
(15.8309 0.0766233 1.74887e-20)
(16.8609 0.0805715 -1.47816e-20)
(17.6806 0.0739609 0)
(18.2977 0.0664824 0)
(18.7682 0.0599496 1.91312e-20)
(19.1324 0.0541065 -2.83305e-22)
(19.4144 0.048522 -1.57651e-20)
(19.6293 0.0430667 1.39945e-20)
(19.7887 0.0377451 -2.56544e-20)
(19.9028 0.0326692 3.21681e-22)
(19.9813 0.0279986 3.42467e-22)
(20.0332 0.0238566 9.62744e-21)
(20.066 0.0202347 0)
(20.0855 0.0170702 0)
(15.1148 0.0395127 0)
(16.0495 0.0744564 0)
(17.0642 0.0786817 0)
(17.8664 0.0723681 0)
(18.4617 0.065026 -2.02693e-20)
(18.9064 0.058689 3.64661e-20)
(19.2427 0.0530913 -1.65653e-20)
(19.4969 0.0478444 1.46471e-20)
(19.6864 0.0428023 -2.68158e-20)
(19.8246 0.0379513 4.11219e-22)
(19.9226 0.0333655 2.18391e-20)
(19.99 0.0291441 -1.96225e-20)
(20.0352 0.0253528 8.99542e-21)
(20.0644 0.0220043 0)
(20.0824 0.0191577 0)
(15.2995 0.0389957 0)
(16.2286 0.0730692 0)
(17.2322 0.0774644 0)
(18.0192 0.0713269 0)
(18.5953 0.0641028 0)
(19.0177 0.0578814 0)
(19.3304 0.0524292 0)
(19.5618 0.0474012 0)
(19.7309 0.0426547 0)
(19.8524 0.0381682 0)
(19.938 0.0339785 0)
(19.997 0.0301242 0)
(20.0368 0.0266073 0)
(20.0631 0.0234171 0)
(20.0798 0.0207032 0)
(15.4513 0.0387049 0)
(16.3778 0.0722682 6.60101e-21)
(17.3729 0.0768499 -1.69625e-20)
(18.1466 0.070885 9.99433e-21)
(18.7054 0.0637786 -8.46511e-21)
(19.1082 0.0576238 2.65737e-22)
(19.4008 0.0522326 2.04058e-20)
(19.6131 0.0473002 -4.53112e-22)
(19.7658 0.0426986 -4.23062e-22)
(19.874 0.0384071 -2.00991e-20)
(19.9498 0.0344426 3.72119e-22)
(20.0021 0.0308109 8.45647e-21)
(20.0377 0.0274797 -3.67664e-21)
(20.0616 0.0244148 3.49027e-21)
(20.0772 0.0217975 0)
(15.5794 0.0386789 -3.62999e-21)
(16.5051 0.0719993 -3.04854e-21)
(17.493 0.0768339 5.51452e-21)
(18.2544 0.0710941 0)
(18.7976 0.064124 0)
(19.1831 0.0579956 6.93406e-21)
(19.4583 0.0525836 -3.25049e-22)
(19.6546 0.04763 -1.12023e-20)
(19.7936 0.0430333 1.00145e-20)
(19.8912 0.0387844 -4.61098e-21)
(19.9591 0.0348874 0)
(20.006 0.0313348 0)
(20.0381 0.0280867 0)
(20.06 0.0250955 -1.51664e-21)
(20.0746 0.0225416 1.45898e-21)
(15.6888 0.038644 -3.59152e-21)
(16.6144 0.0724225 3.19005e-21)
(17.596 0.0778228 0)
(18.3463 0.0723255 -4.36577e-21)
(18.8753 0.0653443 1.14795e-20)
(19.2453 0.0590733 -6.93627e-21)
(19.5054 0.0534738 -5.59798e-21)
(19.6881 0.0483524 5.26762e-21)
(19.8159 0.0436332 0)
(19.9048 0.0392855 0)
(19.9663 0.0353218 -3.48663e-21)
(20.0089 0.031738 3.3341e-21)
(20.0382 0.0284961 0)
(20.0584 0.0255526 0)
(20.0722 0.023107 0)
(15.7862 0.0395578 0)
(16.7119 0.0738914 0)
(17.6866 0.0797373 0)
(18.4254 0.0743301 0)
(18.941 0.0673221 3.49125e-21)
(19.2971 0.0608114 -3.26215e-21)
(19.544 0.0548695 0)
(19.7154 0.0494119 0)
(19.8338 0.0443609 3.71465e-21)
(19.9155 0.0397673 -6.82508e-21)
(19.9719 0.0356225 1.8208e-22)
(20.011 0.0319277 2.84477e-21)
(20.0381 0.0286502 0)
(20.0569 0.0257174 0)
(20.0699 0.0232881 0)
(15.8681 0.0387977 2.02667e-21)
(16.793 0.0771652 -1.82372e-21)
(17.7613 0.0846368 2.5542e-21)
(18.492 0.0786504 1.66887e-21)
(18.9968 0.0705649 -5.3982e-22)
(19.3401 0.0631467 -2.99741e-21)
(19.5758 0.0563785 0)
(19.7369 0.0504152 -3.58063e-21)
(19.8474 0.0451721 3.41244e-21)
(19.9235 0.0401932 0)
(19.9758 0.0357306 0)
(20.0122 0.0318673 1.12012e-21)
(20.0376 0.0285172 -2.1547e-21)
(20.0553 0.0256313 1.04046e-21)
(20.0678 0.0233139 0)
(15.9624 0.0441602 0)
(16.8853 0.0854614 0)
(17.8363 0.0901876 2.24394e-21)
(18.5527 0.080768 -2.06906e-21)
(19.0428 0.0735088 0)
(19.3751 0.0658628 0)
(19.6005 0.0581213 0)
(19.7559 0.0520885 0)
(19.8597 0.0457779 -1.07112e-21)
(19.9301 0.0401223 1.02901e-21)
(19.9794 0.0353478 0)
(20.0132 0.0313339 0)
(20.0372 0.0280284 0)
(20.0541 0.0251955 0)
(20.0661 0.0230456 0)
(16.0013 0.0289483 1.61076e-21)
(16.9131 0.0969234 -1.45589e-21)
(17.8532 0.104551 0)
(18.5923 0.0883155 0)
(19.0882 0.0792055 0)
(19.4021 0.0681143 0)
(19.627 0.0581555 0)
(19.7678 0.0516748 0)
(19.8616 0.0471711 0)
(19.9334 0.040167 -6.61018e-22)
(19.9788 0.0348805 1.29034e-21)
(20.0134 0.0306182 -6.33392e-22)
(20.0355 0.0272358 0)
(20.0523 0.0245589 0)
(20.0636 0.0229739 0)
(19.4002 0.140108 0)
(19.9636 0.0879442 0)
(20.0672 0.102018 0)
(20.1205 0.111598 0)
(20.1505 0.121217 0)
(20.1665 0.129951 0)
(20.1728 0.138154 0)
(20.1716 0.145485 0)
(20.1647 0.151385 0)
(20.1536 0.155187 0)
(20.1402 0.1563 0)
(20.1262 0.154456 0)
(20.1133 0.149892 0)
(20.1025 0.143377 0)
(20.0941 0.135074 0)
(17.578 -0.261838 0)
(19.9023 0.196325 0)
(19.9574 0.109282 0)
(20.0022 0.100102 0)
(20.0424 0.103491 0)
(20.0744 0.108512 0)
(20.0986 0.113207 0)
(20.1156 0.117677 0)
(20.126 0.121784 0)
(20.1304 0.125257 0)
(20.1296 0.127814 0)
(20.1249 0.129173 0)
(20.1177 0.129084 0)
(20.1096 0.12752 0)
(20.1016 0.123639 0)
(15.6919 -0.14526 -1.25158e-37)
(19.887 0.217342 0)
(19.983 0.107422 0)
(19.9974 0.108749 0)
(20.0263 0.111522 0)
(20.0543 0.112554 0)
(20.0778 0.113328 0)
(20.0959 0.114491 0)
(20.1086 0.1158 0)
(20.1163 0.11697 0)
(20.1195 0.117789 0)
(20.1189 0.118109 0)
(20.1155 0.117824 0)
(20.1102 0.116982 0)
(20.1041 0.114669 0)
(14.1676 -0.0585755 0)
(19.7483 0.14621 0)
(20.0181 0.0697412 0)
(20.028 0.0868385 0)
(20.0439 0.0897868 0)
(20.0639 0.0907797 0)
(20.0825 0.0921784 0)
(20.0977 0.0943511 0)
(20.1087 0.0969361 0)
(20.1155 0.0996762 0)
(20.1183 0.10231 0)
(20.1179 0.104555 0)
(20.1151 0.106154 0)
(20.1106 0.107069 0)
(20.1052 0.106563 0)
(14.0821 0.0388563 0)
(19.1304 0.0244598 0)
(19.8712 0.03552 0)
(19.9969 0.0619993 0)
(20.0309 0.0660393 0)
(20.0519 0.0686686 0)
(20.0701 0.0717142 0)
(20.0857 0.0753357 0)
(20.0979 0.0793092 0)
(20.1064 0.0834949 0)
(20.1113 0.0876834 0)
(20.113 0.0916073 0)
(20.112 0.0949704 0)
(20.1091 0.097627 0)
(20.1049 0.0989063 0)
(14.7185 0.0719543 0)
(18.3399 -0.0395466 0)
(19.5654 0.0330954 0)
(19.8977 0.0553375 0)
(19.9901 0.0606438 0)
(20.0265 0.0642123 0)
(20.0489 0.0672776 0)
(20.0666 0.0703467 0)
(20.0809 0.073644 0)
(20.092 0.0772077 0)
(20.0997 0.0809167 0)
(20.1042 0.0845827 0)
(20.1058 0.087975 0)
(20.1052 0.0909452 0)
(20.1029 0.0929667 0)
(15.0765 0.032074 4.75638e-36)
(17.8272 -0.0253928 0)
(19.2439 0.0398616 0)
(19.7649 0.055257 0)
(19.9385 0.0635783 0)
(20.0027 0.0681444 0)
(20.0338 0.0708139 0)
(20.054 0.0728057 0)
(20.0695 0.0747996 0)
(20.0816 0.0770176 0)
(20.0907 0.0794579 0)
(20.0967 0.0820264 0)
(20.1001 0.0845707 0)
(20.1011 0.0869643 0)
(20.1004 0.0889059 0)
(15.1224 0.00747932 0)
(17.5321 0.00122403 0)
(18.9715 0.0394357 0)
(19.6218 0.0537629 0)
(19.8786 0.0650083 0)
(19.9789 0.0705889 0)
(20.0232 0.0733947 0)
(20.0475 0.0749926 0)
(20.064 0.0762748 0)
(20.0764 0.077613 0)
(20.0857 0.0791289 0)
(20.0922 0.0808158 0)
(20.0963 0.0825881 0)
(20.0982 0.0843301 0)
(20.0983 0.0859182 0)
(14.9901 0.00275161 -9.3082e-36)
(17.3323 0.0153494 0)
(18.7499 0.0363678 0)
(19.4806 0.051684 0)
(19.8102 0.0639513 0)
(19.9495 0.0703198 0)
(20.0111 0.0736931 0)
(20.042 0.0754704 0)
(20.0605 0.0765898 0)
(20.0733 0.0775489 0)
(20.0827 0.0785781 0)
(20.0894 0.0797446 0)
(20.0938 0.0810221 0)
(20.0961 0.082319 0)
(20.0968 0.0836729 0)
(14.8052 0.00379166 -9.4417e-36)
(17.1508 0.0191563 0)
(18.5614 0.0340138 0)
(19.3471 0.0494778 0)
(19.7369 0.0615808 0)
(19.9143 0.068639 0)
(19.9954 0.0727059 0)
(20.0349 0.0748983 0)
(20.0568 0.0761392 0)
(20.0707 0.0770077 0)
(20.0804 0.0778149 0)
(20.0873 0.0786895 0)
(20.0918 0.0796559 0)
(20.0945 0.0806497 0)
(20.0956 0.0817528 0)
(14.6214 0.00466879 0)
(16.9712 0.0186372 0)
(18.3926 0.0321064 0)
(19.2205 0.0468944 0)
(19.6614 0.0586682 0)
(19.875 0.0663724 0)
(19.9766 0.0710472 0)
(20.0263 0.073698 0)
(20.0525 0.0751888 0)
(20.0681 0.0761246 0)
(20.0784 0.0768676 0)
(20.0855 0.0775954 0)
(20.0903 0.0783715 0)
(20.0931 0.079158 0)
(20.0945 0.0800345 0)
(14.4537 0.00473214 9.44497e-36)
(16.7972 0.0170085 0)
(18.2356 0.0301097 0)
(19.0982 0.0440647 0)
(19.5842 0.0557127 0)
(19.8327 0.063932 0)
(19.9552 0.069073 0)
(20.016 0.0721487 0)
(20.0476 0.0739272 0)
(20.0654 0.0750026 0)
(20.0766 0.0757673 0)
(20.084 0.0764377 0)
(20.089 0.0771098 0)
(20.092 0.0777722 0)
(20.0936 0.0785085 0)
(14.3027 0.00441922 0)
(16.6331 0.0154354 0)
(18.0867 0.0280845 0)
(18.9789 0.041347 0)
(19.5058 0.0529799 0)
(19.788 0.061542 0)
(19.9315 0.067041 0)
(20.0041 0.0704893 0)
(20.0417 0.0725478 0)
(20.0624 0.073785 0)
(20.0747 0.0746094 0)
(20.0826 0.0752688 0)
(20.0878 0.0758883 0)
(20.0911 0.0764832 0)
(20.0928 0.0771575 0)
(14.1649 0.00403882 1.81808e-35)
(16.4799 0.0141985 0)
(17.9445 0.0262271 0)
(18.8623 0.0389137 0)
(19.4268 0.0505067 0)
(19.7415 0.0592721 0)
(19.9059 0.0650739 0)
(19.9909 0.0688441 0)
(20.0351 0.0711588 0)
(20.0589 0.0725592 0)
(20.0727 0.0734589 0)
(20.0813 0.074128 0)
(20.0868 0.0747161 0)
(20.0902 0.0752608 0)
(20.0921 0.0758561 0)
(14.0369 0.00371302 -1.78651e-35)
(16.3367 0.0132271 0)
(17.809 0.024564 0)
(18.7492 0.0366938 0)
(19.3476 0.0481886 0)
(19.6934 0.0570902 0)
(19.8789 0.0632021 0)
(19.9764 0.0672511 0)
(20.0276 0.0697958 0)
(20.0551 0.0713536 0)
(20.0706 0.0723348 0)
(20.0799 0.0730236 0)
(20.0858 0.0735896 0)
(20.0894 0.0740887 0)
(20.0915 0.07461 0)
(13.917 0.00345892 0)
(16.2027 0.0123598 0)
(17.6806 0.0230076 0)
(18.6401 0.034573 0)
(19.2681 0.0459143 0)
(19.6437 0.0549625 0)
(19.8504 0.0614097 0)
(19.9608 0.0657056 0)
(20.0195 0.0684624 0)
(20.0509 0.0701742 0)
(20.0683 0.0712435 0)
(20.0786 0.0719637 0)
(20.0848 0.0725215 0)
(20.0887 0.0729921 0)
(20.091 0.0734862 0)
(13.8052 0.00324512 0)
(16.0773 0.0115144 0)
(17.5592 0.021519 0)
(18.5351 0.0325469 0)
(19.1884 0.0436933 0)
(19.5923 0.0529112 0)
(19.8205 0.0596777 0)
(19.9443 0.0642006 0)
(20.0107 0.0671606 0)
(20.0463 0.0690247 0)
(20.0659 0.0701883 0)
(20.0772 0.0709508 0)
(20.0839 0.0715135 0)
(20.0881 0.0719675 0)
(20.0905 0.0724427 0)
(13.7012 0.00304161 1.71589e-35)
(15.96 0.0107144 0)
(17.4442 0.0201356 0)
(18.4336 0.0306792 0)
(19.1089 0.0416047 0)
(19.5395 0.050967 0)
(19.7893 0.0580016 0)
(19.9267 0.06274 0)
(20.0012 0.0658963 0)
(20.0413 0.0679097 0)
(20.0633 0.06917 0)
(20.0757 0.0699808 0)
(20.083 0.0705549 0)
(20.0874 0.0709945 0)
(20.09 0.0714457 0)
(13.6044 0.00284231 -1.68893e-35)
(15.8502 0.0100155 0)
(17.3351 0.01891 0)
(18.3353 0.0290176 0)
(19.0298 0.0396947 0)
(19.4856 0.0491415 0)
(19.7569 0.0563835 0)
(19.9082 0.0613328 0)
(19.991 0.0646773 0)
(20.036 0.0668342 0)