/*--------------------------------*- C++ -*----------------------------------*\
| =========                 |                                                 |
| \\      /  F ield         | OpenFOAM: The Open Source CFD Toolbox           |
|  \\    /   O peration     | Version:  2.3.0                                 |
|   \\  /    A nd           | Web:      www.OpenFOAM.org                      |
|    \\/     M anipulation  |                                                 |
\*---------------------------------------------------------------------------*/
FoamFile
{
    version     2.0;
    format      ascii;
    class       volVectorField;
    location    "9000";
    object      U;
}
// * * * * * * * * * * * * * * * * * * * * * * * * * * * * * * * * * * * * * //

dimensions      [0 1 -1 0 0 0 0];

internalField   nonuniform List<vector> 
6669
(
(21.4547 10.8007 1.7547e-19)
(21.0633 11.6777 3.39655e-19)
(20.5457 12.5071 -9.72025e-20)
(19.8346 13.2431 -3.73324e-19)
(18.8946 13.8708 2.04371e-19)
(17.7266 14.3993 0)
(16.3572 14.846 8.85073e-19)
(14.819 15.2112 -7.83687e-19)
(13.1521 15.4835 -6.3008e-20)
(11.4383 15.7127 -3.1975e-20)
(9.78091 15.9929 3.45603e-20)
(8.17247 16.1036 2.0452e-18)
(20.6192 10.2281 -1.95976e-19)
(20.0995 10.84 1.05891e-18)
(19.5319 11.4285 2.57135e-19)
(18.9146 11.9675 -3.32182e-18)
(18.2471 12.4259 3.87379e-18)
(17.5332 12.7775 -4.80476e-18)
(16.7806 13.0034 -3.68782e-19)
(16.0017 13.0912 -6.2282e-19)
(15.217 13.0342 5.96261e-18)
(14.4534 12.8358 -2.1613e-18)
(13.7248 12.5092 0)
(13.0242 12.0709 6.42992e-20)
(20.1445 9.7113 -6.55142e-19)
(19.6347 10.1136 4.77906e-19)
(19.0848 10.4647 0)
(18.4954 10.7581 2.39084e-19)
(17.876 10.9894 0)
(17.238 11.1533 -1.1729e-18)
(16.595 11.2458 1.37672e-18)
(15.9609 11.2654 0)
(15.3506 11.2131 -1.84584e-18)
(14.7788 11.0928 1.79512e-18)
(14.2577 10.9105 0)
(13.797 10.6724 0)
(19.8033 9.26967 -4.86633e-19)
(19.3516 9.54557 5.45922e-19)
(18.8861 9.7829 0)
(18.4066 9.96724 3.69265e-19)
(17.9197 10.0984 -1.66017e-18)
(17.431 10.1743 8.09052e-19)
(16.9469 10.1945 -4.86461e-19)
(16.4742 10.16 0)
(16.0197 10.0732 -2.6868e-19)
(15.5904 9.93835 2.902e-19)
(15.1922 9.76093 2.64209e-18)
(14.8302 9.54757 4.82023e-19)
(19.5734 8.86252 -1.69691e-18)
(19.1696 9.04519 1.21541e-18)
(18.7591 9.20157 3.68481e-19)
(18.3423 9.31732 -3.72189e-19)
(17.9236 9.39326 0)
(17.5074 9.42866 4.518e-19)
(17.0981 9.42362 2.57271e-18)
(16.7004 9.37892 -2.08353e-18)
(16.3188 9.29607 2.3847e-18)
(15.9578 9.17761 -2.38935e-18)
(15.6212 9.02706 0)
(15.3124 8.84864 -1.41767e-18)
(19.418 8.49098 0)
(19.0657 8.62377 -1.47211e-18)
(18.7113 8.73118 -2.55728e-20)
(18.3547 8.80644 0)
(17.9977 8.8502 1.88023e-18)
(17.6429 8.86227 -1.88912e-18)
(17.293 8.84278 -5.27961e-19)
(16.9513 8.79207 -5.63565e-19)
(16.621 8.71104 2.99984e-19)
(16.3054 8.60118 1.31019e-18)
(16.0077 8.46474 -1.31956e-18)
(15.7306 8.30459 1.10068e-18)
(19.3012 8.16717 1.44863e-18)
(18.9965 8.26749 2.59034e-21)
(18.6877 8.34348 4.0167e-19)
(18.3764 8.39427 0)
(18.0635 8.41973 -4.77307e-19)
(17.7508 8.41961 5.08911e-19)
(17.4406 8.39391 5.36851e-19)
(17.1356 8.34246 -2.3798e-21)
(16.8388 8.26542 -3.07066e-19)
(16.5529 8.16358 0)
(16.2809 8.03835 -3.4366e-19)
(16.0253 7.89181 0)
(19.2181 7.89214 -1.46643e-18)
(18.9557 7.96903 7.87305e-19)
(18.6849 8.02235 0)
(18.41 8.05702 -9.4288e-19)
(18.1322 8.07098 1.43043e-18)
(17.8522 8.06353 -1.03582e-18)
(17.572 8.03451 -5.53178e-19)
(17.2944 7.98356 5.85986e-19)
(17.0224 7.90997 6.22981e-19)
(16.758 7.81406 -6.59552e-19)
(16.504 7.697 3.50623e-19)
(16.2632 7.56022 7.33059e-19)
(19.17 7.66964 -8.028e-19)
(18.9337 7.71492 4.12415e-19)
(18.6911 7.75243 -4.51713e-19)
(18.4444 7.77682 -4.74757e-19)
(18.1942 7.78391 -1.52172e-18)
(17.9398 7.77245 1.02493e-18)
(17.6819 7.74226 -5.87261e-19)
(17.4245 7.69348 1.15858e-18)
(17.1711 7.62346 6.55155e-19)
(16.9231 7.53134 -6.34889e-19)
(16.6827 7.41979 1.51278e-20)
(16.4531 7.28971 -1.46202e-18)
(19.119 7.45997 4.40484e-19)
(18.9155 7.49281 -4.4006e-19)
(18.6985 7.52229 9.39501e-19)
(18.4756 7.54165 4.92142e-19)
(18.2491 7.5442 5.21927e-19)
(18.0154 7.5305 5.52502e-19)
(17.7747 7.49902 -5.93936e-19)
(17.5308 7.45358 5.90588e-19)
(17.2898 7.39094 0)
(17.0551 7.30243 0)
(16.8262 7.1944 7.01677e-19)
(16.6085 7.06779 0)
(6.54762 15.3172 -2.12592e-18)
(6.34913 13.8552 0)
(6.4738 12.4452 0)
(6.75124 11.1187 5.6273e-18)
(7.14526 9.86206 -5.22738e-18)
(7.65156 8.68152 -3.12234e-18)
(8.24358 7.58324 3.40228e-18)
(8.88956 6.58354 -4.29104e-20)
(9.55818 5.69771 6.88807e-18)
(10.2251 4.93325 -3.0657e-18)
(10.8735 4.26792 -5.66323e-18)
(11.4927 3.65079 2.30764e-19)
(12.3493 11.5418 0)
(11.7952 10.9106 0)
(11.3764 10.2181 0)
(11.0837 9.49575 2.2818e-18)
(10.9038 8.76362 -4.26466e-18)
(10.8285 8.03707 3.19423e-18)
(10.8525 7.32843 -1.4053e-18)
(10.9693 6.64592 0)
(11.1703 5.9943 -1.35555e-18)
(11.4439 5.37598 2.76403e-18)
(11.7732 4.77897 1.33087e-17)
(12.1458 4.1784 -4.76096e-18)
(13.3939 10.3793 -2.59967e-18)
(13.0396 10.0189 1.34183e-18)
(12.7358 9.59014 -5.03265e-19)
(12.4899 9.10605 -9.04726e-20)
(12.3066 8.57837 1.9265e-18)
(12.1888 8.0183 -4.88852e-20)
(12.1374 7.43705 1.10703e-18)
(12.1505 6.84619 -1.15745e-18)
(12.2246 6.25756 1.27318e-18)
(12.3546 5.68203 -2.53457e-18)
(12.5331 5.11944 -4.72142e-18)
(12.7585 4.56091 6.80228e-18)
(14.5008 9.30149 -3.35086e-18)
(14.1961 9.01706 1.58883e-18)
(13.9182 8.69177 -8.09551e-19)
(13.6734 8.33051 -1.82446e-18)
(13.4667 7.93845 3.81256e-18)
(13.3023 7.52107 -2.50059e-18)
(13.1831 7.08379 -2.11186e-18)
(13.1112 6.63197 5.3888e-20)
(13.0876 6.17111 -1.16196e-18)
(13.1123 5.70652 3.72528e-20)
(13.183 5.23667 4.50943e-18)
(13.3021 4.75352 -2.10298e-18)
(15.0289 8.64418 2.16154e-18)
(14.7657 8.40978 -1.58326e-18)
(14.5237 8.1437 1.19416e-18)
(14.3073 7.84885 0)
(14.1199 7.52862 0)
(13.9642 7.18666 0)
(13.8419 6.82671 1.02316e-18)
(13.7543 6.45245 1.05525e-18)
(13.7021 6.06781 -2.11159e-18)
(13.6857 5.67664 2.16959e-18)
(13.7046 5.2786 0)
(13.7614 4.87061 0)
(15.4733 8.12228 -1.8536e-18)
(15.233 7.91595 1.61475e-18)
(15.0107 7.68506 -1.63643e-18)
(14.8094 7.43202 0)
(14.6317 7.15949 0)
(14.4795 6.87023 0)
(14.3539 6.56691 0)
(14.2556 6.25222 -9.77697e-19)
(14.1854 5.9288 9.97873e-21)
(14.1435 5.59913 2.01021e-18)
(14.1304 5.26187 0)
(14.1484 4.91079 0)
(15.7865 7.7253 0)
(15.5634 7.5382 -1.2133e-18)
(15.3571 7.33074 8.22327e-19)
(15.1696 7.10544 0)
(15.0032 6.86473 -8.88798e-19)
(14.8587 6.61103 0)
(14.7371 6.34633 4.77427e-19)
(14.6376 6.07331 4.99946e-19)
(14.5613 5.79416 -9.65324e-19)
(14.508 5.51093 -9.96781e-19)
(14.4784 5.22225 -9.85066e-19)
(14.474 4.92202 -9.74512e-19)
(16.0369 7.40506 7.68106e-19)
(15.8256 7.23186 1.20588e-18)
(15.6308 7.04103 0)
(15.4531 6.83578 -8.57985e-19)
(15.2954 6.61812 8.96905e-19)
(15.1575 6.39084 -1.36209e-18)
(15.0404 6.15419 4.591e-19)
(14.9413 5.91264 0)
(14.8625 5.66725 9.63644e-19)
(14.8028 5.42108 9.48145e-19)
(14.764 5.17217 0)
(14.7447 4.91639 -9.63754e-19)
(16.2359 7.14267 -7.72065e-21)
(16.0335 6.98002 -8.06037e-19)
(15.8479 6.80156 0)
(15.6765 6.61268 8.61297e-19)
(15.5263 6.41111 0)
(15.3942 6.20588 9.02905e-19)
(15.2834 5.98781 -4.59724e-19)
(15.1847 5.77209 4.57893e-19)
(15.1063 5.55074 4.55024e-19)
(15.0431 5.33495 -9.52549e-19)
(15.001 5.11405 1.39491e-18)
(14.9738 4.88762 0)
(16.4015 6.92422 -7.82523e-19)
(16.2082 6.7666 0)
(16.031 6.59384 -4.29596e-19)
(15.8635 6.42302 4.22776e-19)
(15.7184 6.23005 -8.71199e-19)
(15.593 6.04801 4.4879e-19)
(15.4885 5.83724 -1.34984e-18)
(15.3886 5.64894 0)
(15.3117 5.44132 -1.85096e-18)
(15.2471 5.25654 1.37779e-18)
(15.2067 5.0543 -2.26559e-18)
(15.1757 4.84283 -9.09455e-19)
(-4.06837 -2.60244 1.71538e-18)
(-3.3191 -2.64747 2.10313e-18)
(-2.513 -2.68633 -2.39338e-18)
(-1.68543 -2.70767 -1.27109e-18)
(-0.855222 -2.70314 2.17101e-18)
(-0.0200326 -2.66367 -1.50793e-18)
(0.846102 -2.58342 3.17741e-18)
(1.80546 -2.45935 1.58303e-18)
(2.97203 -2.29966 -1.17042e-19)
(4.56111 -2.13079 -3.63255e-18)
(6.9936 -2.01998 0)
(11.1016 -2.33703 0)
(-3.84633 -2.45102 -1.67959e-18)
(-3.07717 -2.43314 9.72071e-19)
(-2.23922 -2.40763 1.04416e-18)
(-1.34042 -2.36097 0)
(-0.373676 -2.28697 5.60301e-19)
(0.684505 -2.18293 -1.14887e-18)
(1.87928 -2.04957 1.10701e-18)
(3.28634 -1.89822 -1.14659e-18)
(5.02062 -1.75993 1.32683e-18)
(7.24543 -1.70145 -1.1417e-18)
(10.163 -1.8422 0)
(13.9011 -2.36064 1.64464e-18)
(-3.5012 -2.20382 8.0215e-19)
(-2.68137 -2.12708 -8.52571e-19)
(-1.77663 -2.04387 -9.32282e-19)
(-0.783675 -1.94165 -4.82785e-19)
(0.312748 -1.82034 4.97847e-19)
(1.54289 -1.6844 -4.59899e-19)
(2.95316 -1.54452 -9.04245e-19)
(4.60721 -1.4221 9.40817e-19)
(6.58457 -1.35595 -2.32755e-19)
(8.97206 -1.40936 0)
(11.8308 -1.67404 1.87567e-19)
(15.1102 -2.24749 1.26954e-18)
(-3.0847 -1.92795 7.29035e-19)
(-2.22127 -1.81164 1.40197e-20)
(-1.26372 -1.69462 8.27804e-19)
(-0.20243 -1.56714 -4.3294e-19)
(0.981105 -1.43317 4.3123e-19)
(2.31621 -1.3009 8.34449e-19)
(3.84265 -1.18495 -2.12658e-20)
(5.60975 -1.10939 1.95962e-19)
(7.67243 -1.11127 -7.39099e-19)
(10.0797 -1.24332 9.0294e-20)
(12.8478 -1.5705 -2.39523e-19)
(15.9144 -2.15062 -4.6796e-19)
(-2.63342 -1.65765 6.60814e-19)
(-1.73907 -1.5264 0)
(-0.748362 -1.39595 0)
(0.352404 -1.26224 0)
(1.58299 -1.13192 -3.71033e-19)
(2.97127 -1.01491 0)
(4.55202 -0.926666 -7.48564e-19)
(6.36543 -0.890552 3.692e-19)
(8.45355 -0.939962 6.72656e-19)
(10.8491 -1.11891 -8.04084e-20)
(13.5548 -1.47765 2.25382e-19)
(16.5083 -2.05612 -1.18807e-18)
(-2.1718 -1.41085 1.23092e-18)
(-1.26605 -1.28312 -1.53282e-20)
(-0.260879 -1.14949 0)
(0.856683 -1.01855 -3.42013e-19)
(2.10751 -0.897707 3.59439e-19)
(3.51858 -0.797314 -3.4088e-19)
(5.12195 -0.732395 2.29447e-21)
(6.95262 -0.725089 -1.54822e-19)
(9.04615 -0.805848 1.60568e-19)
(11.4272 -1.01279 1.53594e-19)
(14.0912 -1.38801 -1.52516e-19)
(16.9728 -1.96292 1.35481e-19)
(-1.7146 -1.19494 -5.6366e-19)
(-0.816412 -1.07914 -3.29252e-19)
(0.188024 -0.948593 -3.24074e-19)
(1.30652 -0.823769 1.51127e-20)
(2.56061 -0.713198 -1.59879e-19)
(3.97727 -0.627336 5.00677e-19)
(5.58733 -0.580128 -3.32149e-19)
(7.42196 -0.592827 2.09976e-20)
(9.51442 -0.694588 4.64939e-19)
(11.8837 -0.919157 -4.2954e-19)
(14.5204 -1.30409 2.98945e-19)
(17.353 -1.8756 -1.33592e-19)
(-1.28408 -1.01017 5.58107e-19)
(-0.399084 -0.908542 0)
(0.597 -0.785238 -2.94797e-19)
(1.70718 -0.667388 3.09775e-19)
(2.9547 -0.566336 -1.49347e-19)
(4.36768 -0.492961 3.03961e-19)
(5.97821 -0.459094 -1.55158e-19)
(7.80983 -0.485206 -2.85224e-19)
(9.89746 -0.602209 5.43167e-21)
(12.2556 -0.838625 0)
(14.8685 -1.22917 0)
(17.6603 -1.79522 -2.37184e-19)
(-0.889267 -0.84836 -2.60159e-19)
(-0.0268842 -0.76399 1.37076e-19)
(0.958378 -0.650928 4.29853e-19)
(2.05336 -0.539012 0)
(3.28557 -0.445336 0)
(4.68755 -0.382993 0)
(6.29666 -0.359586 0)
(8.11856 -0.389809 0)
(10.2053 -0.516337 0)
(12.5654 -0.759172 -2.43272e-19)
(15.1762 -1.1554 5.03034e-19)
(17.9569 -1.72396 4.61e-19)
(-0.455233 -0.741063 -4.84867e-19)
(0.359445 -0.660927 2.6392e-19)
(1.3224 -0.554668 -1.41268e-19)
(2.41187 -0.448501 -2.67004e-19)
(3.63517 -0.365234 1.35592e-19)
(5.01753 -0.310968 1.28032e-19)
(6.64372 -0.307231 -1.31936e-19)
(8.45707 -0.340143 2.63562e-19)
(10.518 -0.474225 1.18316e-19)
(12.8417 -0.712305 -3.67574e-19)
(15.3825 -1.09057 -2.38832e-19)
(18.0901 -1.62603 -4.37387e-19)
(18.0503 -4.1259 -2.30455e-20)
(21.8377 -5.62013 0)
(23.0105 -6.07935 -3.34828e-18)
(23.4318 -6.18035 6.69072e-19)
(23.59 -6.17228 1.74936e-18)
(23.5818 -6.09656 4.92732e-20)
(23.482 -5.97581 -5.01327e-20)
(23.3331 -5.82592 0)
(23.1561 -5.65629 2.34882e-19)
(22.9613 -5.47166 -1.29354e-18)
(22.7537 -5.27433 9.85062e-19)
(22.5318 -5.06591 -1.3446e-18)
(18.1046 -3.47941 -1.83766e-18)
(21.9694 -4.93207 -1.64417e-18)
(23.5558 -5.57129 1.50692e-18)
(23.8627 -5.64887 -5.4035e-20)
(23.9158 -5.64121 -8.09545e-20)
(23.847 -5.59012 -9.43133e-20)
(23.7134 -5.50957 0)
(23.5446 -5.40753 0)
(23.3553 -5.28814 5.19903e-20)
(23.1526 -5.15406 2.10318e-19)
(22.9405 -5.00535 0)
(22.7202 -4.83949 6.48288e-19)
(18.6252 -3.19134 -1.56077e-18)
(22.018 -4.41435 1.03327e-18)
(23.7823 -5.14478 -2.23731e-18)
(24.0403 -5.23906 1.03992e-18)
(24.0242 -5.22578 7.78542e-20)
(23.9289 -5.18507 2.81481e-19)
(23.7911 -5.12586 -2.14307e-19)
(23.6289 -5.05222 0)
(23.4507 -4.96565 -2.83925e-19)
(23.2603 -4.86724 5.1122e-19)
(23.0592 -4.75629 -1.634e-19)
(22.8478 -4.63006 -2.72628e-19)
(19.148 -3.00666 1.32865e-18)
(22.1819 -4.06028 2.73507e-19)
(23.9219 -4.78751 -7.59885e-19)
(24.1646 -4.90777 9.58631e-19)
(24.0987 -4.89182 4.29038e-19)
(23.9826 -4.85905 -9.66224e-20)
(23.8396 -4.81354 -2.42278e-19)
(23.6809 -4.75765 4.73323e-20)
(23.5114 -4.69197 -4.91585e-20)
(23.3326 -4.61657 1.67222e-19)
(23.1439 -4.53006 -2.30148e-19)
(22.9446 -4.43252 2.85805e-19)
(19.5707 -2.86194 6.12161e-19)
(22.3628 -3.8079 -1.28799e-19)
(23.999 -4.49085 7.07177e-19)
(24.2347 -4.62723 -9.93103e-19)
(24.1395 -4.6108 0)
(24.0119 -4.58432 -7.40199e-20)
(23.8672 -4.54865 2.56833e-20)
(23.7123 -4.50541 -1.04351e-20)
(23.5503 -4.45475 -2.94597e-19)
(23.3818 -4.39617 1.5947e-19)
(23.2055 -4.32953 7.00256e-19)
(23.0209 -4.25949 9.06093e-20)
(19.9145 -2.73526 0)
(22.5264 -3.60776 5.36803e-19)
(24.0393 -4.23961 -8.31414e-19)
(24.2602 -4.38282 7.39825e-19)
(24.148 -4.36943 -2.65345e-19)
(24.0149 -4.3489 0)
(23.8715 -4.3213 -7.08613e-21)
(23.7221 -4.2879 -1.75936e-20)
(23.5682 -4.24875 -2.06305e-19)
(23.4101 -4.20323 4.26861e-19)
(23.2467 -4.15223 -6.0161e-19)
(23.0772 -4.10258 -3.01931e-19)
(20.2046 -2.62346 0)
(22.6717 -3.44179 -1.11472e-19)
(24.0639 -4.02668 9.71647e-20)
(24.2614 -4.17025 2.49505e-19)
(24.1389 -4.1619 -3.91014e-19)
(24.0033 -4.14713 2.14214e-19)
(23.8624 -4.12637 -4.95219e-20)
(23.7183 -4.1006 -5.31282e-21)
(23.572 -4.06999 1.33164e-19)
(23.4235 -4.034 -4.83934e-20)
(23.2722 -3.99398 1.09011e-19)
(23.1172 -3.95757 -2.45587e-19)
(20.437 -2.5187 -2.16191e-19)
(22.7846 -3.29149 0)
(24.0731 -3.8385 0)
(24.2477 -3.98364 2.18519e-19)
(24.1206 -3.98324 -2.08445e-19)
(23.9851 -3.97432 0)
(23.8475 -3.95912 -1.01908e-20)
(23.7086 -3.93885 5.4641e-20)
(23.5693 -3.91445 -1.39161e-19)
(23.4296 -3.88524 8.47736e-20)
(23.2891 -3.85335 3.61612e-19)
(23.1461 -3.8267 3.39117e-20)
(20.6838 -2.43779 3.9307e-19)
(22.9091 -3.179 -3.62091e-19)
(24.0802 -3.68976 4.35754e-19)
(24.2223 -3.82807 -2.669e-19)
(24.0943 -3.83195 -1.0479e-19)
(23.9617 -3.82675 9.94483e-20)
(23.8294 -3.81542 0)
(23.6947 -3.79876 -6.2754e-21)
(23.561 -3.77852 5.91785e-20)
(23.4289 -3.75339 -2.90228e-19)
(23.297 -3.72632 1.99487e-19)
(23.1648 -3.70803 1.42494e-19)
(20.7244 -2.2711 2.33174e-19)
(22.8873 -2.97256 1.48975e-19)
(24.0397 -3.50936 -2.80328e-19)
(24.1899 -3.68185 8.58197e-20)
(24.0703 -3.70248 -9.2264e-20)
(23.94 -3.70252 3.81617e-20)
(23.8144 -3.69275 -2.48342e-20)
(23.6796 -3.67524 4.98224e-20)
(23.5572 -3.65912 6.5405e-20)
(23.4328 -3.63682 -7.9614e-20)
(23.3085 -3.61666 0)
(23.1839 -3.6135 -1.47234e-19)
(0.706488 1.94088 2.4405e-19)
(2.15115 2.00089 -2.18147e-19)
(4.25739 2.73914 -1.84775e-19)
(6.67493 3.91099 1.83058e-19)
(9.19188 5.23311 -2.84107e-19)
(11.7272 6.64217 0)
(14.2462 8.04723 0)
(16.6316 9.31351 -1.93292e-18)
(18.7228 10.2941 2.04682e-18)
(20.374 10.8671 0)
(21.5093 10.9696 -3.67829e-19)
(22.173 10.6043 0)
(-9.88457 2.79777 -4.61051e-17)
(-8.90221 2.68585 4.63475e-20)
(-7.34821 2.5564 1.77304e-17)
(-5.381 2.65068 0)
(-2.71081 2.91651 -1.13093e-18)
(0.744988 3.41728 -7.37731e-18)
(4.79483 4.24097 5.02349e-18)
(9.12053 5.39574 9.43429e-19)
(13.3379 6.77176 -2.49412e-18)
(17.0568 8.13162 2.00389e-18)
(19.9493 9.18991 1.49762e-18)
(21.8344 9.6843 0)
(-4.6243 1.53486 0)
(-5.20745 1.52278 1.14717e-18)
(-5.15744 1.46707 7.38949e-19)
(-4.68209 1.36026 -1.06656e-18)
(-3.78989 1.3158 -2.35137e-20)
(-2.37441 1.43025 1.26214e-18)
(-0.248244 1.80255 0)
(2.88067 2.53177 5.85451e-20)
(7.01926 3.68647 -1.95384e-18)
(11.7168 5.1902 2.97289e-18)
(16.2592 6.78919 -1.78205e-18)
(19.9177 8.15457 0)
(-5.82871 1.86783 -7.24582e-17)
(-6.21659 1.9956 -2.67013e-18)
(-6.11424 1.96724 8.71651e-19)
(-5.72348 1.87943 1.25124e-18)
(-5.06014 1.76322 1.83269e-18)
(-4.08088 1.65784 -1.10218e-17)
(-2.68262 1.62564 9.17058e-18)
(-0.643803 1.76103 -1.96929e-18)
(2.35617 2.20017 -2.96208e-18)
(6.53998 3.13684 0)
(11.5678 4.54019 -2.75358e-18)
(16.6204 6.31307 0)
(-5.19052 1.68333 -1.18617e-18)
(-5.74307 1.83519 1.06047e-20)
(-5.80497 1.85249 -2.99737e-17)
(-5.59394 1.798 2.12945e-17)
(-5.16747 1.7081 0)
(-4.50594 1.6049 0)
(-3.55223 1.51707 2.4529e-18)
(-2.17353 1.48961 0)
(-0.127324 1.60935 0)
(2.93414 2.03548 0)
(7.29108 2.91904 3.47379e-18)
(12.7212 4.57702 -2.26988e-18)
(-5.25033 1.69898 1.22797e-18)
(-5.84462 1.88438 1.31481e-20)
(-5.95582 1.92497 -9.92202e-19)
(-5.80101 1.89267 -1.39339e-18)
(-5.45594 1.82001 -2.07849e-18)
(-4.92086 1.72276 0)
(-4.16329 1.61634 -2.58578e-18)
(-3.10559 1.52647 0)
(-1.57948 1.49557 0)
(0.696183 1.61733 0)
(4.10412 2.01784 4.52493e-18)
(9.03852 3.22362 2.71669e-18)
(-5.14291 1.66864 1.2416e-18)
(-5.79274 1.87452 2.99913e-18)
(-5.95911 1.93516 0)
(-5.85935 1.91913 1.45358e-18)
(-5.58198 1.86138 2.17792e-18)
(-5.13969 1.77612 0)
(-4.51287 1.67453 0)
(-3.65441 1.57161 0)
(-2.4521 1.48959 -3.80501e-18)
(-0.6881 1.47991 0)
(1.95778 1.61242 -1.60922e-17)
(6.05576 2.34788 3.47475e-18)
(-5.13453 1.66659 -2.51593e-18)
(-5.82631 1.89176 -1.52747e-18)
(-6.02902 1.9674 -1.03873e-18)
(-5.96332 1.96432 0)
(-5.72664 1.91858 0)
(-5.33986 1.8438 0)
(-4.79247 1.74904 0)
(-4.05379 1.64414 0)
(-3.04872 1.54337 1.84053e-21)
(-1.61594 1.47454 6.76048e-18)
(0.507466 1.48362 1.19409e-17)
(3.81627 1.87454 -8.10173e-18)
(-5.12546 1.66535 1.26605e-18)
(-5.85755 1.90666 4.76448e-17)
(-6.09002 1.99375 -3.26478e-17)
(-6.05233 2.00041 -1.5084e-18)
(-5.84791 1.96396 1.59278e-17)
(-5.50313 1.89815 -2.8417e-17)
(-5.01377 1.81094 2.85138e-18)
(-4.35815 1.70978 9.23014e-18)
(-3.48467 1.60442 -3.84553e-18)
(-2.27463 1.51064 1.01259e-17)
(-0.516256 1.45737 -3.91739e-20)
(2.17993 1.63214 -2.48428e-20)
(-5.14165 1.67162 8.21792e-17)
(-5.90767 1.9264 -4.78027e-17)
(-6.16304 2.02187 3.50518e-17)
(-6.14749 2.0361 -6.54022e-21)
(-5.96779 2.00679 -1.61729e-17)
(-5.6544 1.94785 0)
(-5.20777 1.86667 -2.88708e-18)
(-4.61188 1.7695 0)
(-3.83 1.66356 -7.77218e-18)
(-2.77345 1.55911 3.36537e-18)
(-1.2729 1.47236 -6.00617e-18)
(0.98404 1.53486 -1.02006e-17)
(-5.16947 1.68136 7.94012e-17)
(-5.96003 1.94541 -5.09209e-17)
(-6.23582 2.04771 -3.52725e-17)
(-6.23918 2.06779 2.62333e-17)
(-6.07971 2.04371 2.33698e-18)
(-5.79134 1.98965 0)
(-5.37813 1.91269 -8.77838e-18)
(-4.82814 1.81828 9.51142e-18)
(-4.11389 1.71196 -7.83614e-18)
(-3.16736 1.60029 2.22166e-20)
(-1.85146 1.48824 5.9283e-18)
(0.0908312 1.44578 5.34567e-18)
(-5.20635 1.6938 -8.02369e-17)
(-6.01544 1.96466 1.54083e-18)
(-6.30907 2.07273 -3.43458e-17)
(-6.32851 2.09756 5.88688e-21)
(-6.18555 2.07752 -2.35269e-18)
(-5.91711 2.02714 7.94268e-21)
(-5.53013 1.9534 -5.91671e-18)
(-5.01595 1.86113 1.16879e-20)
(-4.35299 1.7548 3.97023e-18)
(-3.48753 1.63916 1.92351e-20)
(-2.30476 1.51616 5.83349e-18)
(-0.580559 1.43325 -1.03155e-17)
(-5.24792 1.70761 -7.97126e-17)
(-6.07165 1.98367 4.91618e-17)
(-6.38113 2.09679 0)
(-6.41452 2.12567 -2.65844e-17)
(-6.28543 2.10894 1.9021e-17)
(-6.03334 2.06159 -1.3058e-17)
(-5.66766 1.99061 1.79583e-17)
(-5.18248 1.90053 -7.28236e-18)
(-4.56046 1.79536 -3.9731e-18)
(-3.7589 1.6792 -3.32524e-18)
(-2.68284 1.55303 5.77448e-18)
(-1.14577 1.44717 -5.03229e-18)
(-5.29242 1.7222 -8.15392e-22)
(-6.12829 2.00242 -2.47372e-21)
(-6.45201 2.12005 -6.89702e-17)
(-6.49755 2.15238 2.51337e-17)
(-6.38021 2.13839 -1.91282e-17)
(-6.14174 2.09348 1.3159e-17)
(-5.79359 2.02472 -3.01656e-18)
(-5.33228 1.93639 7.3496e-18)
(-4.74389 1.83211 -1.60696e-17)
(-3.99461 1.71552 1.67269e-17)
(-3.00598 1.5881 -1.14602e-17)
(-1.61955 1.47294 4.96626e-18)
(-5.33808 1.73712 -1.57147e-16)
(-6.18501 2.02107 2.34019e-21)
(-6.52139 2.14269 3.81384e-21)
(-6.57754 2.17801 4.12316e-21)
(-6.47022 2.1663 5.16512e-21)
(-6.2431 2.12337 1.70113e-17)
(-5.90933 2.05634 -1.21436e-17)
(-5.46739 1.96923 1.7285e-17)
(-4.90607 1.86517 -8.09546e-18)
(-4.19854 1.74699 -3.34756e-18)
(-3.28045 1.61523 1.13996e-17)
(-2.01972 1.48436 5.8904e-21)
(-5.38458 1.75234 -1.55972e-16)
(-6.24212 2.0399 2.28952e-21)
(-6.58969 2.16513 3.7357e-21)
(-6.65509 2.20313 5.20588e-17)
(-6.55636 2.1935 -3.85372e-17)
(-6.3388 2.15241 2.84566e-17)
(-6.01689 2.08707 -1.22086e-17)
(-5.59057 2.00133 2.4829e-18)
(-5.05059 1.89797 1.21998e-17)
(-4.37511 1.77919 -1.3449e-17)
(-3.51049 1.6447 5.68225e-18)
(-2.34441 1.50172 -9.71727e-18)
(-5.43247 1.76806 0)
(-6.30018 2.05911 0)
(-6.65759 2.1876 0)
(-6.7311 2.22808 -2.52445e-17)
(-6.63986 2.22041 4.10062e-17)
(-6.43058 2.18112 -1.33137e-17)
(-6.11883 2.11756 -1.53034e-17)
(-5.70569 2.03355 9.97583e-18)
(-5.18334 1.93173 -8.16898e-18)
(-4.5334 1.81408 -1.34691e-17)
(-3.71008 1.6803 1.69666e-17)
(-2.61552 1.53301 4.78414e-18)
(-5.48218 1.78442 2.29177e-16)
(-6.35921 2.07865 -9.45272e-17)
(-6.72537 2.21004 3.43025e-17)
(-6.80606 2.25271 0)
(-6.72144 2.24678 3.37778e-17)
(-6.51951 2.20914 -1.71436e-17)
(-6.21684 2.1473 3.06012e-18)
(-5.81545 2.06516 -6.97698e-21)
(-5.30877 1.96544 -3.7706e-21)
(-4.68119 1.85046 1.34832e-17)
(-3.89392 1.72112 -1.12727e-17)
(-2.86287 1.5843 -4.7368e-18)
(-5.53342 1.80124 -7.50056e-17)
(-6.41879 2.09825 -4.92324e-17)
(-6.79283 2.23217 3.41991e-17)
(-6.87988 2.27668 0)
(-6.80114 2.27218 2.17071e-17)
(-6.60578 2.23584 -1.91042e-18)
(-6.31122 2.1753 -1.22831e-17)
(-5.92033 2.09444 1.00095e-17)
(-5.4276 1.99583 -1.23094e-17)
(-4.81971 1.88138 3.37062e-18)
(-4.06405 1.7502 -1.12413e-17)
(-3.08784 1.6026 0)
(-5.58577 1.81839 1.50025e-16)
(-6.47852 2.11782 -4.89532e-17)
(-6.85964 2.25394 1.02256e-16)
(-6.95234 2.30002 -5.03033e-17)
(-6.87884 2.29672 -2.41092e-18)
(-6.68935 2.2615 1.90365e-18)
(-6.40206 2.20213 -1.53531e-17)
(-6.02052 2.12252 1.00233e-17)
(-5.54006 2.02519 4.10839e-18)
(-4.94894 1.91212 0)
(-4.21847 1.7838 2.33839e-21)
(-3.28073 1.64402 4.66635e-18)
(-5.6388 1.83569 1.17181e-18)
(-6.5379 2.13711 9.5883e-17)
(-6.92547 2.27511 -6.79444e-17)
(-7.02321 2.32246 0)
(-6.95442 2.32007 2.16616e-17)
(-6.77027 2.28567 -1.71299e-17)
(-6.48963 2.22713 -6.13792e-18)
(-6.11665 2.14834 5.32794e-21)
(-5.64737 2.05168 -8.21044e-18)
(-5.07144 1.93898 7.26286e-21)
(-4.36445 1.81063 8.53152e-22)
(-3.46948 1.66847 4.60853e-18)
(-5.69189 1.85299 0)
(-6.59637 2.15601 0)
(-6.98982 2.29564 3.49112e-17)
(-7.09207 2.34401 -1.56868e-18)
(-7.02752 2.34231 -1.68269e-17)
(-6.84825 2.30855 3.23169e-17)
(-6.5737 2.25066 -4.29589e-17)
(-6.20853 2.17256 1.00212e-17)
(-5.74927 2.07657 1.23192e-17)
(-5.18641 1.96444 -3.37914e-18)
(-4.49827 1.83651 -5.56615e-18)
(-3.63436 1.69286 7.64842e-21)
(-5.74444 1.87004 0)
(-6.65341 2.17432 0)
(-7.05227 2.31533 -3.37359e-17)
(-7.15858 2.36447 2.65507e-17)
(-7.09787 2.36323 3.59977e-17)
(-6.92309 2.32985 -2.84912e-17)
(-6.65422 2.27235 -1.48475e-21)
(-6.29638 2.19465 0)
(-5.84657 2.09903 4.10316e-18)
(-5.29602 1.98723 6.73191e-18)
(-4.62552 1.85995 -1.1095e-17)
(-3.78989 1.71985 5.75764e-22)
(-5.79588 1.88667 1.14567e-18)
(-6.70876 2.19194 -1.38403e-21)
(-7.11254 2.33414 -1.05266e-18)
(-7.22244 2.38386 -2.50502e-21)
(-7.16519 2.38292 -1.67738e-17)
(-6.9945 2.34975 -3.41435e-17)
(-6.73083 2.29242 5.50887e-21)
(-6.37968 2.2148 2.25228e-17)
(-5.93846 2.11903 8.20554e-18)
(-5.39893 2.00645 -1.68298e-17)
(-4.74374 1.8764 5.53518e-18)
(-3.93165 1.72604 0)
(-5.84595 1.90283 7.16819e-17)
(-6.76219 2.20892 0)
(-7.17044 2.35215 1.04704e-18)
(-7.28352 2.40231 1.55436e-18)
(-7.22938 2.40156 -4.7836e-18)
(-7.06246 2.36853 3.78903e-18)
(-6.80362 2.31138 1.53015e-17)
(-6.45871 2.23398 -1.00026e-17)
(-6.02553 2.13845 -9.1071e-22)
(-5.49631 2.02634 0)
(-4.8546 1.89854 0)
(-4.0601 1.75575 4.47653e-18)
(-5.89429 1.91842 1.12966e-18)
(-6.81358 2.2252 -4.59751e-17)
(-7.22583 2.36929 3.23424e-17)
(-7.3417 2.41971 -2.63549e-17)
(-7.29035 2.41901 1.91006e-17)
(-7.12688 2.38596 1.3242e-17)
(-6.87251 2.32874 -1.52875e-17)
(-6.5334 2.25117 -1.24899e-17)
(-6.10774 2.1552 1.64014e-17)
(-5.58843 2.04212 -1.00863e-17)
(-4.96124 1.91244 -5.50591e-18)
(-4.1933 1.76515 8.9642e-18)
(-5.94098 1.93347 -2.5736e-22)
(-6.86303 2.24094 -4.57339e-17)
(-7.27883 2.3858 3.32576e-17)
(-7.39706 2.43642 0)
(-7.34818 2.43574 4.76459e-18)
(-7.18784 2.4027 -1.51092e-17)
(-6.93752 2.34549 1.52678e-17)
(-6.60359 2.2679 2.49527e-18)
(-6.18442 2.17176 4.09685e-18)
(-5.67311 2.05806 3.35664e-18)
(-5.05625 1.92651 -1.09918e-17)
(-4.3028 1.7758 4.50533e-18)
(-5.98593 1.94789 -2.22856e-18)
(-6.91097 2.25609 -1.42154e-18)
(-7.32982 2.40164 3.3129e-17)
(-7.44999 2.4524 -2.62034e-17)
(-7.40328 2.45173 -2.13891e-17)
(-7.24586 2.41873 2.21232e-21)
(-6.99942 2.36163 2.42069e-21)
(-6.67049 2.28419 7.47837e-18)
(-6.25768 2.18827 4.09141e-18)
(-5.75429 2.07505 6.70903e-18)
(-5.14706 1.94516 -5.48211e-18)
(-4.4059 1.79585 4.4302e-18)
(-6.02928 1.96189 7.19366e-17)
(-6.95769 2.27101 7.70429e-22)
(-7.37877 2.41694 0)
(-7.50045 2.46768 8.34469e-22)
(-7.45564 2.46693 -2.13292e-17)
(-7.30092 2.4339 1.50485e-17)
(-7.05813 2.3768 3.0422e-18)
(-6.73395 2.29934 0)
(-6.32733 2.20332 -2.04359e-17)
(-5.83221 2.0899 2.01062e-17)
(-5.23679 1.96009 -1.09461e-17)
(-4.51426 1.81465 2.54735e-21)
(-6.07163 1.9756 -1.09869e-18)
(-7.00283 2.28555 9.44537e-22)
(-7.42578 2.4318 1.02569e-18)
(-7.54856 2.48243 1.02703e-21)
(-7.50535 2.48158 2.36322e-18)
(-7.35305 2.4485 0)
(-7.11355 2.39137 -1.51803e-17)
(-6.79357 2.31382 9.93813e-18)
(-6.39219 2.21738 -4.08176e-18)
(-5.90393 2.10264 3.35017e-18)
(-5.31877 1.96883 -5.45668e-18)
(-4.61281 1.81694 -4.25447e-18)
(-6.11304 1.9889 2.18311e-18)
(-7.0472 2.29974 1.39847e-18)
(-7.47148 2.44632 -2.04198e-18)
(-7.59486 2.49685 1.52422e-18)
(-7.55295 2.49595 0)
(-7.40284 2.46299 1.49559e-17)
(-7.16638 2.40611 -9.08396e-18)
(-6.85019 2.32885 0)
(-6.4533 2.23269 -4.0744e-18)
(-5.97025 2.11821 2.33829e-17)
(-5.39129 1.98524 -7.97416e-21)
(-4.69462 1.83142 -6.32243e-21)
(-6.15374 2.00207 -1.08473e-18)
(-7.09151 2.31408 0)
(-7.5163 2.46078 1.01616e-18)
(-7.63979 2.51109 0)
(-7.59889 2.51015 -2.34274e-18)
(-7.45085 2.47734 0)
(-7.21736 2.42079 -1.80977e-17)
(-6.90488 2.34396 2.47192e-18)
(-6.51234 2.24826 8.12349e-18)
(-6.03435 2.13415 0)
(-5.46179 2.00146 1.6312e-17)
(-4.77577 1.84845 -1.75317e-17)
(-6.19435 2.01532 -1.3783e-16)
(-7.13625 2.32874 4.41887e-17)
(-7.56046 2.4752 1.00947e-18)
(-7.68356 2.5252 -1.50808e-18)
(-7.64345 2.52419 -1.63273e-17)
(-7.49736 2.4916 1.48366e-17)
(-7.2668 2.43548 2.5913e-21)
(-6.95798 2.35926 -2.46157e-18)
(-6.56966 2.26424 -8.09091e-18)
(-6.09636 2.15085 3.32404e-18)
(-5.52921 2.01887 1.08363e-17)
(-4.85063 1.86686 4.36692e-18)
(-6.23578 2.02891 -1.0687e-18)
(-7.18108 2.34357 0)
(-7.60411 2.4896 -9.12329e-22)
(-7.72634 2.53914 1.35961e-21)
(-7.68681 2.53802 0)
(-7.54262 2.50564 0)
(-7.31501 2.45 2.99221e-18)
(-7.00995 2.37445 2.44888e-18)
(-6.62595 2.28024 -8.05856e-18)
(-6.15741 2.16773 3.30886e-18)
(-5.59565 2.0368 -5.40109e-18)
(-4.92432 1.88638 -8.68382e-18)
(-6.27812 2.04276 -6.58059e-17)
(-7.22617 2.35845 4.4962e-17)
(-7.64729 2.50383 -1.99451e-18)
(-7.76819 2.55275 1.49169e-18)
(-7.72902 2.55143 -2.30622e-18)
(-7.58667 2.51925 0)
(-7.36205 2.4641 0)
(-7.06081 2.38924 -2.26503e-21)
(-6.68119 2.29584 8.02167e-18)
(-6.21745 2.18417 -1.31756e-17)
(-5.66116 2.05407 4.51329e-21)
(-4.99754 1.90461 4.31825e-18)
(-6.32133 2.05678 -1.05416e-18)
(-7.27154 2.37321 -1.33348e-21)
(-7.69015 2.51782 9.76621e-22)
(-7.80919 2.56596 -1.48048e-18)
(-7.77013 2.56439 -1.60482e-17)
(-7.62954 2.53237 1.45987e-17)
(-7.40791 2.47771 -1.18339e-17)
(-7.11051 2.40353 9.6993e-18)
(-6.73525 2.31089 0)
(-6.27611 2.19988 -6.55381e-18)
(-5.72476 2.07003 5.35154e-18)
(-5.06787 1.91946 4.28051e-18)
(-6.36489 2.07107 0)
(-7.31755 2.38837 -1.34435e-18)
(-7.73255 2.53177 1.03174e-21)
(-7.84922 2.57892 1.47149e-18)
(-7.81008 2.57698 0)
(-7.67122 2.5451 0)
(-7.45265 2.49092 0)
(-7.15919 2.41748 -2.41173e-18)
(-6.78832 2.32573 3.96641e-18)
(-6.33364 2.21563 0)
(-5.78654 2.08658 0)
(-5.1341 1.93682 -8.52584e-18)
(-6.40929 2.0857 -6.64408e-17)
(-7.36402 2.40373 1.10849e-21)
(-7.77421 2.54542 3.12339e-17)
(-7.88805 2.59137 0)
(-7.84873 2.58896 -2.25946e-18)
(-7.71164 2.55715 0)
(-7.49628 2.50345 2.91869e-18)
(-7.20699 2.43078 2.39324e-18)
(-6.84083 2.33999 -7.88628e-18)
(-6.39092 2.23098 -3.23866e-18)
(-5.8483 2.10319 -5.28649e-18)
(-5.2003 1.95518 3.63935e-21)
(-6.45517 2.10077 -6.59221e-17)
(-7.40981 2.41879 8.7602e-22)
(-7.81474 2.55854 3.1958e-17)
(-7.92544 2.60308 0)
(-7.88583 2.60007 2.77712e-21)
(-7.75059 2.56824 -1.429e-17)
(-7.53859 2.51493 -2.89828e-18)
(-7.25372 2.44294 -3.99805e-22)
(-6.8926 2.35302 7.28041e-21)
(-6.44788 2.24506 6.82616e-21)
(-5.91034 2.11858 5.25576e-18)
(-5.2682 1.97411 4.43965e-21)
(-6.50165 2.11588 -1.30821e-16)
(-7.45496 2.43333 4.20491e-17)
(-7.85395 2.57093 0)
(-7.96108 2.61386 -2.29756e-17)
(-7.9211 2.61012 1.78018e-17)
(-7.78777 2.57818 -1.41751e-17)
(-7.57929 2.52517 2.87519e-18)
(-7.29907 2.45373 4.71837e-18)
(-6.94323 2.36448 1.33707e-21)
(-6.50386 2.25704 3.19932e-18)
(-5.97125 2.12994 4.29788e-21)
(-5.3339 1.98053 4.14527e-18)
(-6.54785 2.13102 0)
(-7.4992 2.44763 0)
(-7.8912 2.58256 -3.14374e-17)
(-7.99443 2.6236 2.27781e-17)
(-7.95408 2.61897 2.20739e-18)
(-7.8228 2.5868 -1.4055e-17)
(-7.61809 2.53401 8.55319e-18)
(-7.34286 2.46313 -4.67781e-18)
(-6.99279 2.37472 -3.85425e-18)
(-6.55939 2.26854 -3.16421e-18)
(-6.03192 2.14399 5.17592e-18)
(-5.39684 2.0016 -6.59151e-22)
(-6.59366 2.14601 -1.29796e-16)
(-7.5419 2.46128 7.11221e-22)
(-7.92575 2.59295 2.43467e-21)
(-8.02482 2.63186 2.25734e-17)
(-7.98415 2.62616 -2.18381e-18)
(-7.85509 2.59356 0)
(-7.65437 2.54072 0)
(-7.38446 2.47001 -2.32048e-18)
(-7.04064 2.38183 -3.81658e-18)
(-6.61405 2.27576 5.11176e-21)
(-6.09375 2.15077 -5.12991e-18)
(-5.46774 2.00766 2.95573e-22)
(-6.63931 2.16099 -6.28722e-17)
(-7.58155 2.47395 4.0903e-22)
(-7.95674 2.60204 3.08988e-17)
(-8.05154 2.6386 -2.23616e-17)
(-8.01065 2.6317 4.74459e-21)
(-7.88398 2.59855 -1.71686e-22)
(-7.68747 2.54556 2.79699e-18)
(-7.42309 2.47491 1.49411e-22)
(-7.08568 2.38689 7.985e-21)
(-6.66578 2.28084 3.11633e-18)
(-6.15135 2.15499 5.08435e-18)