/*--------------------------------*- C++ -*----------------------------------*\
| =========                 |                                                 |
| \\      /  F ield         | OpenFOAM: The Open Source CFD Toolbox           |
|  \\    /   O peration     | Version:  2.3.0                                 |
|   \\  /    A nd           | Web:      www.OpenFOAM.org                      |
|    \\/     M anipulation  |                                                 |
\*---------------------------------------------------------------------------*/
FoamFile
{
    version     2.0;
    format      ascii;
    class       volScalarField;
    location    "4000";
    object      nuTilda;
}
// * * * * * * * * * * * * * * * * * * * * * * * * * * * * * * * * * * * * * //

dimensions      [0 2 -1 0 0 0 0];

internalField   nonuniform List<scalar> 
14036
(
0.054364
0.0512219
0.0481521
0.0451818
0.0423253
0.0395969
0.037016
0.0346024
0.0323715
0.0303436
0.0285414
0.0269614
0.0254833
0.0240242
0.022594
0.0212051
0.0198612
0.0185592
0.0172927
0.0160496
0.014812
0.0135569
0.0122872
0.0112409
0.058086
0.0554656
0.052927
0.0504787
0.0481246
0.0458677
0.0437126
0.0416627
0.0397215
0.0378943
0.0361858
0.0346013
0.0331411
0.0318054
0.0305986
0.0295283
0.0286019
0.0278266
0.0272102
0.0267561
0.0264684
0.0263473
0.0263925
0.0266021
0.0614223
0.0592285
0.0571156
0.0550847
0.0531364
0.0512735
0.0494974
0.0478109
0.0462159
0.0447164
0.0433155
0.0420166
0.0408249
0.0397434
0.0387778
0.037933
0.0372145
0.0366265
0.0361742
0.0358598
0.0356836
0.0356441
0.0357373
0.0359557
0.0643985
0.0625574
0.0607887
0.0590899
0.057462
0.0559054
0.0544219
0.0530132
0.0516811
0.0504282
0.0492574
0.0481721
0.047176
0.0462739
0.0454695
0.0447676
0.044173
0.0436899
0.043321
0.0430701
0.0429374
0.0429223
0.0430226
0.043233
0.0670414
0.0654943
0.0640033
0.062569
0.0611923
0.0598741
0.0586159
0.057419
0.0562847
0.0552147
0.0542127
0.0532818
0.0524257
0.0516481
0.0509541
0.050348
0.0498338
0.0494165
0.0490995
0.0488855
0.0487767
0.0487735
0.0488745
0.0490768
0.0693943
0.0680826
0.066815
0.065591
0.0644122
0.0632802
0.0621965
0.0611623
0.060179
0.0592481
0.0583725
0.0575559
0.056802
0.0561151
0.0555
0.0549614
0.0545035
0.0541308
0.0538479
0.0536579
0.053563
0.0535653
0.0536644
0.0538582
0.0714787
0.0703621
0.0692755
0.0682201
0.0671979
0.0662118
0.0652639
0.0643563
0.0634902
0.0626671
0.061889
0.0611596
0.0604829
0.0598636
0.0593069
0.0588179
0.0584011
0.0580612
0.0578028
0.0576292
0.0575435
0.057548
0.0576437
0.05783
0.0733311
0.0723711
0.0714323
0.0705132
0.0696156
0.0687448
0.0679037
0.0670951
0.066321
0.0655829
0.0648823
0.064222
0.0636051
0.0630374
0.0625252
0.0620739
0.061688
0.0613732
0.0611334
0.0609723
0.060893
0.0608982
0.0609899
0.0611691
0.0749738
0.074143
0.0733254
0.0725189
0.0717214
0.0709427
0.0701855
0.0694543
0.0687526
0.0680824
0.0674452
0.0668414
0.0662735
0.0657455
0.0652675
0.0648465
0.0644837
0.0641885
0.0639639
0.0638133
0.0637399
0.0637453
0.0638314
0.0640046
0.0764377
0.0757049
0.074979
0.074271
0.0735557
0.0728542
0.0721602
0.0714871
0.0708406
0.0702225
0.0696366
0.0690849
0.0685595
0.0680615
0.0676071
0.0672183
0.0668717
0.0665961
0.0663855
0.0662449
0.0661792
0.0661883
0.0662636
0.0664339
0.0122328
0.0145135
0.0160084
0.0174464
0.0190042
0.0207295
0.0226221
0.0246682
0.0268514
0.0291589
0.0315786
0.0341014
0.0367197
0.0394272
0.0422178
0.0450854
0.0480236
0.0510261
0.0540854
0.0571939
0.0603439
0.0635264
0.0667329
0.0699716
0.0269573
0.027472
0.028171
0.029058
0.0301305
0.0313816
0.0328001
0.0343744
0.0360912
0.0379373
0.0398996
0.0419671
0.0441302
0.0463798
0.0487079
0.051107
0.053571
0.0560935
0.0586692
0.0612919
0.0639555
0.0666545
0.0693831
0.0721502
0.0362877
0.0367442
0.0373436
0.0380887
0.0389791
0.0400107
0.0411774
0.0424722
0.0438862
0.04541
0.0470345
0.0487511
0.0505524
0.0524305
0.0543787
0.056391
0.0584617
0.0605856
0.062758
0.0649745
0.0672305
0.0695219
0.0718458
0.0742075
0.0435471
0.0439705
0.0445147
0.0451803
0.0459665
0.0468695
0.0478842
0.049005
0.0502244
0.0515352
0.0529299
0.054401
0.0559425
0.057548
0.0592116
0.0609285
0.0626939
0.0645039
0.0663547
0.0682426
0.0701649
0.0721184
0.0741004
0.0761203
0.0493761
0.049776
0.0502829
0.050896
0.0516133
0.0524311
0.0533439
0.054346
0.0554309
0.0565918
0.0578223
0.0591156
0.0604657
0.0618676
0.063316
0.0648067
0.0663353
0.0678988
0.0694946
0.0711197
0.0727719
0.0744486
0.0761476
0.0778751
0.0541445
0.0545253
0.055004
0.0555783
0.0562457
0.057002
0.0578413
0.0587577
0.0597447
0.0607956
0.0619044
0.0630648
0.0642713
0.0655189
0.066803
0.068119
0.0694633
0.0708331
0.0722265
0.0736414
0.0750759
0.0765281
0.0779967
0.0794837
0.058105
0.0584697
0.0589255
0.0594697
0.0600989
0.0608083
0.061592
0.0624433
0.0633558
0.064323
0.0653384
0.0663968
0.0674926
0.068621
0.0697773
0.0709564
0.0721549
0.0733709
0.0746028
0.0758488
0.0771069
0.0783759
0.0796548
0.0809423
0.0614342
0.0617846
0.0622212
0.062741
0.06334
0.0640127
0.0647525
0.0655526
0.0664066
0.067308
0.0682501
0.0692277
0.0702365
0.0712716
0.0723275
0.0733972
0.0744778
0.0755698
0.076672
0.0777819
0.0788961
0.0800147
0.0811367
0.0822636
0.064262
0.0645972
0.0650191
0.065517
0.066092
0.0667362
0.0674397
0.0681984
0.0690057
0.0698547
0.0707364
0.0716486
0.0725884
0.0735503
0.0745278
0.0755059
0.0764891
0.0774803
0.0784781
0.079479
0.0804723
0.0814679
0.0824597
0.0834558
0.0666941
0.0670027
0.0674143
0.0678883
0.0684483
0.0690728
0.0697414
0.0704674
0.071237
0.0720436
0.0728695
0.0737294
0.0746162
0.0755197
0.0764368
0.077329
0.0782324
0.0791451
0.0800632
0.0809821
0.0818601
0.0827564
0.0836394
0.0845391
0.071628
0.0658117
0.0605087
0.0556389
0.051133
0.0469357
0.0430032
0.0393014
0.0358059
0.0324994
0.0293703
0.0264133
0.0236276
0.0210151
0.0185766
0.0163068
0.0142035
0.0122732
0.0105461
0.00910848
0.00791987
0.00671807
0.00539953
0.0038479
0.073286
0.0682478
0.0636452
0.0594149
0.0554983
0.051847
0.048421
0.0451888
0.0421263
0.0392137
0.0364357
0.033785
0.0312686
0.0289089
0.0267314
0.0247267
0.0228318
0.0209734
0.019097
0.0171724
0.0151759
0.0130638
0.0107783
0.0082471
0.0750971
0.0707687
0.0668156
0.0631894
0.0598426
0.0567345
0.0538311
0.0511032
0.0485301
0.0460961
0.0437739
0.0415306
0.0393386
0.0371779
0.0350323
0.0328892
0.0307255
0.0285144
0.0262247
0.0238205
0.0212664
0.0185232
0.0155523
0.0123137
0.0770069
0.073308
0.0699453
0.0668715
0.0640512
0.0614536
0.0590503
0.0567942
0.0546204
0.0524846
0.0503617
0.0482339
0.0460878
0.0439081
0.0416813
0.0393918
0.0370203
0.0345462
0.0319411
0.0291758
0.0262133
0.0230191
0.019555
0.0157886
0.0789503
0.075817
0.0729749
0.0703913
0.0680405
0.0658864
0.0638503
0.061862
0.0598807
0.0578799
0.0558425
0.0537559
0.051608
0.0493869
0.0470795
0.0446691
0.0421381
0.039463
0.0366184
0.0335726
0.0302932
0.0267437
0.022888
0.0186912
0.0808915
0.0782502
0.0758608
0.0737022
0.0717362
0.0698725
0.0680407
0.0662015
0.064329
0.062405
0.0604151
0.0583476
0.05619
0.0539311
0.0515562
0.0490491
0.0463901
0.0435554
0.0405177
0.0372463
0.0337067
0.0298633
0.0256767
0.021112
0.0828036
0.0805775
0.0785742
0.0767589
0.0750426
0.0733528
0.0716486
0.0699051
0.0681054
0.0662338
0.0642768
0.0622206
0.0600534
0.0577619
0.0553317
0.0527449
0.0499806
0.0470142
0.0438169
0.0403565
0.036598
0.0325023
0.0280303
0.0231443
0.0846491
0.0827745
0.0810875
0.0795012
0.0779436
0.0763713
0.0747579
0.0730852
0.0713396
0.0695092
0.0675775
0.0655294
0.0633525
0.0610338
0.0585577
0.0559037
0.0530509
0.0499734
0.0466411
0.0430198
0.0390716
0.0347564
0.0300341
0.0248634
0.0863884
0.0848215
0.0833584
0.081923
0.0804775
0.0789926
0.0774507
0.0758368
0.0741355
0.0723382
0.0704294
0.0683866
0.0661997
0.0638571
0.0613427
0.0586314
0.0557026
0.052531
0.0490843
0.0453239
0.041209
0.0367011
0.0317596
0.0263386
0.0880347
0.0866905
0.0853769
0.0840475
0.0826891
0.0812719
0.0797861
0.0782279
0.0765684
0.0747963
0.072915
0.0708744
0.0686755
0.0663098
0.0637674
0.0610067
0.0580109
0.054759
0.0512168
0.0473347
0.0430722
0.0383926
0.0332636
0.0276294
0.00204844
0.000957967
0.00110334
0.00140401
0.00168722
0.00196913
0.00226537
0.00259895
0.00300413
0.00352549
0.00416915
0.0049161
0.00576433
0.00671744
0.0077817
0.00896523
0.0102756
0.011721
0.0133104
0.0150536
0.0169602
0.0190389
0.0212981
0.0237533
0.00538147
0.002616
0.00152761
0.0016989
0.00199965
0.00232032
0.00268098
0.00310702
0.00362159
0.00424393
0.00496795
0.00577801
0.00667506
0.00766323
0.00874781
0.00993497
0.0112302
0.0126403
0.0141727
0.0158356
0.0176367
0.0195839
0.0216872
0.0239624
0.00873497
0.00491556
0.00231453
0.00200107
0.00231949
0.00270476
0.00315238
0.00367755
0.00428902
0.0049976
0.00578889
0.00665344
0.00759285
0.00861049
0.00971039
0.0108964
0.0121732
0.0135461
0.0150211
0.0166044
0.0183027
0.020123
0.0220736
0.0241608
0.0116517
0.00715038
0.00337921
0.00234152
0.00264833
0.00311104
0.00364905
0.00426485
0.00495917
0.00574029
0.00658854
0.00749962
0.00847469
0.00951621
0.0106266
0.0118084
0.0130652
0.0144012
0.015821
0.0173294
0.018932
0.0206345
0.0224441
0.0243706
0.0140902
0.00907132
0.00449978
0.00272996
0.00298597
0.00352763
0.00414994
0.00484455
0.0056113
0.00645264
0.00735002
0.00830134
0.00930689
0.0103676
0.0114849
0.0126607
0.0138973
0.0151979
0.0165658
0.0180049
0.0195195
0.0211141
0.0227936
0.0245601
0.0161107
0.010664
0.00553028
0.00314884
0.00332705
0.00394201
0.00463855
0.0054006
0.00623323
0.00712627
0.00806665
0.00905272
0.0100841
0.0111606
0.0122825
0.0134512
0.0146682
0.0159354
0.0172554
0.0186308
0.0200647
0.021561
0.0231233
0.0247587
0.0177912
0.0119758
0.00641818
0.00356964
0.0036653
0.00434489
0.00510692
0.00592957
0.00681915
0.0077573
0.00873564
0.00975212
0.0108055
0.0118948
0.0130198
0.0141808
0.015379
0.0166153
0.0178912
0.0192086
0.0205694
0.0219758
0.0234303
0.024933
0.0191975
0.0130581
0.00716414
0.00397216
0.00399457
0.00473059
0.00555077
0.00642865
0.0073666
0.0083448
0.00935676
0.0103999
0.0114721
0.0125719
0.0136989
0.0148526
0.0160332
0.0172408
0.0184763
0.0197404
0.0210343
0.0223588
0.0237135
0.0250969
0.0203966
0.013969
0.00778823
0.00434199
0.00430971
0.00509551
0.00596798
0.00689616
0.00787593
0.00888914
0.00993027
0.0109966
0.0120859
0.0131957
0.014324
0.015471
0.0166361
0.017817
0.0190141
0.0202289
0.0214613
0.0227103
0.0239756
0.0252628
0.0214684
0.0148387
0.00839433
0.00471693
0.00461435
0.00544106
0.00635007
0.00731914
0.00833643
0.00938336
0.0104542
0.0115582
0.0126766
0.0137927
0.0149177
0.0160655
0.0172169
0.0183572
0.019508
0.0206759
0.0218524
0.0230286
0.0242049
0.0253934
0.000467967
0.00158329
0.0032794
0.00525132
0.00721355
0.00914897
0.0110563
0.0129381
0.0147968
0.0166346
0.0184526
0.0202511
0.0220343
0.0238347
0.0257147
0.0277164
0.0298268
0.0320286
0.0345895
0.0374614
0.0405599
0.0438306
0.0472347
0.0507303
0.000350037
0.000953982
0.00221818
0.00387839
0.00554176
0.00716751
0.00879009
0.010434
0.0121122
0.0138237
0.0155652
0.0173325
0.0191238
0.0209446
0.0228144
0.024762
0.0268078
0.0289742
0.0313702
0.0340095
0.0368522
0.0400876
0.0436054
0.0473386
0.000198827
0.000604504
0.00143324
0.00258366
0.004076
0.00592935
0.00778662
0.00956001
0.0112651
0.0129267
0.0145652
0.0161971
0.0178377
0.0195028
0.021211
0.0229874
0.024863
0.026875
0.0290786
0.0315171
0.0342027
0.0371907
0.0404512
0.0441537
0.000212345
0.000502099
0.00117558
0.002108
0.0033267
0.00486716
0.00673642
0.00866595
0.0105527
0.0123811
0.0141458
0.015846
0.0174874
0.0190846
0.0206617
0.0222527
0.0239018
0.0256625
0.027595
0.0297611
0.0322085
0.0349701
0.03804
0.0414156
0.000184618
0.000437515
0.00101686
0.0018255
0.00287857
0.00420537
0.00584156
0.00778579
0.00979992
0.0117795
0.0137039
0.0155633
0.017346
0.0190429
0.0206548
0.0221987
0.023712
0.0252533
0.0268994
0.0287379
0.0308538
0.0333097
0.0361314
0.0393066
0.000178937
0.000399639
0.000920398
0.0016479
0.00259377
0.00378441
0.00525294
0.00703646
0.00906832
0.0111474
0.0132002
0.0152048
0.0171454
0.0190027
0.0207575
0.0223988
0.0239333
0.0253948
0.0268506
0.0283988
0.0301567
0.0322354
0.0347139
0.03762
0.000168703
0.0003698
0.000847246
0.00151439
0.00238285
0.00347472
0.00481947
0.00645246
0.00840028
0.0105257
0.0126764
0.0147997
0.0168748
0.0188824
0.0207984
0.0225974
0.0242596
0.0257836
0.0271997
0.0285825
0.0300512
0.031752
0.0338245
0.0363626
0.000162836
0.000348615
0.00079432
0.00141517
0.00222504
0.00324226
0.00449409
0.00601334
0.00783684
0.00994033
0.0121505
0.0143682
0.0165564
0.0186938
0.0207569
0.0227165
0.0245419
0.0262072
0.0277062
0.0290696
0.0303827
0.0317888
0.0334653
0.0355803
0.000156986
0.000331101
0.000751159
0.00133508
0.00209866
0.00305702
0.00423545
0.00566462
0.00738017
0.00940749
0.0116375
0.013926
0.0162089
0.0184575
0.0206486
0.0227541
0.0247404
0.0265711
0.0282166
0.0296691
0.0309653
0.0322091
0.0335742
0.0352787
0.000152769
0.0003176
0.000716209
0.00127001
0.00199583
0.00290635
0.00402509
0.00538105
0.00700817
0.00894205
0.0111511
0.0134838
0.0158433
0.0181872
0.0204898
0.0227246
0.0248581
0.0268514
0.0286634
0.0302622
0.031643
0.032857
0.0340374
0.0354081
0.000149749
0.00030806
0.000687062
0.0012157
0.00191018
0.00278083
0.00385
0.00514503
0.00669839
0.00854645
0.0107021
0.0130515
0.0154696
0.0178944
0.0202941
0.0226425
0.024908
0.0270514
0.0290284
0.0307938
0.032316
0.0336001
0.0347239
0.0358739
0.000148055
0.000302629
0.000663007
0.00117041
0.00183838
0.00267549
0.00370287
0.00494665
0.00643773
0.00821169
0.0102986
0.0126388
0.0150969
0.0175889
0.020073
0.0225213
0.0249039
0.0271834
0.0293146
0.0312475
0.0329347
0.0343493
0.0355175
0.0365661
0.000147287
0.000300014
0.000643243
0.00113285
0.00177801
0.00258667
0.00357862
0.00477874
0.00621672
0.0079269
0.00994471
0.0122546
0.014734
0.0172798
0.0198369
0.0223732
0.0248596
0.027261
0.0295333
0.0316252
0.0334816
0.035056
0.036335
0.0373832
0.000147071
0.000298964
0.000627034
0.00110204
0.00172733
0.00251184
0.00347363
0.0046366
0.00602928
0.00768477
0.00963976
0.0119056
0.0143897
0.0169763
0.0195958
0.0222097
0.0247884
0.0272986
0.0296985
0.0319374
0.0339573
0.0357006
0.0371274
0.0382516
0.000147161
0.000298578
0.000613447
0.00107609
0.00168452
0.00244872
0.00338503
0.00451645
0.00587042
0.00747911
0.00937884
0.0115954
0.0140706
0.0166862
0.019359
0.0220417
0.0247028
0.0273106
0.0298254
0.0321984
0.0343715
0.0362816
0.0378723
0.0391203
0.00014751
0.000298596
0.000602019
0.0010542
0.00164838
0.00239528
0.00331004
0.00441465
0.00573572
0.0073044
0.00915639
0.0113241
0.0137804
0.0164149
0.0191329
0.0218775
0.0246135
0.0273095
0.0299285
0.0324237
0.0347384
0.0368075
0.0385654
0.0399641
0.000147957
0.000298678
0.000592277
0.00103548
0.00161752
0.00234973
0.00324606
0.00432787
0.00562087
0.00715539
0.00896623
0.0110889
0.0135198
0.0161648
0.0189212
0.0217223
0.0245275
0.0273049
0.0300192
0.0326265
0.0350719
0.0372903
0.0392099
0.040759
0.000148486
0.000298746
0.000583893
0.0010193
0.00159075
0.00231035
0.00319087
0.00425306
0.00552192
0.0070269
0.00880221
0.0108845
0.0132863
0.0159352
0.018724
0.021577
0.0244471
0.027301
0.0301043
0.0328155
0.0353821
0.0377403
0.0398166
0.0415337
0.000149083
0.000298767
0.0005765
0.00100503
0.00156719
0.00227563
0.00314236
0.00418734
0.0054352
0.00691453
0.00865874
0.0107049
0.0130761
0.0157223
0.0185383
0.0214389
0.0243707
0.0272968
0.0301841
0.0329925
0.0356718
0.0381598
0.0403815
0.0422499
0.000149651
0.000298774
0.00056994
0.000992273
0.00154608
0.00224455
0.00309888
0.00412861
0.00535767
0.0068142
0.00853075
0.0105442
0.0128846
0.0155228
0.01836
0.0213042
0.024294
0.0272893
0.0302561
0.0331561
0.035941
0.03855
0.0409086
0.0429268
0.000150243
0.000298738
0.000564005
0.000980692
0.00152685
0.00221637
0.00305946
0.00407533
0.00528735
0.00672311
0.00841462
0.0103984
0.0127081
0.0153331
0.0181856
0.0211683
0.0242126
0.0272737
0.0303162
0.0333028
0.036187
0.0389095
0.0413964
0.0435563
0.000150856
0.000298691
0.000558588
0.000970084
0.00150924
0.00219043
0.00302326
0.00402632
0.00522275
0.00663946
0.00830795
0.0102642
0.0125441
0.0151514
0.0180126
0.0210284
0.0241228
0.0272457
0.03036
0.0334286
0.0364064
0.0392361
0.041845
0.0441437
0.000151425
0.000298689
0.000553657
0.000960326
0.00149298
0.00216651
0.00298978
0.00398105
0.00516291
0.00656198
0.0082091
0.0101397
0.0123909
0.0149771
0.0178408
0.0208834
0.024023
0.0272035
0.0303852
0.0335309
0.0365967
0.0395267
0.0422494
0.0446735
0.000151989
0.000298732
0.000549177
0.000951413
0.00147804
0.00214446
0.00295889
0.0039392
0.0051076
0.00649024
0.00811743
0.0100241
0.0122478
0.0148107
0.0176712
0.0207347
0.023914
0.0271477
0.0303925
0.0336107
0.0367594
0.0397848
0.0426177
0.0451725
0.000152571
0.00029882
0.000545149
0.000943344
0.00146443
0.00212417
0.0029304
0.00390059
0.00505653
0.00642393
0.00803264
0.00991699
0.0121148
0.0146535
0.0175061
0.0205846
0.0237985
0.0270809
0.0303847
0.033671
0.0368981
0.0400137
0.042951
0.0456253
0.000153158
0.000298949
0.000541527
0.000936092
0.00145227
0.00210556
0.00290421
0.00386506
0.00500954
0.0063629
0.00795454
0.0098183
0.0119918
0.0145064
0.0173476
0.0204361
0.0236798
0.0270066
0.0303655
0.0337161
0.037017
0.0402179
0.0432538
0.046042
0.00015375
0.000299102
0.000538202
0.000929401
0.0014411
0.00208844
0.00288013
0.00383245
0.00496641
0.00630691
0.00788291
0.00972774
0.0118788
0.01437
0.0171975
0.0202921
0.0235613
0.0269286
0.0303391
0.0337504
0.0371214
0.0404032
0.0435335
0.0464337
0.000154359
0.000299279
0.000535183
0.00092326
0.00143083
0.0020727
0.00285803
0.00380253
0.00492689
0.00625566
0.00781734
0.00964486
0.0117753
0.0142444
0.0170572
0.0201547
0.0234457
0.0268503
0.0303094
0.0337785
0.0372165
0.0405758
0.0437963
0.0468003
0.000154986
0.00029948
0.000532484
0.00091764
0.0014214
0.00205823
0.0028377
0.00377505
0.00489065
0.00620869
0.00775732
0.00956902
0.0116807
0.014129
0.0169266
0.0200247
0.0233348
0.026774
0.0302795
0.0338043
0.037307
0.0407417
0.044052
0.0471683
0.000155637
0.000299699
0.000530085
0.00091247
0.00141271
0.00204491
0.00281903
0.00374981
0.00485735
0.00616557
0.00770227
0.00949954
0.0115939
0.0140231
0.0168053
0.0199022
0.0232291
0.0267008
0.0302506
0.0338292
0.0373944
0.0409016
0.0442966
0.0475147
0.000156304
0.000299949
0.00052799
0.000907721
0.00140469
0.00203261
0.00280178
0.00372653
0.00482665
0.00612584
0.00765157
0.00943559
0.0115141
0.0139254
0.0166925
0.0197867
0.0231281
0.0266301
0.0302226
0.0338531
0.0374782
0.0410533
0.044523
0.0478124
0.000156994
0.000300228
0.000526201
0.000903357
0.00139729
0.00202124
0.00278583
0.00370498
0.00479826
0.00608907
0.00760466
0.00937644
0.0114403
0.0138348
0.016587
0.0196772
0.0230312
0.0265618
0.0301954
0.0338766
0.0375607
0.0412033
0.0447523
0.0481437
0.000157706
0.000300544
0.000524726
0.000899376
0.00139047
0.00201072
0.00277104
0.00368499
0.00477189
0.0060549
0.00756104
0.00932144
0.0113717
0.0137504
0.016488
0.0195729
0.0229376
0.0264948
0.0301679
0.0338985
0.0376402
0.0413487
0.044973
0.0484494
0.000158434
0.000300896
0.000523547
0.000895729
0.00138417
0.00200096
0.00275732
0.00366641
0.00474735
0.00602308
0.00752038
0.00927009
0.0113075
0.0136714
0.0163945
0.0194729
0.0228462
0.0264279
0.0301389
0.0339176
0.0377156
0.0414884
0.0451861
0.0487459
0.000159179
0.000301296
0.000522652
0.000892387
0.00137834
0.00199191
0.00274457
0.00364912
0.00472449
0.00599342
0.00748241
0.00922205
0.0112473
0.0135971
0.016306
0.0193768
0.0227566
0.0263605
0.0301073
0.0339322
0.0377847
0.0416199
0.0453884
0.0490299
0.000159937
0.000301742
0.000522032
0.000889352
0.00137298
0.00198353
0.00273271
0.00363303
0.0047032
0.00596574
0.00744691
0.00917704
0.0111909
0.0135273
0.0162222
0.0192845
0.0226687
0.0262924
0.0300728
0.0339419
0.0378469
0.0417417
0.0455777
0.049297
0.000160704
0.000302226
0.000521642
0.000886578
0.00136804
0.0019758
0.00272178
0.00361815
0.00468343
0.00593996
0.00741378
0.00913499
0.0111381
0.0134617
0.016143
0.0191961
0.0225828
0.026224
0.0300356
0.0339469
0.0379022
0.0418542
0.0457533
0.0495388
0.000161482
0.000302747
0.00052147
0.000884065
0.0013635
0.00196866
0.00271168
0.00360438
0.00466511
0.00591603
0.007383
0.00909583
0.0110888
0.0134003
0.0160685
0.0191119
0.0224994
0.0261561
0.029997
0.0339486
0.0379528
0.0419607
0.0459227
0.0497792
0.000162268
0.000303299
0.000521471
0.000881778
0.00135933
0.00196208
0.00270235
0.00359167
0.00464816
0.00589388
0.00735444
0.00905945
0.0110429
0.013343
0.0159986
0.019032
0.0224192
0.0260893
0.0299575
0.0339479
0.0379999
0.0420632
0.0460886
0.0500203
0.000163056
0.000303875
0.00052162
0.000879707
0.00135551
0.00195604
0.00269377
0.00357995
0.00463256
0.00587344
0.00732805
0.00902576
0.0110003
0.0132897
0.0159334
0.0189568
0.0223423
0.0260242
0.0299179
0.0339454
0.0380435
0.0421603
0.0462466
0.0502468
0.000163847
0.000304467
0.000521887
0.000877826
0.001352
0.00195048
0.00268588
0.00356918
0.00461819
0.0058546
0.00730371
0.00899468
0.0109609
0.0132404
0.0158728
0.0188862
0.0222694
0.0259614
0.0298787
0.0339415
0.038084
0.0422525
0.046397
0.0504621
0.000164639
0.000305071
0.000522261
0.000876133
0.0013488
0.00194538
0.00267864
0.0035593
0.004605
0.00583731
0.00728134
0.00896606
0.0109247
0.0131949
0.0158167
0.0188205
0.0222007
0.0259015
0.0298408
0.0339374
0.0381228
0.0423415
0.0465422
0.0506691
0.000165432
0.00030568
0.000522705
0.000874599
0.00134587
0.00194071
0.002672
0.00355022
0.00459289
0.00582143
0.00726079
0.00893975
0.0108913
0.013153
0.0157649
0.0187596
0.0221363
0.025845
0.029805
0.033934
0.0381614
0.0424295
0.0466868
0.0508788
0.000166227
0.000306291
0.000523213
0.000873217
0.00134319
0.00193642
0.00266589
0.00354187
0.00458176
0.00580682
0.00724189
0.00891556
0.0108606
0.0131144
0.0157172
0.0187032
0.0220765
0.025792
0.0297717
0.033932
0.0382003
0.0425168
0.0468288
0.0510819
0.000167017
0.000306897
0.000523762
0.00087197
0.00134074
0.00193248
0.00266028
0.0035342
0.00457152
0.00579339
0.00722449
0.00889329
0.0108324
0.0130789
0.0156733
0.0186511
0.0220209
0.0257428
0.0297411
0.0339317
0.0382399
0.0426038
0.0469693
0.0512813
0.000167799
0.000307492
0.000524336
0.000870853
0.00133851
0.00192887
0.00265514
0.00352715
0.00456208
0.00578099
0.00720844
0.00887272
0.0108063
0.0130461
0.0156327
0.0186029
0.0219691
0.0256969
0.0297132
0.0339334
0.0382809
0.0426917
0.0471102
0.05148
0.000168578
0.000308075
0.000524926
0.000869847
0.00133648
0.00192557
0.00265041
0.00352066
0.00455338
0.00576954
0.00719358
0.00885368
0.0107821
0.0130157
0.015595
0.0185579
0.0219207
0.025654
0.0296876
0.033937
0.0383237
0.0427818
0.0472552
0.05169
0.000169351
0.000308647
0.000525537
0.000868957
0.00133464
0.00192256
0.00264608
0.00351469
0.00454536
0.00575896
0.00717982
0.00883599
0.0107596
0.0129874
0.0155598
0.0185158
0.0218749
0.0256131
0.0296633
0.0339413
0.0383667
0.0428717
0.0473992
0.051895
0.000170113
0.000309205
0.000526158
0.000868173
0.00133299
0.00191982
0.00264212
0.00350921
0.00453796
0.00574916
0.00716705
0.00881954
0.0107386
0.0129608
0.0155267
0.018476
0.0218314
0.0255737
0.0296396
0.033945
0.0384082
0.0429591
0.0475388
0.0520921
0.00017088
0.000309751
0.000526813
0.000867492
0.0013315
0.00191732
0.00263851
0.00350419
0.00453116
0.00574011
0.00715518
0.0088042
0.010719
0.012936
0.0154957
0.0184385
0.0217899
0.0255357
0.0296161
0.0339479
0.0384477
0.0430432
0.0476734
0.0522811
0.000171623
0.000310285
0.000527474
0.000866908
0.00133017
0.00191506
0.00263518
0.00349956
0.00452487
0.00573171
0.00714415
0.00878987
0.0107006
0.0129126
0.0154664
0.018403
0.0217502
0.0254988
0.0295929
0.0339502
0.0384859
0.0431258
0.0478069
0.0524708
0.000172337
0.000310789
0.000528067
0.000866377
0.00132897
0.00191301
0.00263217
0.00349531
0.00451905
0.00572392
0.00713387
0.0087765
0.0106834
0.0128907
0.0154387
0.0183693
0.0217123
0.0254629
0.0295698
0.0339517
0.0385229
0.0432072
0.0479405
0.0526678
0.000173037
0.000311284
0.000528662
0.000865912
0.00132788
0.00191115
0.00262942
0.00349142
0.00451368
0.00571668
0.00712429
0.00876402
0.0106673
0.01287
0.0154126
0.0183371
0.0216758
0.0254279
0.0295462
0.0339515
0.0385569
0.0432839
0.0480658
0.0528404
0.000173724
0.000311746
0.000529205
0.000865498
0.00132689
0.00190948
0.00262689
0.00348786
0.00450874
0.00570998
0.00711539
0.00875231
0.0106521
0.0128506
0.015388
0.0183067
0.0216407
0.0253937
0.0295225
0.0339497
0.038588
0.0433574
0.0481894
0.0530234
0.000174435
0.000312188
0.000529793
0.000865161
0.00132604
0.00190793
0.00262462
0.00348456
0.00450424
0.00570385
0.00710717
0.00874145
0.0106379
0.0128323
0.0153648
0.0182779
0.0216073
0.0253604
0.0294988
0.0339467
0.0386165
0.0434268
0.0483079
0.053202
0.000175109
0.000312643
0.00053041
0.000864902
0.0013253
0.00190656
0.00262252
0.00348158
0.00450002
0.00569812
0.00709948
0.00873128
0.0106247
0.0128151
0.0153428
0.0182505
0.0215754
0.0253284
0.0294752
0.0339427
0.0386427
0.0434911
0.0484154
0.0533456
0.000175758
0.000313054
0.000530931
0.000864652
0.0013246
0.00190533
0.00262064
0.00347885
0.00449615
0.00569275
0.00709225
0.00872171
0.0106121
0.0127989
0.015322
0.0182246
0.0215449
0.0252975
0.0294523
0.0339386
0.0386684
0.0435567
0.0485318
0.0535414
0.000176417
0.000313454
0.000531504
0.00086444
0.00132399
0.00190416
0.00261889
0.00347626
0.0044926
0.00568786
0.0070856
0.00871282
0.0106004
0.0127836
0.0153023
0.0181998
0.0215157
0.0252672
0.0294292
0.0339332
0.0386912
0.0436156
0.0486282
0.053655
0.000177005
0.000313833
0.00053199
0.000864262
0.00132344
0.00190309
0.00261721
0.00347386
0.00448917
0.00568322
0.0070793
0.00870438
0.0105893
0.0127692
0.0152838
0.0181764
0.0214876
0.0252379
0.029406
0.0339271
0.0387128
0.0436748
0.0487349
0.0538272
0.0001776
0.00031418
0.00053245
0.000864103
0.00132291
0.00190214
0.00261572
0.00347165
0.00448602
0.0056788
0.00707331
0.0086964
0.0105788
0.0127555
0.0152661
0.0181541
0.0214607
0.0252095
0.0293832
0.03392
0.0387326
0.0437307
0.0488336
0.0539715
0.000178206
0.000314521
0.000532959
0.000863955
0.00132243
0.00190119
0.00261426
0.00346952
0.00448301
0.0056747
0.00706775
0.00868892
0.0105689
0.0127424
0.0152492
0.0181327
0.0214351
0.025182
0.0293608
0.0339125
0.0387509
0.0437844
0.0489293
0.0541099
0.00017874
0.000314841
0.00053338
0.000863817
0.00132198
0.00190037
0.00261298
0.00346761
0.00448022
0.00567078
0.0070624
0.00868175
0.0105594
0.0127301
0.0152332
0.0181124
0.0214103
0.0251556
0.0293387
0.0339049
0.0387686
0.0438378
0.0490292
0.0542714
0.000179275
0.000315147
0.000533764
0.000863694
0.00132155
0.00189957
0.00261175
0.00346576
0.00447755
0.00566698
0.00705722
0.00867483
0.0105502
0.0127181
0.0152178
0.0180929
0.0213866
0.0251296
0.029317
0.0338966
0.0387846
0.043888
0.0491227
0.054421
0.000179798
0.000315436
0.000534153
0.000863586
0.00132122
0.00189886
0.00261056
0.00346398
0.00447499
0.00566342
0.00705237
0.0086683
0.0105415
0.0127066
0.0152029
0.0180738
0.0213636
0.0251043
0.0292948
0.0338871
0.0387978
0.0439327
0.049203
0.0545276
0.000180276
0.000315692
0.000534417
0.000863488
0.00132086
0.00189822
0.00260951
0.00346236
0.0044726
0.00565999
0.00704765
0.00866199
0.0105331
0.0126956
0.0151886
0.0180555
0.021341
0.0250794
0.0292728
0.0338769
0.0388101
0.0439774
0.0492888
0.0546657
0.00018079
0.000315936
0.000534766
0.000863461
0.00132064
0.00189765
0.00260854
0.00346084
0.00447039
0.00565685
0.00704322
0.00865588
0.010525
0.0126849
0.0151748
0.0180379
0.0213192
0.0250548
0.0292507
0.0338658
0.0388206
0.0440199
0.049372
0.0547976
0.000181265
0.000316196
0.000535125
0.000863492
0.00132049
0.0018972
0.00260762
0.00345939
0.00446824
0.00565385
0.00703902
0.00865013
0.0105173
0.0126748
0.0151614
0.0180208
0.0212981
0.0250309
0.0292283
0.0338536
0.0388288
0.0440583
0.0494489
0.0549174
0.000181721
0.000316411
0.000535383
0.00086352
0.00132035
0.00189687
0.00260689
0.00345817
0.00446632
0.00565097
0.00703499
0.00864464
0.0105099
0.0126651
0.0151488
0.0180045
0.0212778
0.0250077
0.0292064
0.0338409
0.0388356
0.0440945
0.0495223
0.0550341
0.00018219
0.000316621
0.000535698
0.000863599
0.00132031
0.00189659
0.00260629
0.00345704
0.00446461
0.00564842
0.00703135
0.00863958
0.010503
0.0126558
0.0151367
0.0179889
0.0212585
0.0249854
0.0291854
0.0338287
0.0388422
0.0441304
0.0495963
0.0551537
0.000182592
0.000316812
0.000535929
0.000863724
0.00132036
0.00189647
0.00260584
0.00345619
0.00446308
0.00564612
0.00702798
0.00863481
0.0104965
0.0126471
0.0151252
0.017974
0.0212399
0.0249641
0.0291648
0.0338167
0.0388487
0.0441654
0.0496694
0.0552724
0.000183007
0.000316994
0.000536161
0.000863948
0.00132054
0.00189658
0.00260567
0.00345563
0.00446194
0.00564411
0.00702492
0.00863043
0.0104904
0.0126389
0.0151143
0.0179599
0.0212221
0.0249436
0.029145
0.0338047
0.0388545
0.0441991
0.0497394
0.0553858
0.000183439
0.000317167
0.000536458
0.000864252
0.00132089
0.00189682
0.00260576
0.00345535
0.00446122
0.00564266
0.00702247
0.00862667
0.0104849
0.0126312
0.0151039
0.0179462
0.0212051
0.0249236
0.0291258
0.033793
0.0388601
0.0442321
0.049808
0.0554955
0.000183804
0.000317328
0.00053668
0.000864639
0.00132137
0.00189731
0.00260612
0.00345549
0.00446089
0.00564175
0.00702064
0.00862356
0.0104802
0.0126243
0.0150943
0.0179335
0.0211886
0.0249042
0.0291065
0.0337814
0.0388657
0.0442652
0.0498781
0.05561
0.000184177
0.000317483
0.000536886
0.000865121
0.001322
0.00189804
0.00260686
0.00345607
0.00446116
0.00564144
0.0070195
0.00862124
0.0104763
0.0126184
0.0150857
0.0179216
0.0211729
0.0248852
0.0290872
0.0337686
0.0388699
0.0442974
0.0499485
0.0557295
0.000184544
0.000317608
0.000537108
0.000865677
0.00132284
0.00189904
0.0026079
0.00345709
0.00446199
0.00564192
0.00701935
0.00862009
0.0104737
0.0126137
0.0150784
0.0179109
0.0211583
0.0248667
0.0290675
0.0337542
0.0388706
0.0443244
0.0500116
0.055833
0.000184871
0.000317714
0.000537238
0.000866304
0.00132375
0.00190028
0.00260935
0.00345864
0.00446346
0.00564312
0.0070201
0.0086201
0.0104725
0.0126108
0.0150731
0.0179023
0.0211456
0.0248501
0.0290487
0.0337389
0.0388683
0.0443462
0.0500679
0.0559318
0.000185241
0.000317806
0.000537451
0.000867024
0.00132484
0.0019017
0.0026111
0.0034606
0.00446556
0.0056452
0.0070219
0.00862131
0.0104728
0.0126097
0.0150699
0.0178963
0.0211359
0.0248362
0.0290326
0.0337254
0.038866
0.0443654
0.0501201
0.0560337
0.000185568
0.000317875
0.0005376
0.000867782
0.00132607
0.00190333
0.00261305
0.00346289
0.00446812
0.00564795