/*--------------------------------*- C++ -*----------------------------------*\
| =========                 |                                                 |
| \\      /  F ield         | OpenFOAM: The Open Source CFD Toolbox           |
|  \\    /   O peration     | Version:  2.3.0                                 |
|   \\  /    A nd           | Web:      www.OpenFOAM.org                      |
|    \\/     M anipulation  |                                                 |
\*---------------------------------------------------------------------------*/
FoamFile
{
    version     2.0;
    format      ascii;
    class       volVectorField;
    location    "2000";
    object      U;
}
// * * * * * * * * * * * * * * * * * * * * * * * * * * * * * * * * * * * * * //

dimensions      [0 1 -1 0 0 0 0];

internalField   nonuniform List<vector> 
38075
(
(21.8666 13.1371 8.67466e-22)
(21.7283 13.3628 -7.15773e-22)
(21.585 13.5964 -3.86949e-21)
(21.436 13.832 7.32718e-21)
(21.2818 14.0696 7.62202e-21)
(21.1218 14.3088 1.73012e-20)
(20.9559 14.5495 1.40657e-20)
(20.7835 14.7916 -2.1522e-20)
(20.6044 15.0351 -2.85517e-20)
(20.4183 15.2801 2.85903e-20)
(20.2248 15.5262 0)
(20.0235 15.7731 -2.91817e-22)
(19.8138 16.0207 -8.47079e-20)
(19.5952 16.2685 1.97843e-19)
(19.367 16.5156 -1.04797e-19)
(19.1282 16.7614 1.13485e-20)
(18.8781 17.0049 1.33074e-20)
(18.6155 17.2447 1.00899e-21)
(18.3392 17.4793 -7.53583e-21)
(18.0476 17.7068 8.30457e-21)
(17.7393 17.9248 0)
(17.4121 18.1311 1.01203e-20)
(17.0638 18.3227 2.38633e-19)
(16.6917 18.497 -2.34756e-19)
(16.2928 18.6513 2.68651e-19)
(15.8629 18.7832 -6.04101e-19)
(15.3979 18.8906 3.24149e-19)
(14.8925 18.9724 0)
(14.341 19.0293 1.04423e-20)
(13.7362 19.0623 0)
(13.0703 19.0734 -3.76714e-22)
(12.3345 19.0691 0)
(11.5168 19.0543 0)
(10.605 19.0376 1.77769e-20)
(9.58575 19.0276 3.11362e-21)
(8.44369 19.03 2.6036e-19)
(7.16792 19.0572 -2.88383e-19)
(5.74928 19.114 0)
(4.17923 19.1899 -1.71436e-19)
(2.45571 19.2649 1.02859e-19)
(0.62924 19.4324 5.77293e-20)
(-1.22608 19.8816 0)
(-3.14007 20.1683 0)
(21.6484 13.0542 0)
(21.5141 13.2576 1.18298e-20)
(21.3765 13.4681 -3.4965e-21)
(21.2344 13.6784 0)
(21.088 13.8902 0)
(20.9367 14.1032 3.02245e-20)
(20.7802 14.3176 -6.99611e-21)
(20.6182 14.5334 6.56354e-22)
(20.4501 14.7507 -2.99364e-20)
(20.2757 14.9697 6.26959e-21)
(20.0947 15.1902 -3.05026e-20)
(19.9068 15.4125 2.43238e-20)
(19.7115 15.6367 0)
(19.5083 15.8627 6.87061e-21)
(19.2966 16.0906 0)
(19.0757 16.3205 3.38616e-20)
(18.8448 16.5524 -3.88974e-20)
(18.6028 16.7863 3.02173e-21)
(18.3488 17.0224 0)
(18.0817 17.2608 -4.03101e-20)
(17.8001 17.5014 4.58313e-20)
(17.5027 17.7445 5.09716e-21)
(17.1878 17.9897 1.80985e-21)
(16.854 18.237 5.97526e-21)
(16.4998 18.4863 6.54741e-21)
(16.1232 18.7366 6.51284e-20)
(15.7225 18.9871 -6.63479e-20)
(15.2959 19.2364 0)
(14.8414 19.4826 0)
(14.3569 19.7231 5.93822e-21)
(13.8405 19.9539 3.45318e-22)
(13.2896 20.1702 2.20223e-19)
(12.7018 20.3659 -2.37907e-19)
(12.075 20.533 3.26916e-19)
(11.4068 20.661 -3.53676e-19)
(10.6953 20.7375 0)
(9.9398 20.7472 6.42292e-19)
(9.14126 20.6732 -6.63513e-19)
(8.30102 20.4941 -4.82096e-19)
(7.42681 20.1857 1.11678e-18)
(6.5356 19.7296 -1.27989e-18)
(5.63436 19.1144 7.01936e-19)
(4.71592 18.3162 4.95481e-20)
(21.4539 12.9799 1.49729e-20)
(21.3225 13.1577 -2.72388e-20)
(21.1868 13.3437 -3.12856e-20)
(21.0472 13.5309 3.12299e-20)
(20.9036 13.7197 9.86048e-21)
(20.7555 13.9097 6.46552e-20)
(20.6024 14.1008 -5.8322e-20)
(20.444 14.2932 0)
(20.2798 14.4867 6.74789e-20)
(20.1094 14.6814 -1.31495e-19)
(19.9325 14.8775 6.86733e-20)
(19.7487 15.075 6.48576e-21)
(19.5576 15.2739 6.22771e-20)
(19.359 15.4744 -8.11584e-20)
(19.1523 15.6764 1.26735e-20)
(18.937 15.8799 7.58672e-20)
(18.7125 16.0848 1.3675e-20)
(18.478 16.291 -1.89073e-19)
(18.2326 16.4982 -3.83277e-21)
(17.9755 16.7064 1.05312e-19)
(17.7053 16.915 -4.6812e-21)
(17.4207 17.1237 -5.00886e-21)
(17.1202 17.3317 -1.25234e-19)
(16.8019 17.5385 1.33043e-19)
(16.464 17.7434 -1.81212e-20)
(16.1043 17.945 7.09123e-21)
(15.7206 18.1421 -7.90578e-21)
(15.3105 18.3333 2.13333e-19)
(14.8716 18.5164 -2.21025e-19)
(14.4017 18.6891 1.32687e-20)
(13.8985 18.8485 3.00337e-19)
(13.3598 18.9906 4.4106e-21)
(12.784 19.1113 -3.04508e-19)
(12.1704 19.205 1.08007e-20)
(11.5189 19.2653 0)
(10.8319 19.2844 0)
(10.1129 19.2537 0)
(9.36868 19.163 0)
(8.60992 19.0021 0)
(7.85274 18.7601 -2.9644e-20)
(7.11883 18.4275 3.62351e-20)
(6.43465 17.9945 0)
(5.82908 17.4562 -4.55264e-20)
(21.2892 12.8956 -4.36347e-20)
(21.1593 13.0585 -3.51589e-20)
(21.0274 13.2253 8.99172e-20)
(20.8926 13.3929 9.53579e-22)
(20.7546 13.562 -4.27016e-20)
(20.6128 13.7322 0)
(20.4666 13.9033 1.37733e-20)
(20.3155 14.0755 1.40657e-20)
(20.1593 14.2487 -1.43859e-20)
(19.9974 14.4228 9.41233e-20)
(19.8293 14.5979 -2.12686e-19)
(19.6546 14.774 9.22948e-20)
(19.473 14.9512 1.17671e-20)
(19.2839 15.1294 -1.19469e-19)
(19.0873 15.3087 2.31825e-19)
(18.8823 15.489 -1.09614e-19)
(18.6687 15.6702 2.59488e-21)
(18.4455 15.8522 7.23172e-21)
(18.2122 16.035 -1.41273e-19)
(17.9681 16.218 1.45933e-19)
(17.7124 16.4012 -1.59935e-19)
(17.4442 16.5841 3.46324e-19)
(17.1626 16.7659 -3.85696e-19)
(16.8663 16.946 2.06174e-19)
(16.554 17.1234 2.4399e-19)
(16.2244 17.2967 -2.21428e-19)
(15.8761 17.4646 2.78178e-19)
(15.5073 17.6252 -3.0122e-19)
(15.1168 17.7765 3.90222e-20)
(14.7029 17.9155 -1.87405e-20)
(14.2643 18.0392 -2.09293e-20)
(13.7999 18.1439 2.34697e-20)
(13.3091 18.2251 -1.32118e-20)
(12.7919 18.2778 -2.59024e-19)
(12.249 18.2961 2.63555e-19)
(11.6823 18.2734 -4.6294e-20)
(11.0955 18.203 -5.16424e-20)
(10.494 18.0776 0)
(9.88556 17.8907 0)
(9.28115 17.6373 0)
(8.6942 17.3146 2.86116e-19)
(8.13966 16.9238 -2.81929e-19)
(7.63572 16.4706 0)
(21.1404 12.8195 -2.77033e-20)
(21.0162 12.9651 4.03147e-20)
(20.8892 13.1147 1.56255e-20)
(20.7593 13.2653 0)
(20.6268 13.4174 2.86337e-21)
(20.4908 13.5703 0)
(20.3508 13.7242 -3.06283e-20)
(20.2061 13.8791 -1.41087e-20)
(20.0566 14.0351 -3.30503e-20)
(19.902 14.1919 -1.86739e-21)
(19.7415 14.3496 -1.98865e-21)
(19.5748 14.508 1.03066e-19)
(19.4013 14.667 0)
(19.2204 14.8268 0)
(19.032 14.9875 1.57182e-19)
(18.8358 15.1488 -1.67303e-19)
(18.6312 15.3104 1.62049e-19)
(18.4174 15.4724 -3.53442e-19)
(18.1938 15.6343 -5.26531e-21)
(17.9596 15.7959 5.22562e-21)
(17.7143 15.9571 1.92196e-19)
(17.4569 16.1173 2.76055e-20)
(17.1867 16.2759 -1.60141e-20)
(16.903 16.432 -1.4482e-20)
(16.6044 16.5848 0)
(16.2898 16.733 2.91293e-21)
(15.958 16.8752 0)
(15.6078 17.0098 1.79109e-19)
(15.238 17.1348 -2.06269e-19)
(14.8476 17.2477 0)
(14.4354 17.3454 -3.03703e-20)
(14.001 17.4247 0)
(13.5442 17.482 0)
(13.0658 17.5131 -3.56172e-19)
(12.5672 17.5132 3.24903e-19)
(12.0512 17.477 9.50412e-20)
(11.5219 17.399 -3.2951e-21)
(10.9844 17.2743 4.8125e-19)
(10.4461 17.0979 -4.91191e-19)
(9.91589 16.867 -7.16137e-20)
(9.40454 16.5804 -7.77594e-20)
(8.92384 16.2405 4.23259e-20)
(8.48579 15.853 0)
(21.0115 12.746 -1.72669e-20)
(20.8919 12.8784 0)
(20.7703 13.0131 2.3914e-21)
(20.6458 13.1489 3.48637e-20)
(20.519 13.2863 -1.21905e-19)
(20.3893 13.4247 7.05432e-20)
(20.256 13.5637 1.68765e-20)
(20.1179 13.7036 0)
(19.9751 13.8449 -1.75946e-20)
(19.8277 13.9872 2.06985e-20)
(19.6749 14.1303 -1.02118e-19)
(19.5166 14.2743 -3.24212e-20)
(19.352 14.4184 1.69411e-19)
(19.1796 14.563 -8.62904e-20)
(18.9996 14.7085 0)
(18.8124 14.8545 1.25657e-20)
(18.6173 15.0007 -1.3108e-20)
(18.4137 15.1468 1.19301e-19)
(18.2007 15.2924 5.88213e-21)
(17.9775 15.4374 -1.26088e-19)
(17.7435 15.5815 -1.40218e-19)
(17.4979 15.7242 1.11381e-19)
(17.2404 15.865 3.41681e-20)
(16.9706 16.0033 0)
(16.6873 16.1377 -1.6163e-19)
(16.3899 16.2673 -6.19067e-21)
(16.077 16.3907 1.78521e-19)
(15.7478 16.5063 0)
(15.4015 16.6124 -2.80094e-20)
(15.0377 16.7067 -2.72082e-19)
(14.6554 16.7862 4.78861e-20)
(14.2539 16.8478 3.07967e-19)
(13.8329 16.8882 -3.17544e-19)
(13.393 16.9042 3.69954e-19)
(12.9365 16.8918 4.43958e-20)
(12.4663 16.8466 -4.8935e-20)
(11.986 16.7642 1.10674e-19)
(11.5004 16.6406 0)
(11.0152 16.4723 -6.74936e-20)
(10.5373 16.2569 -2.1973e-21)
(10.0752 15.9943 4.00448e-19)
(9.63806 15.6873 -2.36421e-19)
(9.23492 15.3408 -2.64245e-19)
(20.896 12.6776 1.68625e-20)
(20.7829 12.7993 0)
(20.6678 12.9208 -1.8206e-20)
(20.5484 13.0438 0)
(20.4269 13.1687 0)
(20.3031 13.2946 4.09519e-20)
(20.1765 13.421 -4.0705e-20)
(20.045 13.5478 8.5069e-20)
(19.908 13.6765 2.21581e-21)
(19.7673 13.8063 -9.58759e-20)
(19.6209 13.9371 -6.99304e-20)
(19.4695 14.0696 1.14235e-19)
(19.314 14.2018 8.43883e-20)
(19.1502 14.3333 -9.71746e-20)
(18.9773 14.4663 1.17265e-19)
(18.7978 14.6 -2.25336e-19)
(18.6106 14.7339 1.22228e-19)
(18.4158 14.8673 -1.31885e-19)
(18.2121 15 1.05104e-19)
(17.9986 15.1318 0)
(17.7747 15.2624 1.61233e-20)
(17.5391 15.391 0)
(17.2913 15.5178 -3.79263e-20)
(17.0321 15.6421 0)
(16.7604 15.7624 0)
(16.4754 15.8778 -4.62709e-20)
(16.1762 15.987 -2.04563e-19)
(15.862 16.0881 1.82101e-19)
(15.532 16.1797 2.80239e-20)
(15.1859 16.2606 -2.60742e-19)
(14.8243 16.328 2.67908e-19)
(14.4472 16.378 2.70079e-19)
(14.0528 16.4075 -3.14501e-19)
(13.6402 16.4139 1.39032e-19)
(13.2122 16.3947 -1.86939e-19)
(12.7733 16.3453 0)
(12.3256 16.2627 -1.14377e-19)
(11.8752 16.1432 0)
(11.4266 15.9835 6.68169e-20)
(10.9857 15.7818 1.45968e-19)
(10.5589 15.5374 1.61664e-19)
(10.1517 15.254 -7.90447e-20)
(9.77365 14.9361 8.88795e-20)
(20.7928 12.6207 0)
(20.6873 12.7287 -1.09605e-20)
(20.5802 12.8375 -1.12078e-20)
(20.4649 12.9492 0)
(20.3486 13.0635 -4.42606e-20)
(20.2299 13.1788 5.54077e-20)
(20.11 13.2949 4.57757e-20)
(19.9862 13.4101 -4.5522e-20)
(19.8531 13.5279 -1.20516e-20)
(19.7189 13.6473 -1.15357e-20)
(19.5792 13.7664 1.12347e-19)
(19.4312 13.8895 -1.11729e-19)
(19.2839 14.0132 1.25161e-20)
(19.1307 14.1338 0)
(18.964 14.2555 -1.34035e-20)
(18.7916 14.379 -1.479e-20)
(18.6109 14.5028 1.53254e-20)
(18.4233 14.6266 0)
(18.2276 14.7491 -1.67455e-20)
(18.0229 14.8706 -1.76056e-20)
(17.8087 14.9906 1.85474e-20)
(17.5835 15.1079 0)
(17.3442 15.2233 1.97926e-20)
(17.0942 15.3367 0)
(16.8326 15.4457 0)
(16.5587 15.55 2.40068e-20)
(16.2712 15.6487 0)
(15.9703 15.7392 2.61312e-19)
(15.6539 15.8192 -2.39558e-19)
(15.3216 15.8884 -1.25355e-21)
(14.9748 15.9468 -1.81729e-19)
(14.6171 15.9896 -4.77389e-20)
(14.2457 16.0114 3.36249e-19)
(13.8576 16.0098 -1.77284e-19)
(13.4521 15.9856 -2.03381e-19)
(13.0387 15.9334 -1.23526e-20)
(12.6147 15.8507 2.24281e-19)
(12.1901 15.735 0)
(11.7675 15.5831 -3.46585e-19)
(11.3536 15.3936 2.10855e-19)
(10.9535 15.1634 -7.78025e-20)
(10.5674 14.8982 4.69618e-21)
(10.207 14.6013 -1.7128e-19)
(20.6953 12.5581 2.20518e-20)
(20.5965 12.6641 -3.45111e-20)
(20.4997 12.7632 3.5068e-20)
(20.3913 12.8641 0)
(20.2844 12.9701 0)
(20.173 13.0757 -6.04741e-20)
(20.0589 13.184 4.67261e-20)
(19.945 13.2886 0)
(19.8152 13.3956 1.22439e-20)
(19.6857 13.5088 0)
(19.5555 13.6164 4.01821e-20)
(19.4095 13.7284 -5.40054e-20)
(19.2661 13.8474 -5.53812e-20)
(19.1262 13.9606 5.45167e-20)
(18.964 14.0717 0)
(18.8011 14.186 -4.67678e-20)
(18.6295 14.2999 1.11405e-19)
(18.4511 14.4152 -6.5037e-20)
(18.2632 14.5298 1.69637e-20)
(18.0656 14.6431 9.16407e-20)
(17.858 14.7557 -9.40038e-20)
(17.6461 14.8637 0)
(17.4146 14.969 0)
(17.173 15.0744 0)
(16.9196 15.1746 0)
(16.6574 15.268 0)
(16.3808 15.3579 0)
(16.0925 15.4414 -1.20802e-19)
(15.7853 15.5144 1.54017e-19)
(15.4632 15.5732 3.34805e-20)
(15.1226 15.6224 -1.88834e-19)
(14.7729 15.6601 1.94628e-19)
(14.4058 15.6827 0)
(14.0391 15.6766 0)
(13.6469 15.6491 0)
(13.257 15.5951 0)
(12.8533 15.5099 2.95397e-19)
(12.4563 15.3937 -2.44212e-19)
(12.0632 15.2431 6.72069e-20)
(11.6783 15.0628 0)
(11.3082 14.8397 7.73578e-20)
(10.9314 14.5952 -8.59026e-20)
(10.5782 14.3176 1.68673e-19)
(-4.85599 18.7854 -3.36643e-19)
(-4.02871 17.0671 2.77076e-19)
(-3.2113 15.5754 -8.50718e-20)
(-2.42999 14.3969 8.69829e-20)
(-1.69285 13.4258 0)
(-1.00206 12.6064 0)
(-0.356009 11.9048 -4.49755e-20)
(0.246594 11.2976 3.29908e-20)
(0.807451 10.7679 -7.40772e-20)
(1.32805 10.3021 0)
(1.8118 9.88989 0)
(2.26202 9.52185 0)
(2.68229 9.19069 6.44665e-20)
(3.07694 8.89189 -6.21514e-20)
(3.44887 8.6201 0)
(3.80034 8.37139 -1.79103e-18)
(4.13315 8.14203 1.84904e-18)
(4.44895 7.92915 1.74372e-18)
(4.74934 7.73051 -1.80507e-18)
(5.0357 7.54392 0)
(5.30935 7.36798 1.00821e-19)
(5.57137 7.20094 9.86941e-20)
(5.82287 7.04178 0)
(6.0648 6.88959 0)
(6.29792 6.74328 9.66581e-20)
(6.52301 6.60216 -1.58262e-18)
(6.74076 6.46564 1.47525e-18)
(6.95172 6.33313 -1.8653e-19)
(7.15645 6.20425 1.8506e-19)
(7.35535 6.07845 -1.8394e-19)
(7.54882 5.95543 -1.79319e-19)
(7.73725 5.83493 -1.78907e-19)
(7.92094 5.71665 0)
(8.10014 5.60036 -1.43187e-18)
(8.2751 5.48586 7.1958e-19)
(8.44605 5.37297 1.80184e-19)
(8.61322 5.26164 7.1348e-19)
(8.77687 5.15173 -7.09775e-19)
(8.93721 5.04315 -3.49773e-19)
(9.0945 4.93581 0)
(9.24898 4.82962 3.43555e-21)
(9.40054 4.72428 0)
(9.54952 4.6202 3.23219e-19)
(3.85594 17.3362 -5.53273e-20)
(3.30934 16.2996 2.72501e-19)
(3.02545 15.3432 -2.40592e-19)
(2.91496 14.4725 -3.27355e-20)
(2.92195 13.6867 0)
(3.00936 12.981 0)
(3.15204 12.3488 6.56959e-19)
(3.33188 11.7831 -6.37737e-19)
(3.53626 11.2765 1.97057e-21)
(3.75699 10.8207 0)
(3.98756 10.4092 6.30768e-20)
(4.22294 10.0358 -6.13078e-20)
(4.45965 9.69521 -1.05223e-18)
(4.69521 9.38288 1.07265e-18)
(4.92791 9.09494 -1.85442e-18)
(5.15657 8.8283 1.90348e-18)
(5.38051 8.58016 0)
(5.5992 8.34817 -1.03212e-19)
(5.81255 8.1304 0)
(6.02049 7.92517 1.50941e-18)
(6.22301 7.73096 -1.00323e-19)
(6.42024 7.54651 -1.6383e-18)
(6.61238 7.37078 1.4184e-18)
(6.79965 7.20282 -1.39829e-18)
(6.98221 7.04177 1.46644e-18)
(7.16028 6.88696 -3.20677e-21)
(7.33408 6.73773 -1.43866e-18)
(7.50384 6.59357 0)
(7.66972 6.45399 -1.24097e-18)
(7.83195 6.31852 2.9994e-18)
(7.99067 6.18682 -1.23394e-18)
(8.14607 6.05851 1.76647e-19)
(8.29833 5.93334 -1.4046e-18)
(8.44757 5.811 2.11174e-18)
(8.59388 5.69119 1.72378e-19)
(8.7374 5.57375 -8.81725e-19)
(8.8783 5.45855 -1.74607e-19)
(9.01676 5.34544 3.5205e-19)
(9.15291 5.23427 5.23588e-19)
(9.28689 5.12488 -1.72628e-19)
(9.41879 5.01712 5.13936e-19)
(9.54842 4.91174 1.6739e-19)
(9.67728 4.81874 -1.6855e-19)
(5.33652 16.825 5.08793e-20)
(4.9779 16.1341 0)
(4.73473 15.4259 5.48648e-20)
(4.59033 14.7288 0)
(4.52628 14.0604 1.19044e-19)
(4.52652 13.4299 -1.16468e-19)
(4.57745 12.8414 -6.40806e-20)
(4.66759 12.2957 -4.26739e-19)
(4.78756 11.7917 5.34932e-19)
(4.92939 11.3273 -8.93343e-19)
(5.0867 10.8995 1.73764e-18)
(5.25452 10.5054 -8.44965e-19)
(5.42894 10.1418 1.00606e-18)
(5.60702 9.80557 -8.14726e-19)
(5.7865 9.49383 1.05567e-19)
(5.96584 9.20407 -1.0681e-19)
(6.1439 8.93388 8.13187e-19)
(6.31991 8.68122 -6.899e-19)
(6.49331 8.44425 0)
(6.66373 8.22126 1.91313e-19)
(6.83089 8.01078 0)
(6.99477 7.81154 9.09282e-20)
(7.15534 7.62244 1.44668e-18)
(7.31261 7.44238 -2.93922e-18)
(7.46664 7.27049 1.9988e-25)
(7.61756 7.10597 2.70085e-18)
(7.76545 6.94814 -1.38287e-18)
(7.9104 6.79631 -1.28816e-18)
(8.05251 6.64991 -1.71298e-19)
(8.19193 6.50848 1.19269e-18)
(8.32875 6.37155 -1.69092e-19)
(8.46306 6.23868 -5.11324e-19)
(8.59496 6.10955 1.36316e-18)
(8.72451 5.98378 -1.36539e-18)
(8.85175 5.86111 3.42508e-19)
(8.97674 5.74135 -5.13837e-19)
(9.09966 5.6243 3.45852e-19)
(9.22066 5.50979 1.72508e-19)
(9.33982 5.39753 -5.1173e-19)
(9.45721 5.28726 1.69851e-19)
(9.57281 5.17856 -1.46246e-19)
(9.68653 5.0718 -2.07226e-20)
(9.79903 4.97755 -3.18283e-19)
(7.19821 15.9663 0)
(6.83477 15.4254 5.54365e-20)
(6.54749 14.8653 -2.1518e-19)
(6.33278 14.3025 2.63996e-20)
(6.18369 13.7494 2.83884e-20)
(6.09182 13.2148 2.3845e-19)
(6.04865 12.7042 -2.32946e-19)
(6.04581 12.2209 -5.89705e-20)
(6.07584 11.7662 0)
(6.13211 11.3403 -5.79821e-20)
(6.20921 10.9424 6.2674e-19)
(6.30233 10.5712 -3.33596e-19)
(6.4075 10.2249 -1.0986e-19)
(6.52164 9.90156 -1.07479e-19)
(6.64235 9.59943 -1.05045e-19)
(6.76747 9.31659 -7.16811e-19)
(6.89553 9.05139 6.96395e-19)
(7.02532 8.80217 7.80261e-19)
(7.15592 8.56751 -1.52444e-18)
(7.28664 8.346 7.44331e-19)
(7.41691 8.13644 9.06797e-20)
(7.54647 7.93773 -9.06824e-20)
(7.67498 7.74884 -7.07478e-19)
(7.80217 7.56879 -8.69282e-20)
(7.92796 7.39683 -1.33675e-22)
(8.05227 7.23221 8.60611e-20)
(8.17499 7.07426 6.77397e-19)
(8.29602 6.92234 -7.57356e-19)
(8.41537 6.77594 5.86754e-19)
(8.53307 6.63463 6.67065e-19)
(8.64909 6.49792 1.66909e-19)
(8.76348 6.36546 -8.33997e-19)
(8.87624 6.23681 -1.65605e-19)
(8.98725 6.11164 0)
(9.09654 5.98979 1.6817e-19)
(9.20416 5.87107 -5.03329e-19)
(9.31028 5.75529 3.3765e-19)
(9.41511 5.64218 1.64376e-21)
(9.51867 5.53141 9.44004e-22)
(9.62099 5.42272 1.6705e-19)
(9.72223 5.31577 1.66248e-19)
(9.82296 5.21056 -1.62852e-19)
(9.92437 5.1107 -1.58455e-19)
(8.09858 15.4253 9.5091e-20)
(7.76737 14.9663 2.53025e-19)
(7.49404 14.487 -2.06179e-19)
(7.27752 13.9992 -1.07722e-19)
(7.11489 13.5128 0)
(7.00067 13.0362 0)
(6.92901 12.5747 -2.29097e-19)
(6.89388 12.1324 3.35919e-19)
(6.88956 11.7115 4.54392e-19)
(6.91067 11.3133 -4.41666e-19)
(6.95265 10.9378 -1.11551e-19)
(7.01143 10.5846 -1.09661e-19)
(7.0834 10.2526 -1.05251e-19)
(7.16568 9.94067 0)
(7.25585 9.64754 -1.00978e-19)
(7.3519 9.37191 -9.98942e-19)
(7.4522 9.11246 9.43453e-20)
(7.55557 8.86786 7.61736e-19)
(7.66104 8.63698 0)
(7.76788 8.4186 -9.26139e-20)
(7.87548 8.21172 -9.08723e-20)
(7.98339 8.01533 -7.96462e-19)
(8.09123 7.82848 8.67645e-20)
(8.19871 7.6503 8.58859e-19)
(8.3056 7.48007 6.79144e-19)
(8.41169 7.31708 -7.55042e-19)
(8.51679 7.16069 0)
(8.62084 7.01038 0)
(8.72372 6.86561 8.28039e-20)
(8.82539 6.72597 0)
(8.92587 6.59108 0)
(9.02519 6.4605 6.53684e-19)
(9.12323 6.33373 -3.27442e-19)
(9.21974 6.21056 -8.17974e-19)
(9.31469 6.0909 8.20323e-19)
(9.40827 5.97463 1.63713e-19)
(9.50073 5.8615 -1.63821e-19)
(9.59235 5.7511 6.60214e-19)
(9.68294 5.64315 -1.64765e-19)
(9.77252 5.53754 2.46672e-19)
(9.86121 5.43444 8.09487e-20)
(9.94963 5.3342 3.23364e-19)
(10.0374 5.23403 1.59637e-19)
(8.87301 14.9607 -9.44014e-20)
(8.55672 14.5536 -9.9282e-20)
(8.28799 14.1274 1.03448e-19)
(8.06725 13.6912 1.0679e-19)
(7.89279 13.253 1.0822e-19)
(7.76064 12.8199 -1.09622e-19)
(7.66653 12.3973 1.10255e-19)
(7.60623 11.9889 -1.51301e-21)
(7.57486 11.5973 -1.09682e-19)
(7.56791 11.2243 -3.32614e-19)
(7.58186 10.8705 5.3614e-19)
(7.61329 10.5356 -4.27883e-19)
(7.65874 10.2189 4.17192e-19)
(7.7151 9.91983 -1.01733e-19)
(7.7802 9.63774 1.01182e-19)
(7.85225 9.37157 1.96762e-19)
(7.92962 9.12024 0)
(8.01115 8.88274 0)
(8.09584 8.6581 -9.18439e-20)
(8.1829 8.44534 0)
(8.27168 8.24349 -6.25111e-19)
(8.36164 8.05166 7.0086e-19)
(8.45248 7.86899 -8.56524e-20)
(8.54376 7.69467 5.94749e-19)
(8.63502 7.52794 -7.54418e-19)
(8.72597 7.36826 1.66039e-19)
(8.81655 7.21509 0)
(8.90652 7.06786 8.11804e-20)
(8.99567 6.92608 7.30179e-19)
(9.08397 6.78948 -6.46593e-19)
(9.17153 6.65772 0)
(9.25845 6.53013 0)
(9.34421 6.40623 -4.84005e-19)
(9.42837 6.28604 1.62282e-19)
(9.51105 6.16964 1.60981e-19)
(9.59265 6.05686 -1.44352e-21)
(9.67362 5.94737 0)
(9.75423 5.84047 -3.25071e-19)
(9.83374 5.73594 1.62427e-19)
(9.91224 5.63398 -3.2391e-19)
(9.98978 5.53488 -1.17551e-21)
(10.0675 5.43878 -1.60592e-19)
(10.145 5.33479 -1.57095e-19)
(9.43101 14.5886 9.37801e-20)
(9.12818 14.2169 0)
(8.86741 13.8273 -1.01261e-19)
(8.64882 13.4273 1.17267e-19)
(8.47122 13.0234 -6.81033e-20)
(8.3312 12.6219 -5.50048e-20)
(8.22544 12.2285 -1.13677e-19)
(8.15121 11.8461 2.13352e-19)
(8.10349 11.4771 2.16353e-19)
(8.07892 11.1246 1.08064e-19)
(8.07514 10.7889 2.14863e-19)
(8.08935 10.4694 -4.1486e-19)
(8.11742 10.1656 1.33491e-21)
(8.15599 9.87789 1.3056e-21)
(8.20361 9.60602 -9.83336e-20)
(8.25895 9.34874 -1.23171e-21)
(8.32005 9.10512 0)
(8.38585 8.87461 -3.73671e-19)
(8.45548 8.65639 4.56803e-19)
(8.52805 8.44945 0)
(8.60308 8.25298 -8.86703e-20)
(8.67988 8.06614 1.73352e-19)
(8.75815 7.88804 8.58103e-20)
(8.83728 7.71779 -6.73443e-19)
(8.91653 7.55482 7.47367e-19)
(8.99586 7.39888 -8.25714e-20)
(9.07517 7.24928 0)
(9.15409 7.10542 -8.11371e-20)
(9.23233 6.96702 -7.93808e-22)
(9.30997 6.83396 3.98897e-19)
(9.38738 6.70585 -3.18404e-19)
(9.46473 6.58156 -3.17924e-19)
(9.54027 6.46065 -7.90766e-20)
(9.61386 6.34388 1.30742e-22)
(9.68616 6.23142 6.37323e-19)
(9.75792 6.12276 -4.79787e-19)
(9.8297 6.0174 -1.59932e-19)
(9.90153 5.91415 1.60995e-19)
(9.97143 5.81319 1.60475e-19)
(10.0403 5.71517 1.60784e-19)
(10.1079 5.62055 -1.08098e-21)
(10.1761 5.52993 1.57995e-19)
(10.2428 5.43172 1.52756e-19)
(9.87772 14.2774 2.03461e-21)
(9.58525 13.9317 -1.89449e-19)
(9.33112 13.5689 7.41427e-20)
(9.11532 13.196 -1.78385e-19)
(8.93735 12.8174 -1.04086e-19)
(8.79226 12.4405 1.05447e-19)
(8.67834 12.0704 -2.13023e-19)
(8.59484 11.7087 -1.07035e-19)
(8.53438 11.357 -1.09548e-21)
(8.49735 11.0226 -2.10835e-19)
(8.48144 10.7023 1.01414e-19)
(8.48389 10.3952 -5.12655e-19)
(8.49859 10.1017 1.00591e-18)
(8.5227 9.82443 -2.94346e-19)
(8.55701 9.56236 1.09047e-21)
(8.60003 9.31304 -9.59246e-20)
(8.64808 9.07604 0)
(8.7016 8.85247 0)
(8.75963 8.6407 0)
(8.82083 8.43936 -8.80763e-20)
(8.88518 8.24843 3.48747e-19)
(8.95154 8.06641 -8.56367e-19)
(9.02009 7.89293 3.36929e-19)
(9.08972 7.7264 -8.27168e-20)
(9.15923 7.56722 8.16766e-20)
(9.22931 7.41513 -8.07727e-20)
(9.29981 7.26915 -3.21921e-19)
(9.36982 7.12858 3.19043e-19)
(9.43925 6.99379 -1.58509e-19)
(9.50836 6.8646 -3.94765e-19)
(9.57781 6.7403 -1.60136e-22)
(9.64764 6.6188 3.13922e-19)
(9.7137 6.50062 3.14461e-19)
(9.77838 6.38815 -3.14053e-19)
(9.84244 6.28038 -3.14322e-19)
(9.90646 6.1761 3.15032e-19)
(9.97098 6.07484 1.57828e-19)
(10.0358 5.97471 -3.16452e-19)
(10.0965 5.87695 1.58476e-19)
(10.1576 5.78304 0)
(10.216 5.69198 -2.47041e-19)
(10.2764 5.60424 -1.47725e-19)
(10.3316 5.50551 1.48062e-19)
(10.2528 14.0119 0)
(9.96501 13.6856 4.66202e-20)
(9.71423 13.3436 4.76172e-20)
(9.49963 12.9924 1.11363e-19)
(9.32118 12.6311 -1.23131e-20)
(9.16944 12.276 0)
(9.04864 11.9245 0)
(8.95952 11.5822 2.00427e-19)
(8.88789 11.2431 -2.02767e-19)
(8.84149 10.9302 3.12897e-19)
(8.81908 10.6184 -2.02164e-19)
(8.81504 10.3186 1.00419e-19)
(8.81883 10.0339 1.95765e-19)
(8.83141 9.76881 -1.94101e-19)
(8.85729 9.51588 9.30285e-22)
(8.89202 9.27194 0)
(8.9291 9.03951 0)
(8.97361 8.82454 9.16107e-20)
(9.02254 8.61868 0)
(9.074 8.42107 8.93105e-20)
(9.1304 8.23645 0)
(9.18861 8.05753 8.56058e-20)
(9.25106 7.88941 0)
(9.31394 7.72518 8.28805e-20)
(9.37526 7.57014 -8.25444e-20)
(9.43837 7.42178 8.17025e-20)
(9.5019 7.27928 8.03607e-20)
(9.56406 7.14165 -2.39466e-19)
(9.62553 7.0113 3.99412e-19)
(9.68613 6.88552 2.39143e-19)
(9.74821 6.76359 -2.35708e-19)
(9.81267 6.6438 -3.03503e-19)
(9.86989 6.52922 3.10654e-19)
(9.92687 6.42402 0)
(9.98272 6.32102 8.01039e-20)
(10.0388 6.21983 -1.59507e-19)
(10.096 6.12159 2.3459e-19)
(10.1555 6.02367 7.5457e-20)
(10.2075 5.92925 -5.44229e-22)
(10.2641 5.84141 7.76127e-20)
(10.3124 5.75308 1.55321e-19)
(10.3698 5.67053 7.73987e-20)
(10.4166 5.56891 7.38322e-20)
(-2.48923 -2.45919 0)
(-2.32049 -2.50676 1.25633e-19)
(-2.15261 -2.5536 1.31589e-19)
(-1.98595 -2.59866 -1.34125e-19)
(-1.82094 -2.64194 3.41067e-19)
(-1.65783 -2.68346 -2.76709e-19)
(-1.49676 -2.72324 7.04517e-20)
(-1.33783 -2.7613 6.79727e-20)
(-1.18113 -2.79765 7.13298e-20)
(-1.02673 -2.8323 -1.47178e-19)
(-0.874625 -2.86529 -2.62902e-21)
(-0.72488 -2.89664 7.0975e-20)
(-0.577523 -2.92636 -7.09372e-20)
(-0.432558 -2.95449 0)
(-0.289972 -2.98106 1.15903e-19)
(-0.14973 -3.00611 -1.18911e-19)
(-0.0118517 -3.02964 3.81401e-20)
(0.123726 -3.05169 0)
(0.257029 -3.07227 0)
(0.388085 -3.09143 -4.43612e-20)
(0.516929 -3.10921 4.64218e-20)
(0.643566 -3.12565 4.80909e-20)
(0.767985 -3.14078 1.00483e-19)
(0.89021 -3.15466 -2.56891e-20)
(1.01026 -3.16738 -1.12379e-19)
(1.12813 -3.17901 -2.78979e-20)
(1.24384 -3.18964 0)
(1.3574 -3.19936 1.35186e-19)
(1.46877 -3.20831 -1.12194e-19)
(1.57801 -3.21656 1.5809e-19)
(1.68509 -3.22428 -2.14703e-19)
(1.79005 -3.23146 0)
(1.89289 -3.23822 0)
(1.9937 -3.24448 -8.7764e-20)
(2.09286 -3.25004 5.29613e-19)
(2.19119 -3.25445 -5.69123e-19)
(2.29086 -3.25674 4.38057e-20)
(2.39772 -3.25561 0)
(2.52804 -3.25103 0)
(2.73097 -3.25078 0)
(3.16598 -3.30415 8.19081e-20)
(4.36709 -3.67495 -9.74498e-20)
(8.46614 -5.54829 0)
(-2.42588 -2.48182 2.04454e-22)
(-2.26985 -2.52612 6.36116e-20)
(-2.1151 -2.57015 -1.95811e-19)
(-1.96128 -2.61274 0)
(-1.80868 -2.65399 -2.18719e-22)
(-1.65749 -2.69394 6.78349e-20)
(-1.50784 -2.73262 -6.86219e-20)
(-1.35976 -2.77009 0)
(-1.2133 -2.80637 -6.96233e-20)
(-1.06845 -2.84148 -6.94746e-20)
(-0.92522 -2.87545 7.05108e-20)
(-0.783657 -2.90829 1.41218e-19)
(-0.643771 -2.94003 0)
(-0.505519 -2.9707 3.67842e-20)
(-0.368878 -3.00033 4.90248e-22)
(-0.23381 -3.02897 7.49964e-20)
(-0.100258 -3.05662 -3.84016e-20)
(0.0318507 -3.0833 1.05798e-21)
(0.16259 -3.10898 2.10523e-22)
(0.292037 -3.13366 4.21104e-20)
(0.420243 -3.15731 -4.47612e-20)
(0.547239 -3.17991 -9.23424e-20)
(0.673088 -3.2014 -4.89293e-20)
(0.797829 -3.22177 -1.01553e-19)
(0.921577 -3.24101 5.31592e-20)
(1.04438 -3.25907 0)
(1.1663 -3.27591 -1.198e-19)
(1.28747 -3.29148 1.28831e-19)
(1.40807 -3.30566 -1.38089e-19)
(1.52837 -3.3184 1.4997e-19)
(1.6488 -3.3295 -1.62368e-19)
(1.77005 -3.33875 1.78166e-19)
(1.89327 -3.34579 2.44541e-19)
(2.02047 -3.3502 -2.17701e-19)
(2.15537 -3.3515 1.77833e-19)
(2.30503 -3.34938 -2.68097e-19)
(2.4832 -3.34466 3.79748e-20)
(2.71825 -3.34117 5.79406e-19)
(3.06898 -3.35307 -7.58909e-19)
(3.66317 -3.42654 -1.01663e-19)
(4.78866 -3.70915 8.08312e-19)
(7.11373 -4.63568 -1.24072e-19)
(12.1337 -7.23931 -8.02366e-19)
(-2.36162 -2.49523 -6.2283e-20)
(-2.21541 -2.53849 1.90218e-19)
(-2.07032 -2.58157 6.45801e-20)
(-1.92575 -2.6233 1.31613e-19)
(-1.78202 -2.66386 -1.99468e-19)
(-1.63927 -2.70333 -6.6593e-20)
(-1.49764 -2.74177 6.66408e-20)
(-1.35715 -2.77926 6.76985e-20)
(-1.21777 -2.81585 -6.97975e-20)
(-1.07943 -2.85155 1.36492e-19)
(-0.942162 -2.88633 -1.04195e-19)
(-0.806014 -2.92018 3.51481e-20)
(-0.670996 -2.95311 0)
(-0.537061 -2.98516 -3.54266e-20)
(-0.404185 -3.01636 -7.27208e-20)
(-0.272285 -3.04676 3.76034e-20)
(-0.141279 -3.07638 0)
(-0.011092 -3.10523 -3.86828e-20)
(0.118462 -3.13332 -4.06578e-20)
(0.247523 -3.16062 -3.55737e-22)
(0.376175 -3.18706 4.28045e-20)
(0.50456 -3.21259 4.46006e-20)
(0.63284 -3.23711 -9.5403e-22)
(0.761245 -3.26057 1.49975e-19)
(0.889956 -3.28284 0)
(1.01921 -3.3038 0)
(1.14928 -3.32327 0)
(1.28069 -3.34111 3.2039e-20)
(1.41407 -3.35709 0)
(1.55032 -3.37093 0)
(1.69085 -3.38233 -1.56713e-19)
(1.83766 -3.39088 1.70833e-19)
(1.99414 -3.39621 1.11765e-21)
(2.16566 -3.398 4.96176e-20)
(2.36111 -3.39646 3.27506e-19)
(2.59575 -3.39291 -2.41446e-19)
(2.89549 -3.39188 1.92137e-19)
(3.3072 -3.4055 -2.16653e-19)
(3.91823 -3.46392 -7.45841e-20)
(4.89292 -3.643 8.55751e-20)
(6.53825 -4.12831 5.87794e-19)
(9.44246 -5.35298 -7.05657e-19)
(14.2399 -7.99051 0)
(-2.29915 -2.50109 1.21685e-19)
(-2.16191 -2.54232 2.48772e-22)
(-2.0256 -2.58337 -6.35247e-20)
(-1.88961 -2.6232 -6.45157e-20)
(-1.75411 -2.66201 6.51328e-20)
(-1.61925 -2.69985 -7.01343e-22)
(-1.48507 -2.73682 0)
(-1.3516 -2.77302 0)
(-1.21878 -2.80858 6.68302e-20)
(-1.08647 -2.84349 -3.38373e-20)
(-0.954618 -2.8777 -1.71758e-22)
(-0.823211 -2.91116 -3.45205e-20)
(-0.692329 -2.94385 3.50916e-20)
(-0.561934 -2.97581 0)
(-0.431963 -3.00708 0)
(-0.302398 -3.03767 3.73107e-20)
(-0.173083 -3.06765 3.78305e-20)
(-0.0438823 -3.09707 -3.90226e-20)
(0.0854303 -3.12593 0)
(0.215088 -3.15419 4.11694e-20)
(0.345302 -3.18179 4.30497e-20)
(0.476354 -3.20864 -4.45336e-20)
(0.608549 -3.23462 4.70681e-20)
(0.742228 -3.25958 -4.8754e-20)
(0.877721 -3.28333 -5.2309e-20)
(1.01556 -3.30569 0)
(1.15642 -3.32642 0)
(1.30114 -3.34525 3.09795e-20)
(1.451 -3.36187 -3.35307e-20)
(1.60775 -3.37593 -7.05277e-20)
(1.77386 -3.38706 1.50015e-19)
(1.95302 -3.39492 -1.21887e-19)
(2.1507 -3.39936 -4.31924e-20)
(2.3756 -3.40066 0)
(2.64079 -3.40017 9.8275e-20)
(2.96718 -3.40162 -2.17415e-19)
(3.38958 -3.41374 -5.66191e-20)
(3.96681 -3.4562 5.97782e-20)
(4.79907 -3.57207 6.65889e-20)
(6.05551 -3.85453 -2.39729e-19)
(8.01984 -4.49776 2.7001e-19)
(11.1393 -5.88159 5.17542e-20)
(15.606 -8.42215 2.28112e-20)
(-2.23715 -2.50364 -6.01533e-20)
(-2.1083 -2.5415 0)
(-1.97992 -2.57983 -6.29892e-20)
(-1.85157 -2.61731 0)
(-1.72331 -2.65409 0)
(-1.59521 -2.69008 6.47702e-20)
(-1.46736 -2.7253 3.27011e-20)
(-1.33989 -2.75986 -3.29716e-20)
(-1.21265 -2.79399 -3.31195e-20)
(-1.08533 -2.82774 3.34577e-20)
(-0.957883 -2.86099 -1.54136e-22)
(-0.830178 -2.89368 6.84449e-20)
(-0.702351 -2.92564 3.47637e-20)
(-0.5744 -2.95695 -3.53252e-20)
(-0.446279 -2.98761 -3.57506e-20)
(-0.317963 -3.01761 -1.81976e-20)
(-0.1893 -3.04703 -6.33188e-23)
(-0.0601521 -3.07596 1.94409e-20)
(0.0697675 -3.10446 0)
(0.200791 -3.13251 0)
(0.333292 -3.16007 0)
(0.467714 -3.18702 -1.10727e-19)
(0.604496 -3.21323 1.15992e-19)
(0.744154 -3.23848 -9.73922e-20)
(0.88723 -3.26258 5.05495e-20)
(1.03455 -3.28531 0)
(1.18714 -3.30637 5.69824e-20)
(1.34632 -3.32547 0)
(1.51394 -3.34232 -3.23358e-20)
(1.69251 -3.35657 6.80052e-20)
(1.8856 -3.36787 0)
(2.09824 -3.37614 -1.14578e-19)
(2.33782 -3.38171 8.23828e-20)
(2.61514 -3.38566 -1.71786e-19)
(2.94669 -3.3906 2.33056e-19)
(3.35793 -3.40237 0)
(3.88899 -3.43325 5.22537e-20)
(4.6047 -3.50857 -2.541e-21)
(5.60689 -3.67954 5.32573e-20)
(7.05655 -4.04714 5.0475e-20)
(9.20601 -4.8036 0)
(12.3801 -6.27102 -7.4816e-20)
(16.5636 -8.70669 9.89884e-20)
(-2.17587 -2.50065 0)
(-2.05461 -2.53563 0)
(-1.9338 -2.57166 -7.36254e-23)
(-1.81248 -2.60691 -1.26096e-19)
(-1.6908 -2.64168 6.35761e-20)
(-1.5687 -2.67585 -3.20277e-20)
(-1.44638 -2.70921 3.22897e-20)
(-1.32412 -2.74186 -3.24891e-20)
(-1.20181 -2.77426 -3.2697e-20)
(-1.07889 -2.80657 6.5838e-20)
(-0.955226 -2.83859 -6.65469e-20)
(-0.830524 -2.87028 -3.34906e-20)
(-0.705084 -2.90123 -3.39593e-20)
(-0.578937 -2.93162 -1.75756e-20)
(-0.451945 -2.96139 5.31456e-20)
(-0.324056 -2.99049 9.02034e-20)
(-0.195269 -3.01891 -1.85333e-20)
(-0.0655056 -3.04677 1.93045e-20)
(0.0656043 -3.07428 -6.82831e-23)
(0.19856 -3.10145 -2.02837e-20)
(0.333821 -3.12823 -4.21212e-20)
(0.472005 -3.1546 -3.61717e-22)
(0.613694 -3.18036 -4.52877e-20)
(0.759649 -3.20531 4.73718e-20)