/*--------------------------------*- C++ -*----------------------------------*\
| =========                 |                                                 |
| \\      /  F ield         | OpenFOAM: The Open Source CFD Toolbox           |
|  \\    /   O peration     | Version:  2.3.0                                 |
|   \\  /    A nd           | Web:      www.OpenFOAM.org                      |
|    \\/     M anipulation  |                                                 |
\*---------------------------------------------------------------------------*/
FoamFile
{
    version     2.0;
    format      ascii;
    class       volScalarField;
    location    "10000";
    object      p;
}
// * * * * * * * * * * * * * * * * * * * * * * * * * * * * * * * * * * * * * //

dimensions      [0 2 -2 0 0 0 0];

internalField   nonuniform List<scalar> 
15443
(
0.000340899
-1.32038
-2.35337
-3.40434
-4.40893
-5.36956
-6.25983
-7.0478
-7.70408
-8.17199
-8.41223
-8.36599
-7.96364
-7.16684
-5.88787
-4.0157
-1.35995
2.12548
6.50253
12.3462
19.9389
25.6699
24.8116
33.2585
10.6384
10.7704
11.3533
12.0111
12.8509
13.9082
15.2491
16.9462
19.0944
21.7937
25.156
29.2944
34.3265
40.366
47.525
55.8953
65.5773
76.6291
89.0836
102.973
118.228
134.529
151.671
169.599
19.7938
20.7792
22.1686
23.6564
25.3359
27.2243
29.3514
31.7396
34.4197
37.4227
40.7878
44.559
48.7869
53.5208
58.8204
64.725
71.2904
78.5366
86.474
95.0857
104.299
114.03
124.223
134.781
27.8436
29.3306
31.2504
33.3032
35.5793
38.1033
40.9169
44.0535
47.5447
51.4292
55.7401
60.5093
65.7575
71.5065
77.7681
84.5459
91.827
99.5851
107.773
116.312
125.096
133.998
142.867
151.531
34.6958
36.4034
38.5684
40.8403
43.3016
45.9673
48.8588
51.9999
55.406
59.1084
63.1215
67.4761
72.1911
77.2892
82.7758
88.6633
94.9381
101.588
108.57
115.837
123.312
130.895
138.479
145.947
40.6794
42.3719
44.6381
47.0052
49.5609
52.3179
55.2915
58.504
61.9646
65.6989
69.7212
74.0489
78.689
83.6581
88.9524
94.5754
100.511
106.745
113.23
119.923
126.755
133.648
140.516
147.264
45.9142
47.3613
49.6103
51.9691
54.4934
57.2022
60.1042
63.2235
66.5686
70.1493
73.9876
78.0961
82.4844
87.1589
92.1289
97.3873
102.919
108.711
114.729
120.929
127.252
133.632
139.993
146.256
49.7976
51.3847
53.6426
56.0017
58.4833
61.1384
63.9586
66.9841
70.2348
73.6946
77.3997
81.3452
85.5486
89.998
94.7227
99.711
104.936
110.388
116.047
121.883
127.825
133.828
139.819
145.713
53.5484
55.0703
57.1559
59.4121
61.7573
64.3078
67.0279
69.9763
73.0982
76.3671
79.9299
83.7233
87.7677
92.0339
96.5749
101.339
106.323
111.524
116.929
122.472
128.086
133.796
139.546
145.242
57.1331
58.7271
60.4512
62.483
64.5357
66.8364
69.3387
72.2702
75.3
78.1814
81.4535
85.0581
88.9908
93.1522
97.6026
102.19
106.956
112.056
117.556
123.09
128.471
133.903
139.489
145.168
92.4808
131.093
156.735
176.656
192.846
205.899
216.316
224.545
231.053
236.242
240.308
243.361
245.5
246.812
247.379
247.287
246.622
245.466
243.9
242
239.835
237.443
234.74
231.73
186.101
198.818
209.226
217.839
224.874
230.494
234.867
238.163
240.546
242.143
243.062
243.414
243.3
242.816
242.04
241.037
239.851
238.511
237.033
235.422
233.662
231.748
229.9
228.308
145.467
156.033
166.183
175.666
184.344
192.159
199.087
205.147
210.379
214.831
218.552
221.6
224.028
225.889
227.229
228.101
228.546
228.611
228.336
227.76
226.905
225.785
224.609
223.746
159.864
167.835
175.384
182.404
188.819
194.596
199.719
204.202
208.072
211.366
214.125
216.397
218.225
219.656
220.727
221.478
221.942
222.145
222.11
221.858
221.391
220.703
219.955
219.528
153.25
160.373
167.234
173.731
179.788
185.355
190.405
194.933
198.944
202.459
205.502
208.102
210.291
212.099
213.557
214.695
215.541
216.12
216.456
216.568
216.465
216.145
215.769
215.727
153.834
160.208
166.33
172.126
177.538
182.526
187.07
191.164
194.814
198.036
200.852
203.285
205.365
207.117
208.567
209.743
210.67
211.37
211.861
212.159
212.27
212.199
212.12
212.408
152.369
158.31
164.013
169.415
174.471
179.147
183.424
187.297
190.771
193.86
196.585
198.962
201.024
202.783
204.266
205.499
206.51
207.312
207.922
208.351
208.604
208.684
208.734
209.039
151.461
157.068
162.45
167.532
172.306
176.716
180.764
184.433
187.731
190.673
193.296
195.591
197.609
199.323
200.783
202.018
203.063
203.916
204.595
205.099
205.453
205.665
205.808
206.265
150.671
156.073
161.254
166.06
170.614
174.768
178.614
182.09
185.224
188.044
190.62
192.837
194.804
196.43
197.84
199.057
200.145
201.049
201.768
202.3
202.713
203.013
203.231
203.243
150.542
156.035
161.03
165.406
169.769
173.508
177.086
180.291
183.217
185.916
188.407
190.221
192.273
193.805
195.194
196.462
197.708
198.655
199.395
199.974
200.495
200.867
201.191
201.017
-68.4036
-68.494
-68.5204
-68.4863
-68.3963
-68.2543
-68.0658
-67.8385
-67.5817
-67.2997
-66.9967
-66.6772
-66.3448
-66.0019
-65.6474
-65.2756
-64.8728
-64.4081
-63.8345
-63.1039
-62.1669
-60.917
-58.9333
-54.6504
-69.1342
-69.1505
-69.136
-69.0735
-68.9692
-68.8323
-68.6695
-68.4847
-68.2804
-68.0584
-67.8161
-67.5479
-67.2444
-66.8893
-66.4605
-65.9295
-65.2652
-64.4214
-63.3069
-61.7578
-59.5214
-56.2213
-51.5217
-45.5031
-69.5948
-69.791
-69.9211
-69.9999
-70.0356
-70.0293
-69.9794
-69.8838
-69.7373
-69.5339
-69.2649
-68.9185
-68.4804
-67.9309
-67.2425
-66.3739
-65.2661
-63.8394
-61.9829
-59.5337
-56.2755
-51.989
-46.5787
-40.3152
-69.9953
-70.071
-70.2283
-70.3392
-70.3915
-70.3895
-70.3326
-70.2152
-70.03
-69.7683
-69.4191
-68.9662
-68.3904
-67.6664
-66.7623
-65.632
-64.2134
-62.4233
-60.1503
-57.2567
-53.6102
-49.139
-43.894
-38.164
-70.17
-70.1218
-70.2864
-70.3983
-70.4421
-70.4247
-70.3472
-70.1987
-69.9704
-69.6503
-69.2267
-68.6832
-67.9974
-67.1408
-66.0803
-64.7641
-63.134
-61.1061
-58.5924
-55.4923
-51.7152
-47.2382
-42.163
-36.7649
-69.766
-70.0109
-70.1456
-70.2272
-70.245
-70.1979
-70.0944
-69.9169
-69.654
-69.2877
-68.8061
-68.1964
-67.436
-66.4866
-65.3191
-63.887
-62.1324
-59.9762
-57.3261
-54.1084
-50.2784
-45.8246
-40.854
-35.6287
-69.783
-69.7901
-69.8874
-69.9421
-69.9242
-69.8341
-69.7088
-69.5075
-69.2232
-68.8216
-68.2915
-67.6282
-66.8107
-65.7956
-64.553
-63.044
-61.2237
-59.0021
-56.2965
-53.0431
-49.2186
-44.7818
-39.9173
-34.8395
-69.207
-69.4084
-69.5113
-69.567
-69.5325
-69.3715
-69.232
-69.0064
-68.7258
-68.3144
-67.7363
-67.0215
-66.189
-65.1217
-63.8072
-62.2238
-60.3959
-58.2006
-55.4865
-52.1775
-48.3133
-43.6955
-38.7948
-33.8302
-68.4859
-68.8451
-69.0848
-69.2161
-69.1745
-68.8103
-68.6883
-68.4763
-68.2398
-67.8208
-67.1472
-66.3382
-65.5332
-64.4023
-62.985
-61.3058
-59.5911
-57.5468
-54.9006
-51.5357
-48.1525
-43.484
-38.7424
-34.034
-65.349
-67.1145
-68.0932
-68.9658
-68.8709
-67.9508
-67.7617
-67.8771
-68.1817
-68.2272
-67.4566
-66.4935
-65.9723
-64.669
-62.5174
-60.3152
-59.294
-59.3317
-56.6113
-50.6807
-43.8631
-36.3102
-32.0484
-29.7483
-45.3466
-40.2196
-36.0637
-32.1784
-28.4587
-24.9489
-21.6448
-18.5263
-15.5642
-12.7223
-9.96261
-7.25394
-4.57446
-1.90764
0.75855
3.4303
6.11326
8.80996
11.5229
14.255
17.0089
19.7619
22.5323
25.6098
-38.8464
-35.3786
-32.924
-30.3327
-27.548
-24.653
-21.7061
-18.7546
-15.8309
-12.955
-10.1373
-7.38252
-4.68671
-2.04403
0.554501
3.11773
5.65718
8.18158
10.6999
13.2226
15.7576
18.2861
20.8361
23.6375
-34.1832
-29.9307
-27.5205
-25.3474
-23.1053
-20.7823
-18.4022
-15.9886
-13.559
-11.1267
-8.70158
-6.29028
-3.89701
-1.52195
0.836279
3.17991
5.51257
7.83742
10.1597
12.4857
14.8203
17.1513
19.5093
22.058
-32.5438
-28.0426
-25.5289
-23.4406
-21.3186
-19.1484
-16.9477
-14.7309
-12.5084
-10.2851
-8.06637
-5.85319
-3.64808
-1.44966
0.74291
2.93094
5.11593
7.30042
9.48748
11.6802
13.8801
16.0789
18.2973
20.6422
-31.4672
-27.0302
-24.4334
-22.4108
-20.3575
-18.2626
-16.1383
-14.0004
-11.8601
-9.72318
-7.595
-5.4776
-3.37291
-1.28038
0.800638
2.87255
4.93703
6.99677
9.05351
11.1114
13.1743
15.2415
17.3194
19.4694
-30.5249
-26.1554
-23.4156
-21.3921
-19.3672
-17.323
-15.2586
-13.1875
-11.1183
-9.0562
-7.00731
-4.97372
-2.95688
-0.957439
1.02461
2.99301
4.94786
6.89217
8.82626
10.7524
12.6769
14.604
16.5342
18.4664
-29.867
-25.5233
-22.6243
-20.5486
-18.5154
-16.4936
-14.467
-12.4446
-10.4301
-8.42872
-6.44593
-4.48305
-2.54156
-0.623235
1.27409
3.15357
5.01544
6.85963
8.68485
10.4917
12.2882
14.0769
15.8605
17.6284
-28.949
-24.6486
-21.7649
-19.7679
-17.7978
-15.8249
-13.8389
-11.8543
-9.87758
-7.91879
-5.98515
-4.07462
-2.19
-0.336541
1.49275
3.30211
5.08946
6.85155
8.58512
10.2842
11.9699
13.6411
15.3016
16.9929
-29.0805
-24.4898
-21.358
-19.2969
-17.2768
-15.2952
-13.3132
-11.3391
-9.37484
-7.4352
-5.53612
-3.65877
-1.81226
-0.0196005
1.75094
3.50945
5.24236
6.93744
8.58388
10.1607
11.7473
13.3129
14.8606
16.4981
-24.9282
-20.6308
-19.2689
-18.3135
-16.6826
-14.8492
-12.9233
-10.9801
-9.02573
-7.10746
-5.27947
-3.43207
-1.62378
0.0828402
1.81761
3.55248
5.24261
6.85324
8.42943
9.896
11.4362
12.9526
14.4386
16.1147
-111.644
-110.158
-109.223
-107.759
-104.747
-100.401
-95.1454
-89.2544
-82.9579
-76.3632
-69.7078
-63.1797
-56.868
-50.8266
-45.1183
-39.8006
-34.9086
-30.4641
-26.468
-22.9009
-19.7161
-16.8507
-14.2667
-11.9977
-75.2327
-75.2352
-74.9344
-74.4147
-73.7492
-73.0705
-72.5011
-72.0759
-71.8114
-71.5743
-71.0527
-69.9518
-68.1641
-65.686
-62.5446
-58.8066
-54.5842
-50.0021
-45.2351
-40.4428
-35.7795
-31.3619
-27.2338
-23.7767
-82.96
-82.8923
-82.9369
-82.9899
-83.0336
-83.0279
-82.8932
-82.5252
-81.826
-80.7884
-79.4685
-77.9443
-76.2464
-74.2743
-71.8891
-69.0369
-65.7082
-61.9003
-57.659
-53.0698
-48.2689
-43.4067
-38.6096
-34.1832
-78.744
-78.7305
-78.6772
-78.603
-78.5149
-78.4164
-78.3065
-78.1767
-78.0077
-77.7716
-77.4339
-76.9445
-76.2321
-75.2943
-74.1447
-72.665
-70.7268
-68.2497
-65.1963
-61.573
-57.4429
-52.9154
-48.1823
-43.1739
-79.2462
-79.2471
-79.254
-79.2533
-79.2433
-79.2189
-79.1737
-79.1
-78.9879
-78.8209
-78.5753
-78.2263
-77.7438
-77.0886
-76.2192
-75.1202
-73.7545
-72.0265
-69.8427
-67.1386
-63.8705
-60.0398
-55.8356
-50.4594
-78.4019
-78.4007
-78.393
-78.3778
-78.3555
-78.325
-78.2849
-78.2328
-78.1644
-78.0732
-77.9485
-77.7742
-77.5283
-77.1846
-76.7073
-76.0481
-75.1631
-74.0102
-72.5049
-70.563
-68.1048
-65.0468
-61.5735
-56.0416
-78.2435
-78.2443
-78.2434
-78.2373
-78.2262
-78.2084
-78.1821
-78.145
-78.0939
-78.0243
-77.9299
-77.8017
-77.6258
-77.3844
-77.0555
-76.6087
-76.003
-75.192
-74.1219
-72.7143
-70.8837
-68.5102
-65.7592
-60.5948
-77.9672
-77.967
-77.9642
-77.9568
-77.945
-77.9279
-77.9046
-77.8736
-77.8333
-77.7808
-77.7121
-77.6215
-77.5008
-77.3373
-77.1144
-76.8111
-76.398
-75.8345
-75.0733
-74.0557
-72.7052
-70.8972
-68.7569
-64.2481
-77.8276
-77.8278
-77.8261
-77.8205
-77.8108
-77.7965
-77.7768
-77.7504
-77.716
-77.6717
-77.6145
-77.5404
-77.4442
-77.318
-77.1496
-76.9239
-76.6203
-76.2102
-75.6536
-74.9017
-73.8973
-72.534
-70.8833
-67.0909
-77.7145
-77.7143
-77.7123
-77.7068
-77.6974
-77.684
-77.6657
-77.6419
-77.6113
-77.5726
-77.5237
-77.4618
-77.3828
-77.2814
-77.1493
-76.975
-76.7433
-76.4331
-76.0149
-75.4478
-74.6878
-73.6587
-72.3861
-69.4525
-77.6542
-77.6537
-77.6515
-77.6463
-77.6375
-77.6251
-77.6083
-77.5865
-77.5587
-77.5237
-77.4801
-77.4255
-77.3569
-77.2704
-77.1604
-77.0185
-76.833
-76.5882
-76.2622
-75.8235
-75.2368
-74.4458
-73.4445
-71.2434
-77.6257
-77.6251
-77.623
-77.6181
-77.6099
-77.5983
-77.5829
-77.5628
-77.5374
-77.5057
-77.4664
-77.4178
-77.3575
-77.2822
-77.1879
-77.0686
-76.9153
-76.7165
-76.4556
-76.109
-75.6484
-75.0308
-74.2322
-72.539
-77.6317
-77.6306
-77.6282
-77.6235
-77.6158
-77.605
-77.5907
-77.5724
-77.5493
-77.5206
-77.4853
-77.4419
-77.3885
-77.3224
-77.2404
-77.1383
-77.0095
-76.845
-76.6323
-76.3536
-75.9876
-75.5003
-74.8616
-73.5628
-77.661
-77.6598
-77.6575
-77.6532
-77.6463
-77.6366
-77.6238
-77.6073
-77.5867
-77.5613
-77.5301
-77.492
-77.4454
-77.3881
-77.3175
-77.2305
-77.1223
-76.9865
-76.8138
-76.5914
-76.305
-75.9302
-75.4464
-74.4522
-77.7124
-77.711
-77.7086
-77.7047
-77.6985
-77.6898
-77.6783
-77.6638
-77.6457
-77.6234
-77.5963
-77.5635
-77.5236
-77.4749
-77.4152
-77.3421
-77.2524
-77.1417
-77.0034
-76.8287
-76.6077
-76.3276
-75.9865
-75.245
-77.7784
-77.7769
-77.7745
-77.771
-77.7656
-77.7578
-77.7478
-77.7352
-77.7195
-77.7004
-77.6773
-77.6495
-77.6158
-77.5751
-77.5256
-77.4653
-77.392
-77.3028
-77.1932
-77.0575
-76.8894
-76.6775
-76.4052
-75.8679
-77.8541
-77.8527
-77.8506
-77.8476
-77.8429
-77.8362
-77.8276
-77.8167
-77.8033
-77.7871
-77.7675
-77.744
-77.7159
-77.682
-77.641
-77.591
-77.5305
-77.4571
-77.3674
-77.2556
-77.1149
-76.9295
-76.6712
-76.0892
-77.9379
-77.9365
-77.9344
-77.9317
-77.9276
-77.9217
-77.9141
-77.9047
-77.8932
-77.8793
-77.8627
-77.8428
-77.8192
-77.7908
-77.7566
-77.715
-77.6646
-77.6036
-77.529
-77.4359
-77.3177
-77.1611
-76.9353
-76.3537
-78.0252
-78.0237
-78.0216
-78.0192
-78.0155
-78.0103
-78.0037
-77.9955
-77.9855
-77.9736
-77.9594
-77.9424
-77.9224
-77.8984
-77.8695
-77.8345
-77.7919
-77.7401
-77.6767
-77.5976
-77.4975
-77.3653
-77.1772
-76.783
-78.1127
-78.1114
-78.1096
-78.1075
-78.1043
-78.0998
-78.0939
-78.0868
-78.0781
-78.0677
-78.0554
-78.0408
-78.0235
-78.003
-77.9782
-77.948
-77.911
-77.8657
-77.8096
-77.7386
-77.6464
-77.5266
-77.3579
-76.86
-78.2008
-78.1995
-78.1977
-78.1957
-78.1928
-78.1887
-78.1835
-78.1771
-78.1695
-78.1603
-78.1495
-78.1368
-78.1218
-78.1039
-78.0824
-78.0563
-78.0242
-77.9847
-77.9358
-77.8743
-77.7947
-77.6883
-77.5451
-77.3806
-78.2864
-78.2852
-78.2835
-78.2818
-78.2792
-78.2755
-78.2709
-78.2652
-78.2583
-78.2502
-78.2406
-78.2294
-78.2161
-78.2005
-78.1817
-78.1587
-78.1304
-78.0954
-78.0519
-77.9968
-77.9253
-77.8274
-77.6856
-77.4734
-78.3699
-78.3687
-78.367
-78.3654
-78.363
-78.3597
-78.3554
-78.3502
-78.344
-78.3366
-78.328
-78.318
-78.3062
-78.2924
-78.2758
-78.2557
-78.2308
-78.2
-78.1617
-78.1134
-78.0515
-77.9693
-77.8481
-77.5814
-78.4494
-78.4483
-78.4468
-78.4453
-78.4432
-78.4401
-78.4362
-78.4314
-78.4257
-78.419
-78.4112
-78.4021
-78.3915
-78.3791
-78.3644
-78.3466
-78.3248
-78.2978
-78.2644
-78.2227
-78.17
-78.1005
-78.0027
-77.8335
-78.5258
-78.5248
-78.5233
-78.5219
-78.5199
-78.517
-78.5133
-78.5088
-78.5035
-78.4972
-78.4899
-78.4814
-78.4717
-78.4603
-78.4469
-78.4308
-78.4113
-78.3873
-78.3579
-78.3217
-78.277
-78.2215
-78.1504
-78.0267
-78.5984
-78.5974
-78.5959
-78.5946
-78.5927
-78.5899
-78.5863
-78.582
-78.5769
-78.5709
-78.5639
-78.5558
-78.5465
-78.5357
-78.523
-78.5079
-78.4896
-78.4672
-78.4397
-78.4054
-78.3627
-78.3109
-78.2402
-77.9686
-78.667
-78.6661
-78.6648
-78.6635
-78.6617
-78.6591
-78.6556
-78.6514
-78.6463
-78.6404
-78.6335
-78.6255
-78.6164
-78.6057
-78.5933
-78.5786
-78.5609
-78.5393
-78.513
-78.4809
-78.4411
-78.3893
-78.3197
-78.3323
-78.7332
-78.7323
-78.7309
-78.7296
-78.7278
-78.7252
-78.7217
-78.7175
-78.7124
-78.7064
-78.6994
-78.6913
-78.682
-78.6711
-78.6585
-78.6435
-78.6256
-78.6036
-78.5765
-78.5425
-78.4985
-78.4414
-78.362
-78.1817
-78.7967
-78.7958
-78.7944
-78.793
-78.7912
-78.7885
-78.785
-78.7807
-78.7755
-78.7694
-78.7622
-78.7539
-78.7443
-78.7331
-78.7201
-78.7048
-78.6865
-78.6644
-78.6376
-78.6051
-78.565
-78.5163
-78.47
-78.5232
-78.8575
-78.8567
-78.8553
-78.854
-78.8522
-78.8496
-78.846
-78.8417
-78.8364
-78.8301
-78.8227
-78.8141
-78.8041
-78.7924
-78.7788
-78.7627
-78.7434
-78.7201
-78.6915
-78.6561
-78.6107
-78.5505
-78.4673
-78.3716
-78.9178
-78.9169
-78.9155
-78.9142
-78.9123
-78.9096
-78.9059
-78.9014
-78.896
-78.8895
-78.8818
-78.8729
-78.8625
-78.8504
-78.8363
-78.8196
-78.7997
-78.7757
-78.7465
-78.7107
-78.6661
-78.6088
-78.5325
-78.4543
-78.9772
-78.9763
-78.9749
-78.9734
-78.9715
-78.9687
-78.965
-78.9603
-78.9547
-78.9481
-78.9402
-78.931
-78.9203
-78.9079
-78.8932
-78.876
-78.8556
-78.831
-78.8013
-78.765
-78.7201
-78.663
-78.5892
-78.5135
-79.0355
-79.0347
-79.0333
-79.0319
-79.03
-79.0272
-79.0235
-79.0188
-79.0132
-79.0064
-78.9984
-78.9891
-78.9781
-78.9654
-78.9505
-78.933
-78.9123
-78.8876
-78.8579
-78.8221
-78.7787
-78.7252
-78.6582
-78.5909
-79.0948
-79.0939
-79.0925
-79.091
-79.089
-79.0862
-79.0824
-79.0777
-79.0719
-79.0651
-79.0569
-79.0474
-79.0364
-79.0234
-79.0083
-78.9906
-78.9698
-78.945
-78.9154
-78.8798
-78.8371
-78.7846
-78.7183
-78.6463
-79.1541
-79.1533
-79.1518
-79.1503
-79.1483
-79.1455
-79.1416
-79.1369
-79.1311
-79.1242
-79.116
-79.1064
-79.0952
-79.0822
-79.0671
-79.0493
-79.0284
-79.0038
-78.9744
-78.9395
-78.8979
-78.8476
-78.786
-78.7149
-79.2141
-79.2132
-79.2117
-79.2102
-79.2082
-79.2054
-79.2015
-79.1967
-79.1909
-79.184
-79.1758
-79.1662
-79.155
-79.1419
-79.1267
-79.109
-79.0882
-79.0638
-79.0348
-79.0006
-78.9602
-78.9122
-78.8554
-78.7888
-79.2748
-79.2739
-79.2724
-79.2709
-79.2689
-79.266
-79.2622
-79.2574
-79.2516
-79.2447
-79.2365
-79.2269
-79.2157
-79.2026
-79.1875
-79.1698
-79.1491
-79.1248
-79.0962
-79.0624
-79.0227
-78.9763
-78.9225
-78.8579
-79.3365
-79.3356
-79.334
-79.3325
-79.3305
-79.3276
-79.3238
-79.319
-79.3132
-79.3063
-79.2981
-79.2886
-79.2774
-79.2644
-79.2493
-79.2317
-79.2112
-79.187
-79.1586
-79.1249
-79.0853
-79.0385
-78.9804
-78.8745
-79.399
-79.3982
-79.3966
-79.395
-79.393
-79.3902
-79.3863
-79.3816
-79.3758
-79.3689
-79.3608
-79.3513
-79.3402
-79.3274
-79.3124
-79.295
-79.2747
-79.251
-79.2231
-79.1903
-79.152
-79.1076
-79.0548
-78.985
-79.4624
-79.4616
-79.46
-79.4584
-79.4564
-79.4536
-79.4498
-79.4451
-79.4393
-79.4325
-79.4245
-79.4151
-79.4041
-79.3914
-79.3766
-79.3594
-79.3394
-79.316
-79.2886
-79.2566
-79.2196
-79.1785
-79.1351
-79.0474
-79.5268
-79.526
-79.5244
-79.5228
-79.5208
-79.518
-79.5142
-79.5095
-79.5039
-79.4971
-79.4891
-79.4798
-79.469
-79.4564
-79.4418
-79.4248
-79.405
-79.3819
-79.3548
-79.3231
-79.2861
-79.2434
-79.1943
-79.1225
-79.5922
-79.5914
-79.5898
-79.5882
-79.5862
-79.5834
-79.5797
-79.575
-79.5694
-79.5627
-79.5548
-79.5456
-79.5348
-79.5224
-79.508
-79.4912
-79.4717
-79.449
-79.4225
-79.3915
-79.3556
-79.3142
-79.2663
-79.2074
-79.6588
-79.6579
-79.6562
-79.6546
-79.6525
-79.6497
-79.646
-79.6413
-79.6357
-79.6291
-79.6213
-79.6122
-79.6016
-79.5893
-79.5751
-79.5586
-79.5394
-79.517
-79.491
-79.4605
-79.4252
-79.3841
-79.3357
-79.2734
-79.7254
-79.7246
-79.7229
-79.7213
-79.7193
-79.7166
-79.7129
-79.7083
-79.7028
-79.6963
-79.6886
-79.6796
-79.6692
-79.6571
-79.643
-79.6267
-79.6078
-79.5859
-79.5604
-79.5307
-79.4966
-79.4575
-79.4143
-79.3932
-79.7934
-79.7927
-79.7909
-79.7893
-79.7873
-79.7845
-79.7809
-79.7763
-79.7708
-79.7643
-79.7567
-79.7478
-79.7375
-79.7255
-79.7117
-79.6956
-79.6769
-79.6552
-79.6298
-79.6
-79.5651
-79.5254
-79.4773
-79.3521
-79.8621
-79.8613
-79.8595
-79.8578
-79.8558
-79.853
-79.8494
-79.8449
-79.8394
-79.833
-79.8255
-79.8167
-79.8065
-79.7947
-79.7811
-79.7653
-79.7469
-79.7257
-79.701
-79.6726
-79.6401
-79.6025
-79.5582
-79.5408
-79.9307
-79.93
-79.9283
-79.9267
-79.9247
-79.922
-79.9185
-79.914
-79.9087
-79.9023
-79.8949
-79.8862
-79.8762
-79.8645
-79.851
-79.8354
-79.8172
-79.7962
-79.7717
-79.7434
-79.7103
-79.6689
-79.6133
-79.6103
-80.001
-80.0002
-79.9984
-79.9967
-79.9947
-79.992
-79.9884
-79.9839
-79.9786
-79.9723
-79.9649
-79.9563
-79.9464
-79.9348
-79.9215
-79.906
-79.8881
-79.8673
-79.8432
-79.8153
-79.7832
-79.7481
-79.7123
-79.6198
-80.0713
-80.0706
-80.0687
-80.067
-80.0649
-80.0622
-80.0586
-80.0542
-80.0489
-80.0427
-80.0354
-80.0269
-80.017
-80.0056
-79.9924
-79.9771
-79.9593
-79.9387
-79.9147
-79.8868
-79.8546
-79.8179
-79.7798
-79.7383
-80.1415
-80.1409
-80.1391
-80.1374
-80.1354
-80.1328
-80.1293
-80.1249
-80.1197
-80.1136
-80.1063
-80.0979
-80.0882
-80.0769
-80.0638
-80.0486
-80.031
-80.0105
-79.9866
-79.9587
-79.9261
-79.8876
-79.8418
-79.7881
-80.213
-80.2123
-80.2105
-80.2088
-80.2068
-80.2041
-80.2006
-80.1962
-80.191
-80.1849
-80.1778
-80.1694
-80.1598
-80.1486
-80.1356
-80.1206
-80.1032
-80.083
-80.0595
-80.0321
-80.0003
-79.9633
-79.9209
-79.8752
-80.2847
-80.284
-80.2821
-80.2804
-80.2783
-80.2756
-80.2721
-80.2677
-80.2626
-80.2566
-80.2495
-80.2412
-80.2317
-80.2207
-80.2079
-80.1931
-80.1759
-80.1559
-80.1327
-80.1055
-80.0737
-80.037
-79.9962
-79.9318
-80.3558
-80.3552
-80.3534
-80.3517
-80.3497
-80.3471
-80.3437
-80.3395
-80.3344
-80.3285
-80.3215
-80.3134
-80.304
-80.2931
-80.2804
-80.2659
-80.249
-80.2295
-80.2068
-80.1806
-80.1503
-80.1158
-80.0771
-80.0281
-80.4281
-80.4276
-80.4257
-80.424
-80.422
-80.4194
-80.416
-80.4117
-80.4067
-80.4007
-80.3938
-80.3857
-80.3764
-80.3656
-80.3532
-80.3388
-80.3221
-80.3029
-80.2807
-80.2551
-80.2257
-80.1915
-80.1492
-80.0878
-80.5014
-80.5007
-80.4985
-80.4967
-80.4945
-80.4917
-80.4882
-80.4839
-80.4789
-80.473
-80.4661
-80.4581
-80.4489
-80.4382
-80.4258
-80.4115
-80.3951
-80.3762
-80.3546
-80.33
-80.3023
-80.2704
-80.2327
-80.2271
-80.5714
-80.571
-80.5692
-80.5677
-80.5658
-80.5633
-80.56
-80.5559
-80.551
-80.5452
-80.5384
-80.5305
-80.5212
-80.5106
-80.4982
-80.484
-80.4675
-80.4484
-80.4265
-80.4015
-80.3728
-80.3393
-80.3007
-80.2825
-80.6458
-80.6452
-80.6432
-80.6414
-80.6393
-80.6366
-80.6331
-80.6288
-80.6238
-80.6179
-80.611
-80.6031
-80.5938
-80.5831
-80.5707
-80.5563
-80.5396
-80.5202
-80.4979
-80.4719
-80.442
-80.4097
-80.3771
-80.2692
-80.7189
-80.7182
-80.7159
-80.714
-80.7118
-80.709
-80.7055
-80.7013
-80.6963
-80.6904
-80.6835
-80.6756
-80.6663
-80.6556
-80.6431
-80.6286
-80.6118
-80.5923
-80.5697
-80.5433
-80.5127
-80.4776
-80.4368
-80.3672
-80.7896
-80.7893
-80.7874
-80.7857
-80.7838
-80.7812
-80.7778
-80.7737
-80.7688
-80.763
-80.7562
-80.7483
-80.739
-80.7283
-80.7158
-80.7013
-80.6844
-80.6648
-80.6421
-80.6157
-80.5854
-80.5504
-80.509
-80.4608
-80.8641
-80.8636
-80.8615
-80.8596
-80.8574
-80.8546
-80.8511
-80.8468
-80.8418
-80.836
-80.8291
-80.8212
-80.812
-80.8012
-80.7887
-80.7742
-80.7573
-80.7376
-80.7148
-80.6882
-80.6574
-80.6217
-80.5805
-80.5265
-80.9369
-80.9363
-80.9341
-80.9322
-80.93
-80.9272
-80.9238
-80.9196
-80.9146
-80.9088
-80.902
-80.8941
-80.8849
-80.8742
-80.8618
-80.8473
-80.8305
-80.8109
-80.7882
-80.7621
-80.7322
-80.698
-80.6589
-80.6132
-81.009
-81.0087
-81.0066
-81.0049
-81.0028
-81.0001
-80.9966
-80.9925
-80.9875
-80.9818
-80.975
-80.9672
-80.9581
-80.9474
-80.935
-80.9205
-80.9036
-80.884
-80.8612
-80.8349
-80.805
-80.7715
-80.7352
-80.7099
-81.0831
-81.0826
-81.0802
-81.0782
-81.0759
-81.073
-81.0695
-81.0653
-81.0604
-81.0547
-81.048
-81.0402
-81.0311
-81.0205
-81.0082
-80.9937
-80.9768
-80.957
-80.9338
-80.9066
-80.8744
-80.837
-80.7917
-80.6951
-81.1533
-81.1531
-81.1511
-81.1495
-81.1475
-81.1449
-81.1416
-81.1376
-81.1329
-81.1274
-81.1208
-81.1132
-81.1043
-81.0939
-81.0817
-81.0674
-81.0506
-81.031
-81.0081
-80.9813
-80.95
-80.9136
-80.8726
-80.8519
-81.2279
-81.2275
-81.2252
-81.2233
-81.2211
-81.2183
-81.2148
-81.2107
-81.2059
-81.2004
-81.1939
-81.1863
-81.1775
-81.1673
-81.1552
-81.1411
-81.1246
-81.1052
-81.0825
-81.0558
-81.0245
-80.9891
-80.9509
-80.8749
-81.3005
-81.2999
-81.2974
-81.2954
-81.2931
-81.2903
-81.2869
-81.2828
-81.2781
-81.2727
-81.2664
-81.259
-81.2504
-81.2404
-81.2287
-81.2149
-81.1988
-81.1799
-81.1577
-81.1317
-81.1013
-81.0665
-81.0275
-80.9846
-81.37
-81.3698
-81.3677
-81.3659
-81.3639
-81.3613
-81.358
-81.3542
-81.3497
-81.3444
-81.3383
-81.3312
-81.3229
-81.3132
-81.3018
-81.2885
-81.2728
-81.2544
-81.2328
-81.2074
-81.1775
-81.1423
-81.1001
-81.0432
-81.4417
-81.4413
-81.4389
-81.4369
-81.4347
-81.432
-81.4287
-81.4249
-81.4205
-81.4154
-81.4095
-81.4026
-81.3946
-81.3853
-81.3744
-81.3616
-81.3466
-81.3289
-81.3083
-81.2842
-81.2563
-81.2241
-81.1873
-81.1602
-81.5091
-81.509
-81.5068
-81.5051
-81.5031
-81.5006
-81.4976
-81.4941
-81.4899
-81.4851
-81.4795
-81.473
-81.4653
-81.4564
-81.446
-81.4338
-81.4194
-81.4024
-81.3824
-81.3589
-81.3312
-81.2986
-81.2614
-81.221
-81.578
-81.5777
-81.5755
-81.5737
-81.5716
-81.5691
-81.5661
-81.5625
-81.5585
-81.5538
-81.5484
-81.5421
-81.5349
-81.5264
-81.5165
-81.5048
-81.4911
-81.4751
-81.4562
-81.4339
-81.4077
-81.3772
-81.3428
-81.298
-81.6445
-81.644
-81.6416
-81.6397
-81.6376
-81.6351
-81.6321
-81.6287
-81.6248
-81.6204
-81.6153
-81.6094
-81.6026
-81.5946
-81.5853
-81.5744
-81.5616
-81.5464
-81.5287
-81.5081
-81.484
-81.4562
-81.4241
-81.3989
-81.7064
-81.7063
-81.7041
-81.7024
-81.7006
-81.6984
-81.6957
-81.6925
-81.689
-81.6848
-81.6801
-81.6746
-81.6682
-81.6608
-81.6521
-81.6419
-81.6298
-81.6157
-81.599
-81.5796
-81.557
-81.5307
-81.5001
-81.4739
-81.7682
-81.7681
-81.7658
-81.7642
-81.7623
-81.7601
-81.7574
-81.7543
-81.7509
-81.747
-81.7425
-81.7374
-81.7315
-81.7246
-81.7165
-81.707
-81.6958
-81.6825
-81.667
-81.6487
-81.6274
-81.6026
-81.575
-81.5515
-81.8271
-81.8266
-81.8242
-81.8224
-81.8205
-81.8183
-81.8158
-81.8129
-81.8097
-81.8061
-81.8019
-81.7972
-81.7918
-81.7855
-81.7781
-81.7693
-81.759
-81.7468
-81.7324
-81.7153
-81.6954
-81.6724
-81.6467
-81.6225
-81.8805
-81.8804
-81.8783
-81.8766
-81.875
-81.8729
-81.8706
-81.8679
-81.865
-81.8617
-81.858
-81.8537
-81.8488
-81.8431
-81.8364
-81.8285
-81.819
-81.8078
-81.7945
-81.7788
-81.7603
-81.7388
-81.7142
-81.6917
-81.9316
-81.9313
-81.9291
-81.9274
-81.9257
-81.9237
-81.9215
-81.9191
-81.9164
-81.9135
-81.9102
-81.9064
-81.9021
-81.8971
-81.8911
-81.8841
-81.8757
-81.8656
-81.8535
-81.8389
-81.8216
-81.8012
-81.7775
-81.7565
-81.9762
-81.9762
-81.9742
-81.9728
-81.9715
-81.9699
-81.968
-81.9659
-81.9636
-81.9611
-81.9583
-81.955
-81.9513
-81.947
-81.9419
-81.9358
-81.9285
-81.9196
-81.9087
-81.8955
-81.8793
-81.8593
-81.835
-81.809
-82.0203
-82.0199
-82.0178
-82.0161
-82.0146
-82.0128
-82.0109
-82.0089
-82.0067
-82.0045
-82.002
-81.9992
-81.9961
-81.9925
-81.9883
-81.9832
-81.9771
-81.9696
-81.9605
-81.9493
-81.9355
-81.9188
-81.8991
-81.8784
-82.0565
-82.056
-82.0538
-82.0522
-82.0507
-82.0492
-82.0475
-82.0458
-82.044
-82.0422
-82.0402
-82.038
-82.0356
-82.0328
-82.0296
-82.0257
-82.0209
-82.0151
-82.0079
-81.9991
-81.988
-81.9747
-81.9584
-81.9406
-82.0853
-82.0852
-82.0833
-82.082
-82.0808
-82.0795
-82.0782
-82.0769
-82.0756
-82.0742
-82.0728
-82.0713
-82.0696
-82.0676
-82.0654
-82.0626
-82.0592
-82.055
-82.0498
-82.0434
-82.0357
-82.0264
-82.0151
-82.0176
-82.1103
-82.1102
-82.1083
-82.107
-82.1059
-82.1047
-82.1035
-82.1024
-82.1013
-82.1003
-82.0993
-82.0984
-82.0974
-82.0962
-82.0948
-82.0932
-82.0911
-82.0884
-82.085
-82.0807
-82.0754
-82.0693
-82.0637
-82.0662
-82.1291
-82.1286
-82.1265
-82.1251
-82.1238
-82.1227
-82.1217
-82.1208
-82.1201
-82.1195
-82.1191
-82.1187
-82.1184
-82.118
-82.1176
-82.117
-82.116
-82.1146
-82.1126
-82.1099
-82.1065
-82.1024
-82.0978
-82.1213
-82.1378
-82.1375
-82.1358
-82.1348
-82.1339
-82.1332
-82.1325
-82.132
-82.1318
-82.1316
-82.1317
-82.132
-82.1324
-82.1329
-82.1334
-82.1338
-82.1339
-82.1335
-82.1324
-82.13
-82.1253
-82.1165
-82.1005
-82.0796
-82.144
-82.1432
-82.141
-82.1396
-82.1384
-82.1374
-82.1367
-82.1363
-82.1361
-82.1363
-82.1369
-82.1378
-82.1389
-82.1403
-82.142
-82.1437
-82.1453
-82.1466
-82.1474
-82.1472
-82.1454
-82.1415
-82.1344
-82.1318
-82.1366
-82.136
-82.1338
-82.1324
-82.1314
-82.1307
-82.1304
-82.1305
-82.131
-82.1318
-82.1332
-82.1349
-82.1371
-82.1397
-82.1427
-82.1459
-82.1493
-82.1526
-82.1555
-82.1577
-82.1585
-82.157
-82.1516
-82.1505
-82.1157
-82.1161
-82.1149
-82.1143
-82.1141
-82.1141
-82.1145
-82.1153
-82.1166
-82.1183
-82.1205
-82.1234
-82.1267
-82.1307
-82.1352
-82.1402
-82.1456
-82.1513
-82.1571
-82.1628
-82.1679
-82.172
-82.1752
-82.184
-82.0924
-82.0921
-82.0905
-82.0898
-82.0895
-82.0897
-82.0904
-82.0915
-82.0933
-82.0957
-82.0987
-82.1025
-82.1071
-82.1124
-82.1186
-82.1256
-82.1333
-82.1417
-82.1507
-82.1601
-82.1696
-82.1791
-82.1885
-82.2075
-82.0555
-82.0555
-82.0543
-82.0539
-82.0539
-82.0544
-82.0555
-82.0572
-82.0596
-82.0627
-82.0667
-82.0716
-82.0774
-82.0842
-82.0922
-82.1012
-82.1113
-82.1226
-82.1348
-82.1481
-82.1623
-82.1773
-82.19
-82.1882
-82.0092
-82.0091
-82.0076
-82.0073
-82.0074
-82.0082
-82.0096
-82.0118
-82.0147
-82.0187
-82.0235
-82.0295
-82.0367
-82.0451
-82.0549
-82.0661
-82.0788
-82.0931
-82.1088
-82.1262
-82.1451
-82.1654
-82.1888
-82.243
-81.9482
-81.9483
-81.9474
-81.9473
-81.9479
-81.9491
-81.9511
-81.9539
-81.9577
-81.9624
-81.9684
-81.9756
-81.9841
-81.9942
-82.006
-82.0195
-82.0348
-82.0521
-82.0713
-82.0924
-82.1153
-82.1402
-82.166
-82.1429
-81.8772
-81.8769
-81.876
-81.8761
-81.8769
-81.8784
-81.8807
-81.884
-81.8883
-81.8939
-81.9008
-81.9091
-81.9191
-81.9309
-81.9446
-81.9604
-81.9785
-81.9991
-82.0222
-82.0483
-82.0776
-82.1105
-82.151
-82.2343
-81.7936
-81.7929
-81.7916
-81.7916
-81.7924
-81.794
-81.7966
-81.8002
-81.8052
-81.8115
-81.8193
-81.8289
-81.8403
-81.8538
-81.8696
-81.8878
-81.9087
-81.9322
-81.9587
-81.9881
-82.0202
-82.055
-82.0938
-82.1116
-81.691
-81.6906
-81.6895
-81.6896
-81.6907
-81.6928
-81.696
-81.7004
-81.7063
-81.7137
-81.7228
-81.7338
-81.7469
-81.7624
-81.7804
-81.8012
-81.825
-81.8519
-81.8823
-81.916
-81.9533
-81.994
-82.0379
-82.07
-81.5678
-81.5685
-81.5685
-81.5696
-81.5717
-81.5748
-81.579
-81.5846
-81.5916
-81.6002
-81.6108
-81.6234
-81.6383
-81.6559
-81.6762
-81.6997
-81.7266
-81.7571
-81.7915
-81.8298
-81.8723
-81.9187
-81.9692
-82.0127
-81.4369
-81.4368
-81.4365
-81.4376
-81.4397
-81.443
-81.4477
-81.4539
-81.4617
-81.4714
-81.4833
-81.4974
-81.5141
-81.5338
-81.5566
-81.583
-81.6132
-81.6475
-81.6861
-81.7293
-81.7771
-81.8295
-81.8869
-81.9306
-81.2849
-81.2852
-81.2852
-81.2867
-81.2894
-81.2934
-81.2989
-81.3059
-81.3147
-81.3256
-81.3388
-81.3546
-81.3732
-81.3951
-81.4206
-81.45
-81.4837
-81.522
-81.5654
-81.614
-81.668
-81.7275
-81.7922
-81.847
-81.1191
-81.1189
-81.1187
-81.12
-81.1228
-81.127
-81.1328
-81.1405
-81.1502
-81.1622
-81.1767
-81.1942
-81.2149
-81.2391
-81.2673
-81.2999
-81.3374
-81.3801
-81.4285
-81.4831
-81.5444
-81.6129
-81.6904
-81.7751
-80.9284
-80.9282
-80.9289
-80.931
-80.9346
-80.9397
-80.9466
-80.9554
-80.9664
-80.9798
-80.9959
-81.0153
-81.038
-81.0647
-81.0958
-81.1318
-81.1731
-81.2201
-81.2734
-81.3334
-81.4003
-81.4749
-81.5597
-81.6232
-80.7256
-80.725
-80.7253
-80.7272
-80.7308
-80.7361
-80.7432
-80.7525
-80.7642
-80.7786
-80.7962
-80.8172
-80.8421
-80.8714
-80.9055
-80.9449
-80.9902
-81.042
-81.1007
-81.1667
-81.2406
-81.3227
-81.4147
-81.4952
-80.4986
-80.4976
-80.4973
-80.4991
-80.5029
-80.5086