/*--------------------------------*- C++ -*----------------------------------*\
| =========                 |                                                 |
| \\      /  F ield         | OpenFOAM: The Open Source CFD Toolbox           |
|  \\    /   O peration     | Version:  2.3.0                                 |
|   \\  /    A nd           | Web:      www.OpenFOAM.org                      |
|    \\/     M anipulation  |                                                 |
\*---------------------------------------------------------------------------*/
FoamFile
{
    version     2.0;
    format      ascii;
    class       volScalarField;
    location    "3000";
    object      nut;
}
// * * * * * * * * * * * * * * * * * * * * * * * * * * * * * * * * * * * * * //

dimensions      [0 2 -1 0 0 0 0];

internalField   nonuniform List<scalar> 
14050
(
0.0582954
0.055067
0.0519079
0.0488313
0.0458474
0.0429666
0.0402018
0.0375673
0.0350821
0.0327652
0.030631
0.0286967
0.0269823
0.0254874
0.0241133
0.0227603
0.0214194
0.0200985
0.0187961
0.0175003
0.0161827
0.0148053
0.0133582
0.0120962
0.0617646
0.0590878
0.0564833
0.0539583
0.0515175
0.0491655
0.0469073
0.0447469
0.04269
0.040741
0.0389055
0.0371903
0.0356019
0.034148
0.0328331
0.0316612
0.0306371
0.0297675
0.0290612
0.0285224
0.0281553
0.0279616
0.0279399
0.0280878
0.0648935
0.0626566
0.0604913
0.0583987
0.0563818
0.0544432
0.0525867
0.0508151
0.0491322
0.0475419
0.0460482
0.0446553
0.0433687
0.0421932
0.0411351
0.0401993
0.039393
0.0387205
0.038186
0.0377935
0.0375434
0.0374349
0.037464
0.0376235
0.0676943
0.0658179
0.0640061
0.0622576
0.0605733
0.058955
0.0574057
0.0559274
0.0545233
0.0531964
0.05195
0.0507882
0.049715
0.048735
0.0478531
0.0470744
0.0464033
0.0458456
0.0454044
0.0450829
0.0448828
0.0448034
0.0448422
0.0449953
0.0701844
0.0686076
0.0670817
0.0656068
0.0641837
0.0628144
0.0615005
0.0602446
0.0590492
0.0579172
0.0568513
0.0558554
0.0549337
0.0540901
0.0533294
0.0526561
0.0520753
0.0515913
0.0512086
0.0509302
0.0507585
0.0506945
0.050737
0.0508835
0.072405
0.0710669
0.06977
0.0685129
0.0672962
0.0661212
0.0649896
0.063904
0.0628673
0.061882
0.0609509
0.0600779
0.0592671
0.0585227
0.0578491
0.0572511
0.0567335
0.0563012
0.0559579
0.0557082
0.0555547
0.055499
0.0555418
0.0556816
0.0743736
0.0732316
0.07212
0.0710378
0.0699852
0.0689634
0.0679744
0.067021
0.0661065
0.0652338
0.0644057
0.0636258
0.0628984
0.0622282
0.0616201
0.0610786
0.0606081
0.0602133
0.059899
0.0596694
0.0595285
0.0594781
0.0595199
0.0596537
0.0761217
0.075138
0.0741763
0.0732356
0.0723152
0.0714157
0.07054
0.0696899
0.0688708
0.0680861
0.0673387
0.0666314
0.0659681
0.0653544
0.0647966
0.064299
0.0638654
0.0635002
0.0632082
0.0629936
0.0628617
0.0628148
0.0628549
0.0629835
0.0776717
0.0768176
0.0759777
0.0751531
0.0743403
0.0735393
0.0727575
0.071988
0.0712431
0.0705279
0.069845
0.0691962
0.0685842
0.0680124
0.0674942
0.0670311
0.0666287
0.0662873
0.0660158
0.0658105
0.0656859
0.0656423
0.065679
0.0658032
0.0790554
0.0782992
0.0775512
0.0768187
0.0761004
0.0753783
0.0746867
0.0739774
0.0732877
0.0726263
0.0719945
0.0713927
0.0708312
0.0702869
0.0698005
0.0693587
0.0689893
0.0686639
0.0684218
0.068216
0.0680973
0.0680619
0.0680886
0.0682092
0.0130522
0.0154069
0.0169138
0.0183416
0.0198933
0.0216171
0.0235111
0.0255603
0.0277473
0.0300569
0.0324781
0.0350006
0.0376166
0.0403202
0.0431047
0.045964
0.048892
0.0518825
0.0549281
0.0580215
0.0611545
0.0643182
0.0675031
0.0707108
0.0283872
0.0288486
0.029499
0.0303428
0.0313771
0.0325941
0.0339825
0.0355298
0.0372213
0.0390433
0.0409834
0.043029
0.0451701
0.0473977
0.0497034
0.0520803
0.0545218
0.0570225
0.0595763
0.0621774
0.0648198
0.067497
0.0702023
0.0729365
0.0379008
0.038304
0.0388521
0.0395496
0.0403947
0.0413833
0.0425095
0.0437655
0.0451426
0.0466311
0.0482219
0.0499058
0.0516749
0.0535217
0.0554395
0.0574221
0.0594642
0.0615611
0.063708
0.0659004
0.0681337
0.0704033
0.0727041
0.0750376
0.0452545
0.0456249
0.0461171
0.0467325
0.0474702
0.0483265
0.0492963
0.0503731
0.05155
0.0528198
0.0541746
0.0556074
0.0571113
0.0586806
0.0603095
0.0619934
0.0637276
0.0655083
0.067332
0.0691955
0.0710956
0.0730293
0.074994
0.0769922
0.0511288
0.0514762
0.0519313
0.0524938
0.0531617
0.0539314
0.054797
0.0557527
0.0567923
0.0579091
0.0590963
0.0603479
0.0616579
0.0630211
0.0644328
0.0658888
0.0673856
0.0689197
0.0704883
0.0720891
0.07372
0.0753792
0.0770659
0.0787877
0.0559153
0.0562447
0.0566726
0.0571971
0.0578155
0.0585231
0.0593141
0.0601826
0.0611223
0.0621268
0.0631906
0.0643077
0.0654725
0.0666802
0.0679267
0.0692078
0.0705202
0.0718615
0.0732286
0.0746198
0.0760335
0.0774683
0.0789241
0.0804104
0.0598778
0.0601928
0.0605995
0.0610954
0.0616769
0.0623377
0.0630723
0.0638745
0.0647379
0.0656569
0.0666263
0.0676405
0.0686939
0.0697819
0.0709001
0.0720447
0.0732124
0.0744009
0.0756079
0.0768312
0.0780688
0.0793198
0.0805842
0.0818687
0.0631993
0.0635019
0.0638917
0.064366
0.0649193
0.0655436
0.0662338
0.0669835
0.0677861
0.0686375
0.0695327
0.0704662
0.0714326
0.0724267
0.0734435
0.0744796
0.0755322
0.0765988
0.0776774
0.0787655
0.079859
0.0809591
0.0820657
0.0831893
0.0660123
0.0663025
0.0666783
0.0671367
0.0676701
0.068263
0.0689176
0.0696248
0.0703761
0.0711726
0.072009
0.0728784
0.073776
0.074695
0.0756304
0.0765791
0.0775385
0.0785067
0.0794825
0.0804622
0.0814344
0.0824104
0.0833847
0.0843737
0.0684155
0.0686892
0.069051
0.0694932
0.0700159
0.070574
0.0711978
0.0718727
0.0725769
0.0733305
0.074121
0.0749401
0.075785
0.0766435
0.0775136
0.0783928
0.0792767
0.0801676
0.0810654
0.0819644
0.0828208
0.0836967
0.0845579
0.085442
0.0662827
0.0598246
0.053933
0.0485843
0.0437342
0.0393382
0.0353546
0.0317454
0.0284767
0.0255188
0.0228407
0.0204083
0.0181941
0.0161753
0.0143338
0.0126543
0.0111212
0.00973043
0.00851225
0.00755451
0.00669876
0.00577857
0.00472394
0.00343473
0.0669786
0.0611391
0.0558039
0.0509373
0.0465011
0.0424615
0.0387887
0.0354576
0.0324481
0.0297339
0.0272854
0.0250791
0.0230948
0.0213169
0.0197372
0.0183823
0.0171914
0.016006
0.0147631
0.0134423
0.012021
0.0104631
0.00872056
0.00672499
0.0677283
0.0624677
0.0576389
0.0532128
0.0491605
0.0454584
0.0420876
0.0390349
0.0362876
0.0338214
0.0316186
0.029666
0.0279567
0.0264994
0.0251962
0.0239078
0.0225823
0.0211865
0.0196892
0.0180597
0.0162668
0.0142781
0.0120561
0.0095624
0.0685011
0.0637655
0.0593951
0.055367
0.0516625
0.0482676
0.0451729
0.0423757
0.0398619
0.0376178
0.0356348
0.0339104
0.0324508
0.03111
0.029774
0.0283904
0.0269257
0.0253519
0.0236414
0.0217647
0.0196895
0.0173834
0.0148092
0.0119331
0.0692757
0.0650094
0.0610462
0.0573726
0.0539785
0.0508573
0.0480082
0.0454323
0.0431188
0.0410624
0.0392631
0.0377304
0.0363537
0.0349947
0.0335939
0.032115
0.0305293
0.0288081
0.026924
0.0248454
0.0225414
0.0199759
0.0171112
0.0139124
0.0700313
0.0661809
0.0625779
0.0592177
0.0560972
0.0532171
0.0505836
0.0481962
0.0460511
0.0441491
0.0424961
0.0410691
0.0396953
0.0382978
0.036834
0.0352724
0.0335837
0.0317399
0.0297106
0.027464
0.0249657
0.0221781
0.0190627
0.0155799
0.0707588
0.0672718
0.063985
0.0608996
0.0580192
0.0553504
0.0529035
0.0506778
0.0486741
0.0468991
0.0453681
0.0439671
0.0425754
0.0411379
0.0396183
0.0379855
0.03621
0.034262
0.0321097
0.0297188
0.0270527
0.0240721
0.0207349
0.0169981
0.0714571
0.0682765
0.0652667
0.0624221
0.0597516
0.0572677
0.0549835
0.0528974
0.051013
0.0493401
0.0478825
0.0464857
0.0450733
0.0435998
0.0420322
0.0403398
0.0384912
0.0364542
0.0341959
0.0316795
0.0288662
0.0257146
0.02218
0.0182162
0.072051
0.0691807
0.0664262
0.0637924
0.061303
0.0589812
0.0568411
0.0548789
0.0530991
0.0515151
0.0500858
0.0486814
0.0472489
0.0457474
0.0441393
0.0423967
0.0404884
0.0383759
0.036025
0.033397
0.0304516
0.0271473
0.0234391
0.0192736
0.0726222
0.0700063
0.0674811
0.0650227
0.062684
0.0604991
0.0584928
0.0566462
0.0549592
0.0534517
0.052019
0.0505989
0.049145
0.04763
0.045991
0.0442001
0.0422448
0.0400752
0.0376416
0.0349091
0.0318384
0.0283989
0.0245485
0.0202101
0.00188534
0.000958616
0.00109373
0.00139345
0.00168061
0.0019619
0.00224781
0.00255384
0.00290425
0.00333576
0.00389275
0.00456716
0.00534572
0.00622782
0.00721757
0.00832172
0.00954788
0.0109034
0.0123957
0.014034
0.0158282
0.0177885
0.019926
0.02226
0.00440577
0.00221831
0.00148152
0.00168499
0.00198062
0.00228422
0.00260985
0.00297967
0.00341843
0.00395036
0.00459808
0.00533945
0.00616778
0.00708463
0.00809445
0.00920266
0.0104147
0.0117366
0.0131749
0.0147377
0.0164331
0.0182705
0.0202622
0.0224254
0.00674148
0.00377147
0.00202754
0.00196422
0.00227102
0.00261736
0.00300661
0.00345903
0.00398997
0.00460969
0.00532983
0.00612608
0.0069961
0.00794185
0.00896682
0.0100749
0.0112699
0.0125569
0.0139414
0.0154297
0.0170293
0.0187486
0.0205975
0.0225854
0.00870275
0.00521439
0.0026674
0.0022391
0.00255508
0.00295911
0.00342358
0.00395986
0.00457296
0.00526674
0.00604481
0.00688667
0.00779122
0.00876035
0.0097962
0.0109009
0.0120775
0.0133299
0.0146629
0.0160816
0.0175923
0.0192018
0.0209175
0.0227456
0.0103278
0.00643566
0.00330551
0.00251467
0.00283743
0.00330644
0.00384667
0.00445873
0.00514104
0.00589963
0.00672603
0.00760663
0.00854043
0.00952838
0.0105716
0.011671
0.0128291
0.0140489
0.0153339
0.0166884
0.0181175
0.0196261
0.0212193
0.0229016
0.0116814
0.00744645
0.00388671
0.00278842
0.0031183
0.00365317
0.00426366
0.00494205
0.00568459
0.00649857
0.00736659
0.00828066
0.00923956
0.0102429
0.0112909
0.0123842
0.0135243
0.0147135
0.0159544
0.0172502
0.0186042
0.0200202
0.0215008
0.0230465
0.0128179
0.0082844
0.00439361
0.00305492
0.00339429
0.00399192
0.00466592
0.00540266
0.00619933
0.00705953
0.007964
0.00890718
0.00988757
0.0109036
0.0119549
0.0130417
0.0141649
0.0153259
0.0165263
0.0177681
0.0190537
0.0203852
0.0217647
0.0231967
0.0137821
0.00898333
0.0048291
0.00330989
0.00366253
0.00431817
0.00504827
0.0058359
0.00668157
0.00758126
0.00851781
0.0094868
0.0104855
0.0115122
0.0125658
0.0136461
0.0147535
0.0158885
0.0170517
0.0182443
0.0194675
0.0207222
0.0220095
0.0233304
0.0146118
0.00957296
0.00519587
0.00355064
0.00392217
0.00462715
0.00540504
0.00623747
0.00712865
0.00806387
0.00902935
0.0100207
0.0110352
0.0120712
0.0131274
0.0142024
0.0152945
0.0164043
0.0175326
0.0186798
0.0198459
0.0210304
0.0222328
0.0234535
0.0153708
0.0101798
0.00558701
0.00378007
0.00414664
0.00491287
0.00575003
0.00663289
0.00756259
0.00852337
0.00950708
0.010517
0.0115507
0.012602
0.0136674
0.0147327
0.0157958
0.0168721
0.017964
0.0190683
0.0201843
0.0213044
0.0224277
0.0235567
0.000533895
0.001838
0.00377663
0.00595939
0.00813065
0.0102454
0.0122982
0.0142893
0.0162197
0.0180909
0.0199139
0.0217277
0.023591
0.0255421
0.0275701
0.0296386
0.0320538
0.0348036
0.037803
0.0409885
0.0443171
0.0477601
0.0512962
0.0549126
0.000396473
0.00116361
0.00271177
0.00452859
0.00627511
0.00799776
0.00973206
0.0114942
0.0132807
0.0150855
0.0169037
0.0187376
0.0206003
0.0225129
0.0244901
0.0265496
0.0288056
0.0312981
0.033946
0.0370207
0.0404227
0.0440407
0.0478026
0.0516649
0.000226468
0.00075014
0.00178437
0.00319473
0.00501025
0.00699491
0.00888141
0.0106737
0.0124038
0.0140966
0.015772
0.0174481
0.0191439
0.0208818
0.0226884
0.0245979
0.0266618
0.0289295
0.0314123
0.0342015
0.037227
0.040724
0.0445458
0.048578
0.000245531
0.000628353
0.00148584
0.00265152
0.00416668
0.00605743
0.00807185
0.0100397
0.0119326
0.0137453
0.0154788
0.0171416
0.0187527
0.0203415
0.0219484
0.0236236
0.0254245
0.0274136
0.0296455
0.0321693
0.034985
0.0381567
0.0416994
0.0456707
0.000217265
0.0005523
0.00130661
0.00233149
0.00365779
0.00532024
0.00731269
0.00939142
0.0114294
0.0133981
0.0152862
0.0170821
0.0187787
0.0203819
0.0219165
0.0234293
0.0249883
0.0266768
0.0285836
0.0307844
0.0333266
0.0362394
0.0395224
0.0431618
0.000214117
0.000509802
0.00119943
0.00213493
0.00334258
0.00485464
0.00670525
0.00879524
0.0109255
0.013018
0.0150474
0.016996
0.0188441
0.0205744
0.0221816
0.0236823
0.025124
0.026588
0.0281831
0.030025
0.0322136
0.0348103
0.0378297
0.0412389
0.000205596
0.000476037
0.00111746
0.00198916
0.00311193
0.00451496
0.00623356
0.00826794
0.0104472
0.0126354
0.014781
0.0168613
0.0188551
0.0207379
0.0224862
0.0240871
0.0255514
0.0269283
0.0283124
0.0298364
0.031646
0.0338622
0.0365496
0.0397039
0.000201734
0.000452335
0.00105891
0.00188342
0.00294332
0.00426573
0.00588428
0.00782759
0.0100078
0.0122609
0.0145017
0.0166947
0.0188168
0.0208423
0.0227419
0.0244874
0.026062
0.0274754
0.0287829
0.0300963
0.0315763
0.0333958
0.0356899
0.0385166
0.000197808
0.000433017
0.00101175
0.00179934
0.00281022
0.00406964
0.00560931
0.0074636
0.00961097
0.0119017
0.0142194
0.0165096
0.0187436
0.0208962
0.0229373
0.024833
0.0265518
0.0280755
0.0294181
0.0306479
0.0319022
0.0333723
0.0352553
0.037691
0.000195084
0.000417657
0.000974153
0.00173216
0.00270372
0.00391282
0.00538923
0.00716794
0.00926101
0.0115632
0.013939
0.0163122
0.0186453
0.0209113
0.0230805
0.0251182
0.0269865
0.0286514
0.0300971
0.031348
0.0324956
0.0337108
0.0352194
0.0372387
0.000192734
0.000404812
0.000942828
0.0016764
0.0026156
0.00378314
0.00520762
0.00692275
0.00895535
0.0112478
0.013664
0.0161076
0.0185285
0.0208961
0.0231814
0.0253496
0.0273612
0.0291745
0.0307555
0.0320954
0.0332379
0.0343089
0.0355232
0.0371455
0.000190917
0.000393985
0.000916388
0.00162946
0.00254146
0.00367424
0.00505501
0.00671654
0.008691
0.0109577
0.0133974
0.0158989
0.0183976
0.020857
0.0232474
0.0255353
0.0276807
0.0296389
0.031366
0.0328311
0.0340396
0.0350666
0.0360869
0.0373716
0.000189436
0.000384824
0.000893894
0.00158941
0.00247818
0.00358124
0.00492484
0.00654055
0.00846233
0.0106937
0.0131423
0.0156892
0.0182563
0.0207989
0.0232852
0.0256825
0.027952
0.0300476
0.0319205
0.0335267
0.0348441
0.0359034
0.0368271
0.0378576
0.00018836
0.000377165
0.000874949
0.00155493
0.00242369
0.00350113
0.00481274
0.00638891
0.00826409
0.0104557
0.0129008
0.0154819
0.0181083
0.0207261
0.0233002
0.0257982
0.028182
0.0304065
0.0324202
0.0341714
0.0356203
0.0367632
0.0376722
0.0385403
0.000187542
0.000370706
0.000859083
0.0015251
0.00237646
0.00343177
0.00471549
0.0062574
0.00809134
0.010243
0.0126753
0.0152799
0.017957
0.0206429
0.0232978
0.0258884
0.0283782
0.0307225
0.0328697
0.034764
0.0363541
0.0376118
0.038567
0.0393587
0.00018691
0.00036511
0.000845373
0.00149929
0.00233553
0.00337149
0.00463104
0.00614289
0.00794063
0.0100542
0.0124675
0.0150863
0.0178062
0.0205536
0.0232829
0.0259594
0.0285471
0.0310031
0.033276
0.035308
0.0370412
0.0384306
0.0394734
0.0402577
0.000186498
0.000360255
0.000833403
0.00147678
0.00229989
0.00331901
0.00455743
0.00604313
0.00780898
0.00988733
0.0122778
0.0149037
0.0176588
0.0204619
0.0232602
0.0260168
0.0286958
0.0312558
0.0336465
0.0358098
0.0376835
0.0392117
0.0403658
0.0411827
0.000186256
0.000356065
0.000823042
0.00145722
0.00226886
0.00327333
0.00449314
0.00595592
0.00769372
0.00974028
0.0121063
0.0147331
0.0175174
0.0203707
0.0232334
0.0260651
0.0288299
0.0314873
0.0339886
0.0362762
0.0382858
0.0399541
0.0412343
0.0421234
0.000186146
0.000352412
0.000814019
0.00144012
0.00224171
0.00323324
0.00443687
0.00587941
0.00759257
0.00961031
0.0119517
0.0145751
0.0173829
0.0202816
0.0232048
0.0261076
0.0289533
0.0317027
0.0343082
0.0367131
0.0388526
0.0406585
0.0420702
0.0430544
0.000186123
0.000349194
0.000806026
0.00142498
0.00221768
0.00319785
0.00438706
0.00581176
0.00750293
0.00949495
0.0118122
0.0144286
0.0172553
0.0201951
0.023175
0.0261457
0.0290687
0.0319051
0.0346091
0.0371251
0.0393882
0.0413272
0.0428728
0.0439733
0.00018613
0.000346307
0.000798887
0.00141145
0.00219621
0.00316621
0.00434264
0.00575138
0.0074229
0.00939159
0.0116858
0.0142924
0.0171335
0.0201104
0.0231439
0.0261794
0.0291764
0.0320961
0.0348937
0.0375148
0.0398953
0.0419621
0.0436396
0.0448608
0.000186228
0.000343764
0.000792461
0.00139922
0.00217685
0.00313764
0.00430253
0.00569686
0.00735076
0.00929818
0.0115703
0.0141652
0.0170166
0.0200265
0.0231103
0.0262079
0.0292759
0.0322753
0.0351622
0.0378834
0.0403753
0.0425644
0.0443703
0.0457158
0.000186324
0.000341429
0.000786543
0.001388
0.0021591
0.00311159
0.00426588
0.00564713
0.0072848
0.0092128
0.0114639
0.0140454
0.0169032
0.0199421
0.0230727
0.0262296
0.029366
0.0324418
0.035414
0.0382306
0.0408286
0.0431342
0.0450641
0.046532
0.000186384
0.000339319
0.000781114
0.00137768
0.00214275
0.00308749
0.00423208
0.00560121
0.00722404
0.00913402
0.0113652
0.013932
0.0167926
0.0198564
0.0230305
0.0262438
0.0294458
0.0325952
0.0356492
0.038557
0.0412565
0.0436743
0.0457263
0.0473246
0.000186455
0.000337386
0.000776048
0.00136807
0.00212751
0.00306508
0.00420062
0.00555851
0.0071675
0.0090607
0.0112728
0.0138242
0.0166844
0.0197691
0.022983
0.0262498
0.029515
0.0327353
0.0358681
0.0388634
0.0416604
0.0441864
0.0463571
0.0480815
0.000186519
0.000335643
0.000771312
0.00135906
0.00211324
0.00304407
0.00417113
0.00551851
0.00711457
0.00899204
0.0111861
0.0137213
0.0165783
0.01968
0.0229301
0.0262475
0.0295733
0.0328621
0.0360709
0.0391505
0.0420413
0.0446714
0.0469563
0.0488015
0.000186544
0.000334028
0.000766837
0.00135058
0.00209977
0.00302424
0.00414334
0.0054808
0.00706468
0.00892736
0.0111042
0.0136231
0.0164742
0.0195891
0.0228718
0.0262368
0.0296207
0.0329755
0.0362576
0.0394185
0.0423997
0.0451298
0.0475247
0.0494883
0.000186548
0.000332557
0.000762596
0.00134254
0.00208704
0.0030055
0.00411705
0.00544517
0.00701757
0.00886624
0.0110266
0.0135291
0.0163724
0.0194969
0.0228084
0.0262179
0.0296572
0.0330756
0.0364284
0.0396676
0.0427356
0.045562
0.0480625
0.0501385
0.000186539
0.00033124
0.000758636
0.00133499
0.00207505
0.00298783
0.00409221
0.00541148
0.00697299
0.00880841
0.0109531
0.0134394
0.0162731
0.0194039
0.0227408
0.0261915
0.0296836
0.033163
0.0365841
0.039899
0.0430511
0.045971
0.0485757
0.0507697
0.00018649
0.000330027
0.000754865
0.00132784
0.00206371
0.00297114
0.00406879
0.00537967
0.00693086
0.00875372
0.0108834
0.0133538
0.0161767
0.0193111
0.0226698
0.0261586
0.0297009
0.0332391
0.0367262
0.0401144
0.0433481
0.0463594
0.0490669
0.0513778
0.000186435
0.000328948
0.000751354
0.00132114
0.00205307
0.00295543
0.00404669
0.00534966
0.0068911
0.00870208
0.0108176
0.0132725
0.0160837
0.0192191
0.0225964
0.0261203
0.02971
0.0333045
0.0368551
0.0403139
0.0436258
0.0467239
0.0495258
0.0519291
0.000186357
0.000327953
0.000748021
0.00131482
0.00204305
0.00294068
0.00402596
0.00532148
0.00685373
0.00865349
0.0107556
0.0131955
0.0159945
0.0191288
0.0225219
0.0260779
0.0297125
0.0333611
0.0369728
0.0404996
0.0438872
0.04707
0.0499684
0.0524906
0.000186259
0.000327044
0.000744884
0.00130888
0.00203362
0.00292678
0.00400644
0.00529496
0.00681861
0.00860785
0.0106973
0.0131229
0.0159095
0.0190411
0.0224475
0.026033
0.02971
0.0334105
0.0370812
0.0406738
0.0441345
0.0473991
0.0503892
0.0530121
0.000186136
0.000326205
0.000741893
0.00130325
0.00202469
0.00291365
0.00398804
0.00526998
0.00678553
0.00856488
0.0106424
0.0130545
0.0158287
0.0189564
0.0223739
0.0259866
0.029704
0.0334544
0.0371823
0.0408385
0.0443698
0.047713
0.0507907
0.053509
0.000185981
0.000325426
0.000739006
0.00129783
0.00201613
0.00290109
0.00397046
0.0052462
0.00675414
0.00852423
0.0105905
0.0129897
0.0157518
0.0188746
0.0223015
0.0259395
0.0296954
0.0334941
0.0372776
0.0409956
0.0445955
0.0480153
0.0511791
0.053996
0.000185781
0.000324694
0.000736187
0.00129256
0.00200782
0.00288893
0.0039535
0.0052233
0.00672398
0.00848523
0.0105409
0.0129279
0.015678
0.0187953
0.02223
0.0258915
0.0296845
0.0335302
0.0373679
0.0411462
0.0448129
0.0483068
0.0515542
0.0544668
0.000185534
0.00032397
0.000733419
0.0012874
0.00199967
0.00287699
0.00393686
0.00520089
0.00669456
0.00844729
0.0104928
0.0128679
0.0156062
0.0187172
0.0221583
0.0258418
0.0296705
0.0335622
0.0374532
0.0412906
0.0450223
0.0485879
0.0519147
0.0549165
0.000185239
0.000323253
0.000730696
0.00128231
0.00199162
0.00286519
0.00392038
0.00517869
0.00666541
0.00840977
0.0104452
0.0128087
0.0155351
0.0186388
0.0220846
0.0257885
0.0296518
0.0335887
0.0375323
0.0414282
0.0452237
0.0488591
0.0522622
0.0553451
0.000184892
0.000322545
0.000728024
0.00127731
0.00198368
0.00285351
0.00390404
0.00515663
0.00663639
0.00837234
0.0103977
0.0127494
0.0154636
0.0185587
0.0220071
0.0257292
0.0296256
0.0336069
0.0376028
0.041557
0.0454162
0.0491206
0.0525981
0.0557596
0.000184492
0.000321846
0.000725416
0.00127243
0.00197589
0.00284202
0.00388792
0.00513478
0.00660755
0.00833504
0.0103502
0.01269
0.0153912
0.0184761
0.0219245
0.025662
0.0295891
0.0336133
0.0376607
0.0416728
0.0455956
0.0493692
0.0529216
0.0561633
0.000184047
0.000321157
0.000722882
0.00126769
0.00196834
0.00283084
0.00387219
0.00511341
0.00657924
0.00829829
0.0103033
0.0126309
0.0153186
0.0183919
0.0218371
0.0255863
0.0295407
0.0336049
0.0377017
0.0417701
0.0457549
0.0495971
0.0532253
0.0565492
0.000183564
0.000320484
0.000720426
0.00126311
0.00196104
0.00282007
0.00385702
0.00509279
0.0065519
0.00826273
0.0102578
0.0125734
0.0152476
0.0183081
0.0217478
0.0255048
0.0294823
0.0335827
0.0377251
0.0418458
0.0458884
0.0497936
0.0534915
0.0569009
0.000183045
0.000319814
0.000718047
0.0012587
0.00195404
0.00280975
0.00384253
0.00507311
0.00652583
0.00822884
0.0102144
0.0125186
0.0151797
0.0182275
0.0216602
0.0254223
0.0294193
0.0335518
0.0377356
0.0419039
0.045998
0.0499559
0.0537012
0.0571252
0.000182495
0.000319141
0.000715731
0.00125444
0.00194731
0.00279987
0.00382872
0.00505442
0.00650115
0.00819685
0.0101735
0.0124671
0.0151159
0.0181517
0.0215773
0.0253435
0.0293583
0.0335211
0.0377449
0.0419602
0.0461075
0.0501266
0.0539486
0.0574985
0.000181912
0.000318464
0.000713465
0.00125029
0.00194078
0.00279034
0.00381545
0.00503654
0.00647766
0.00816654
0.0101349
0.0124187
0.0150562
0.0180808
0.0214998
0.0252697
0.0293019
0.0334947
0.0377586
0.042022
0.0462249
0.0503084
0.0542072
0.0578464
0.0001813
0.000317768
0.000711223
0.00124621
0.00193438
0.00278103
0.00380252
0.00501921
0.00645498
0.00813738
0.010098
0.0123725
0.0149994
0.0180134
0.0214259
0.0251995
0.0292486
0.0334711
0.037775
0.0420864
0.0463442
0.05049
0.0544598
0.0581793
0.000180653
0.000317057
0.000708981
0.00124214
0.00192802
0.00277179
0.00378975
0.00500214
0.0064327
0.00810887
0.010062
0.0123277
0.0149444
0.0179481
0.0213541
0.0251306
0.0291959
0.0334473
0.0377905
0.042149
0.0464602
0.0506646
0.0546964
0.0584748
0.000179979
0.000316319
0.000706719
0.00123806
0.00192163
0.00276252
0.00377695
0.00498507
0.00641049
0.0080805
0.0100263
0.0122833
0.0148901
0.0178836
0.0212825
0.0250611
0.0291414
0.0334209
0.0378026
0.0422074
0.046571
0.0508336
0.0549299
0.0587814
0.000179247
0.000315573
0.000704421
0.00123391
0.00191515
0.00275314
0.00376401
0.00496782
0.00638808
0.00805194
0.00999046
0.0122388
0.0148357
0.0178188
0.0212101
0.0249896
0.0290835
0.0333897
0.037809
0.0422597
0.0466756
0.0509967
0.0551592
0.05909
0.000178478
0.000314762
0.000702075
0.00122971
0.00190857
0.0027436
0.00375086
0.0049503
0.00636532
0.00802295
0.00995409
0.0121937
0.0147806
0.017753
0.0211359
0.0249145
0.0290202
0.0333514
0.037807
0.0423023
0.0467692
0.051147
0.0553723
0.0593717
0.00017766
0.000313979
0.000699726
0.00122546
0.00190191
0.00273393
0.00373751
0.0049325
0.0063422
0.00799349
0.00991711
0.0121479
0.0147245
0.0176859
0.0210593
0.0248354
0.0289506
0.0333048
0.0377946
0.0423327
0.0468485
0.0512802
0.0555635
0.0596236
0.000176798
0.000313117
0.000697324
0.00122115
0.00189517
0.00272415
0.003724
0.00491448
0.00631878
0.00796363
0.00987962
0.0121014
0.0146675
0.0176174
0.0209805
0.0247524
0.0288749
0.0332495
0.0377715
0.0423503
0.0469134
0.0513968
0.0557356
0.0598539
0.000175934
0.000312295
0.000694952
0.00121685
0.00188843
0.00271434
0.00371044
0.00489636
0.00629522
0.00793353
0.0098418
0.0120545
0.01461
0.0175481
0.0209
0.0246662
0.0287936
0.0331864
0.0377383
0.0423563
0.0469647
0.0514988
0.0558926
0.06007
0.000175013
0.000311453
0.000692549
0.00121255
0.00188169
0.00270457
0.00369688
0.00487829
0.00627163
0.00790346
0.00980395
0.0120075
0.0145523
0.0174785
0.0208186
0.0245776
0.028708
0.0331164
0.037696
0.0423513
0.0470043
0.0515884
0.0560379
0.0602775
0.000174096
0.000310596
0.000690225
0.00120834
0.00187506
0.00269487
0.00368351
0.00486034
0.00624827
0.00787359
0.00976643
0.0119608
0.014495
0.017409
0.0207373
0.0244877
0.028619
0.0330409
0.0376463
0.0423369
0.0470327
0.0516658
0.0561709
0.0604752
0.000173131
0.000309781
0.000687863
0.00120416
0.0018685
0.00268538
0.00367031
0.0048427
0.00622526
0.00784419
0.00972938
0.0119149
0.0144384
0.0173406
0.0206565
0.0243979
0.0285283
0.0329615
0.0375902
0.0423143
0.0470511
0.0517312
0.0562883
0.0606492
0.000172141
0.000308869
0.000685571
0.00120009
0.0018621
0.00267604
0.00365742
0.00482546
0.0062028
0.00781552
0.00969333
0.0118699
0.0143833
0.0172736
0.0205773
0.024309
0.0284375
0.03288
0.0375299
0.0422855
0.0470616
0.0517872
0.0563954
0.0608125
0.000171195
0.00030808
0.000683402
0.00119614
0.00185591
0.00266701
0.00364491
0.00480872
0.00618106
0.00778762
0.00965822
0.0118264
0.0143297
0.0172086
0.0205003
0.0242222
0.0283474
0.0327978
0.0374673
0.0422526
0.0470665
0.0518364
0.0564947
0.0609673
0.000170208
0.00030725
0.000681227
0.00119229
0.00184987
0.00265828
0.0036328
0.0047926
0.00615996
0.00776074
0.00962428
0.0117843
0.014278
0.0171459
0.0204258
0.0241377
0.0282593
0.0327162
0.0374035
0.0422169
0.047067
0.0518799
0.056588
0.0611202
0.000169195
0.000306422
0.000679185
0.00118862
0.00184411
0.00264984
0.00362115
0.00477695
0.00613962
0.00773474
0.00959169
0.0117436
0.0142282
0.0170854
0.020354
0.0240561
0.0281737
0.0326361
0.0373403
0.0421801
0.047065
0.0519192
0.056675
0.0612621
0.000168212
0.000305571
0.000677148
0.00118503
0.00183851
0.00264171
0.00360988
0.00476195
0.00612006
0.00770971
0.00956023
0.0117047
0.0141802
0.0170274
0.0202851
0.0239776
0.0280906
0.0325581
0.0372778
0.0421433
0.0470614
0.0519558
0.0567575
0.0613966
0.000167222
0.000304771
0.000675228
0.00118162
0.00183312
0.00263388
0.00359902
0.00474748
0.00610119
0.00768571
0.00953001
0.0116671
0.0141342
0.0169716
0.0202187
0.0239017
0.0280104
0.032482
0.0372163
0.0421062
0.0470567
0.0519895
0.0568347
0.0615209
0.000166245
0.000303954
0.000673416
0.00117837
0.001828
0.0026264
0.00358871
0.0047336
0.00608312
0.00766258
0.00950099
0.0116311
0.0140899
0.0169177
0.0201547
0.0238285
0.0279323
0.0324077
0.037156
0.0420692
0.047051
0.0520211
0.0569087
0.0616402
0.000165247
0.00030318
0.000671631
0.00117521
0.00182303
0.0026192
0.00357867
0.00472022
0.00606568
0.00764032
0.00947295
0.0115963
0.0140472
0.016866
0.020093
0.0237576
0.0278566
0.032335
0.0370965
0.0420324
0.0470446
0.0520516
0.0569823
0.0617673
0.000164227
0.000302326
0.000669915
0.00117219
0.00181826
0.00261223
0.00356905
0.00470733
0.00604887
0.0076189
0.00944605
0.0115628
0.014006
0.016816
0.0200334
0.0236891
0.0277831
0.0322643
0.0370383
0.041996
0.047038
0.0520805
0.0570515
0.0618798
0.000163265
0.000301534
0.00066826
0.00116925
0.00181364
0.00260547
0.00355971
0.00469484
0.00603268
0.00759813
0.00941994
0.0115305
0.0139663
0.0167676
0.0199758
0.0236227
0.0277114
0.0321951
0.0369812
0.0419605
0.0470314
0.0521093
0.0571207
0.0619942
0.000162245
0.000300751
0.000666608
0.00116638
0.00180913
0.00259894
0.00355062
0.00468273
0.00601684
0.007578
0.00939459
0.011499
0.0139277
0.0167208
0.0199198
0.023558
0.0276416
0.0321272
0.0369247
0.0419248
0.0470245
0.052137
0.0571881
0.0621057
0.000161222
0.000299884
0.000665024
0.00116359
0.00180474
0.00259249
0.00354175
0.00467084
0.00600143
0.00755829
0.00936988
0.0114684
0.0138901
0.0166751
0.0198652
0.0234949
0.027573
0.0320602
0.0368687
0.0418889
0.0470166
0.0521631
0.0572532
0.0622158
0.000160177
0.000299111
0.000663475
0.00116088
0.00180044
0.00258626
0.00353303
0.00465919
0.00598624
0.00753895
0.00934557
0.0114383
0.0138532
0.0166304
0.0198117
0.023433
0.0275055
0.031994
0.0368129
0.0418529
0.0470079
0.0521875
0.0573153
0.0623198
0.000159103
0.000298217
0.000661955
0.00115825
0.00179625
0.00258009
0.00352451
0.00464776
0.00597134
0.00751996
0.00932173
0.0114086
0.0138168
0.0165863
0.0197591
0.0233719
0.027439
0.0319283
0.0367573
0.0418167
0.0469989
0.0522112
0.0573756
0.0624193
0.000158066
0.00029744
0.00066055
0.00115571
0.00179221
0.00257412
0.00351618
0.00463656
0.00595676
0.00750119
0.0092981
0.0113794
0.0137808
0.0165425
0.0197068
0.0233112
0.0273722
0.0318622
0.0367011
0.0417798
0.0469894
0.0522354
0.0574366
0.0625129
0.000156968
0.000296611
0.000659132
0.00115324
0.00178828
0.00256836
0.00350809
0.00462573
0.00594247
0.0074829
0.00927488
0.0113504
0.0137452
0.0164991
0.0196545
0.0232501
0.0273049
0.0317944
0.0366422
0.0417399
0.0469774
0.0522594
0.0575069
0.0626509
0.000155854
0.000295768
0.000657836
0.00115094
0.00178457
0.00256281
0.00350034
0.0046152
0.00592865
0.00746506
0.00925239
0.0113222
0.0137103
0.0164564
0.0196029
0.0231892
0.0272368
0.0317248
0.0365799
0.0416945
0.0469574
0.0522712
0.0575547
0.062734
0.000154753
0.000294923
0.000656536
0.00114868
0.00178098
0.00255755
0.00349292
0.00460517
0.00591538
0.00744795
0.00923063
0.011295
0.0136764
0.0164149
0.0195526
0.0231297
0.0271694
0.0316548
0.0365157
0.0416455
0.0469315
0.0522745
0.0575917
0.0628115
0.000153644
0.000294089
0.000655327
0.00114656
0.00177756
0.0025525
0.0034858
0.00459556
0.00590271
0.00743164
0.0092099
0.0112688
0.013644
0.016375
0.0195042
0.0230722
0.0271044
0.0315869
0.0364529
0.0415968
0.0469048
0.052275
0.0576208
0.0628614
0.000152546
0.000293275
0.00065421
0.0011446
0.00177439
0.00254772
0.00347911
0.0045864
0.00589065
0.00741598
0.00919
0.0112439
0.013613
0.0163367
0.0194578
0.0230172
0.0270418
0.0315217
0.0363929
0.0415512
0.046882
0.052282
0.057664
0.0629518
0.000151407
0.000292484
0.000653088
0.00114266
0.00177127
0.00254314
0.00347261
0.00457763
0.00587906
0.00740102
0.00917091
0.01122
0.0135833
0.0163002
0.0194133
0.0229643
0.0269817
0.0314586
0.0363349
0.0415076
0.0468613
0.0522911
0.0577089
0.0630374
0.000150208
0.00029163
0.000652017
0.00114082
0.00176826
0.00253864
0.00346634
0.00456911
0.00586784
0.00738658
0.00915261
0.0111969
0.0135547
0.016265
0.0193705
0.0229132
0.0269236
0.0313974
0.0362781
0.0414641
0.0468397
0.0522977
0.0577483