/*--------------------------------*- C++ -*----------------------------------*\
| =========                 |                                                 |
| \\      /  F ield         | OpenFOAM: The Open Source CFD Toolbox           |
|  \\    /   O peration     | Version:  2.3.0                                 |
|   \\  /    A nd           | Web:      www.OpenFOAM.org                      |
|    \\/     M anipulation  |                                                 |
\*---------------------------------------------------------------------------*/
FoamFile
{
    version     2.0;
    format      ascii;
    class       volScalarField;
    location    "200";
    object      nut;
}
// * * * * * * * * * * * * * * * * * * * * * * * * * * * * * * * * * * * * * //

dimensions      [0 2 -1 0 0 0 0];

internalField   nonuniform List<scalar> 
7994
(
0.067048
0.0619903
0.057255
0.0529005
0.0489803
0.0455378
0.0425986
0.0401625
0.0381933
0.0366153
0.0353209
0.0341852
0.0330821
0.0318945
0.0305224
0.0729713
0.0693987
0.0662056
0.0634238
0.0610632
0.0591144
0.0575508
0.0563333
0.055415
0.0547473
0.0542829
0.0539795
0.0538011
0.0537183
0.0537084
0.0782862
0.075736
0.0735324
0.0716653
0.0701147
0.0688518
0.0678428
0.0670522
0.0664456
0.0659912
0.0656616
0.065433
0.0652861
0.065205
0.0651773
0.0828159
0.080968
0.0793961
0.0780777
0.0769872
0.0760969
0.0753795
0.074809
0.0743621
0.0740189
0.0737619
0.073577
0.0734526
0.0733792
0.0733493
0.0866122
0.0852399
0.0840758
0.0830986
0.0822857
0.0816153
0.0810674
0.080624
0.0802695
0.0799909
0.0797772
0.0796192
0.0795096
0.0794424
0.0794128
0.0897924
0.0887358
0.087842
0.0870872
0.0864526
0.0859222
0.0854818
0.0851191
0.0848238
0.0845871
0.0844019
0.0842622
0.0841632
0.0841011
0.0840724
0.0924314
0.0916116
0.0909078
0.0903052
0.0897915
0.0893555
0.0889878
0.08868
0.0884252
0.0882177
0.0880527
0.0879263
0.0878353
0.0877772
0.0877497
0.0946528
0.0940055
0.0934356
0.0929398
0.0925109
0.0921416
0.0918254
0.0915568
0.0913313
0.0911451
0.0909951
0.0908788
0.0907941
0.0907393
0.0907129
0.0965651
0.0960211
0.0955436
0.0951244
0.094757
0.0944363
0.094158
0.0939185
0.0937149
0.0935449
0.0934065
0.0932982
0.0932185
0.0931665
0.0931411
0.0981791
0.0977216
0.0973156
0.0969546
0.0966339
0.0963499
0.0961003
0.095883
0.0956964
0.0955391
0.09541
0.095308
0.0952325
0.0951828
0.0951582
0.0995557
0.0991676
0.0988182
0.0985027
0.0982182
0.0979627
0.0977353
0.0975353
0.097362
0.097215
0.0970934
0.0969968
0.0969247
0.0968769
0.0968532
0.100736
0.100407
0.100103
0.0998234
0.0995679
0.0993347
0.0991245
0.0989381
0.0987755
0.0986368
0.0985219
0.0984299
0.0983602
0.0983142
0.0982913
0.101759
0.101479
0.101209
0.100959
0.100727
0.100511
0.100314
0.100139
0.0999845
0.0998524
0.0997438
0.0996569
0.0995876
0.0995434
0.0995213
0.102653
0.102414
0.102169
0.101942
0.10173
0.101527
0.10134
0.101177
0.101027
0.100899
0.100796
0.100718
0.100643
0.100602
0.10058
0.0305354
0.0319296
0.0331184
0.0342158
0.0353441
0.0366327
0.0382083
0.0401792
0.0426198
0.0455651
0.0490142
0.0529406
0.0573011
0.0620425
0.0671062
0.0537069
0.053714
0.0537946
0.0539714
0.0542742
0.0547393
0.0554092
0.056331
0.0575534
0.0591229
0.0610785
0.0634466
0.0662364
0.0694379
0.0730199
0.0651771
0.0652045
0.0652854
0.0654325
0.0656615
0.0659922
0.066448
0.0670567
0.06785
0.0688624
0.0701295
0.0716852
0.0735582
0.0757689
0.078327
0.0733493
0.0733793
0.0734529
0.0735776
0.073763
0.0740209
0.0743653
0.0748137
0.0753863
0.0761063
0.0769998
0.0780945
0.0794179
0.0809962
0.0828519
0.0794128
0.0794426
0.0795099
0.0796198
0.0797783
0.0799927
0.0802722
0.0806279
0.081073
0.081623
0.0822961
0.0831126
0.0840945
0.0852647
0.0866446
0.0840724
0.0841011
0.0841634
0.0842625
0.0844025
0.0845882
0.0848256
0.085122
0.085486
0.0859282
0.086461
0.0870988
0.0878581
0.0887578
0.089822
0.0877497
0.0877771
0.0878352
0.0879262
0.0880527
0.088218
0.088426
0.0886816
0.0889904
0.0893597
0.0897977
0.0903144
0.0909212
0.091631
0.0924602
0.0907128
0.0907389
0.0907935
0.0908781
0.0909944
0.0911445
0.091331
0.091557
0.0918264
0.0921439
0.092515
0.0929465
0.0934461
0.0940212
0.0946755
0.0931408
0.0931658
0.0932175
0.0932969
0.0934051
0.0935434
0.0937135
0.0939174
0.0941575
0.0944367
0.094759
0.0951287
0.0955514
0.0960339
0.0965846
0.0951579
0.0951819
0.095231
0.0953061
0.0954077
0.0955367
0.0956941
0.0958808
0.0960983
0.0963485
0.0966336
0.0969565
0.097321
0.097732
0.0981955
0.0968528
0.0968757
0.0969227
0.096994
0.0970903
0.0972118
0.0973589
0.0975321
0.0977319
0.0979593
0.0982155
0.098502
0.0988211
0.0991761
0.0995724
0.098291
0.098313
0.0983577
0.0984258
0.0985178
0.0986332
0.098772
0.0989342
0.0991197
0.0993292
0.0995624
0.0998199
0.100103
0.100413
0.100751
0.0995216
0.0995426
0.0995847
0.0996498
0.0997386
0.0998489
0.0999813
0.100134
0.100308
0.100503
0.100718
0.100952
0.101206
0.10148
0.101771
0.100582
0.100602
0.100641
0.100702
0.100789
0.100895
0.101024
0.101169
0.101332
0.101518
0.101717
0.101931
0.102164
0.102412
0.102664
0.0137224
0.0108402
0.00853518
0.00675378
0.005572
0.00472793
0.00406086
0.00349197
0.00298209
0.00251125
0.0020701
0.00165616
0.00127146
0.00091762
0.000657547
0.0137869
0.011106
0.00894032
0.00725218
0.00604486
0.00515979
0.00447248
0.00390095
0.00339743
0.00293541
0.00250092
0.00208808
0.00169526
0.00132223
0.00101761
0.0138766
0.0113976
0.0093661
0.0077719
0.00654849
0.00561658
0.00488983
0.00429463
0.00377933
0.00331146
0.00287223
0.00245192
0.00204489
0.00164755
0.00131396
0.0139846
0.0116901
0.00978255
0.00826589
0.00704347
0.00607264
0.00529978
0.0046673
0.00412633
0.00364135
0.00318933
0.00275655
0.00233328
0.00191268
0.00155499
0.0140988
0.0119721
0.0101811
0.00872491
0.00751296
0.0065147
0.00569795
0.00502227
0.00444656
0.00393604
0.00346504
0.00301621
0.00257582
0.00213367
0.00175397
0.0142287
0.0122416
0.0105576
0.00915025
0.0079515
0.00693505
0.0060804
0.00536117
0.00474608
0.00420422
0.00370946
0.00324178
0.00278367
0.00232137
0.00192113
0.0143334
0.0124928
0.0109067
0.0095436
0.0083585
0.00732989
0.00644371
0.00568367
0.00502799
0.00445147
0.00392956
0.0034408
0.00296448
0.00248313
0.00206369
0.0144649
0.0127294
0.011227
0.00990588
0.00873483
0.00769791
0.00678566
0.00598878
0.00529354
0.00468109
0.00412997
0.00361854
0.00312364
0.00262413
0.00218673
0.0145425
0.0129443
0.0115196
0.0102384
0.00908172
0.00803916
0.00710521
0.0062756
0.00554308
0.00489497
0.00431372
0.00377867
0.00326498
0.00274808
0.0022939
0.0146508
0.0131416
0.0117856
0.0105427
0.00940067
0.00835448
0.00740229
0.00654379
0.00577685
0.00509432
0.00448297
0.00392395
0.00339146
0.00285788
0.00238797
0.0147237
0.0133205
0.0120274
0.0108203
0.00969309
0.00864491
0.00767727
0.00679323
0.00599483
0.00527974
0.00463896
0.00405606
0.00350503
0.00295556
0.00247099
0.0148206
0.0134858
0.0122471
0.0110733
0.00996074
0.008912
0.00793166
0.00702539
0.00619849
0.00545291
0.00478411
0.00417793
0.00360837
0.00304324
0.00254475
0.0148875
0.0136363
0.0124466
0.0113029
0.0102038
0.00915344
0.00815942
0.00723269
0.006381
0.00560825
0.00491153
0.00428345
0.00369901
0.0031214
0.00261017
0.0149818
0.0138018
0.0126491
0.0115276
0.0104551
0.00942637
0.00844076
0.00748434
0.0065933
0.0057859
0.00507336
0.00441474
0.00379447
0.00319278
0.0026708
0.000659057
0.000915872
0.0012663
0.00164639
0.00205374
0.00248606
0.00294585
0.00344296
0.00399903
0.00465854
0.0055134
0.00674278
0.00854969
0.0108756
0.0137783
0.0010186
0.00131745
0.00168404
0.00207005
0.00247476
0.00289951
0.00335063
0.0038435
0.00440793
0.00509749
0.00599981
0.00723484
0.00896007
0.0111443
0.0138344
0.00131453
0.00163994
0.00202818
0.00242645
0.00283747
0.00326677
0.0037251
0.00423348
0.00482783
0.00556318
0.00651296
0.00775879
0.00938989
0.0114375
0.0139277
0.00155523
0.00190251
0.00231176
0.00272475
0.00314767
0.00359045
0.00406828
0.00460656
0.00524325
0.00602813
0.00701695
0.00826158
0.00980981
0.0117327
0.0140387
0.00175394
0.00212123
0.00255017
0.00297923
0.00341823
0.0038814
0.00438766
0.00496459
0.00564816
0.00647892
0.00749537
0.00872828
0.0102076
0.0120154
0.0141457
0.00192091
0.00230695
0.00275453
0.00320069
0.00365912
0.00414789
0.00468843
0.00530806
0.0060378
0.00690758
0.00794158
0.0091576
0.010579
0.0122864
0.0142925
0.00206333
0.00246702
0.00293245
0.0033966
0.00387704
0.004395
0.00497296
0.00563588
0.00640819
0.00730976
0.00835422
0.00955239
0.010925
0.0125412
0.0144052
0.00218627
0.00260658
0.00308925
0.00357207
0.00407635
0.00462561
0.00524195
0.00594652
0.00675669
0.00768384
0.00873447
0.00991568
0.0112459
0.0127799
0.0145357
0.00229341
0.00272935
0.00322871
0.00373062
0.00425983
0.00484121
0.00549533
0.0062387
0.007082
0.00802992
0.0090843
0.0102499
0.0115421
0.0130015
0.0146434
0.00238743
0.0028381
0.00335367
0.00387485
0.00442939
0.00504274
0.00573301
0.00651184
0.00738401
0.00834914
0.00940593
0.0105571
0.011814
0.0132044
0.01474
0.00247061
0.00293511
0.00346624
0.00400654
0.00458628
0.0052307
0.00595497
0.00676591
0.00766328
0.00864294
0.00970124
0.0108387
0.0120619
0.0133875
0.0148209
0.00254365
0.00302133
0.0035679
0.00412729
0.00473175
0.00540578
0.00616135
0.00700092
0.00792049
0.00891277
0.00997193
0.0110961
0.0122873
0.0135552
0.0149128
0.00261267
0.00310258
0.0036618
0.0042379
0.00486508
0.00556723
0.0063527
0.00722085
0.00816001
0.00916189
0.0102211
0.0113314
0.0124927
0.0137088
0.0149881
0.00265399
0.00315504
0.00373676
0.0043384
0.004996
0.00572486
0.00653676
0.00740173
0.0083481
0.00937201
0.010423
0.011533
0.0126632
0.0138255
0.0150098
0.00128867
0.00388059
0.00673683
0.00981264
0.0131105
0.0166361
0.0204066
0.0244479
0.0287902
0.0334598
0.0384712
0.0438216
0.0494897
0.0554373
0.0616144
9.30989e-08
0.00042446
0.00172158
0.00385167
0.00634485
0.00931986
0.0127868
0.0167493
0.0212062
0.026149
0.0315593
0.0374058
0.0436414
0.0502039
0.0570157
0
0.0002104
0.00108515
0.0025457
0.00436899
0.00669043
0.00955481
0.0129977
0.0170441
0.0217038
0.0269682
0.032807
0.0391659
0.0459677
0.0531157
2.59041e-06
0.000178416
0.00109166
0.00216557
0.00362096
0.00552701
0.00794546
0.0109358
0.0145503
0.0188273
0.023785
0.0294155
0.0356795
0.0425053
0.0497915
6.13163e-05
0.000511827
0.00105124
0.00194856
0.00319479
0.00484403
0.00696237
0.00961974
0.0128842
0.0168151
0.0214551
0.0268219
0.0329001
0.0396358
0.0469353
0.000345099
0.000619629
0.000983067
0.00177422
0.002882
0.00435655
0.00626311
0.0086743
0.0116654
0.015308
0.0196622
0.0247671
0.0306303
0.0372193
0.0444521
0.000397289
0.000599166
0.000968932
0.00163163
0.00263262
0.00397584
0.00572188
0.00794274
0.0107162
0.0141203
0.0182263
0.0230893
0.0287368
0.0351575
0.042292
0.000390372
0.000566468
0.000957595
0.00151564
0.00242966
0.00366773
0.00528508
0.00735207
0.00994676
0.0131504
0.0170412
0.021685
0.0271237
0.0333593
0.0403253
0.000382013
0.000547653
0.000932614
0.00141904
0.00226239
0.00341362
0.0049241
0.00686256
0.00930647
0.0123385
0.0160408
0.0204873
0.0257319
0.0317961
0.0386665
0.000376082
0.000537164
0.000905077
0.00134108
0.0021227
0.00320068
0.00462045
0.00644911
0.00876327
0.0116459
0.015182
0.019451
0.0245173
0.0304189
0.0371603
0.000371347
0.00053142
0.000888011
0.00130081
0.0020069
0.00301989
0.00436122
0.00609456
0.00829538
0.0110465
0.0144346
0.0185434
0.0234453
0.0291894
0.0357859
0.000367444
0.000528959
0.000881756
0.00128349
0.00191086
0.00286466
0.0041371
0.00578667
0.00788734
0.0105215
0.0137767
0.0177398
0.0224883
0.0280781
0.0345204
0.000364091
0.000527919
0.000879871
0.00127092
0.00182966
0.00272996
0.00394122
0.0055164
0.00752775
0.010057
0.0131921
0.0170221
0.0216293
0.0270799
0.0334188
0.000360977
0.000526745
0.000877602
0.00125681
0.00175985
0.00261177
0.00376834
0.00527692
0.00720799
0.00964249
0.0126684
0.0163765
0.0208535
0.0261735
0.0323876
0.000357965
0.000525058
0.000874368
0.00124372
0.00170996
0.00250827
0.0036146
0.00506302
0.00692142
0.00926978
0.012196
0.0157919
0.0201471
0.0253387
0.0314102
0.000355125
0.00052348
0.000872318
0.00123687
0.00168586
0.00241901
0.00347719
0.00487068
0.00666288
0.00893247
0.011767
0.0152589
0.0194993
0.0245674
0.0305115
0.000352546
0.000522487
0.000872414
0.00123556
0.00167418
0.00234195
0.00335387
0.00469671
0.00642822
0.00862541
0.0113752
0.0147704
0.0189038
0.0238601
0.029711
0.000350215
0.00052195
0.000873771
0.00123621
0.00166457
0.00227428
0.00324261
0.00453857
0.00621411
0.00834444
0.0110157
0.0143209
0.0183547
0.0232065
0.0289545
0.000348042
0.000521443
0.000875003
0.00123608
0.00165342
0.00221445
0.00314165
0.00439411
0.00601786
0.0080862
0.0106845
0.0139059
0.0178465
0.0225992
0.0282438
0.00034595
0.000520677
0.000875383
0.00123461
0.00164202
0.00216744
0.00305026
0.00426164
0.00583721
0.00784787
0.0103781
0.0135209
0.0173729
0.0220278
0.0275614
0.00034392
0.000519704
0.000875247
0.00123322
0.00163434
0.0021397
0.00296875
0.0041399
0.00567033
0.00762715
0.0100938
0.0131631
0.0169337
0.0215071
0.0269996
0.000341982
0.000518765
0.000875346
0.0012333
0.00163159
0.00212544
0.00289661
0.00402789
0.00551572
0.00742211
0.00982913
0.0128294
0.016522
0.0210055
0.0263504
0.000340166
0.000518021
0.000876062
0.00123496
0.00163199
0.00211622
0.00283228
0.00392463
0.0053721
0.00723108
0.00958204
0.0125172
0.0161357
0.0205382
0.0258246
0.000338471
0.000517455
0.000877236
0.00123741
0.00163321
0.00210736
0.00277415
0.00382914
0.00523833
0.00705262
0.00935074
0.0122243
0.015773
0.0201
0.0253095
0.000336869
0.000516938
0.000878435
0.0012397
0.00163372
0.00209735
0.00272182
0.00374059
0.00511345
0.00688551
0.0091337
0.011949
0.0154313
0.019684
0.0248033
0.000335328
0.000516343
0.000879291
0.00124127
0.00163315
0.00208708
0.00267866
0.00365868
0.00499661
0.00672867
0.00892956
0.0116895
0.015108
0.0192871
0.0243161
0.000333828
0.000515628
0.000879718
0.00124222
0.0016323
0.0020791
0.0026494
0.0035838
0.0048872
0.00658114
0.00873706
0.0114441
0.0148006
0.0189066
0.0238469
0.000332368
0.000514842
0.000879906
0.00124304
0.00163229
0.00207496
0.00263235
0.00351604
0.00478471
0.0064421
0.00855512
0.0112115
0.0145089
0.018549
0.0234366
0.00033096
0.000514075
0.00088013
0.00124425
0.00163365
0.00207418
0.00262196
0.00345469
0.00468866
0.00631081
0.00838279
0.0109907
0.0142318
0.0182085
0.0230232
0.000329615
0.000513387
0.00088056
0.00124598
0.00163617
0.00207526
0.00261382
0.00339866
0.0045985
0.00618664
0.00821935
0.010781
0.0139685
0.0178855
0.022638
0.000328335
0.000512785
0.000881192
0.00124811
0.00163924
0.00207678
0.00260567
0.00334703
0.0045137
0.00606905
0.00806407
0.0105813
0.0137168
0.017572
0.0222367
0.000327111
0.000512232
0.000881899
0.0012503
0.00164225
0.00207779
0.00259674
0.00329972
0.00443378
0.00595749
0.00791634
0.010391
0.0134767
0.0172759
0.0218967
0.000325932
0.000511678
0.000882523
0.00125226
0.00164476
0.00207799
0.00258742
0.00325857
0.00435858
0.00585152
0.00777559
0.0102093
0.0132471
0.0169907
0.0215379
0.000324786
0.000511084
0.000882953
0.00125383
0.00164668
0.00207769
0.00257918
0.00322695
0.00428833
0.0057508
0.0076413
0.0100355
0.0130267
0.016715
0.0211955
0.000323666
0.00051044
0.000883168
0.00125504
0.00164825
0.00207763
0.00257349
0.00320574
0.00422334
0.00565506
0.00751303
0.00986923
0.0128159
0.0164546
0.0208964
0.000322571
0.000509765
0.000883238
0.00125607
0.00164984
0.00207844
0.00257082
0.00319229
0.0041635
0.00556407
0.00739039
0.00970984
0.0126131
0.0161999
0.0205629
0.000321505
0.000509091
0.000883267
0.00125711
0.00165177
0.00208035
0.00257058
0.00318309
0.00410831
0.00547759
0.00727303
0.00955696
0.0124188
0.0159598
0.0202976
0.000320472
0.000508447
0.000883345
0.00125832
0.00165414
0.00208319
0.00257177
0.00317551
0.00405705
0.00539533
0.00716066
0.00941038
0.0122328
0.0157316
0.0200278
0.000319476
0.000507845
0.000883512
0.00125971
0.00165687
0.00208658
0.00257346
0.0031681
0.00400914
0.00531699
0.00705303
0.0092698
0.0120545
0.0155105
0.0197494
0.000318514
0.000507283
0.000883753
0.00126122
0.00165976
0.00209009
0.00257498
0.00316021
0.00396436
0.00524232
0.00694989
0.00913489
0.0118833
0.0152991
0.0195019
0.000317585
0.000506745
0.000884017
0.00126274
0.0016626
0.00209336
0.00257596
0.0031518
0.00392334
0.00517115
0.00685103
0.00900543
0.0117192
0.0150972
0.0192611
0.000316682
0.000506212
0.000884245
0.00126415
0.00166521
0.00209622
0.00257635
0.00314343
0.00388785
0.00510355
0.00675624
0.00888106
0.011561
0.0148989
0.0190002
0.000315801
0.000505668
0.000884387
0.00126537
0.00166749
0.00209863
0.00257646
0.00313612
0.00385995
0.00503974
0.00666534
0.00876143
0.0114084
0.0147085
0.0187765
0.000314939
0.000505106
0.000884423
0.00126638
0.00166947
0.00210075
0.00257675
0.00313081
0.00384
0.00497998
0.0065782
0.00864629
0.0112614
0.0145252
0.0185519
0.000314094
0.000504526
0.00088436
0.00126722
0.00167124
0.00210285
0.00257767
0.00312787
0.00382639
0.00492426
0.00649469
0.00853535
0.0111193
0.014346
0.0183207
0.000313265
0.000503939
0.000884233
0.00126794
0.00167294
0.00210513
0.00257946
0.00312705
0.00381683
0.0048723
0.00641468
0.00842839
0.0109818
0.0141721
0.0181032
0.000312454
0.000503356
0.000884084
0.00126865
0.00167472
0.00210774
0.0025821
0.00312778
0.00380937
0.00482367
0.00633794
0.00832503
0.010848
0.0140002
0.0178753
0.000311663
0.000502789
0.00088395
0.0012694
0.00167663
0.00211071
0.00258541
0.00312939
0.00380271
0.00477791
0.00626429
0.00822513
0.0107185
0.0138372
0.0176933
0.000310893
0.000502244
0.000883854
0.00127022
0.0016787
0.00211397
0.00258912
0.00313133
0.0037961
0.00473466
0.00619351
0.0081285
0.0105927
0.0136762
0.0174737
0.000310144
0.000501723
0.000883799
0.00127111
0.00168088
0.00211738
0.00259296
0.00313318
0.00378917
0.0046938
0.0061254
0.0080349
0.0104704
0.0135194
0.0172799
0.000309416
0.000501221
0.000883773
0.00127203
0.0016831
0.00212081
0.00259671
0.00313469
0.00378186
0.00465565
0.00605983
0.00794421
0.0103518
0.0133693
0.0171064
0.000308708
0.000500733
0.000883754
0.00127295
0.00168528
0.00212413
0.0026002
0.00313578
0.00377441
0.00462113
0.00599681
0.00785643
0.010237
0.0132242
0.0169222
0.000308016
0.00050025
0.00088372
0.00127382
0.00168735
0.00212723
0.00260335
0.00313651
0.00376733
0.00459163
0.00593642
0.0077713
0.0101249
0.0130781
0.0167168
0.00030734
0.000499768
0.000883649
0.0012746
0.00168926
0.00213008
0.00260621
0.00313714
0.00376132
0.00456816
0.00587887
0.00768886
0.0100165
0.0129428
0.0165858
0.000306677
0.000499281
0.000883531
0.00127527
0.00169098
0.0021327
0.00260886
0.00313797
0.00375691
0.00455061
0.0058243
0.00760902
0.0099108
0.012805
0.0163728
0.000306026
0.000498789
0.000883362
0.00127583
0.00169254
0.00213514
0.00261148
0.00313927
0.00375432
0.00453788
0.00577271
0.00753171
0.00980792
0.0126725
0.0162199
0.000305388
0.000498293
0.000883151
0.00127631
0.00169398
0.00213749
0.00261421
0.00314122
0.00375343
0.0045285
0.00572395
0.00745679
0.00970735
0.0125404
0.0160332
0.000304762
0.000497797
0.000882912
0.00127672
0.00169536
0.00213985
0.00261717
0.00314385
0.00375389
0.00452113
0.00567774
0.00738413
0.00960897
0.0124111
0.015871
0.000304149
0.000497307
0.000882662
0.00127711
0.00169673
0.00214228
0.00262039
0.00314709
0.00375529
0.00451477
0.00563378
0.00731361
0.00951294
0.0122861
0.0157208
0.000303551
0.000496826
0.000882416
0.00127751
0.00169812
0.00214482
0.00262389
0.00315079
0.00375722
0.00450875
0.00559179
0.00724518
0.00941948
0.0121655
0.0155741
0.000302967
0.000496357
0.000882187
0.00127793
0.00169957
0.00214747
0.00262759
0.00315477
0.00375933
0.00450266
0.00555158
0.0071788
0.0093286
0.0120481
0.0154254
0.000302399
0.000495902
0.000881978
0.00127838
0.00170107
0.00215021
0.00263142
0.00315887
0.00376138
0.00449628
0.00551311
0.00711441
0.00924011
0.0119333
0.0152799
0.000301847
0.000495461
0.00088179
0.00127885
0.00170261
0.002153
0.00263529
0.00316292
0.00376319
0.00448957
0.00547657
0.007052
0.00915419
0.0118231
0.0151517
0.000301312
0.000495031
0.000881617
0.00127934
0.00170415
0.00215579
0.00263911
0.00316682
0.00376467
0.00448261
0.00544245
0.00699159
0.00907082
0.011716
0.0150174
0.000300794
0.000494611
0.000881451
0.00127983
0.00170568
0.00215852
0.00264281
0.00317048
0.00376582
0.00447566
0.00541157
0.00693328
0.00898989
0.0116116
0.0148848
0.000300294
0.000494196
0.000881284
0.00128029
0.00170715
0.00216115
0.00264633
0.00317388
0.00376673
0.00446914
0.00538486
0.00687719
0.00891129
0.0115097
0.0147549
0.000299812
0.000493786
0.00088111
0.00128072
0.00170855
0.00216365
0.00264966
0.00317706
0.00376758
0.00446349
0.00536289
0.00682347
0.00883488
0.0114097
0.0146248
0.000299352
0.000493376
0.00088092
0.0012811
0.00170985
0.002166
0.00265281
0.00318008
0.00376858
0.00445909
0.00534562
0.00677223
0.0087607
0.0113128
0.0145068
0.000298912
0.000492969
0.000880727
0.00128145
0.00171108
0.00216824
0.00265582
0.00318307
0.00376993
0.00445615
0.00533241
0.00672356
0.00868886
0.011219
0.0143912
0.000298518
0.000492549
0.000880495
0.00128172
0.0017122
0.00217035
0.00265874
0.00318612
0.00377179
0.00445466
0.00532236
0.00667746
0.00861943
0.0111279
0.0142752
0.000298118
0.000492158
0.000880367
0.00128207
0.00171337
0.00217251
0.00266174
0.00318942
0.00377431
0.00445457
0.00531465
0.00663384
0.00855229
0.0110387
0.0141592
0.000297935
0.000491663
0.000880017
0.00128225
0.00171447
0.00217471
0.00266497
0.0031932
0.0037777
0.00445581
0.00530863
0.00659304
0.00848819
0.0109546
0.0140649
0.000297315
0.000491407
0.000880055
0.00128225
0.00171484
0.00217581
0.00266692
0.00319577
0.00378017
0.00445655
0.00530246
0.00655245
0.0084246
0.0108693
0.0139385
0.000299287
0.000492027
0.000883333
0.00128945
0.00172534
0.00218877
0.00268157
0.00321132
0.00379557
0.00446979
0.0053078
0.00652886
0.00837663
0.0107979
0.01386
0.000280394
0.000468088
0.000839326
0.0012342
0.00166548
0.00212871
0.00262378
0.00315655
0.00374283
0.0044159
0.00524562
0.00642492
0.00825585
0.0106747
0.0137249
0.00128583
0.00387081
0.00671976
0.00978855
0.0130827
0.016608
0.0203824
0.0244322
0.0287869
0.0334712
0.0384976
0.0438616
0.049541
0.055497
0.0616792
9.22866e-08
0.000422949
0.00171546
0.00384203
0.00633342
0.00930843
0.0127776
0.0167453
0.0212106
0.0261648
0.0315886
0.0374489
0.0436973
0.0502702
0.0570907
0
0.000212392
0.00109222
0.00255252
0.00437642
0.00669979
0.00956705
0.0130141
0.0170664
0.021734
0.0270082
0.0328579
0.0392279
0.0460395
0.0531939
3.23567e-06
0.000193359
0.00109806
0.00217684
0.00363468
0.00554375
0.00796609
0.0109613
0.0145816
0.0188658
0.0238321
0.0294722
0.0357463
0.0425813
0.0498747
6.16325e-05
0.000512921
0.00105418
0.00195554
0.00320635
0.00486005
0.00698309
0.00964595
0.0129169
0.0168553
0.021504
0.0268805
0.0329687
0.0397139
0.0470211
0.000346324
0.000614098
0.000983387
0.00177754
0.00288941
0.0043694
0.00628182
0.00869913
0.0116971
0.0153476
0.0197107
0.0248254
0.0306988
0.0372975
0.0445381
0.000399596
0.000589773
0.000949788
0.00163136
0.00263697
0.00398522
0.00573794
0.00796573
0.0107464
0.0141586
0.0182737
0.0231466
0.0288044
0.0352351
0.042378
0.000392676
0.000558552
0.000938299
0.00151312
0.00243178
0.00367437
0.00529778
0.00737269
0.00997525
0.0131872
0.017087
0.0217407
0.0271897
0.033435
0.040408
0.0003845
0.000542373
0.000918152
0.00141591
0.00226302
0.00341823
0.00493425
0.00688038
0.00933283
0.0123734
0.0160849
0.0205411
0.0257959
0.0318699
0.0387487
0.000378778
0.000533674
0.000893845
0.00133405
0.00212203
0.00320372
0.0046285
0.00646406
0.0087872
0.0116789
0.0152242
0.019503
0.0245795
0.0304915
0.0372437
0.000373969
0.000527922
0.000874666
0.00127945
0.00200381
0.00302148
0.0043675
0.00610724
0.0083167
0.0110774
0.014475
0.0185937
0.023506
0.0292612
0.0358704
0.000369875
0.000525052
0.000866724
0.00125818
0.00190571
0.00286492
0.00414183
0.00579732
0.00790591
0.0105501
0.0138153
0.0177884
0.0225477
0.0281492
0.0346055
0.00036643
0.000524244
0.00086569
0.00124837
0.00182349
0.0027291
0.00394459
0.0055253
0.00754411
0.0100833
0.0132287
0.0170692
0.0216876
0.0271506
0.0335044
0.000363359
0.000523882
0.000865755
0.00123839
0.00175287
0.00261009
0.00377058
0.00528433
0.00722245
0.00966631
0.0127031
0.0164222
0.0209107
0.0262436
0.0324728
0.000360406
0.000522898
0.000864077
0.00122598
0.00169309
0.00250488
0.00361575
0.0050691
0.00693418
0.00929136
0.0122287
0.0158361
0.0202032
0.0254079
0.0314942
0.000357535
0.000521458
0.000861799
0.00121636
0.00165681
0.00241293
0.00347718
0.00487556
0.00667413
0.0089522
0.0117978
0.0153015
0.0195544
0.0246365
0.0305985
0.000354856
0.000520306
0.000861152
0.00121317
0.00164191
0.00233365
0.00335271
0.00470049
0.00643814
0.00864353
0.0114041
0.0148116
0.018958
0.0239291
0.0297983
0.000352439
0.000519752
0.000862488
0.00121431
0.00163458
0.00226479
0.00324046
0.00454135
0.00622284
0.00836109
0.0110427
0.0143607
0.018408
0.0232749
0.0290394
0.000350241
0.000519529
0.000864636
0.00121628
0.00162716
0.00220383
0.00313871
0.00439601
0.00602551
0.0081015
0.0107099
0.0139441
0.0178984
0.0226652
0.0283218
0.00034817
0.000519208
0.000866299
0.0012169
0.00161758
0.00214982
0.00304599
0.0042627
0.00584389
0.007862
0.0104021
0.0135577
0.0174242
0.022095
0.0276487
0.000346155
0.000518567
0.000866974
0.0012161
0.00160796
0.00210895
0.00296191
0.00414001
0.00567612
0.00764021
0.0101164
0.0131979
0.0169812
0.0215602
0.0270154
0.000344194
0.000517719
0.000867161
0.0012155
0.00160227
0.00208669
0.00288694
0.00402693
0.00552065
0.00743413
0.00985032
0.0128618
0.0165663
0.0210576
0.0264174
0.000342322
0.000516922
0.000867639
0.00121643
0.00160134
0.00207634
0.00282054
0.00392261
0.00537615
0.00724201
0.00960163
0.0125469
0.0161754
0.0205795
0.0258342
0.00034057
0.000516329
0.000868753
0.0012189
0.00160325
0.00206993
0.00276121
0.00382618
0.0052415
0.00706242
0.00936861
0.0122513
0.0158082
0.0201366
0.0253399
0.000338935
0.000515912
0.00087031
0.00122207
0.00160574
0.0020633
0.0027074
0.00373678
0.00511573
0.00689411
0.00914972
0.011973
0.0154616
0.0197124
0.0248053
0.000337389
0.000515533
0.000871866
0.00122502
0.00160735
0.00205518
0.00265857
0.00365361
0.00499797
0.00673601
0.00894364
0.0117104
0.0151334
0.0193097
0.0243239
0.000335898
0.000515064
0.000873046
0.00122717
0.00160771
0.00204634
0.00261759
0.00357637
0.00488746
0.00658714
0.00874912
0.0114619
0.0148219
0.0189262
0.0238609
0.000334443
0.000514457
0.000873745
0.00122859
0.00160755
0.00203931
0.00258972
0.00350549
0.00478365
0.0064467
0.00856517
0.0112265
0.014527
0.0185673
0.0234544
0.000333022
0.000513758
0.000874145
0.00122977
0.00160805
0.00203595
0.00257426
0.0034412
0.00468614
0.00631397
0.00839093
0.0110033
0.0142474
0.0182261
0.0230436
0.000331647
0.000513061
0.000874537
0.00123125
0.00160987
0.00203604
0.00256583
0.00338299
0.00459453
0.00618839
0.00822572
0.0107915
0.0139824
0.0179028
0.02266
0.000330332
0.000512437
0.000875123
0.00123328
0.00161292
0.00203816
0.00255985
0.00332986
0.00450839
0.00606943
0.00806886
0.0105902
0.0137295
0.0175892
0.0222607
0.000329079
0.000511903
0.000875929
0.00123574
0.00161663
0.00204085
0.00255384
0.00328081
0.00442724
0.00595662
0.00791974
0.0103984
0.0134884
0.017293
0.021922
0.000327884
0.000511429
0.000876846
0.00123833
0.00162035
0.00204309
0.00254685
0.00323544
0.00435065
0.0058495
0.00777778
0.0102157
0.0132581
0.0170082
0.0215667
0.000326735
0.000510961
0.000877708
0.00124074
0.00162361
0.00204442
0.00253898
0.00319474
0.00427836
0.00574767
0.00764247
0.010041
0.0130374
0.0167331
0.0212264
0.000325619
0.000510456
0.000878384
0.00124276
0.0016262
0.00204497
0.00253138
0.00316191
0.0042105
0.00565078
0.00751332
0.00987407
0.0128265
0.016474
0.020932
0.000324527
0.000509893
0.000878821
0.00124434
0.00162827
0.00204538
0.00252575
0.00313942
0.00414746
0.00555858
0.00738991
0.0097142
0.0126239
0.0162204
0.0206
0.000323457
0.000509283
0.000879063
0.00124564
0.00163018
0.00204641
0.00252304
0.00312583
0.0040894
0.0054709
0.00727189
0.00956103
0.0124299
0.0159822
0.0203422
0.000322412
0.000508657
0.000879213
0.00124687
0.00163231
0.00204849
0.00252306
0.00311762
0.00403598
0.00538752
0.00715897
0.00941435
0.0122446
0.0157565
0.0200778
0.000321397
0.00050805
0.00087938
0.00124821
0.00163485
0.00205161
0.00252491
0.00311176
0.00398656
0.00530824
0.0070509
0.00927381
0.0120671
0.015537
0.0197975
0.000320415
0.000507482
0.000879629
0.00124974
0.00163782
0.00205546
0.00252761
0.0031064
0.00394049
0.00523279
0.00694745
0.00913908
0.0118968
0.0153274
0.0195549
0.000319469
0.000506958
0.000879971
0.00125145
0.00164106
0.00205962
0.00253036
0.00310062
0.0038973
0.00516091
0.00684837
0.0090099
0.0117336
0.0151272
0.0193156
0.000318555
0.000506466
0.000880367
0.00125322
0.00164436
0.0020637
0.00253267
0.00309411
0.00385704
0.00509238
0.00675343
0.00888587
0.0115763
0.0149303
0.0190561
0.000317671
0.000505989
0.000880759
0.00125495
0.00164751
0.00206741
0.0025343
0.00308709
0.00382068
0.00502711
0.0066624
0.00876663
0.0114247
0.0147413
0.0188335
0.00031681
0.000505507
0.000881088
0.00125652
0.00165036
0.00207063
0.00253537
0.00308032
0.00379034
0.00496522
0.00657506
0.00865189
0.0112785
0.0145589
0.0186089
0.000315968
0.000505008
0.000881313
0.00125788
0.00165286
0.00207343
0.00253625
0.00307488
0.00376778
0.00490698
0.00649125
0.00854132
0.0111371
0.0143804
0.018377
0.000315142
0.000504487
0.000881424
0.00125902
0.00165506
0.00207599
0.00253745
0.00307159
0.0037527
0.00485258
0.00641084
0.00843468
0.0110001
0.0142067
0.0181579
0.000314332
0.000503949
0.000881441
0.00125999
0.00165709
0.00207858
0.00253937
0.00307064
0.0037431
0.00480194
0.00633368
0.00833155
0.0108667
0.0140348
0.0179294
0.000313538
0.000503406
0.000881403
0.00126088
0.00165909
0.00208141
0.00254216
0.00307164
0.00373675
0.00475472
0.00625961
0.00823184
0.0107376
0.0138726
0.0177508
0.000312762
0.00050287
0.000881355
0.00126177
0.00166119
0.0020846
0.00254578
0.00307396
0.00373191
0.00471047
0.00618846
0.00813526
0.0106117
0.013709
0.017515
0.000312005
0.000502352
0.000881332
0.00126272
0.00166345
0.00208814
0.00255
0.00307698
0.00372746
0.00466873
0.00612002
0.0080417
0.0104899
0.0135575
0.0173756
0.00031127
0.000501858
0.000881351
0.00126375
0.00166586
0.00209195
0.00255456
0.00308018
0.00372281
0.00462919
0.00605415
0.00795126
0.0103729
0.0134151
0.0172139
0.000310556
0.000501387
0.000881413
0.00126485
0.00166839
0.00209589
0.00255918
0.00308317
0.00371765
0.00459174
0.00599076
0.00786399
0.0102602
0.013274
0.0170135