/*--------------------------------*- C++ -*----------------------------------*\
| =========                 |                                                 |
| \\      /  F ield         | OpenFOAM: The Open Source CFD Toolbox           |
|  \\    /   O peration     | Version:  2.3.0                                 |
|   \\  /    A nd           | Web:      www.OpenFOAM.org                      |
|    \\/     M anipulation  |                                                 |
\*---------------------------------------------------------------------------*/
FoamFile
{
    version     2.0;
    format      ascii;
    class       volScalarField;
    location    "200";
    object      p;
}
// * * * * * * * * * * * * * * * * * * * * * * * * * * * * * * * * * * * * * //

dimensions      [0 2 -2 0 0 0 0];

internalField   nonuniform List<scalar> 
7994
(
-0.00231344
0.00709121
0.0517618
0.143035
0.282532
0.463808
0.677372
0.913466
1.16578
1.43153
1.71056
2.00625
2.34824
2.85812
3.50757
0.234457
0.250089
0.267371
0.288728
0.320365
0.36915
0.441446
0.541562
0.671124
0.829237
1.01305
1.2185
1.44143
1.67881
1.92892
0.469608
0.545029
0.638403
0.747819
0.871322
1.00483
1.14393
1.28469
1.42417
1.56009
1.69112
1.81601
1.9341
2.04451
2.14764
0.618647
0.687412
0.764546
0.845727
0.931083
1.02014
1.11229
1.2067
1.30257
1.39888
1.49484
1.58944
1.68207
1.77189
1.85894
0.737829
0.806748
0.88511
0.966312
1.04957
1.13374
1.21784
1.30094
1.38246
1.46185
1.53885
1.6131
1.68452
1.75282
1.81817
0.818824
0.879278
0.946878
1.01541
1.08429
1.15302
1.22131
1.28882
1.35536
1.42068
1.48465
1.54703
1.60775
1.66654
1.72346
0.874335
0.930294
0.991232
1.05245
1.11342
1.17386
1.23364
1.29258
1.3506
1.40754
1.46335
1.51785
1.57099
1.62258
1.6726
0.911356
0.965005
1.01913
1.07297
1.12638
1.17929
1.23167
1.28348
1.33469
1.38519
1.43495
1.48382
1.53173
1.57849
1.62404
0.942208
0.991399
1.0389
1.08654
1.13405
1.18129
1.22825
1.27488
1.32117
1.36703
1.4124
1.45716
1.50121
1.54437
1.58654
0.96041
1.00867
1.05143
1.09425
1.13708
1.17985
1.22254
1.26513
1.30761
1.34989
1.39193
1.43357
1.47472
1.51519
1.55484
0.976993
1.02107
1.05978
1.09859
1.13761
1.17679
1.21605
1.25542
1.29496
1.33444
1.37384
1.41301
1.45188
1.49024
1.52799
0.98965
1.02878
1.0643
1.09989
1.13629
1.17264
1.2088
1.24534
1.28263
1.31987
1.35708
1.39414
1.43117
1.46779
1.50408
1.00013
1.03599
1.06864
1.10123
1.13538
1.16951
1.2034
1.23812
1.27343
1.30855
1.3444
1.38075
1.41694
1.45293
1.4876
1.01686
1.04474
1.07941
1.10843
1.13331
1.1659
1.203
1.23677
1.26935
1.30157
1.33741
1.37467
1.40833
1.44475
1.48157
4.30508
4.43117
4.32274
4.33244
4.37477
4.40061
4.40232
4.38362
4.34564
4.28626
4.20061
4.0832
3.93033
3.74438
3.54384
2.19702
2.47989
2.74873
2.99892
3.22431
3.41687
3.56888
3.67459
3.73086
3.73786
3.69914
3.62148
3.51351
3.38487
3.24915
2.24531
2.34038
2.43333
2.52454
2.61307
2.69776
2.77718
2.84967
2.91325
2.96529
3.00264
3.02149
3.01849
2.99285
2.95237
1.94452
2.03082
2.11811
2.20574
2.29236
2.37649
2.45631
2.52985
2.59502
2.64968
2.69182
2.71959
2.73181
2.729
2.71554
1.88131
1.94386
2.00629
2.0685
2.12994
2.19011
2.2483
2.30377
2.35559
2.40264
2.44361
2.47685
2.50077
2.51475
2.51996
1.77899
1.83419
1.88926
1.944
1.99799
2.05081
2.10197
2.1509
2.19697
2.23945
2.2775
2.31014
2.33635
2.3563
2.37454
1.72132
1.76949
1.81721
1.86436
1.91062
1.95574
1.99939
2.04125
2.08094
2.11802
2.15197
2.18213
2.20779
2.2287
2.24492
1.66853
1.71243
1.75577
1.79838
1.84003
1.8805
1.91955
1.95693
1.9924
2.02568
2.05643
2.08426
2.10867
2.12927
2.14743
1.62778
1.66836
1.70826
1.74732
1.78534
1.82214
1.85751
1.8913
1.92333
1.95342
1.9814
2.00702
2.02985
2.04949
2.06995
1.59363
1.6317
1.66902
1.70542
1.74074
1.77478
1.80739
1.83846
1.86784
1.89544
1.92114
1.94482
1.96623
1.98511
2.00381
1.56491
1.60103
1.63637
1.6706
1.70387
1.73581
1.76629
1.79527
1.82255
1.84816
1.872
1.89397
1.91402
1.93174
1.94878
1.53971
1.57439
1.60835
1.6407
1.67255
1.70316
1.7321
1.75955
1.78514
1.80917
1.83143
1.85185
1.87056
1.88698
1.90155
1.52167
1.55387
1.58637
1.61746
1.64836
1.67715
1.70347
1.72931
1.7532
1.77569
1.79685
1.81628
1.83376
1.84979
1.86482
1.51183
1.54021
1.56993
1.59951
1.63225
1.65528
1.6783
1.70285
1.72508
1.74588
1.76674
1.78588
1.80079
1.81545
1.82836
-0.837079
-0.831248
-0.769727
-0.646297
-0.473251
-0.276075
-0.0853412
0.0718272
0.179414
0.233017
0.237218
0.197963
0.119874
-0.00675102
-0.00925871
-0.796778
-0.834523
-0.879062
-0.94154
-1.02856
-1.13568
-1.25157
-1.36368
-1.46151
-1.53935
-1.59622
-1.63648
-1.66191
-1.69567
-1.69632
-0.798177
-0.875941
-0.970726
-1.07749
-1.18614
-1.28427
-1.36358
-1.42185
-1.46126
-1.48655
-1.50326
-1.51851
-1.53237
-1.54644
-1.54867
-0.742014
-0.787926
-0.828923
-0.861635
-0.885097
-0.899941
-0.908324
-0.912884
-0.915765
-0.918726
-0.923211
-0.932154
-0.945305
-0.956725
-0.959293
-0.658607
-0.677355
-0.690423
-0.699475
-0.706449
-0.712471
-0.717833
-0.72241
-0.726097
-0.729348
-0.733142
-0.739654
-0.7499
-0.757966
-0.757836
-0.594604
-0.609943
-0.62424
-0.638276
-0.651477
-0.663239
-0.673041
-0.680717
-0.686521
-0.691286
-0.69633
-0.703542
-0.714026
-0.722188
-0.721225
-0.550923
-0.560679
-0.573015
-0.585423
-0.596757
-0.606919
-0.615991
-0.624147
-0.63165
-0.639008
-0.647137
-0.657292
-0.670031
-0.679915
-0.679132
-0.503448
-0.508039
-0.515382
-0.523421
-0.531681
-0.540584
-0.550281
-0.560758
-0.571918
-0.583775
-0.596692
-0.611312
-0.627561
-0.63999
-0.639846
-0.461239
-0.457387
-0.460882
-0.466094
-0.473109
-0.482577
-0.494666
-0.509287
-0.526119
-0.544795
-0.565283
-0.587435
-0.609951
-0.626829
-0.628214
-0.412144
-0.409779
-0.410825
-0.413367
-0.418503
-0.427454
-0.440939
-0.459354
-0.482251
-0.50907
-0.539642
-0.573977
-0.609368
-0.637274
-0.644642
-0.378507
-0.368112
-0.36468
-0.36286
-0.36424
-0.37094
-0.384996
-0.407945
-0.439038
-0.475973
-0.520587
-0.573444
-0.628416
-0.670866
-0.686114
-0.338434
-0.327426
-0.31965
-0.311862
-0.305272
-0.303661
-0.309722
-0.332071
-0.368074
-0.408844
-0.455413
-0.529174
-0.633231
-0.719593
-0.761082
-0.310953
-0.292136
-0.283528
-0.270212
-0.257598
-0.251658
-0.254088
-0.283835
-0.347249
-0.398066
-0.462855
-0.553103
-0.714903
-0.813257
-0.850306
-0.272279
-0.245007
-0.23948
-0.220759
-0.178263
-0.139841
-0.0684051
-0.0743743
-0.162559
-0.18277
-0.121664
-0.155613
-0.621056
-0.910343
-0.939457
-0.00262217
0.00779737
0.142117
0.227636
0.274985
0.279295
0.234346
0.13557
-0.0122092
-0.191925
-0.375251
-0.531385
-0.634284
-0.672193
-0.653479
-1.69304
-1.68781
-1.64915
-1.61891
-1.57252
-1.50786
-1.42042
-1.3112
-1.18615
-1.0561
-0.934108
-0.832129
-0.753827
-0.691848
-0.634533
-1.5452
-1.53663
-1.51648
-1.497
-1.47537
-1.4512
-1.41715
-1.36759
-1.29779
-1.20573
-1.09411
-0.971743
-0.850889
-0.741324
-0.64695
-0.956096
-0.947186
-0.92971
-0.910869
-0.895714
-0.884205
-0.87331
-0.861561
-0.847199
-0.82806
-0.80154
-0.765453
-0.719056
-0.663397
-0.60146
-0.754807
-0.748726
-0.734738
-0.718907
-0.706401
-0.695906
-0.685181
-0.673252
-0.6597
-0.644606
-0.628045
-0.609579
-0.587959
-0.561341
-0.528252
-0.718286
-0.713078
-0.699003
-0.682922
-0.669742
-0.658079
-0.646004
-0.632216
-0.615915
-0.596826
-0.575086
-0.551161
-0.525609
-0.499036
-0.471307
-0.676269
-0.670908
-0.655113
-0.636764
-0.62064
-0.605929
-0.591346
-0.575997
-0.559391
-0.541225
-0.521293
-0.499506
-0.475961
-0.451635
-0.429218
-0.637272
-0.631641
-0.613587
-0.591875
-0.571325
-0.551809
-0.532679
-0.513604
-0.494574
-0.47565
-0.456843
-0.438086
-0.419137
-0.40029
-0.383924
-0.625703
-0.618716
-0.59634
-0.568569
-0.540767
-0.513842
-0.487899
-0.463055
-0.439658
-0.417927
-0.398002
-0.379916
-0.363344
-0.34806
-0.336165
-0.644321
-0.633888
-0.601675
-0.561484
-0.521335
-0.483432
-0.448415
-0.41687
-0.388621
-0.363955
-0.343071
-0.325742
-0.311373
-0.299315
-0.291069
-0.68537
-0.664925
-0.612974
-0.555025
-0.500035
-0.448427
-0.40365
-0.364879
-0.332108
-0.305812
-0.285661
-0.271202
-0.260734
-0.253318
-0.250456
-0.791772
-0.752542
-0.646163
-0.552073
-0.472774
-0.402908
-0.348489
-0.309055
-0.272219
-0.244259
-0.226935
-0.216628
-0.211584
-0.209829
-0.210818
-0.903229
-0.800384
-0.574586
-0.499294
-0.434369
-0.333658
-0.287201
-0.239458
-0.190292
-0.170311
-0.158368
-0.15977
-0.160843
-0.167456
-0.174714
-1.3987
-1.20231
-0.5866
-0.53436
-0.387293
-0.228068
-0.188273
-0.209157
-0.142045
-0.111888
-0.114241
-0.115466
-0.12303
-0.137422
-0.15589
-8.80665
-8.15841
-7.57024
-6.94538
-6.26734
-5.52696
-4.74449
-3.94562
-3.16426
-2.43667
-1.79805
-1.27261
-0.868132
-0.57455
-0.37593
-0.272615
-1.19178
-1.33736
-1.37838
-1.45302
-1.53683
-1.59749
-1.62195
-1.60045
-1.52398
-1.3898
-1.20553
-0.989848
-0.767523
-0.57062
-0.82096
-1.19376
-1.037
-1.00581
-1.0357
-1.06229
-1.07454
-1.07702
-1.06964
-1.04882
-1.00954
-0.946219
-0.854839
-0.736177
-0.607392
-2.17825
-2.18324
-1.92971
-1.86153
-1.80331
-1.72254
-1.62557
-1.51849
-1.40204
-1.27749
-1.14792
-1.01664
-0.885802
-0.7552
-0.631422
-2.08883
-1.80153
-1.64077
-1.62005
-1.57694
-1.51866
-1.45329
-1.38103
-1.29956
-1.20794
-1.10634
-0.995861
-0.878857
-0.757843
-0.640825
-1.16912
-0.872786
-0.882271
-0.904941
-0.904569
-0.905914
-0.909174
-0.90904
-0.901941
-0.885582
-0.857675
-0.816052
-0.759434
-0.687537
-0.605634
-0.610588
-0.519303
-0.571938
-0.577298
-0.5828
-0.59831
-0.618245
-0.637564
-0.65381
-0.664733
-0.66777
-0.660201
-0.63951
-0.603351
-0.552127
-0.558858
-0.554062
-0.571232
-0.559324
-0.558679
-0.563461
-0.570922
-0.579103
-0.586649
-0.591827
-0.592755
-0.587385
-0.573601
-0.549052
-0.511125
-0.582669
-0.589517
-0.585237
-0.57473
-0.571188
-0.567904
-0.566442
-0.566211
-0.566053
-0.564614
-0.560589
-0.552534
-0.538869
-0.517968
-0.487079
-0.583751
-0.58482
-0.575503
-0.567509
-0.56163
-0.555258
-0.550572
-0.547052
-0.543753
-0.539677
-0.533848
-0.525137
-0.51226
-0.493943
-0.467291
-0.579411
-0.576105
-0.566387
-0.557523
-0.549731
-0.542594
-0.536472
-0.531047
-0.52576
-0.519903
-0.512712
-0.5033
-0.49062
-0.473613
-0.449664
-0.571041
-0.566148
-0.556671
-0.546815
-0.538743
-0.531919
-0.525212
-0.518842
-0.512491
-0.505576
-0.497453
-0.487411
-0.474634
-0.458325
-0.436523
-0.556381
-0.55143
-0.542534
-0.532943
-0.525683
-0.519455
-0.512741
-0.506247
-0.499718
-0.492624
-0.484391
-0.474407
-0.461996
-0.446543
-0.426471
-0.539663
-0.535231
-0.527096
-0.51834
-0.51177
-0.505853
-0.499375
-0.493113
-0.486773
-0.479885
-0.471934
-0.462355
-0.450523
-0.435849
-0.416827
-0.525781
-0.52185
-0.514295
-0.506051
-0.499273
-0.493126
-0.486961
-0.48096
-0.474821
-0.46816
-0.460515
-0.451356
-0.440084
-0.426117
-0.40808
-0.514913
-0.511226
-0.503946
-0.495755
-0.48833
-0.4819
-0.476116
-0.470302
-0.464317
-0.457862
-0.450518
-0.4418
-0.431164
-0.418106
-0.401427
-0.50478
-0.501187
-0.494086
-0.485926
-0.478274
-0.471971
-0.466551
-0.460842
-0.454988
-0.448732
-0.441682
-0.433392
-0.423366
-0.411159
-0.395573
-0.493982
-0.490523
-0.483716
-0.475846
-0.46853
-0.462682
-0.457584
-0.452004
-0.446337
-0.440321
-0.433578
-0.425692
-0.416193
-0.404647
-0.389755
-0.483176
-0.479959
-0.473579
-0.466212
-0.459465
-0.454017
-0.449096
-0.443695
-0.438266
-0.432522
-0.426108
-0.418633
-0.40965
-0.39877
-0.384618
-0.473725
-0.470792
-0.464852
-0.45799
-0.451668
-0.446202
-0.441203
-0.436054
-0.430901
-0.425451
-0.419392
-0.412364
-0.403961
-0.393885
-0.381277
-0.466308
-0.463599
-0.457993
-0.451459
-0.445258
-0.439412
-0.434209
-0.429345
-0.424409
-0.419191
-0.413424
-0.406768
-0.398818
-0.389228
-0.377122
-0.460204
-0.457626
-0.452235
-0.445863
-0.439632
-0.433481
-0.428229
-0.423624
-0.418805
-0.413739
-0.40818
-0.401798
-0.394197
-0.385007
-0.373389
-0.454525
-0.452028
-0.446805
-0.440555
-0.434352
-0.428199
-0.423114
-0.418714
-0.413964
-0.409022
-0.403641
-0.397499
-0.390221
-0.381446
-0.370069
-0.448879
-0.446469
-0.441438
-0.435372
-0.42934
-0.42344
-0.418634
-0.414395
-0.409725
-0.404924
-0.399732
-0.393845
-0.386919
-0.378676
-0.368106
-0.443408
-0.441121
-0.436325
-0.430526
-0.424781
-0.419232
-0.414656
-0.410503
-0.405947
-0.401307
-0.396311
-0.390675
-0.384067
-0.376233
-0.366153
-0.438627
-0.436487
-0.431946
-0.426454
-0.421019
-0.415758
-0.411187
-0.406984
-0.402585
-0.398118
-0.393314
-0.387909
-0.381578
-0.374074
-0.36444
-0.434921
-0.432922
-0.428613
-0.423399
-0.418201
-0.413068
-0.408275
-0.403936
-0.399737
-0.395433
-0.39081
-0.385632
-0.379582
-0.372422
-0.363288
-0.432254
-0.430363
-0.426236
-0.421223
-0.416153
-0.411019
-0.405968
-0.401541
-0.397538
-0.393345
-0.388866
-0.383877
-0.378068
-0.371201
-0.362392
-0.430268
-0.428448
-0.424459
-0.419579
-0.414565
-0.4094
-0.404226
-0.399831
-0.395982
-0.391851
-0.387481
-0.382647
-0.377049
-0.370463
-0.362104
-0.428594
-0.426827
-0.422953
-0.418179
-0.413218
-0.408075
-0.402945
-0.398679
-0.394943
-0.390851
-0.386571
-0.381858
-0.376421
-0.370029
-0.361856
-0.427063
-0.425348
-0.421591
-0.416934
-0.412065
-0.407023
-0.402059
-0.397962
-0.394312
-0.390271
-0.386088
-0.381512
-0.37627
-0.370175
-0.3629
-0.425653
-0.424001
-0.420376
-0.415867
-0.411144
-0.406272
-0.40153
-0.397582
-0.393986
-0.390018
-0.385942
-0.3815
-0.376436
-0.370521
-0.363641
-0.424581
-0.423004
-0.419524
-0.415188
-0.410647
-0.405974
-0.401437
-0.397526
-0.393912
-0.390039
-0.386069
-0.381745
-0.376819
-0.370987
-0.36454
-0.424043
-0.422548
-0.419213
-0.415061
-0.41071
-0.406222
-0.401822
-0.397808
-0.394115
-0.390378
-0.386519
-0.382307
-0.377514
-0.37173
-0.36504
-0.424225
-0.422806
-0.419604
-0.41562
-0.411431
-0.407076
-0.402724
-0.398531
-0.394756
-0.391173
-0.38741
-0.383303
-0.378635
-0.372994
-0.36612
-0.425103
-0.423746
-0.420659
-0.416814
-0.412746
-0.408466
-0.404112
-0.399777
-0.395986
-0.392562
-0.388896
-0.384932
-0.380476
-0.37523
-0.369259
-0.426584
-0.425274
-0.422281
-0.418544
-0.414559
-0.410319
-0.405951
-0.40156
-0.397818
-0.394512
-0.390899
-0.387021
-0.382643
-0.377434
-0.371186
-0.428579
-0.427305
-0.424391
-0.420739
-0.416814
-0.412601
-0.40824
-0.403875
-0.400219
-0.396987
-0.393401
-0.389579
-0.385262
-0.380127
-0.374528
-0.43096
-0.429717
-0.426878
-0.423305
-0.419443
-0.415278
-0.410971
-0.406707
-0.403166
-0.399999
-0.396455
-0.392722
-0.388538
-0.383562
-0.378407
-0.4338
-0.43259
-0.429827
-0.426333
-0.422543
-0.418445
-0.414221
-0.410081
-0.406636
-0.403496
-0.399976
-0.396283
-0.392148
-0.38715
-0.381617
-0.437027
-0.435852
-0.433167
-0.429763
-0.426063
-0.422061
-0.417948
-0.413944
-0.410552
-0.407404
-0.40391
-0.400246
-0.396158
-0.391259
-0.385681
-0.440834
-0.439698
-0.437095
-0.433786
-0.430186
-0.42629
-0.422291
-0.418391
-0.414968
-0.411765
-0.408328
-0.404732
-0.400756
-0.396137
-0.391385
-0.445168
-0.444072
-0.441551
-0.438343
-0.434853
-0.431069
-0.427175
-0.42334
-0.419802
-0.4165
-0.413118
-0.409532
-0.405529
-0.400756
-0.395648
-0.450133
-0.449076
-0.446632
-0.443522
-0.440132
-0.436442
-0.432616
-0.428786
-0.425077
-0.421661
-0.418323
-0.414712
-0.410662
-0.405755
-0.400711
-0.45571
-0.454689
-0.452315
-0.449292
-0.445989
-0.442371
-0.438582
-0.434726
-0.430868
-0.427386
-0.424111
-0.420506
-0.416506
-0.411654
-0.406512
-0.461795
-0.460806
-0.458497
-0.455555
-0.452327
-0.448772
-0.445005
-0.441126
-0.437182
-0.433693
-0.430476
-0.426868
-0.422892
-0.418081
-0.412655
-0.468487
-0.467526
-0.465273
-0.462398
-0.459227
-0.45571
-0.451949
-0.448045
-0.444069
-0.440607
-0.437434
-0.433835
-0.429908
-0.425231
-0.420207
-0.47556
-0.474623
-0.472422
-0.469609
-0.466492
-0.46302
-0.45928
-0.455391
-0.451447
-0.448043
-0.444897
-0.441281
-0.437323
-0.432539
-0.426905
-0.483232
-0.482318
-0.480167
-0.477412
-0.474342
-0.470907
-0.467192
-0.46333
-0.459446
-0.456109
-0.452995
-0.449408
-0.445528
-0.44098
-0.436389
-0.491305
-0.490416
-0.488318
-0.485627
-0.482617
-0.479247
-0.475592
-0.471804
-0.46802
-0.464756
-0.461648
-0.458038
-0.454078
-0.449218
-0.443248
-0.500184
-0.49932
-0.497274
-0.494643
-0.49169
-0.488377
-0.484779
-0.481058
-0.477357
-0.474122
-0.470981
-0.467323
-0.463255
-0.458196
-0.451498
-0.509809
-0.508971
-0.506979
-0.504416
-0.501534
-0.498302
-0.494792
-0.491172
-0.48758
-0.484376
-0.481241
-0.47766
-0.473713
-0.469003
-0.462525
-0.52047
-0.51966
-0.517724
-0.515231
-0.512424
-0.509276
-0.505859
-0.502339
-0.498843
-0.49563
-0.492506
-0.489069
-0.485311
-0.481068
-0.475336
-0.532152
-0.531367
-0.529484
-0.527058
-0.524326
-0.521258
-0.517923
-0.514473
-0.511014
-0.507692
-0.504462
-0.50099
-0.497017
-0.492309
-0.484846
-0.544967
-0.544206
-0.542373
-0.54001
-0.537346
-0.534348
-0.531078
-0.527669
-0.524205
-0.520742
-0.517411
-0.513961
-0.509969
-0.505472
-0.499845
-0.559079
-0.55834
-0.556553
-0.554246
-0.551641
-0.548697
-0.54547
-0.542066
-0.538558
-0.534938
-0.531492
-0.527989
-0.523822
-0.518904
-0.511294
-0.574494
-0.573773
-0.572029
-0.569775
-0.567223
-0.564325
-0.561126
-0.557709
-0.554136
-0.550373
-0.546812
-0.543213
-0.538861
-0.533863
-0.527293
-0.59146
-0.590756
-0.589049
-0.586837
-0.584323
-0.581447
-0.578246
-0.574781
-0.571113
-0.567203
-0.5635
-0.559721
-0.555056
-0.549517
-0.541348
-0.609969
-0.609279
-0.607607
-0.605434
-0.602955
-0.600098
-0.596891
-0.593378
-0.589616
-0.585572
-0.581705
-0.577666
-0.572576
-0.566452
-0.557475
-0.630376
-0.629701
-0.628062
-0.625925
-0.623471
-0.620623
-0.617398
-0.613828
-0.609971
-0.605809
-0.601781
-0.597484
-0.592023
-0.585444
-0.575819
-0.652842
-0.652181
-0.650576
-0.648474
-0.646048
-0.643212
-0.639975
-0.636359
-0.632424
-0.628157
-0.623957
-0.619372
-0.61349
-0.606352
-0.595737
-0.677749
-0.677103
-0.675532
-0.673464
-0.67106
-0.668228
-0.664971
-0.661301
-0.657272
-0.652874
-0.648443
-0.643477
-0.63705
-0.629187
-0.617146
-0.705407
-0.704776
-0.70324
-0.701207
-0.698827
-0.696002
-0.692723
-0.688994
-0.684855
-0.680287
-0.675546
-0.67009
-0.662978
-0.654262
-0.6408
-0.736395
-0.735782
-0.734282
-0.732283
-0.729922
-0.727097
-0.723784
-0.719975
-0.71569
-0.710888
-0.70573
-0.699662
-0.691742
-0.682081
-0.667731
-0.771407
-0.770811
-0.769347
-0.767381
-0.765033
-0.762193
-0.758821
-0.754888
-0.750381
-0.745219
-0.739434
-0.732467
-0.723335
-0.711975
-0.695033
-0.811286
-0.810708
-0.80928
-0.807343
-0.804997
-0.80212
-0.79865
-0.794525
-0.789684
-0.783981
-0.777287
-0.769052
-0.758234
-0.744557
-0.724572
-0.857514
-0.856955
-0.855564
-0.853647
-0.851284
-0.84833
-0.844693
-0.840262
-0.834914
-0.828409
-0.820448
-0.810506
-0.797505
-0.780969
-0.757324
-0.911294
-0.910754
-0.909394
-0.907485
-0.90508
-0.902003
-0.898115
-0.893244
-0.887169
-0.879535
-0.869845
-0.857582
-0.841598
-0.82125
-0.792599
-0.976973
-0.976447
-0.975119
-0.97319
-0.97066
-0.967303
-0.962906
-0.957192
-0.949807
-0.940237
-0.927778
-0.911898
-0.891386
-0.865596
-0.830765
-1.05293
-1.05242
-1.05109
-1.04909
-1.04639
-1.04268
-1.03765
-1.03087
-1.02178
-1.00965
-0.993481
-0.972644
-0.945822
-0.912398
-0.8685
-1.16257
-1.16206
-1.16076
-1.15855
-1.1552
-1.15023
-1.14311
-1.13312
-1.1194
-1.10093
-1.07659
-1.04586
-1.00776
-0.962377
-0.905998
-1.26449
-1.26395
-1.2624
-1.25986
-1.25608
-1.25042
-1.24204
-1.22988
-1.21261
-1.1887
-1.1566
-1.11576
-1.06559
-1.00738
-0.93837
-1.54759
-1.54738
-1.5455
-1.54086
-1.53175
-1.51671
-1.49398
-1.46166
-1.41812
-1.3625
-1.29519
-1.21876
-1.13629
-1.05232
-0.967863
-1.53191
-1.53046
-1.531
-1.5251
-1.51488
-1.49979
-1.47824
-1.4481
-1.40733
-1.35444
-1.2892
-1.21392
-1.13169
-1.04701
-0.962555
-3.02018
-3.09707
-3.03703
-2.9547
-2.85108
-2.71612
-2.54309
-2.33273
-2.0927
-1.8379
-1.58871
-1.36703
-1.18711
-1.04973
-0.946128
15.6833
15.0244
14.1878
13.3746
12.5021
11.5395
10.508
9.44035
8.3748
7.35211
6.41374
5.59157
4.90107
4.33784
3.89602
6.76624
5.93079
5.9685
6.08331
6.12888
6.12866
6.09945
6.02887
5.90012
5.70141
5.42972
5.09336
4.71274
4.315
3.9402
4.62134
4.30777
4.52583
4.59042
4.59713
4.60346
4.61125
4.6084
4.58817
4.54529
4.47281
4.36239
4.20708
4.00478
3.77314
3.99724
3.99137
4.21161
4.23289
4.24068
4.25589
4.26718
4.26438
4.24355
4.20138
4.13525
4.04333
3.92411
3.77512
3.60258
3.36422
3.64542
3.78411
3.78736
3.80956
3.83825
3.86347
3.88131
3.88889
3.8809
3.85149
3.79567
3.7105
3.59453
3.45295
3.45208
3.75317
3.74145
3.72012
3.72006
3.71542
3.70464
3.69045
3.6729
3.64956
3.61687
3.57022
3.50466
3.41525
3.3015
3.61329
3.70936
3.65502
3.64922
3.64233
3.62326
3.5966
3.56561
3.53053
3.49067
3.44498
3.39161
3.32771
3.24923
3.1517
3.39261
3.39979
3.38158
3.39275
3.39119
3.38209
3.36768
3.34861
3.32444
3.29456
3.25799
3.2133
3.15873
3.09217
3.00947
3.10681
3.10146
3.10585
3.11618
3.11816
3.11846
3.11514
3.10779
3.09619
3.07984
3.05762
3.02796
2.989
2.93942
2.8789
2.88043
2.88
2.88922
2.89635
2.90057
2.9047
2.90576
2.90354
2.898
2.88874
2.87487
2.85507
2.8276
2.79083
2.74506
2.69508
2.69839
2.7076
2.71509
2.72128
2.72659
2.72955
2.73004
2.72789
2.72268
2.71368
2.6998
2.67947
2.65093
2.61495
2.53385
2.53866
2.54781
2.55689
2.56402
2.56942
2.57348
2.57576
2.57594
2.57367
2.56833
2.55897
2.5442
2.52223
2.49444
2.39561
2.4007
2.40963
2.41909
2.42591
2.43101
2.4356
2.43881
2.44035
2.43995
2.43718
2.43125
2.42106
2.40502
2.3852
2.27618
2.28089
2.28921
2.298
2.30404
2.30884
2.3136
2.31718
2.31938
2.32005
2.31882
2.31507
2.30791
2.29574
2.27985
2.16857
2.17271
2.1803
2.18831
2.19408
2.19895
2.20369
2.20738
2.20994
2.21122
2.21093
2.20855
2.20329
2.19369
2.18043
2.06806
2.07179
2.07895
2.08669
2.09305
2.09838
2.10301
2.10679
2.10965
2.11145
2.11194
2.11072
2.10717
2.10024
2.09143
1.97454
1.97812
1.98511
1.99294
1.99996
2.00558
2.01003
2.01396
2.01711
2.01935
2.0205
2.02022
2.01802
2.01292
2.00683
1.88893
1.89245
1.89928
1.90707
1.9142
1.91968
1.92394
1.928
1.93135
1.93389
1.93548
1.93583
1.93449
1.93044
1.92535
1.81095
1.81433
1.82085
1.82832
1.83506
1.84014
1.84423
1.84833
1.85177
1.85447
1.85636
1.85719
1.8566
1.85367
1.85027
1.73888
1.742
1.7481
1.75507
1.76128
1.76607
1.77012
1.7742
1.77764
1.78045
1.78255
1.78377
1.78381
1.78186
1.77988
1.67067
1.6735
1.67919
1.6857
1.69157
1.69651
1.70076
1.70474
1.70813
1.71099
1.71324
1.71475
1.71528
1.7141
1.71313
1.60519
1.60782
1.61321
1.61945
1.62528
1.63068
1.63521
1.63902
1.6424
1.64531
1.64768
1.64941
1.65032
1.64972
1.64932
1.54272
1.54524
1.55045
1.55657
1.56248
1.56821
1.57282
1.57649
1.57991
1.5829
1.58538
1.58728
1.58847
1.58831
1.58819
1.48371
1.48616
1.49123
1.49726
1.50318
1.50892
1.51341
1.51697
1.52046
1.5235
1.52608
1.52813
1.52954
1.52981
1.53038
1.42823
1.4306
1.43549
1.44136
1.44713
1.45264
1.4569
1.46038
1.4639
1.46698
1.46965
1.47184
1.47349
1.47413
1.47632
1.37573
1.37798
1.38265
1.38827
1.39377
1.39896
1.40303
1.40648
1.41
1.41309
1.41581
1.41813
1.42001
1.42096
1.42369
1.32539
1.32749
1.33192
1.33724
1.34244
1.34735
1.35142
1.35495
1.3584
1.36145
1.36416
1.36651
1.36848
1.36949
1.37231
1.27643
1.2784
1.2826
1.28765
1.29262
1.29741
1.30172
1.30542
1.30876
1.31175
1.31446
1.31685
1.31893
1.32017
1.32349
1.22869
1.23054
1.23456
1.23942
1.24426
1.24908
1.25368
1.25753
1.26074
1.26373
1.26646
1.2689
1.27113
1.27259
1.27611
1.18224
1.18403
1.18792
1.19265
1.19745
1.20232
1.20711
1.21098
1.21409
1.21711
1.21986
1.22234
1.22464
1.22621
1.22939
1.13731
1.13904
1.14283
1.14747
1.15224
1.15712
1.16191
1.16569
1.16873
1.17177
1.17451
1.17698
1.17923
1.18062
1.18257
1.09396
1.09565
1.09933
1.10387
1.10858
1.11339
1.11805
1.1217
1.1247
1.12776
1.13052
1.13304
1.13539
1.13708
1.13814
1.05213
1.05377
1.05733
1.06174
1.06633
1.07101
1.07548
1.079
1.08199
1.08508
1.08789
1.09051
1.09306
1.09529
1.09657
1.0115
1.01307
1.01649
1.02074
1.02517
1.02966
1.03393
1.0374
1.04042
1.0435
1.04631
1.04895
1.05153
1.05399
1.05402
0.971638
0.973124
0.976408
0.980486
0.984724
0.989035
0.993153
0.996691
0.999788
1.00278
1.00552
1.00809
1.01052
1.01306
1.01284
0.932304
0.933715
0.936866
0.940775
0.944847
0.949016
0.953073
0.956797
0.960011
0.962897
0.965595
0.968152
0.97057
0.97329
0.974464
0.893433
0.89478
0.897817
0.901585
0.905533
0.909625
0.913696
0.917623
0.920923
0.92371
0.926396
0.92895
0.931346
0.93399
0.93476
0.855035
0.856333
0.859276
0.862937
0.866803
0.870867
0.87498
0.879033
0.882348
0.885053
0.887733
0.890259
0.892598
0.895066
0.895838
0.817179
0.818441
0.821308
0.824887
0.828701
0.832756
0.836899
0.840988
0.844271
0.846942
0.849666
0.852242
0.854699
0.857371
0.858115
0.779905
0.781138
0.783936
0.787447
0.791216
0.795254
0.799392
0.803443
0.806666
0.809334
0.812113
0.814747
0.817306
0.820238
0.820815
0.743197
0.7444
0.74713
0.75057
0.754283
0.758275
0.762359
0.766313
0.769457
0.772122
0.774933
0.777595
0.780177
0.783213
0.784061
0.706939
0.70811
0.710766
0.714127
0.717766
0.721682
0.725676
0.729506
0.732584
0.735258
0.738084
0.740764
0.743355
0.746383
0.747358
0.671028
0.672161
0.674738
0.678007
0.681553
0.685367
0.689248
0.692956
0.69602
0.698738
0.701569
0.704277
0.706931
0.710054
0.710765
0.635271
0.636362
0.638858
0.642027
0.645467
0.649168
0.652937
0.656555
0.65969
0.6625
0.665323
0.668069
0.670819
0.674201
0.675321
0.599516
0.600565
0.60298
0.606045
0.609376
0.612964
0.616634
0.620204
0.623476
0.62639
0.629161
0.631903
0.634639
0.638063
0.639585
0.563632
0.56464
0.566979
0.569947
0.573177
0.576668
0.580271
0.583834
0.587261
0.590251
0.59294
0.595651
0.5983
0.601493
0.603014
0.527595
0.528568
0.530839
0.533721
0.536866
0.540287
0.543859
0.547452
0.551015
0.554059
0.556705
0.559452
0.562158
0.565391
0.567054
0.491386
0.492331
0.494543
0.497354
0.500436
0.503814
0.507384
0.511026
0.514688
0.517772
0.520432
0.523282
0.526143
0.529646
0.531753
0.454951
0.455872
0.458034
0.460786
0.463819
0.46717
0.470749
0.474432
0.47814
0.481241
0.483941
0.486903
0.489922
0.493703
0.496224
0.418211
0.419111
0.421225
0.423925
0.426918
0.430246
0.433826
0.437524
0.44123
0.444322
0.447063
0.450118
0.453271
0.457548
0.461997
0.381082
0.381963
0.384032
0.386682
0.389634
0.392932
0.396494
0.400173
0.403831
0.406884
0.409636
0.412718
0.415798
0.419585
0.426859
0.343516
0.344377
0.346399
0.348999
0.351906
0.355165
0.358691
0.36233
0.365921
0.368938
0.371715
0.374856
0.378056
0.381402
0.389427
0.305438
0.306278
0.308253
0.310798
0.313655
0.316866
0.320344
0.32393
0.327456
0.330471
0.333304
0.336507
0.339904
0.343088
0.350712
0.266731
0.267549
0.269473
0.271961
0.274762
0.277915
0.281335
0.284864
0.28834
0.291408
0.29435
0.297641
0.301301
0.304833
0.312819
0.227209
0.228002
0.229875
0.232302
0.23504
0.238129
0.241484
0.244957
0.248401
0.251572
0.254646
0.257992
0.26179
0.26543
0.273301
0.186683
0.187451
0.189273
0.191637
0.194308
0.197329
0.200619
0.204044
0.207485
0.210804
0.214027
0.217426
0.221374
0.225225
0.232473
0.144973
0.145715
0.147488
0.149789
0.152397
0.155354
0.158593
0.161998
0.165478
0.168992
0.172399
0.175914
0.180108
0.18447
0.192334
0.101883
0.102602
0.104327
0.106571
0.109121
0.112027
0.115233
0.118651
0.122214
0.125945
0.129566
0.133283
0.137843
0.142842
0.151622
0.0571414
0.0578387
0.0595208
0.0617113
0.0642112
0.0670775
0.0702711
0.0737259
0.0773945
0.0813321
0.0851601
0.0891126
0.0940605
0.0996255
0.108994
0.0104502
0.0111278
0.0127689
0.0149115
0.017369
0.0202073
0.0234028
0.0269104
0.0306944
0.0348164
0.0388479
0.0430737
0.0484533
0.0546882
0.0651439
-0.0385187
-0.0378589
-0.036256
-0.0341558
-0.0317318
-0.0289092
-0.0256966
-0.0221211
-0.0182115
-0.0139104
-0.00965115
-0.00508496
0.000797623
0.00772501
0.0197142
-0.0901219
-0.0894785
-0.0879119
-0.0858495
-0.0834515
-0.0806343
-0.0773918
-0.0737361
-0.0696885
-0.0651975
-0.0606668
-0.0556797
-0.0491945
-0.0415655
-0.0280023
-0.144826
-0.144198
-0.142666
-0.140638
-0.138258
-0.135433
-0.132145
-0.128388
-0.124175
-0.11945
-0.114561
-0.109015
-0.101723
-0.093153
-0.0776781
-0.203201
-0.202589
-0.201092
-0.199093
-0.196724
-0.193881
-0.190528
-0.186644
-0.18222
-0.177187
-0.171811
-0.165524
-0.157164
-0.147339
-0.130358
-0.266076
-0.26548
-0.264018
-0.262045
-0.259677
-0.256796
-0.253347
-0.249285
-0.24457
-0.2391
-0.233028
-0.225705
-0.215846
-0.203938
-0.184085
-0.334428
-0.333849
-0.332422
-0.330473
-0.328096
-0.325157
-0.321577
-0.317275
-0.312169
-0.306097
-0.299074
-0.290379
-0.278633
-0.264208
-0.241163
-0.409928
-0.409368
-0.407978
-0.406045
-0.403638
-0.400601
-0.396819
-0.392166
-0.386492
-0.379554
-0.371197
-0.360637
-0.346425
-0.328791
-0.301773
-0.493982
-0.49344
-0.492084
-0.490156
-0.487695
-0.484511
-0.480441
-0.475292
-0.468818
-0.460651
-0.450417
-0.437267
-0.419658
-0.397625
-0.365144
-0.591224
-0.5907
-0.589377
-0.587424
-0.584824
-0.581333
-0.576707
-0.570647
-0.562765
-0.552517
-0.53927
-0.522128
-0.499487
-0.471205
-0.431442
-0.700523
-0.700012
-0.698687
-0.696664
-0.693871
-0.689991
-0.684668
-0.677443
-0.667716
-0.654676
-0.63734
-0.614707
-0.585085
-0.548121
-0.496056
-0.845618
-0.845118
-0.843825
-0.841577
-0.838109
-0.832922
-0.825419
-0.814844
-0.800271
-0.780593
-0.754599
-0.721477
-0.680005
-0.630971
-0.565576
-0.986455
-0.985944
-0.984408
-0.981819
-0.977888
-0.971904
-0.962985
-0.949985
-0.93147
-0.905784
-0.871245
-0.827072
-0.772484
-0.709958
-0.632402
-1.31209
-1.31184
-1.3099
-1.30512
-1.29567
-1.28004
-1.25636
-1.22261
-1.17701
-1.11853
-1.04741
-0.966088
-0.877316
-0.786698
-0.691634
-1.34749
-1.34619
-1.34682
-1.34076
-1.33005
-1.314
-1.29082
-1.25819
-1.21383
-1.15608
-1.08455
-1.00149
-0.90971
-0.814436
-0.719062
-2.89538
-2.97188
-2.91129
-2.82809
-2.72257
-2.58432
-2.40637
-2.18941
-1.94124
-1.67718
-1.41807
-1.18653
-0.996068
-0.846003
-0.72727
0.33854
1.28343
-0.379043
0.0133957
0.10729
-0.537822
0.12007
1.92429
0.56164
0.332717
0.0783242
1.26338
0.469715
-0.105298
0.0239701
1.4802
-0.151466
-2.21481
-0.300906
0.262895
1.21091
0.496093
1.54407
2.43035
1.85594
0.0386564
1.17058
-0.155991
-6.77252
0.368118
-0.559887
-0.25845
1.73465
0.794704
1.44932
0.458743
-0.8908
0.925393
1.91588
0.880187
-0.342748
0.710288
1.01961
0.755001
0.174667
0.736086
0.614127
1.76988
0.997349
0.165251
0.0210688
2.69715
0.901566
3.43171
0.677076
1.21326
0.68964
0.745079
1.67702
-1.24668
0.269655
1.47106
1.3962
0.179886
4.7179
0.428089
1.98625
1.19366
0.529382
0.334756
-0.354663
1.01637
0.387008
0.47487
1.05076
-0.312895
1.75888
1.40851
0.680561
0.699888
-0.194226
3.47952
0.326876
0.854638
0.466661
-0.334863
2.1707
0.460207
0.491591
-0.119371
1.06998
0.996709
0.519173
1.55226
0.0831017
0.684858
1.95389
1.20663
1.14195
-0.306373
-0.143225
0.911719
0.215295
0.568351
0.710034
1.143
-0.181784