/*--------------------------------*- C++ -*----------------------------------*\
| =========                 |                                                 |
| \\      /  F ield         | OpenFOAM: The Open Source CFD Toolbox           |
|  \\    /   O peration     | Version:  2.3.0                                 |
|   \\  /    A nd           | Web:      www.OpenFOAM.org                      |
|    \\/     M anipulation  |                                                 |
\*---------------------------------------------------------------------------*/
FoamFile
{
    version     2.0;
    format      ascii;
    class       volVectorField;
    location    "200";
    object      U;
}
// * * * * * * * * * * * * * * * * * * * * * * * * * * * * * * * * * * * * * //

dimensions      [0 1 -1 0 0 0 0];

internalField   nonuniform List<vector> 
7994
(
(20.0819 0.144857 -1.66235e-23)
(20.0844 0.158456 -3.72653e-22)
(20.0876 0.174366 1.69772e-21)
(20.0916 0.193149 -1.31305e-21)
(20.0963 0.214387 -9.85079e-21)
(20.1009 0.237206 2.44599e-20)
(20.1043 0.260534 -1.43392e-20)
(20.1054 0.283347 0)
(20.1032 0.304801 0)
(20.0969 0.324254 -1.65908e-20)
(20.0862 0.341273 1.53673e-20)
(20.0709 0.355584 -1.95897e-20)
(20.051 0.366931 1.8015e-20)
(20.0262 0.37245 0)
(19.9972 0.375002 0)
(20.0677 0.143149 0)
(20.0654 0.151832 0)
(20.0617 0.160174 0)
(20.0566 0.168521 -3.67869e-21)
(20.0502 0.177048 7.63796e-21)
(20.0427 0.185827 6.89599e-22)
(20.0346 0.194771 -9.6322e-21)
(20.026 0.203644 4.96434e-21)
(20.0171 0.212126 -7.06878e-21)
(20.0079 0.219883 -1.49003e-21)
(19.9987 0.226625 1.64763e-20)
(19.9894 0.232128 -1.33069e-20)
(19.9801 0.236242 4.5929e-21)
(19.971 0.238856 0)
(19.9625 0.23986 1.10592e-35)
(20.0581 0.14159 0)
(20.0552 0.14893 0)
(20.0518 0.155991 8.19014e-21)
(20.0479 0.162595 -8.01578e-21)
(20.0434 0.168566 -1.0474e-20)
(20.0383 0.173759 -1.449e-21)
(20.0327 0.178104 -1.4118e-21)
(20.0266 0.181594 1.16448e-20)
(20.0202 0.184256 0)
(20.0136 0.186138 0)
(20.0069 0.187292 0)
(20.0003 0.187772 0)
(19.9938 0.187633 0)
(19.9874 0.186937 0)
(19.9814 0.185733 0)
(20.05 0.137169 0)
(20.0463 0.142183 -4.24369e-21)
(20.0421 0.146839 4.19453e-21)
(20.0375 0.150995 0)
(20.0326 0.154666 -1.06269e-20)
(20.0276 0.157832 1.02081e-20)
(20.0226 0.160484 -1.16025e-20)
(20.0175 0.162624 2.30748e-20)
(20.0124 0.16426 -5.29079e-21)
(20.0075 0.165412 -5.89768e-21)
(20.0027 0.166104 0)
(19.998 0.166365 0)
(19.9935 0.166229 0)
(19.9892 0.165729 -1.70175e-21)
(19.9852 0.164893 1.66641e-21)
(20.0446 0.133017 0)
(20.0411 0.136652 0)
(20.0373 0.140047 5.29151e-21)
(20.0335 0.142955 4.57351e-22)
(20.0295 0.145414 -5.45876e-21)
(20.0254 0.147431 -6.15171e-21)
(20.0214 0.149027 5.93744e-21)
(20.0173 0.150223 0)
(20.0132 0.151047 0)
(20.0092 0.151526 0)
(20.0053 0.151685 0)
(20.0015 0.15155 0)
(19.9979 0.151145 -3.62254e-21)
(19.9943 0.150491 3.54727e-21)
(19.9909 0.149609 -6.6987e-36)
(20.0405 0.128898 0)
(20.0372 0.131478 -2.6381e-21)
(20.0338 0.133917 2.60213e-21)
(20.0303 0.135958 0)
(20.0268 0.137656 0)
(20.0233 0.139027 6.28358e-21)
(20.0198 0.140089 -1.25811e-20)
(20.0163 0.140863 -3.35425e-22)
(20.0129 0.141364 -3.22237e-22)
(20.0096 0.141609 -3.09394e-22)
(20.0063 0.141614 6.84241e-21)
(20.0031 0.141394 0)
(20 0.140961 0)
(19.997 0.14033 -1.91373e-21)
(19.9941 0.139512 1.90342e-21)
(20.0374 0.125236 0)
(20.0345 0.127088 0)
(20.0316 0.128878 0)
(20.0286 0.130368 0)
(20.0255 0.131593 0)
(20.0225 0.132566 0)
(20.0195 0.1333 0)
(20.0165 0.13381 0)
(20.0136 0.134107 0)
(20.0106 0.134201 0)
(20.0078 0.134101 0)
(20.005 0.133816 0)
(20.0022 0.133354 0)
(19.9996 0.132723 0)
(19.997 0.131932 0)
(20.0353 0.121747 -1.35772e-21)
(20.0327 0.12323 1.36052e-21)
(20.03 0.124579 0)
(20.0274 0.125707 0)
(20.0247 0.126625 0)
(20.022 0.127345 0)
(20.0194 0.127876 -6.81933e-21)
(20.0167 0.128228 6.74738e-21)
(20.0141 0.128405 0)
(20.0115 0.128415 0)
(20.0089 0.128261 -3.84158e-21)
(20.0064 0.127947 3.83171e-21)
(20.004 0.127478 0)
(20.0015 0.126859 0)
(19.9992 0.126095 3.84075e-36)
(20.0337 0.118552 1.38711e-21)
(20.0313 0.119867 -1.40801e-21)
(20.029 0.12093 0)
(20.0266 0.121816 0)
(20.0242 0.122529 0)
(20.0218 0.123078 -3.37331e-21)
(20.0194 0.123473 6.82749e-21)
(20.0171 0.123719 -7.04972e-21)
(20.0147 0.123818 -1.26808e-22)
(20.0123 0.123773 3.70025e-21)
(20.01 0.123584 3.95105e-21)
(20.0077 0.123253 -3.95724e-21)
(20.0054 0.122781 2.10487e-21)
(20.0032 0.122171 -1.02583e-21)
(20.001 0.121427 -1.09005e-21)
(20.0324 0.115925 0)
(20.0303 0.117011 0)
(20.0282 0.117837 0)
(20.0261 0.118538 3.21739e-21)
(20.0239 0.1191 -3.19598e-21)
(20.0218 0.119527 0)
(20.0196 0.119825 0)
(20.0174 0.119996 3.65038e-21)
(20.0152 0.120041 -3.65312e-21)
(20.0131 0.119958 -3.90193e-21)
(20.0109 0.119747 5.93329e-21)
(20.0088 0.119407 -2.02638e-21)
(20.0067 0.118935 0)
(20.0046 0.118334 1.11167e-21)
(20.0026 0.117605 -1.11838e-21)
(20.0314 0.113545 -7.37485e-22)
(20.0295 0.1145 2.26482e-21)
(20.0276 0.115167 -1.52128e-21)
(20.0257 0.115737 3.25194e-21)
(20.0238 0.11619 -3.23922e-21)
(20.0218 0.116528 3.45859e-21)
(20.0198 0.116754 -3.45814e-21)
(20.0178 0.116871 0)
(20.0158 0.116875 0)
(20.0137 0.116764 -1.9756e-21)
(20.0117 0.116539 1.98645e-21)
(20.0097 0.116194 0)
(20.0077 0.115726 0)
(20.0058 0.115132 0)
(20.0039 0.114413 0)
(20.0306 0.111516 0)
(20.0289 0.1123 0)
(20.0272 0.11285 -1.59003e-21)
(20.0255 0.113317 3.22018e-21)
(20.0237 0.113693 -1.63282e-21)
(20.0219 0.113963 0)
(20.02 0.114133 0)
(20.0182 0.11421 0)
(20.0162 0.114182 1.91809e-21)
(20.0143 0.114048 -1.92909e-21)
(20.0124 0.113813 -2.05243e-21)
(20.0105 0.11347 2.0664e-21)
(20.0087 0.113008 0)
(20.0068 0.112419 0)
(20.005 0.111703 0)
(20.03 0.109788 0)
(20.0285 0.110363 0)
(20.027 0.110819 1.59899e-21)
(20.0253 0.111198 -1.59341e-21)
(20.0237 0.111521 -1.68993e-21)
(20.022 0.111754 3.43143e-21)
(20.0203 0.111879 -1.74473e-21)
(20.0185 0.111923 1.85378e-21)
(20.0167 0.111865 -1.86325e-21)
(20.0148 0.111709 0)
(20.013 0.11147 2.04708e-21)
(20.0112 0.111133 -2.06097e-21)
(20.0094 0.11068 1.09259e-21)
(20.0077 0.110097 -1.09972e-21)
(20.006 0.109366 0)
(20.0295 0.108101 0)
(20.028 0.10861 0)
(20.0267 0.109034 0)
(20.0251 0.109312 -1.69018e-21)
(20.0237 0.109603 3.39912e-21)
(20.0221 0.109843 -1.63558e-21)
(20.0204 0.109924 0)
(20.0187 0.109938 0)
(20.017 0.109859 0)
(20.0152 0.109669 0)
(20.0135 0.10942 0)
(20.0117 0.109094 1.04254e-21)
(20.01 0.108653 -1.045e-21)
(20.0083 0.108105 -2.72189e-22)
(20.0067 0.10735 2.79344e-22)
(19.9529 0.34092 0)
(19.9096 0.326025 0)
(19.8734 0.307522 3.60467e-20)
(19.8446 0.291427 -3.9242e-20)
(19.8237 0.274176 4.32474e-20)
(19.8111 0.255153 -4.67351e-20)
(19.8064 0.23436 0)
(19.809 0.212059 0)
(19.8176 0.188683 -1.08571e-19)
(19.8305 0.164929 2.21497e-19)
(19.8458 0.141754 -1.11413e-19)
(19.8618 0.120246 -5.26647e-20)
(19.8772 0.101358 1.01683e-19)
(19.8914 0.0856874 -2.53555e-20)
(19.9045 0.0721674 -2.18618e-20)
(19.9545 0.239315 -1.10936e-35)
(19.9469 0.236763 0)
(19.9398 0.23176 9.9265e-21)
(19.9331 0.224444 -3.40027e-20)
(19.9269 0.214915 5.2053e-20)
(19.9214 0.203388 1.51859e-21)
(19.9166 0.190211 -3.29349e-20)
(19.9128 0.175867 3.74539e-20)
(19.9099 0.160937 -8.00577e-20)
(19.908 0.146029 1.60154e-22)
(19.9073 0.131674 8.72757e-20)
(19.9081 0.118231 -4.44926e-20)
(19.9105 0.105825 0)
(19.9147 0.0944244 0)
(19.9204 0.0830873 0)
(19.9754 0.184082 0)
(19.9694 0.181898 0)
(19.9633 0.179057 0)
(19.9572 0.175539 0)
(19.9512 0.171304 0)
(19.9455 0.166323 0)
(19.9403 0.160575 0)
(19.9357 0.154051 2.77061e-20)
(19.9319 0.146752 5.9095e-22)
(19.9292 0.1387 4.83263e-22)
(19.9276 0.129945 -3.33989e-20)
(19.9272 0.1206 -3.49972e-20)
(19.9281 0.110852 3.5757e-20)
(19.9302 0.100982 0)
(19.9333 0.090687 0)
(19.9812 0.163739 1.82637e-21)
(19.9772 0.162205 -1.86926e-21)
(19.9733 0.160211 0)
(19.9693 0.157722 0)
(19.9653 0.154697 0)
(19.9615 0.151102 -1.05808e-20)
(19.9578 0.146908 -1.17651e-20)
(19.9544 0.142098 4.84642e-20)
(19.9513 0.136671 -2.57194e-20)
(19.9486 0.130642 2.80246e-20)
(19.9464 0.124055 -2.91798e-20)
(19.9448 0.116975 0)
(19.944 0.109491 1.58191e-20)
(19.944 0.101709 -1.60037e-20)
(19.9449 0.0933095 0)
(19.9876 0.148505 6.71175e-36)
(19.9842 0.147143 4.08953e-21)
(19.9809 0.145479 -4.17675e-21)
(19.9776 0.143491 0)
(19.9742 0.141156 0)
(19.971 0.138447 0)
(19.9679 0.135342 0)
(19.9649 0.131818 0)
(19.9622 0.127853 1.20472e-20)
(19.9597 0.123432 -1.24841e-20)
(19.9575 0.118546 -1.33585e-20)
(19.9558 0.1132 -1.61218e-22)
(19.9547 0.107414 1.42629e-20)
(19.9541 0.101225 0)
(19.9541 0.0943782 0)
(19.9912 0.13851 2.0315e-21)
(19.9884 0.137297 -2.04629e-21)
(19.9856 0.135845 0)
(19.9828 0.134141 0)
(19.9801 0.132169 9.56419e-21)
(19.9774 0.129915 2.50004e-22)
(19.9748 0.127361 2.45829e-22)
(19.9723 0.124492 2.3902e-22)
(19.97 0.121291 -2.2691e-20)
(19.9679 0.117745 1.17748e-20)
(19.9659 0.11384 0)
(19.9643 0.109571 0)
(19.9629 0.104943 6.70251e-21)
(19.962 0.0999707 -6.79519e-21)
(19.9614 0.0945103 0)
(19.9945 0.130981 0)
(19.992 0.129852 0)
(19.9895 0.128528 0)
(19.987 0.127001 0)
(19.9846 0.125262 0)
(19.9822 0.123302 0)
(19.98 0.121112 0)
(19.9778 0.11868 0)
(19.9757 0.115996 0)
(19.9738 0.113048 0)
(19.9721 0.109823 0)
(19.9706 0.106308 0)
(19.9693 0.102494 0)
(19.9682 0.0983691 0)
(19.9676 0.0937987 0)
(19.9969 0.125187 -3.84687e-36)
(19.9946 0.124123 0)
(19.9924 0.122891 0)
(19.9902 0.121488 4.79019e-21)
(19.988 0.11991 -4.80269e-21)
(19.9859 0.118151 0)
(19.9839 0.116207 0)
(19.982 0.114072 1.06235e-20)
(19.9801 0.11174 -1.07373e-20)
(19.9784 0.109203 0)
(19.9769 0.106452 0)
(19.9755 0.103479 0)
(19.9742 0.100273 0)
(19.9732 0.0968329 3.10743e-21)
(19.9725 0.0931034 -3.13464e-21)
(19.9989 0.120549 -1.14909e-21)
(19.9968 0.119532 -1.20129e-21)
(19.9947 0.118369 2.34019e-21)
(19.9927 0.117057 -4.88501e-21)
(19.9907 0.115596 4.87748e-21)
(19.9888 0.113984 5.07853e-21)
(19.987 0.112218 9.55127e-23)
(19.9853 0.110299 -1.04841e-20)
(19.9836 0.108222 1.07169e-20)
(19.9821 0.105986 -5.44136e-21)
(19.9807 0.103585 0)
(19.9794 0.101012 0)
(19.9782 0.098261 0)
(19.9772 0.0953345 -3.00571e-21)
(19.9764 0.0921996 3.01607e-21)
(20.0006 0.116751 -1.17643e-21)
(19.9986 0.11577 1.17096e-21)
(19.9967 0.114659 0)
(19.9948 0.113419 -2.47788e-21)
(19.993 0.112049 7.50068e-21)
(19.9912 0.110547 -5.01589e-21)
(19.9895 0.108916 -5.18983e-21)
(19.9879 0.107157 5.18603e-21)
(19.9864 0.105273 0)
(19.985 0.103262 0)
(19.9837 0.101124 -5.55014e-21)
(19.9825 0.0988544 5.5874e-21)
(19.9815 0.0964478 0)
(19.9806 0.0939053 0)
(19.9798 0.0911832 0)
(20.002 0.113576 0)
(20.0001 0.112625 0)
(19.9983 0.111557 0)
(19.9965 0.110375 0)
(19.9948 0.109077 2.52897e-21)
(19.9932 0.107661 -2.51519e-21)
(19.9916 0.106133 0)
(19.9901 0.104498 0)
(19.9887 0.102761 -5.3172e-21)
(19.9874 0.100926 5.31798e-21)
(19.9862 0.098992 -5.46733e-21)
(19.9852 0.0969577 5.48882e-21)
(19.9842 0.0948203 -2.81747e-21)
(19.9833 0.0925831 4.26335e-21)
(19.9826 0.0902191 -1.43498e-21)
(20.0032 0.110879 0)
(20.0014 0.109953 0)
(19.9997 0.108922 0)
(19.998 0.10779 2.49408e-21)
(19.9964 0.10655 -2.47724e-21)
(19.9948 0.1052 -2.55201e-21)
(19.9934 0.103752 2.53747e-21)
(19.992 0.102214 0)
(19.9907 0.100595 0)
(19.9894 0.098901 0)
(19.9883 0.0971282 -2.69523e-21)
(19.9873 0.0952815 5.43093e-21)
(19.9864 0.0933596 -2.74053e-21)
(19.9856 0.0913579 0)
(19.9849 0.0892561 0)
(20.0042 0.108552 0)
(20.0025 0.107653 -1.20574e-21)
(20.0008 0.106657 1.19796e-21)
(19.9992 0.105571 -2.47497e-21)
(19.9977 0.10437 2.45829e-21)
(19.9962 0.103071 0)
(19.9948 0.101688 -2.55188e-21)
(19.9935 0.100226 2.53895e-21)
(19.9923 0.0987064 -2.60001e-21)
(19.9911 0.0971303 5.22005e-21)
(19.9901 0.0954855 -2.62479e-21)
(19.9892 0.0937949 -2.68576e-21)
(19.9883 0.0920562 2.69511e-21)
(19.9876 0.0902533 0)
(19.987 0.0884198 0)
(20.005 0.106558 3.00655e-22)
(20.0033 0.10568 -2.97846e-22)
(20.0018 0.104695 -1.21354e-21)
(20.0001 0.103667 1.16514e-21)
(19.9988 0.102491 0)
(19.9974 0.101247 0)
(19.9961 0.0999002 0)
(19.9949 0.0984753 0)
(19.9937 0.0970482 0)
(19.9926 0.0955679 -2.59712e-21)
(19.9916 0.0940071 5.28919e-21)
(19.9907 0.0924588 -2.65502e-21)
(19.99 0.0908746 0)
(19.9893 0.0891834 0)
(19.9887 0.0875737 0)
(20.0661 0.009911 -9.05474e-21)
(20.0256 0.00712529 1.01434e-20)
(19.953 0.00395783 0)
(19.8313 7.36731e-05 0)
(19.6423 -0.00470053 0)
(19.3764 -0.0103524 0)
(19.0328 -0.0168207 1.19052e-23)
(18.6152 -0.0241428 -1.32213e-23)
(18.1272 -0.0322618 0)
(17.5679 -0.0410617 0)
(16.926 -0.0508015 -1.42129e-20)
(16.1705 -0.0616125 1.68133e-20)
(15.2314 -0.0753064 -2.48964e-21)
(13.9934 -0.0653151 2.98699e-21)
(12.6302 -0.0790011 3.43107e-22)
(20.064 0.00780358 0)
(20.0286 0.00555155 -2.21065e-20)
(19.9683 0.00262388 2.43774e-20)
(19.8704 -0.00159824 0)
(19.7208 -0.00747858 0)
(19.5092 -0.0148108 0)
(19.2309 -0.0231482 0)
(18.8844 -0.0320366 6.39141e-20)
(18.468 -0.04108 -7.08198e-20)
(17.9765 -0.0500295 8.7919e-20)
(17.395 -0.059171 3.05627e-21)
(16.6894 -0.0686518 -1.1978e-19)
(15.7964 -0.0805184 7.46016e-20)
(14.6662 -0.0763334 -4.6266e-20)
(13.5901 -0.0484172 -6.07403e-20)
(20.0625 0.00369872 0)
(20.0315 -8.91085e-06 0)
(19.9804 -0.00463269 3.04645e-20)
(19.8993 -0.0103229 -3.31985e-20)
(19.7769 -0.0169485 -4.3502e-20)
(19.603 -0.024051 -3.35855e-21)
(19.3707 -0.0312394 -2.82745e-21)
(19.0748 -0.0383134 6.33626e-20)
(18.7101 -0.0452426 0)
(18.2676 -0.0521415 0)
(17.7291 -0.0595337 0)
(17.0585 -0.0675352 0)
(16.1986 -0.0761568 0)
(15.1315 -0.0725597 0)
(14.1691 -0.0345892 0)
(20.0593 0.000417911 0)
(20.0304 -0.00359025 -1.15328e-20)
(19.9844 -0.00816397 1.2503e-20)
(19.9139 -0.0133434 0)
(19.8096 -0.0190427 -3.22011e-20)
(19.6624 -0.0250239 3.48022e-20)
(19.464 -0.0311044 -3.84367e-20)
(19.2069 -0.0372075 8.37324e-20)
(18.8825 -0.0433642 -2.28694e-20)
(18.4787 -0.0497191 -2.54047e-20)
(17.9743 -0.0567579 0)
(17.3314 -0.0646183 0)
(16.4962 -0.071819 0)
(15.4654 -0.0676257 -1.18186e-20)
(14.552 -0.0288546 1.43552e-20)
(20.0553 -0.00126628 0)
(20.0283 -0.00489214 0)
(19.9869 -0.00891464 1.11642e-20)
(19.9252 -0.0134247 1.36822e-22)
(19.8357 -0.0184125 1.19515e-22)
(19.7099 -0.023744 -2.83381e-20)
(19.5388 -0.0292772 1.53289e-20)
(19.3131 -0.0349288 -1.67927e-20)
(19.0218 -0.0407203 -8.71362e-23)
(18.6501 -0.0468061 2.01447e-20)
(18.1744 -0.0536258 0)
(17.5551 -0.061375 0)
(16.7399 -0.0679431 -1.50468e-20)
(15.7317 -0.0632574 1.78168e-20)
(14.8421 -0.0257472 0)
(20.0521 -0.00251117 0)
(20.0271 -0.00570053 0)
(19.99 -0.00935452 1.05309e-20)
(19.9359 -0.0134469 -2.27012e-20)
(19.8583 -0.0179447 2.47189e-20)
(19.7494 -0.0227671 2.17463e-22)
(19.5999 -0.0278204 -2.92761e-20)
(19.3993 -0.0330521 1.58651e-20)
(19.1351 -0.0385017 -1.74826e-20)
(18.7902 -0.0443428 3.82824e-20)
(18.339 -0.0509739 -2.11728e-20)
(17.7404 -0.0585927 0)
(16.9419 -0.064875 0)
(15.949 -0.0599363 0)
(15.0716 -0.0237251 0)
(20.0494 -0.0032712 0)
(20.0262 -0.00621377 0)
(19.9927 -0.00965309 0)
(19.9446 -0.013425 0)
(19.8763 -0.0175254 0)
(19.7804 -0.0219415 0)
(19.6479 -0.0266333 0)
(19.4676 -0.0315758 0)
(19.2256 -0.0368135 0)
(18.9034 -0.0425177 0)
(18.4735 -0.049045 0)
(17.893 -0.0565572 0)
(17.1088 -0.0626765 0)
(16.1267 -0.057591 0)
(15.2557 -0.0223095 0)
(20.047 -0.00390708 0)
(20.0252 -0.00646513 4.34386e-21)
(19.9946 -0.0096765 -4.57455e-21)
(19.9513 -0.0132054 9.93927e-21)
(19.8903 -0.0170491 1.7057e-22)
(19.8048 -0.0212301 -2.27899e-20)
(19.6858 -0.0257347 -2.25706e-22)
(19.5221 -0.0305487 -2.58335e-22)
(19.2988 -0.0357085 2.19266e-20)
(18.996 -0.0413689 1.71242e-22)
(18.5847 -0.0478493 -8.88672e-21)
(18.0204 -0.0552714 1.02707e-20)
(17.2488 -0.0612594 -1.739e-20)
(16.2749 -0.0560418 6.72939e-21)
(15.4068 -0.021348 0)
(20.0444 -0.00376785 1.92671e-21)
(20.0241 -0.00631298 -2.02514e-21)
(19.9959 -0.009459 0)
(19.9566 -0.0128689 0)
(19.9014 -0.0166084 0)
(19.8243 -0.0207233 -5.23605e-21)
(19.7164 -0.0252086 1.12337e-20)
(19.5663 -0.0300492 -1.22877e-20)
(19.3587 -0.0352653 -2.28259e-22)
(19.0727 -0.040988 7.39607e-21)
(18.6778 -0.0474855 0)
(18.1281 -0.0547996 0)
(17.3679 -0.060567 5.61761e-21)
(16.4008 -0.0550921 -3.13634e-21)
(15.5341 -0.0206247 -3.65796e-21)
(20.0421 -0.0038371 0)
(20.0231 -0.00612879 0)
(19.9969 -0.00911309 0)
(19.9608 -0.0124339 4.12244e-21)
(19.9104 -0.0161508 -4.31132e-21)
(19.84 -0.0203115 0)
(19.7411 -0.0249163 0)
(19.6024 -0.0299357 5.71217e-21)
(19.4083 -0.0353619 -6.07062e-21)
(19.137 -0.04129 -7.22363e-21)
(18.7569 -0.0479653 1.19002e-20)
(18.2207 -0.0553792 -4.48654e-21)
(17.471 -0.0610672 0)
(16.5097 -0.0552423 3.20394e-21)
(15.6433 -0.0206175 -3.59883e-21)
(20.04 -0.00318629 0)
(20.022 -0.00560921 0)
(19.9976 -0.00855267 0)
(19.964 -0.0118346 3.68456e-21)
(19.9175 -0.0156078 4.30213e-23)
(19.8523 -0.0199548 -8.22197e-21)
(19.7606 -0.0248746 4.37407e-21)
(19.6312 -0.0302926 0)
(19.4484 -0.0361282 0)
(19.1897 -0.0425207 -3.41876e-21)
(18.8223 -0.049644 3.66015e-21)
(18.2983 -0.0571413 0)
(17.5591 -0.0624467 0)
(16.6042 -0.0559217 0)
(15.7385 -0.0203978 0)
(20.0382 -0.00279716 0)
(20.0211 -0.00496122 1.57893e-21)
(19.9982 -0.0077488 -3.20391e-21)
(19.9667 -0.0109029 1.63225e-21)
(19.9232 -0.0146372 0)
(19.8626 -0.0190978 0)
(19.7771 -0.0244299 3.74054e-21)
(19.656 -0.0304715 -3.92503e-21)
(19.4835 -0.036825 0)
(19.2362 -0.0435347 -2.94901e-21)
(18.8818 -0.0515158 -4.37689e-22)
(18.37 -0.0608118 1.57754e-21)
(17.6402 -0.0670841 2.47889e-21)
(16.6891 -0.0597326 -1.75195e-21)
(15.8226 -0.0233848 1.94251e-21)
(20.0363 -0.00188245 0)
(20.0198 -0.00414081 0)
(19.9982 -0.00683036 0)
(19.9685 -0.00983665 0)
(19.9269 -0.0136516 0)
(19.8688 -0.018453 1.42221e-21)
(19.7863 -0.0245064 -1.48049e-21)
(19.6708 -0.0317772 0)
(19.5062 -0.0388912 0)
(19.2673 -0.0463622 0)
(18.917 -0.0554346 0)
(18.4129 -0.0655826 -2.44142e-21)
(17.7004 -0.0718425 2.64916e-21)
(16.7626 -0.0623493 0)
(15.8975 -0.022873 0)
(20.0351 -0.000783813 0)
(20.0198 -0.00297718 0)
(19.9999 -0.00555591 0)
(19.9714 -0.00792758 -1.07637e-21)
(19.9331 -0.0111222 1.99065e-21)
(19.8804 -0.0150402 -9.08622e-22)
(19.8056 -0.0212614 0)
(19.6971 -0.0304749 0)
(19.5461 -0.0381522 0)
(19.3175 -0.0434135 0)
(18.9948 -0.0529779 0)
(18.4989 -0.0742682 0)
(17.7867 -0.0851626 0)
(16.8368 -0.0720684 -1.04355e-21)
(15.9647 -0.0409021 1.14938e-21)
(12.6889 0.0860465 -9.423e-23)
(14.0941 0.0700128 4.41761e-21)
(15.3453 0.0796399 -3.34538e-21)
(16.2899 0.0659783 1.93551e-20)
(17.0484 0.055381 -1.63681e-20)
(17.6916 0.0458717 0)
(18.2501 0.0373362 0)
(18.7344 0.0295487 6.10185e-21)
(19.1449 0.0226588 -5.4951e-21)
(19.4778 0.0167442 0)
(19.7298 0.011772 0)
(19.903 0.00785615 0)
(20.0096 0.00492903 0)
(20.0692 0.00279878 8.04902e-21)
(20.0988 0.00103752 -7.24285e-21)
(13.6374 0.0581873 -6.03686e-20)
(14.7657 0.0839187 -4.56569e-20)
(15.9139 0.0875944 7.3902e-20)
(16.8125 0.0757399 -1.17941e-19)
(17.5199 0.0665128 3.48769e-21)
(18.101 0.0576123 8.62134e-20)
(18.5897 0.0488961 -6.83783e-20)
(19.0006 0.0401096 6.17181e-20)
(19.3387 0.0315398 0)
(19.6057 0.0236093 0)
(19.8037 0.0167943 0)
(19.9389 0.0115874 0)
(20.0234 0.00813809 2.05294e-20)
(20.0722 0.00603602 -1.86196e-20)
(20.0976 0.00453707 0)
(14.2136 0.0464553 0)
(15.231 0.0826237 0)
(16.3185 0.0855458 0)
(17.184 0.0768919 0)
(17.8551 0.0691553 0)
(18.3915 0.0620274 0)
(18.8295 0.0553683 0)
(19.1873 0.0486698 6.05436e-20)
(19.4737 0.0418428 -3.32313e-21)
(19.6945 0.0349383 -3.84908e-21)
(19.8554 0.0281894 -4.04151e-20)
(19.9648 0.0220368 -2.94847e-20)
(20.0339 0.0169267 2.70499e-20)
(20.0747 0.0129559 0)
(20.0966 0.00988625 0)
(14.5963 0.0423634 1.42194e-20)
(15.5658 0.0796023 -1.16858e-20)
(16.6182 0.0830595 0)
(17.4586 0.0758091 0)
(18.1007 0.0682083 0)
(18.6014 0.0614376 -2.42908e-20)
(18.9993 0.0553144 -2.14457e-20)
(19.3155 0.0493639 7.88637e-20)
(19.5626 0.0434648 -3.59942e-20)
(19.7494 0.037609 3.17062e-20)
(19.8844 0.0319065 -2.93276e-20)
(19.9768 0.0265746 0)
(20.0367 0.0218478 1.06664e-20)
(20.0732 0.0177899 -9.83976e-21)
(20.0938 0.014333 0)
(14.8869 0.0405644 0)
(15.8334 0.0767022 1.74435e-20)
(16.8634 0.0806499 -1.47431e-20)
(17.6833 0.0740307 0)
(18.3005 0.0665378 0)
(18.7712 0.059988 1.90733e-20)
(19.1357 0.0541271 -2.83974e-22)
(19.418 0.0485257 -1.57162e-20)
(19.6332 0.0430555 1.3949e-20)
(19.7929 0.0377226 -2.55702e-20)
(19.9072 0.0326398 3.21478e-22)
(19.9859 0.0279679 3.42169e-22)
(20.0379 0.023831 9.59425e-21)
(20.0708 0.0202221 0)
(20.0902 0.0170793 0)
(15.117 0.0396125 0)
(16.052 0.074552 0)
(17.0667 0.0787766 0)
(17.869 0.0724536 0)
(18.4645 0.0650954 -2.02016e-20)
(18.9095 0.0587392 3.63425e-20)
(19.2461 0.0531216 -1.65083e-20)
(19.5006 0.0478559 1.45938e-20)
(19.6904 0.0427973 -2.67173e-20)
(19.8288 0.0379336 4.10994e-22)
(19.927 0.0333397 2.17547e-20)
(19.9947 0.0291158 -1.95444e-20)
(20.0399 0.0253284 8.95907e-21)
(20.0692 0.0219908 0)
(20.0872 0.0191625 0)
(15.3018 0.0391136 0)
(16.2311 0.0731834 0)
(17.2347 0.0775774 0)
(18.0219 0.0714292 0)
(18.5981 0.064187 0)
(19.0208 0.057944 0)
(19.3338 0.0524698 0)
(19.5655 0.0474209 0)
(19.735 0.0426561 0)
(19.8567 0.0381553 0)
(19.9425 0.0339561 0)
(20.0016 0.0300983 0)
(20.0416 0.0265842 0)
(20.0679 0.0234034 0)
(20.0846 0.0207061 0)
(15.4536 0.0388422 0)
(16.3804 0.0724023 6.57567e-21)
(17.3754 0.0769818 -1.68946e-20)
(18.1492 0.0710048 9.95349e-21)
(18.7083 0.063878 -8.42657e-21)
(19.1114 0.0576994 2.66153e-22)
(19.4043 0.0522837 2.03058e-20)
(19.6169 0.0473285 -4.53275e-22)
(19.7699 0.0427067 -4.22942e-22)
(19.8784 0.0383993 -1.99903e-20)
(19.9543 0.034424 3.71692e-22)
(20.0068 0.0307877 8.40849e-21)
(20.0425 0.0274584 -3.65411e-21)
(20.0664 0.0244016 3.4689e-21)
(20.082 0.0217992 0)
(15.5817 0.0388362 -3.61588e-21)
(16.5076 0.0721534 -3.03537e-21)
(17.4955 0.076985 5.49159e-21)
(18.257 0.0712314 0)
(18.8005 0.0642388 0)
(19.1863 0.0580843 6.89648e-21)
(19.4618 0.0526457 -3.25299e-22)
(19.6584 0.0476673 -1.11363e-20)
(19.7978 0.0430487 9.95239e-21)
(19.8956 0.0387823 -4.58171e-21)
(19.9636 0.0348732 0)
(20.0107 0.031315 0)
(20.0429 0.0280681 0)
(20.0648 0.0250844 -1.50443e-21)
(20.0794 0.0225452 1.44725e-21)
(15.6911 0.0388215 -3.5774e-21)
(16.6169 0.0725968 3.17726e-21)
(17.5985 0.0779928 0)
(18.3489 0.07248 -4.3437e-21)
(18.8782 0.0654743 1.14179e-20)
(19.2485 0.0591751 -6.89789e-21)
(19.5089 0.053547 -5.56136e-21)
(19.692 0.0483989 5.23321e-21)
(19.8201 0.0436562 0)
(19.9092 0.0392897 0)
(19.9709 0.0353129 -3.45704e-21)
(20.0136 0.0317224 3.30583e-21)
(20.0431 0.0284807 0)
(20.0633 0.0255445 0)
(20.077 0.0231134 0)
(15.7885 0.0397543 0)
(16.7144 0.0740847 0)
(17.6891 0.0799252 0)
(18.4281 0.074501 0)
(18.9439 0.067467 3.47032e-21)
(19.3003 0.0609264 -3.24259e-21)
(19.5476 0.0549544 0)
(19.7193 0.0494684 0)
(19.838 0.0443924 3.68034e-21)
(19.9199 0.0397786 -6.75953e-21)
(19.9765 0.0356193 1.82259e-22)
(20.0157 0.0319168 2.81442e-21)
(20.0429 0.0286384 0)
(20.0618 0.0257115 0)
(20.0748 0.0232952 0)
(15.8704 0.0390133 2.01963e-21)
(16.7955 0.0773766 -1.81726e-21)
(17.7638 0.0848407 2.54225e-21)
(18.4946 0.0788364 1.65765e-21)
(18.9997 0.0707238 -5.40089e-22)
(19.3433 0.0632744 -2.97774e-21)
(19.5794 0.0564749 0)
(19.7409 0.0504823 -3.54391e-21)
(19.8516 0.0452133 3.37747e-21)
(19.928 0.0402126 0)
(19.9805 0.0357342 0)
(20.017 0.0318618 1.10373e-21)
(20.0424 0.0285093 -2.12265e-21)
(20.0602 0.0256273 1.02474e-21)
(20.0726 0.0233204 0)
(15.9647 0.0443913 0)
(16.8878 0.0856863 0)
(17.8387 0.0904048 2.23222e-21)
(18.5554 0.0809672 -2.05824e-21)
(19.0457 0.0736816 0)
(19.3784 0.0660045 0)
(19.6042 0.0582313 0)
(19.7599 0.0521694 0)
(19.864 0.0458301 -1.0526e-21)
(19.9346 0.0401503 1.01122e-21)
(19.984 0.0353583 0)
(20.018 0.031334 0)
(20.042 0.0280249 0)
(20.059 0.0251944 0)
(20.071 0.0230529 0)
(16.0036 0.0292018 1.60725e-21)
(16.9156 0.0971634 -1.4526e-21)
(17.8557 0.104776 0)
(18.595 0.0885259 0)
(19.0911 0.0793911 0)
(19.4054 0.0682671 0)
(19.6307 0.0582756 0)
(19.7718 0.0517665 0)
(19.8658 0.0472383 0)
(19.9379 0.0402061 -6.4249e-22)
(19.9834 0.0349005 1.25394e-21)
(20.0181 0.0306257 -6.15411e-22)
(20.0404 0.027238 0)
(20.0572 0.0245623 0)
(20.0685 0.022984 0)
(19.4009 0.140138 0)
(19.9637 0.0881575 0)
(20.0671 0.102209 0)
(20.1201 0.111772 0)
(20.1501 0.121394 0)
(20.1661 0.130142 0)
(20.1726 0.138371 0)
(20.1716 0.145736 0)
(20.165 0.151692 0)
(20.1543 0.155564 0)
(20.1413 0.156769 0)
(20.1277 0.15503 0)
(20.1152 0.15058 0)
(20.1046 0.144171 0)
(20.0964 0.135959 0)
(17.579 -0.262028 0)
(19.9034 0.196528 0)
(19.9579 0.109352 0)
(20.0025 0.100184 0)
(20.0425 0.103587 0)
(20.0744 0.10862 0)
(20.0986 0.113332 0)
(20.1157 0.117832 0)
(20.1263 0.121986 0)
(20.131 0.125524 0)
(20.1306 0.128164 0)
(20.1262 0.12962 0)
(20.1194 0.129638 0)
(20.1115 0.128179 0)
(20.1037 0.124385 0)
(15.6917 -0.145117 -1.2623e-37)
(19.8882 0.217632 0)
(19.9836 0.107598 0)
(19.9977 0.108867 0)
(20.0263 0.111621 0)
(20.0543 0.112643 0)
(20.0777 0.113415 0)
(20.0959 0.114587 0)
(20.1088 0.115919 0)
(20.1168 0.11713 0)
(20.1203 0.118013 0)
(20.1201 0.118417 0)
(20.117 0.118234 0)
(20.1121 0.1175 0)
(20.1061 0.115287 0)
(14.1548 -0.0586625 0)
(19.7539 0.146841 0)
(20.0198 0.0699341 0)
(20.0285 0.0869699 0)
(20.0441 0.0898966 0)
(20.0638 0.0908758 0)
(20.0824 0.0922679 0)
(20.0976 0.094442 0)
(20.1088 0.0970393 0)
(20.1158 0.099805 0)
(20.119 0.102483 0)
(20.1189 0.104792 0)
(20.1164 0.106474 0)
(20.1123 0.107488 0)
(20.1071 0.107082 0)
(14.0669 0.038437 0)
(19.1365 0.0247703 0)
(19.8741 0.0353875 0)
(19.9979 0.0619126 0)
(20.0312 0.0659507 0)
(20.0519 0.0685839 0)
(20.07 0.071644 0)
(20.0855 0.0752904 0)
(20.0978 0.0792976 0)
(20.1066 0.083527 0)
(20.1118 0.0877723 0)
(20.1138 0.0917664 0)
(20.1132 0.0952146 0)
(20.1106 0.0979689 0)
(20.1066 0.0993485 0)
(14.7091 0.071593 0)
(18.3436 -0.039694 0)
(19.5682 0.03287 0)
(19.8989 0.0551852 0)
(19.9904 0.060477 0)
(20.0264 0.0640469 0)
(20.0487 0.0671277 0)
(20.0663 0.0702236 0)
(20.0808 0.0735574 0)
(20.092 0.0771681 0)
(20.1 0.0809366 0)
(20.1048 0.0846751 0)
(20.1069 0.0881536 0)
(20.1066 0.0912217 0)
(20.1045 0.0933461 0)
(15.0725 0.0319886 4.75349e-36)
(17.8288 -0.0256829 0)
(19.2461 0.0397331 0)
(19.7661 0.0551705 0)
(19.9388 0.0634732 0)
(20.0026 0.068034 0)
(20.0334 0.0707071 0)
(20.0536 0.0727118 0)
(20.0692 0.0747285 0)
(20.0815 0.07698 0)
(20.0908 0.0794667 0)
(20.0972 0.0820953 0)
(20.101 0.0847148 0)
(20.1024 0.0871974 0)
(20.1019 0.0892362 0)
(15.1219 0.00743038 0)
(17.5327 0.00102549 0)
(18.9731 0.0393841 0)
(19.6229 0.053724 0)
(19.879 0.0649642 0)
(19.9788 0.070539 0)
(20.0228 0.0733412 0)
(20.0471 0.0749425 0)
(20.0636 0.0762371 0)
(20.0762 0.0775978 0)
(20.0857 0.0791484 0)
(20.0926 0.0808832 0)
(20.097 0.0827184 0)
(20.0993 0.0845377 0)
(20.0998 0.0862131 0)
(14.9909 0.00271967 -9.29278e-36)
(17.3329 0.0152705 0)
(18.7511 0.0363429 0)
(19.4816 0.0516652 0)
(19.8106 0.0639366 0)
(19.9495 0.0702997 0)
(20.0107 0.0736672 0)
(20.0415 0.0754437 0)
(20.06 0.0765705 0)
(20.073 0.0775462 0)
(20.0827 0.0786034 0)
(20.0897 0.0798104 0)
(20.0944 0.0811431 0)
(20.0971 0.0825096 0)
(20.0981 0.0839442 0)
(14.8063 0.0037806 -9.42785e-36)
(17.1517 0.0191375 0)
(18.5625 0.0339975 0)
(19.3479 0.0494686 0)
(19.7373 0.0615771 0)
(19.9143 0.068631 0)
(19.9951 0.072693 0)
(20.0345 0.0748837 0)
(20.0563 0.0761293 0)
(20.0703 0.0770106 0)
(20.0803 0.0778415 0)
(20.0874 0.0787518 0)
(20.0924 0.079768 0)
(20.0954 0.0808262 0)
(20.0968 0.0820065 0)
(14.6225 0.00466775 0)
(16.9723 0.0186356 0)
(18.3936 0.0320952 0)
(19.2213 0.046888 0)
(19.6618 0.0586638 0)
(19.875 0.0663646 0)
(19.9763 0.0710362 0)
(20.0258 0.0736859 0)
(20.052 0.0751807 0)
(20.0677 0.0761278 0)
(20.0782 0.0768923 0)
(20.0856 0.0776527 0)
(20.0907 0.078475 0)
(20.0939 0.0793218 0)
(20.0956 0.0802721 0)
(14.4548 0.00473183 9.42613e-36)
(16.7984 0.0170079 0)
(18.2367 0.0301022 0)
(19.099 0.0440589 0)
(19.5847 0.0557059 0)
(19.8327 0.0639225 0)
(19.9549 0.0690612 0)
(20.0155 0.0721358 0)
(20.047 0.0739179 0)
(20.0649 0.0750036 0)
(20.0763 0.0757879 0)
(20.084 0.0764887 0)
(20.0893 0.0772042 0)
(20.0927 0.0779235 0)
(20.0946 0.0787306 0)
(14.3037 0.00441691 0)
(16.6343 0.0154322 0)
(18.0878 0.0280777 0)
(18.9797 0.0413391 0)
(19.5063 0.0529687 0)
(19.788 0.0615277 0)
(19.9312 0.0670243 0)
(20.0037 0.0704718 0)
(20.0412 0.0725338 0)
(20.0619 0.0737808 0)
(20.0744 0.074624 0)
(20.0826 0.0753124 0)
(20.0881 0.0759734 0)
(20.0917 0.076623 0)
(20.0937 0.0773659 0)
(14.1659 0.0040347 1.8119e-35)
(16.481 0.0141936 0)
(17.9456 0.026221 0)
(18.8632 0.0389058 0)
(19.4273 0.0504948 0)
(19.7415 0.0592563 0)
(19.9057 0.0650548 0)
(19.9904 0.068824 0)
(20.0345 0.0711417 0)
(20.0584 0.0725511 0)
(20.0723 0.0734682 0)
(20.0811 0.0741648 0)
(20.087 0.0747929 0)
(20.0907 0.0753909 0)
(20.093 0.0760544 0)
(14.0378 0.00370822 -1.77911e-35)
(16.3378 0.0132224 0)
(17.8101 0.0245586 0)
(18.7501 0.0366865 0)
(19.3481 0.0481764 0)
(19.6935 0.0570727 0)
(19.8786 0.0631799 0)
(19.9759 0.0672278 0)
(20.027 0.0697753 0)
(20.0545 0.0713417 0)
(20.0702 0.0723394 0)
(20.0797 0.0730546 0)
(20.0859 0.073659 0)
(20.0898 0.0742096 0)
(20.0922 0.0747985 0)
(13.918 0.00345415 0)
(16.2038 0.0123565 0)
(17.6816 0.0230039 0)
(18.641 0.0345678 0)
(19.2687 0.0459043 0)
(19.6438 0.054946 0)
(19.8501 0.0613875 0)
(19.9603 0.0656818 0)
(20.0189 0.0684407 0)
(20.0503 0.07016 0)
(20.0679 0.0712446 0)
(20.0783 0.0719897 0)
(20.0848 0.0725844 0)
(20.089 0.0731046 0)
(20.0916 0.0736639 0)
(13.8061 0.00324063 0)
(16.0783 0.0115117 0)
(17.5602 0.0215156 0)
(18.536 0.0325416 0)
(19.189 0.0436831 0)
(19.5925 0.0528939 0)
(19.8203 0.0596545 0)
(19.9438 0.0641754 0)
(20.01 0.0671368 0)
(20.0457 0.069008 0)
(20.0654 0.0701859 0)
(20.0768 0.0709721 0)
(20.0838 0.0715703 0)
(20.0883 0.0720722 0)
(20.091 0.0726105 0)
(13.7021 0.00303713 1.70556e-35)
(15.9611 0.0107113 0)
(17.4453 0.0201316 0)
(18.4345 0.0306733 0)
(19.1095 0.0415944 0)
(19.5397 0.0509499 0)
(19.7891 0.0579784 0)
(19.9262 0.0627141 0)
(20.0005 0.0658712 0)
(20.0407 0.0678909 0)
(20.0627 0.0691646 0)
(20.0753 0.0699982 0)
(20.0828 0.0706065 0)
(20.0876 0.0710931 0)
(20.0905 0.0716066 0)
(13.6053 0.00283808 -1.67785e-35)
(15.8512 0.0100118 0)
(17.3362 0.0189054 0)
(18.3362 0.029011 0)
(19.0305 0.0396843 0)
(19.4859 0.0491245 0)
(19.7567 0.0563604 0)
(19.9077 0.061306 0)
(19.9904 0.0646508 0)
(20.0353 0.0668134 0)
(20.0598 0.0681824 0)
(20.0737 0.0690657 0)