/*--------------------------------*- C++ -*----------------------------------*\
| =========                 |                                                 |
| \\      /  F ield         | OpenFOAM: The Open Source CFD Toolbox           |
|  \\    /   O peration     | Version:  2.3.0                                 |
|   \\  /    A nd           | Web:      www.OpenFOAM.org                      |
|    \\/     M anipulation  |                                                 |
\*---------------------------------------------------------------------------*/
FoamFile
{
    version     2.0;
    format      ascii;
    class       volScalarField;
    location    "9000";
    object      nuTilda;
}
// * * * * * * * * * * * * * * * * * * * * * * * * * * * * * * * * * * * * * //

dimensions      [0 2 -1 0 0 0 0];

internalField   nonuniform List<scalar> 
14757
(
0.0561046
0.0529129
0.0497945
0.0467669
0.0438432
0.0410369
0.0383648
0.0358472
0.0335038
0.0313505
0.0294089
0.0276977
0.0261911
0.024746
0.0233158
0.0219123
0.0205449
0.0192148
0.0179165
0.0166378
0.015356
0.0140452
0.012704
0.0115779
0.0597247
0.0570798
0.0545093
0.0520215
0.0496225
0.0473166
0.0451084
0.0430028
0.0410044
0.0391178
0.0373489
0.035704
0.034188
0.0328018
0.0315478
0.0304318
0.0294611
0.0286448
0.0279893
0.027499
0.0271785
0.0270273
0.0270462
0.0272315
0.0629793
0.0607735
0.0586382
0.0565781
0.0545958
0.052695
0.0508782
0.0491487
0.0475104
0.0459659
0.04452
0.0431764
0.0419401
0.0408156
0.039808
0.0389228
0.0381654
0.0375412
0.0370542
0.0367061
0.0364994
0.0364322
0.0364998
0.0366945
0.0658891
0.0640411
0.0622561
0.0605356
0.0588816
0.0572955
0.0557796
0.0543363
0.0529687
0.051679
0.0504712
0.0493487
0.048316
0.0473771
0.0465372
0.0458004
0.045172
0.0446565
0.0442573
0.0439767
0.0438159
0.043775
0.0438506
0.0440381
0.0684835
0.0669232
0.0654192
0.0639692
0.062573
0.061232
0.0599476
0.0587217
0.0575574
0.0564568
0.0554233
0.0544605
0.0535724
0.0527636
0.0520378
0.0514007
0.0508569
0.0504104
0.0500656
0.0498249
0.0496907
0.0496635
0.0497413
0.0499217
0.0707781
0.0694578
0.0681817
0.0669475
0.0657553
0.0646059
0.0635007
0.0624424
0.0614332
0.0604755
0.0595727
0.0587283
0.0579464
0.0572315
0.056588
0.0560209
0.0555354
0.0551362
0.0548275
0.0546128
0.0544949
0.0544752
0.054553
0.0547267
0.072812
0.0716865
0.0705941
0.0695336
0.0685042
0.0675061
0.0665416
0.0656133
0.0647245
0.0638772
0.0630747
0.0623204
0.0616187
0.0609742
0.0603916
0.0598765
0.0594339
0.0590682
0.0587848
0.0585878
0.058481
0.0584658
0.0585428
0.0587109
0.0746135
0.0736475
0.0727033
0.0717833
0.0708852
0.0700089
0.0691559
0.0683296
0.0675352
0.0667749
0.0660514
0.0653674
0.0647279
0.0641384
0.0636025
0.0631267
0.0627169
0.062377
0.0621113
0.061927
0.0618274
0.0618151
0.0618911
0.0620546
0.0762081
0.0753766
0.0745497
0.0737438
0.0729543
0.0721772
0.0714156
0.0706679
0.0699477
0.0692571
0.0685978
0.0679707
0.067379
0.0668354
0.0663364
0.0658905
0.0655056
0.0651892
0.064935
0.0647594
0.0646642
0.0646531
0.0647283
0.064889
0.0776374
0.0769172
0.0761684
0.075454
0.0747584
0.0740597
0.073382
0.072689
0.0720235
0.0713863
0.0707777
0.0702052
0.069648
0.0691511
0.0686803
0.06826
0.0678852
0.0676004
0.067352
0.0671837
0.0670896
0.0670769
0.0671507
0.0673106
0.0125608
0.0148745
0.0163781
0.0178173
0.0193779
0.0211074
0.0230058
0.025058
0.0272476
0.0295604
0.0319849
0.0345117
0.0371331
0.0398428
0.0426345
0.0455021
0.0484393
0.0514397
0.0544964
0.0576016
0.0607475
0.0639259
0.0671281
0.0703612
0.0275657
0.0280609
0.0287427
0.0296149
0.0306749
0.0319151
0.033325
0.0348922
0.0366017
0.0384408
0.0403972
0.0424588
0.0446154
0.0468582
0.0491792
0.0515711
0.0540278
0.0565431
0.0591112
0.0617266
0.0643833
0.0670756
0.0697983
0.0725617
0.0370045
0.0374403
0.0380201
0.0387474
0.0396207
0.0406359
0.0417881
0.0430691
0.0444693
0.0459796
0.0475916
0.0492963
0.0510852
0.0529513
0.0548876
0.056888
0.0589474
0.0610606
0.0632227
0.0654297
0.0676767
0.0699597
0.0722755
0.0746371
0.0443299
0.0447323
0.0452558
0.0459015
0.0466684
0.0475525
0.0485496
0.0496531
0.0508551
0.0521486
0.0535266
0.0549814
0.0565066
0.0580965
0.0597453
0.0614477
0.0631995
0.0649967
0.0668353
0.0687125
0.070625
0.0725696
0.0745439
0.076556
0.0501997
0.0505788
0.0510648
0.0516574
0.0523548
0.0531527
0.0540459
0.0550281
0.056093
0.0572341
0.0584448
0.0597185
0.0610499
0.0624338
0.0638652
0.0653401
0.0668541
0.0684038
0.0699866
0.0715998
0.0732416
0.0749102
0.0766039
0.0783295
0.0549932
0.0553542
0.0558126
0.0563669
0.0570144
0.0577503
0.0585687
0.0594633
0.0604281
0.0614569
0.0625434
0.0636819
0.0648676
0.0660956
0.0673615
0.068661
0.0699903
0.0713461
0.072726
0.0741283
0.0755517
0.0769954
0.078459
0.0799502
0.058968
0.0593144
0.0597514
0.0602768
0.0608869
0.0615761
0.0623378
0.0631658
0.064054
0.0649963
0.0659874
0.0670218
0.0680952
0.0692029
0.0703405
0.0715035
0.0726873
0.0738892
0.075107
0.0763394
0.0775859
0.0788456
0.0801187
0.0814122
0.062304
0.0626386
0.0630581
0.0635607
0.0641423
0.0647959
0.0655138
0.0662884
0.0671148
0.0679883
0.0689043
0.0698562
0.0708406
0.0718541
0.0728914
0.0739465
0.0750146
0.0760927
0.0771792
0.0782738
0.0793758
0.0804843
0.081599
0.0827244
0.0651317
0.0654569
0.065861
0.0663446
0.0669049
0.0675318
0.0682152
0.0689445
0.0697192
0.0705362
0.0713944
0.0722766
0.0731891
0.0741289
0.0750884
0.0760569
0.0770313
0.0780076
0.0789863
0.0799683
0.0809526
0.081936
0.0829198
0.0839029
0.0675449
0.0678639
0.0682519
0.0687187
0.0692648
0.0698667
0.0705209
0.0712115
0.0719477
0.0727185
0.0735396
0.0743488
0.0752046
0.0760908
0.0769919
0.0778868
0.0787879
0.0796757
0.080565
0.0814568
0.0823488
0.083226
0.0841066
0.0849618
0.0691583
0.063007
0.0573991
0.0523073
0.0476932
0.0434934
0.0396477
0.0361063
0.0328271
0.0297764
0.0269288
0.0242638
0.0217687
0.0194359
0.0172584
0.0152286
0.0133414
0.0116068
0.010067
0.00881411
0.0077265
0.00659926
0.00534228
0.00384289
0.0702606
0.0647679
0.0597892
0.0552883
0.0512135
0.0475058
0.0441147
0.0409978
0.0381186
0.035448
0.0329604
0.0306334
0.0284536
0.0264334
0.024596
0.0229067
0.0212816
0.0196534
0.0179807
0.0162444
0.014422
0.0124729
0.0103443
0.00796648
0.0713715
0.066545
0.0621714
0.0582268
0.0546599
0.0514249
0.0484828
0.0458012
0.0433511
0.0411092
0.0390623
0.037183
0.0353935
0.0336304
0.0318626
0.0300696
0.0282307
0.0263203
0.0243111
0.0221722
0.0198717
0.0173757
0.0146465
0.0116479
0.072555
0.0683163
0.0644967
0.0610524
0.0579442
0.0551393
0.0526109
0.050335
0.0482944
0.0464561
0.0447177
0.0430047
0.0412769
0.039507
0.0376754
0.035764
0.0337536
0.0316235
0.0293502
0.0269043
0.0242547
0.0213664
0.0182064
0.0147432
0.0737186
0.0700444
0.0667195
0.063716
0.0610108
0.0585832
0.0564163
0.0544979
0.0527796
0.0511413
0.0495103
0.0478453
0.0461205
0.044317
0.0424171
0.0404036
0.0382572
0.0359573
0.0334782
0.0307915
0.0278659
0.0246672
0.0211606
0.0173129
0.0749256
0.0717221
0.068818
0.0661931
0.0638331
0.0617268
0.0598674
0.058223
0.0566689
0.0551227
0.05354
0.0518924
0.0501593
0.0483227
0.0463651
0.0442687
0.0420134
0.0395762
0.0369307
0.0340478
0.0308948
0.0274364
0.023635
0.0194569
0.0761089
0.0733175
0.0707751
0.0684726
0.066404
0.0645667
0.0629556
0.0614685
0.0600041
0.0585102
0.0569549
0.0553152
0.0535724
0.0517074
0.0497028
0.047539
0.0451937
0.0426436
0.0398604
0.0368126
0.0334666
0.0297847
0.0257276
0.0212582
0.0772659
0.07482
0.0725845
0.0705546
0.0687304
0.0671151
0.0656703
0.0642774
0.0628706
0.061412
0.0598753
0.0582408
0.0564888
0.0546002
0.0525564
0.050336
0.0479166
0.0452725
0.0423729
0.0391845
0.0356723
0.0317957
0.0275128
0.0227839
0.0783677
0.0762203
0.0742463
0.0724463
0.0708281
0.0693852
0.0680437
0.0667123
0.0653462
0.0639145
0.0623931
0.0607627
0.0590038
0.0570944
0.0550165
0.0527477
0.0502655
0.0475439
0.0445485
0.0412372
0.0375829
0.0335347
0.0290481
0.0240829
0.0794146
0.0775176
0.0757661
0.0741547
0.0727216
0.0713955
0.0701233
0.0688304
0.0674935
0.0660843
0.0645769
0.0629518
0.0611916
0.0592607
0.0571521
0.0548386
0.0523004
0.0495157
0.0464561
0.0430272
0.0392536
0.0350556
0.0303834
0.0251929
0.00208887
0.000985852
0.00110015
0.00140224
0.00168753
0.0019692
0.00226057
0.00258164
0.00296285
0.00344648
0.00405892
0.00477803
0.00559873
0.00652353
0.00755775
0.00870856
0.00998334
0.0113893
0.0129351
0.0146307
0.0164867
0.0185146
0.0207257
0.0231229
0.00525752
0.00261573
0.00153871
0.00169747
0.00199511
0.0023081
0.00265352
0.00305597
0.00353987
0.00412568
0.00482152
0.00560467
0.0064741
0.00743325
0.00848712
0.00964102
0.0109002
0.0122713
0.0137615
0.0153797
0.0171345
0.0190353
0.0210908
0.0233098
0.00831313
0.0047381
0.00229524
0.0019961
0.00230288
0.00267134
0.00309497
0.00359135
0.00417128
0.00484366
0.00560735
0.00644451
0.00735564
0.00834361
0.00941202
0.0105646
0.0118055
0.0131403
0.0145749
0.0161166
0.0177724
0.0195496
0.0214555
0.0234979
0.0109131
0.00673403
0.00326024
0.00232146
0.00261399
0.0030519
0.00356024
0.00414402
0.00480505
0.00555295
0.00637322
0.00725607
0.00820207
0.00921328
0.0102917
0.0114399
0.0126614
0.0139606
0.0153422
0.0168116
0.0183744
0.0200362
0.0218012
0.0236697
0.0130667
0.00842279
0.00424189
0.00267847
0.0029299
0.00344082
0.00403009
0.00469158
0.00542366
0.00623387
0.00710257
0.00802444
0.00899994
0.0100298
0.0111151
0.0122573
0.0134594
0.0147245
0.0160563
0.0174587
0.0189355
0.0204912
0.0221302
0.0238633
0.0148475
0.0098138
0.00512954
0.00305179
0.00324756
0.00382857
0.00449103
0.00522007
0.00601534
0.00687733
0.00778807
0.00874407
0.00974483
0.0107899
0.0118796
0.0130152
0.0141984
0.0154315
0.016717
0.0180575
0.019456
0.0209161
0.0224428
0.0240446
0.0163282
0.0109571
0.00589118
0.00342146
0.00356155
0.00420618
0.00493282
0.00572018
0.00657328
0.00748017
0.00842794
0.00941363
0.0104357
0.0114931
0.012586
0.0137146
0.0148798
0.016083
0.0173259
0.01861
0.0199377
0.0213118
0.0227373
0.0242219
0.017568
0.0119021
0.00653158
0.00377239
0.00386857
0.00456956
0.00535266
0.00619275
0.00709521
0.00804107
0.00902134
0.0100329
0.0110734
0.0121415
0.0132363
0.0143579
0.0155062
0.016682
0.0178859
0.0191188
0.0203821
0.0216783
0.0230103
0.0243796
0.0186049
0.0126789
0.00707468
0.00410588
0.00415228
0.00490179
0.00573786
0.00662802
0.0075743
0.00855645
0.00956765
0.0106039
0.0116619
0.0127398
0.0138355
0.0149493
0.0160818
0.0172327
0.0184009
0.0195868
0.0207905
0.0220144
0.0232607
0.0245303
0.0194422
0.0132162
0.00734714
0.00431311
0.00447695
0.00529957
0.00617647
0.00710804
0.00808968
0.00910568
0.0101448
0.011197
0.0122602
0.0133303
0.0144057
0.0155016
0.0166202
0.0177498
0.018881
0.0200189
0.0211571
0.0223086
0.0234791
0.0246783
0.000493064
0.00167573
0.00346644
0.00552664
0.007577
0.00959189
0.0115688
0.0135101
0.0154172
0.017291
0.0191317
0.0209415
0.0227431
0.0245958
0.0265512
0.0286148
0.0307349
0.0331558
0.0359182
0.0389399
0.0421537
0.0455152
0.048991
0.0525491
0.000371706
0.00102917
0.00239681
0.00412945
0.0058351
0.00750955
0.00918547
0.0108872
0.0126209
0.0143832
0.0161693
0.0179748
0.0198012
0.0216615
0.0235808
0.0255817
0.027678
0.029967
0.0325033
0.0352063
0.0383077
0.0417355
0.0453797
0.0491611
0.000218177
0.000654759
0.00155669
0.00279991
0.00440825
0.00634974
0.00823648
0.0100319
0.0117611
0.0134489
0.0151147
0.0167755
0.0184474
0.0201476
0.0218983
0.0237275
0.0256696
0.0277755
0.0300966
0.0326424
0.0354958
0.0385851
0.042118
0.04597
0.000233054
0.000547593
0.00128692
0.00230449
0.0036324
0.00530844
0.00726166
0.00922397
0.0111306
0.012971
0.0147415
0.0164435
0.0180866
0.01969
0.0212832
0.022906
0.0246091
0.0264503
0.0284929
0.0307905
0.0333911
0.0362894
0.0395466
0.0431405
0.000207102
0.000479921
0.00112035
0.00200749
0.00316094
0.0046123
0.00639815
0.00842438
0.0104652
0.0124573
0.0143864
0.0162413
0.01801
0.0196869
0.0212796
0.0228147
0.0243411
0.0259281
0.0276603
0.0296272
0.0319041
0.0345356
0.0375509
0.040949
0.000202782
0.000440469
0.00101976
0.00182282
0.00286429
0.00417301
0.0057846
0.00772144
0.00981566
0.0119163
0.013977
0.0159794
0.0179059
0.0197357
0.0214522
0.0230513
0.0245521
0.0260055
0.0274962
0.0291357
0.031042
0.0333146
0.036014
0.0391443
0.000194177
0.000409316
0.00094314
0.00168637
0.0026486
0.00385555
0.00533956
0.0071371
0.00921501
0.0113858
0.0135506
0.0156748
0.0177388
0.0197209
0.0215953
0.0233379
0.0249362
0.0264034
0.0277921
0.0292019
0.0307708
0.0326482
0.0349563
0.0377575
0.00018992
0.000387769
0.00088829
0.00158639
0.00248916
0.00362004
0.00500901
0.0066915
0.0086899
0.0108823
0.0131224
0.0153467
0.0175278
0.0196436
0.0216676
0.0235688
0.0253178
0.0268972
0.0283179
0.0296387
0.0309781
0.0325039
0.0343954
0.0367938
0.0001858
0.000370715
0.000845775
0.00150675
0.00236295
0.00343442
0.00474895
0.00633988
0.00824202
0.0104153
0.0127035
0.0150092
0.0172903
0.0195219
0.0216784
0.0237283
0.025636
0.0273679
0.0289041
0.0302588
0.0315044
0.0327857
0.0343058
0.0362849
0.000182797
0.000357068
0.00081158
0.00144268
0.00226136
0.00328493
0.00453951
0.00605664
0.00787239
0.0099942
0.0123018
0.0146699
0.0170359
0.0193684
0.0216418
0.0238255
0.025883
0.0277741
0.0294618
0.0309275
0.0321953
0.0333613
0.0346088
0.0361932
0.000180265
0.000345683
0.000783019
0.00138933
0.00217702
0.0031611
0.00436628
0.00582258
0.0075651
0.00962093
0.0119227
0.0143345
0.0167719
0.0191928
0.0215694
0.0238728
0.026067
0.0281102
0.0299575
0.0315707
0.0329373
0.0341011
0.035197
0.0364707
0.000178379
0.00033638
0.000759006
0.00134443
0.00210603
0.00305688
0.00422054
0.00562569
0.00730618
0.00929564
0.0115709
0.0140079
0.0165034
0.0190015
0.0214701
0.0238804
0.0261984
0.0283825
0.0303849
0.0321572
0.0336634
0.0349049
0.0359599
0.0370255
0.000177072
0.000329143
0.000738502
0.00130605
0.00204542
0.00296799
0.00409631
0.00545788
0.00708536
0.00901411
0.0112494
0.0136946
0.016235
0.0188001
0.0213507
0.0238573
0.0262871
0.0286002
0.0307484
0.0326785
0.034341
0.0357078
0.0368069
0.037771
0.000176418
0.000324203
0.000720926
0.00127309
0.00199335
0.00289165
0.00398956
0.00531364
0.00689545
0.00877043
0.0109594
0.0133986
0.0159712
0.0185935
0.0212174
0.0238107
0.0263419
0.0287727
0.0310559
0.033137
0.0349589
0.0364748
0.0376748
0.0386329
0.000176347
0.000321375
0.000705796
0.00124461
0.0019484
0.00282569
0.00389728
0.00518889
0.00673111
0.00855885
0.0107009
0.013123
0.0157161
0.0183862
0.0210755
0.0237475
0.0263707
0.0289089
0.0313165
0.033539
0.0355163
0.03719
0.0385234
0.03954
0.000176699
0.000320017
0.000692784
0.00121998
0.00190951
0.0027686
0.00381735
0.00508075
0.00658848
0.00837477
0.0104724
0.0128698
0.0154735
0.0181826
0.0209298
0.0236735
0.0263809
0.0290173
0.0315391
0.0338932
0.0360182
0.0378494
0.0393322
0.0404506
0.000177335
0.000319521
0.000681623
0.00119868
0.00187584
0.00271913
0.00374801
0.00498686
0.00646452
0.00821445
0.0102713
0.0126399
0.0152458
0.0179861
0.0207847
0.0235938
0.0263788
0.0291054
0.0317325
0.0342084
0.0364722
0.038456
0.0400938
0.0413419
0.000178137
0.000319479
0.000672033
0.00118023
0.00184658
0.00267619
0.00368776
0.00490512
0.00635653
0.00807458
0.0100947
0.012433
0.0150346
0.0177991
0.0206433
0.0235126
0.0263694
0.0291797
0.0319039
0.0344927
0.0368862
0.0390153
0.0408071
0.0421991
0.000179036
0.000319722
0.000663867
0.00116437
0.00182123
0.00263879
0.00363526
0.00483382
0.00626218
0.00795224
0.00993953
0.0122477
0.0148401
0.0176229
0.0205075
0.0234323
0.0263563
0.0292447
0.0320595
0.0347532
0.0372676
0.0395339
0.0414752
0.0430167
0.000179998
0.000320121
0.000656986
0.00115095
0.00179917
0.00260613
0.00358931
0.00477142
0.00617945
0.00784481
0.00980285
0.012082
0.014662
0.0174579
0.020378
0.0233546
0.0263417
0.0293038
0.0322035
0.0349953
0.037623
0.0400186
0.042104
0.0437978
0.000181005
0.000320564
0.000651055
0.00113935
0.00177979
0.00257747
0.00354895
0.00471647
0.0061066
0.00775007
0.00968199
0.011934
0.014499
0.0173037
0.0202551
0.0232796
0.0263266
0.0293584
0.0323383
0.0352225
0.0379565
0.0404739
0.0426961
0.0445359
0.00018204
0.000321029
0.000645935
0.00112926
0.00176286
0.00255229
0.00351348
0.00466809
0.00604224
0.00766622
0.00957469
0.0118013
0.0143499
0.0171596
0.0201381
0.0232071
0.0263109
0.0294092
0.0324652
0.0354365
0.0382704
0.0409018
0.043252
0.0452301
0.000183077
0.000321484
0.000641442
0.00112038
0.00174793
0.00253007
0.00348207
0.00462525
0.00598517
0.00759171
0.00947914
0.0116823
0.0142136
0.0170248
0.0200267
0.0231367
0.0262942
0.0294558
0.032584
0.0356375
0.0385651
0.041303
0.0437723
0.045877
0.000184103
0.000321929
0.000637507
0.00111257
0.00173477
0.00251042
0.00345424
0.00458719
0.00593443
0.00752536
0.00939382
0.0115754
0.0140892
0.0168991
0.0199207
0.0230685
0.0262769
0.029499
0.0326963
0.035828
0.0388446
0.0416841
0.0442701
0.0465128
0.00018511
0.000322346
0.000634034
0.00110563
0.00172304
0.00249293
0.00342948
0.00455329
0.00588915
0.00746607
0.00931746
0.0114793
0.0139757
0.0167821
0.0198204
0.0230029
0.0262595
0.0295397
0.0328032
0.0360097
0.0391112
0.0420475
0.0447444
0.047113
0.000186102
0.000322736
0.000630982
0.00109948
0.00171259
0.00247732
0.00340737
0.004523
0.00584865
0.00741294
0.00924891
0.0113927
0.0138723
0.0166736
0.0197257
0.0229402
0.0262428
0.0295788
0.0329062
0.0361845
0.039367
0.0423953
0.0451967
0.0476831
0.000187054
0.000323083
0.00062824
0.00109395
0.00170317
0.00246329
0.00338748
0.00449572
0.00581216
0.00736506
0.00918707
0.0113144
0.0137779
0.0165728
0.0196364
0.0228805
0.026227
0.0296171
0.0330063
0.0363541
0.0396143
0.0427304
0.0456313
0.0482299
0.000187968
0.000323382
0.000625739
0.0010889
0.00169461
0.0024505
0.00336933
0.00447087
0.00577896
0.00732153
0.00913082
0.011243
0.0136912
0.0164787
0.0195517
0.0228233
0.0262118
0.0296546
0.0331044
0.0365197
0.0398555
0.0430562
0.0460527
0.0487595
0.00018883
0.000323627
0.000623429
0.00108425
0.00168669
0.00243869
0.00335262
0.00444797
0.00574836
0.00728142
0.00907904
0.0111772
0.0136108
0.0163901
0.0194704
0.0227674
0.0261964
0.0296906
0.0331999
0.0366817
0.0400914
0.0433748
0.0464644
0.0492764
0.000189652
0.000323806
0.000621268
0.00107989
0.00167928
0.00242765
0.00333701
0.0044266
0.00571982
0.00724401
0.00903078
0.0111159
0.0135354
0.0163056
0.0193912
0.0227113
0.026179
0.0297235
0.0332914
0.0368389
0.0403214
0.0436862
0.0468675
0.049783
0.000190424
0.000323939
0.000619228
0.00107577
0.00167227
0.0024172
0.00332226
0.00440642
0.00569286
0.00720869
0.0089852
0.011058
0.0134639
0.0162242
0.0193127
0.0226534
0.0261578
0.0297509
0.0333762
0.036988
0.0405418
0.043986
0.0472563
0.0502718
0.000191125
0.000324018
0.00061724
0.00107178
0.00166551
0.00240716
0.00330807
0.00438707
0.00566709
0.00717497
0.00894173
0.0110027
0.0133953
0.016145
0.0192343
0.0225928
0.0261312
0.029771
0.0334517
0.0371259
0.0407488
0.0442694
0.047625
0.0507386
0.00019177
0.000324045
0.000615278
0.00106787
0.00165892
0.00239739
0.00329429
0.00436831
0.00564217
0.00714246
0.00889986
0.0109495
0.0133291
0.0160675
0.0191555
0.022529
0.0260988
0.0297829
0.0335172
0.0372519
0.0409413
0.0445349
0.0479706
0.0511696
0.00019235
0.000324024
0.000613322
0.001064
0.0016524
0.00238775
0.00328076
0.00434992
0.00561779
0.00711071
0.00885915
0.0108979
0.0132648
0.0159916
0.0190763
0.022462
0.0260605
0.0297867
0.0335728
0.0373661
0.0411201
0.0447841
0.0482966
0.0515797
0.000192872
0.000323961
0.000611372
0.00106014
0.00164594
0.0023782
0.00326736
0.00433175
0.00559373
0.00707948
0.00881915
0.0108473
0.0132019
0.0159167
0.0189965
0.0223919
0.0260166
0.0297828
0.0336189
0.0374694
0.0412864
0.0450193
0.0486073
0.0519738
0.000193336
0.000323862
0.000609423
0.0010563
0.0016395
0.00236868
0.00325402
0.00431366
0.00556983
0.00704847
0.00877954
0.0107973
0.0131398
0.0158424
0.0189158
0.0223185
0.0259668
0.0297709
0.0336557
0.0375625
0.0414419
0.0452435
0.0489073
0.0523588
0.000193744
0.000323744
0.000607481
0.00105246
0.00163307
0.00235917
0.00324067
0.0042956
0.00554598
0.00701756
0.00874007
0.0107476
0.013078
0.015768
0.0188335
0.0222409
0.0259103
0.0297503
0.0336823
0.0376445
0.0415861
0.0454562
0.0491958
0.0527321
0.0001941
0.000323615
0.000605552
0.00104866
0.0016267
0.00234974
0.00322741
0.0042776
0.00552217
0.00698671
0.0087007
0.0106979
0.0130162
0.0156933
0.0187494
0.0221587
0.0258461
0.0297194
0.0336968
0.0377134
0.0417163
0.0456546
0.0494699
0.0530901
0.00019441
0.000323487
0.000603652
0.00104491
0.00162043
0.00234043
0.00321432
0.0042598
0.0054986
0.00695608
0.00866154
0.0106485
0.0129546
0.0156183
0.0186635
0.0220719
0.0257738
0.0296772
0.0336974
0.0377662
0.0418288
0.0458338
0.0497235
0.0534271
0.000194682
0.00032337
0.000601792
0.00104125
0.0016143
0.00233133
0.00320151
0.00424237
0.00547548
0.006926
0.00862301
0.0105998
0.0128938
0.0155438
0.018577
0.0219818
0.0256944
0.0296241
0.0336835
0.0378015
0.0419208
0.0459892
0.0499491
0.0537306
0.000194923
0.000323266
0.000599982
0.00103769
0.00160836
0.00232252
0.00318909
0.00422548
0.00545305
0.00689679
0.00858554
0.0105523
0.0128344
0.0154708
0.0184912
0.0218901
0.0256101
0.0295621
0.033657
0.0378205
0.0419929
0.0461206
0.0501457
0.0539972
0.00019514
0.00032318
0.000598236
0.00103427
0.00160265
0.00231406
0.00317719
0.00420926
0.00543152
0.00686877
0.00854959
0.0105068
0.0127773
0.0154004
0.0184078
0.0217994
0.025524
0.029495
0.0336218
0.0378274
0.0420496
0.0462332
0.0503198
0.0542375
0.000195336
0.000323106
0.000596559
0.00103099
0.00159719
0.002306
0.00316584
0.00419385
0.00541107
0.00684214
0.00851543
0.0104635
0.012723
0.0153335
0.0183281
0.0217116
0.0254389
0.0294263
0.0335824
0.0378276
0.0420974
0.0463361
0.0504864
0.0544827
0.000195516
0.000323041
0.000594955
0.00102786
0.001592
0.00229835
0.00315511
0.00417927
0.00539176
0.00681702
0.00848325
0.0104227
0.012672
0.0152705
0.0182528
0.0216281
0.0253568
0.0293587
0.0335419
0.0378245
0.0421397
0.0464303
0.0506384
0.054695
0.000195691
0.000322973
0.000593424
0.00102489
0.00158709
0.0022911
0.00314498
0.00416555
0.00537361
0.00679345
0.00845308
0.0103845
0.0126242
0.0152115
0.0181823
0.0215494
0.0252791
0.0292943
0.0335032
0.0378219
0.0421814
0.0465234
0.0507904
0.0549191
0.000195858
0.000322906
0.000591959
0.00102206
0.00158242
0.00228425
0.0031354
0.00415261
0.00535654
0.00677134
0.00842482
0.0103489
0.0125796
0.0151565
0.0181165
0.0214757
0.0252059
0.0292336
0.0334673
0.0378213
0.0422244
0.0466168
0.0509403
0.0551275
0.000196
0.000322834
0.000590537
0.00101933
0.00157796
0.00227772
0.00312631
0.00414036
0.00534042
0.0067505
0.00839827
0.0103154
0.0125379
0.0151051
0.018055
0.0214067
0.0251371
0.0291768
0.0334346
0.0378231
0.0422695
0.0467127
0.0510953
0.0553541
0.000196133
0.000322741
0.000589168
0.00101671
0.00157367
0.00227146
0.00311762
0.00412868
0.0053251
0.00673076
0.00837318
0.0102839
0.0124986
0.0150569
0.0179972
0.0213417
0.0250723
0.0291233
0.0334043
0.0378267
0.0423153
0.0468082
0.0512484
0.0555753
0.000196279
0.000322633
0.000587869
0.00101421
0.00156956
0.00226544
0.00310926
0.00411746
0.00531039
0.00671187
0.00834924
0.0102539
0.0124614
0.0150113
0.0179426
0.0212803
0.0250109
0.0290727
0.0333763
0.0378314
0.0423608
0.0469009
0.0513942
0.0557805
0.000196412
0.0003225
0.000586605
0.00101177
0.00156555
0.0022596
0.00310114
0.00410656
0.00529614
0.00669357
0.00832611
0.010225
0.0124256
0.0149675
0.0178904
0.0212215
0.024952
0.0290244
0.0333501
0.0378376
0.0424074
0.0469937
0.0515374
0.0559757
0.000196511
0.000322362
0.000585366
0.00100941
0.00156168
0.00225391
0.00309321
0.00409591
0.00528219
0.00667567
0.0083035
0.0101968
0.0123908
0.014925
0.0178397
0.0211643
0.0248945
0.0289771
0.0333248
0.0378448
0.0424552
0.0470887
0.051685
0.0561812
0.000196599
0.000322195
0.000584177
0.00100712
0.00155792
0.00224837
0.00308547
0.00408547
0.00526849
0.00665805
0.00828119
0.0101689
0.0123564
0.0148831
0.0177896
0.0211075
0.024837
0.0289292
0.0332986
0.0378512
0.0425028
0.047184
0.0518339
0.0563904
0.000196703
0.000322008
0.000583073
0.00100497
0.00155432
0.00224301
0.00307795
0.00407526
0.00525504
0.0066407
0.00825912
0.0101412
0.0123222
0.0148412
0.0177394
0.0210502
0.024778
0.0288789
0.0332691
0.0378539
0.042547
0.0472766
0.0519811
0.0565987
0.000196794
0.000321818
0.000582029
0.00100294
0.00155086
0.00223784
0.00307067
0.00406534
0.00524186
0.00662363
0.00823737
0.0101138
0.0122881
0.0147994
0.017689
0.020992
0.0247169
0.0288246
0.0332343
0.0378503
0.0425845
0.0473627
0.0521224
0.0568032
0.000196847
0.000321645
0.000581025
0.00100098
0.00154758
0.00223294
0.00306371
0.0040558
0.00522914
0.00660703
0.00821607
0.0100869
0.0122544
0.0147578
0.0176384
0.0209329
0.0246534
0.028766
0.0331929
0.0378382
0.0426115
0.0474365
0.0522483
0.0569835
0.000196876
0.000321481
0.000580056
0.000999103
0.00154447
0.00222826
0.00305703
0.00404664
0.00521692
0.00659104
0.00819547
0.0100607
0.0122216
0.0147169
0.0175885
0.0208738
0.0245886
0.028704
0.0331456
0.0378177
0.0426281
0.047498
0.0523606
0.0571514
0.000196896
0.000321314
0.00057914
0.000997319
0.00154154
0.00222384
0.00305073
0.00403796
0.00520529
0.00657578
0.00817577
0.0100356
0.0121898
0.0146775
0.0175399
0.020816
0.0245242
0.0286406
0.0330944
0.0377908
0.0426359
0.0475488
0.0524612
0.057309
0.000196928
0.00032116
0.000578334
0.00099573
0.00153883
0.00221974
0.00304487
0.00402986
0.00519438
0.00656141
0.00815716
0.0100118
0.0121598
0.0146397
0.0174935
0.0207604
0.0244616
0.0285777
0.0330419
0.0377603
0.0426377
0.0475912
0.0525511
0.0574541
0.00019695
0.000320999
0.000577582
0.000994252
0.00153632
0.00221596
0.00303945
0.00402234
0.00518423
0.00654801
0.00813974
0.0099895
0.0121315
0.0146043
0.0174497
0.0207076
0.0244019
0.0285171
0.0329903
0.0377289
0.0426365
0.0476282
0.0526318
0.0575795
0.000196952
0.000320854
0.000576877
0.000992881
0.00153402
0.00221248
0.00303443
0.00401541
0.00517489
0.00653564
0.00812362
0.00996878
0.0121052
0.0145711
0.0174087
0.0206582
0.0243456
0.0284597
0.0329412
0.0376989
0.0426359
0.0476657
0.0527152
0.0577207
0.000196941
0.000320708
0.000576226
0.000991627
0.00153193
0.0022093
0.00302984
0.00400903
0.00516629
0.00652427
0.00810881
0.0099497
0.0120809
0.0145405
0.0173706
0.0206122
0.024293
0.0284057
0.0328947
0.0376706
0.0426357
0.0477017
0.0527938
0.0578454
0.000196934
0.000320551
0.000575632
0.000990484
0.00153001
0.00220638
0.00302565
0.00400323
0.00515844
0.00651387
0.00809528
0.00993226
0.0120587
0.0145125
0.0173356
0.0205697
0.0242443
0.0283555
0.0328515
0.0376446
0.0426365
0.0477371
0.0528701
0.0579678
0.000196931
0.000320393
0.00057511
0.000989472
0.00152829
0.00220374
0.00302186
0.00399795
0.00515129
0.00650438
0.0080829
0.00991634
0.0120384
0.0144868
0.0173037
0.0205309
0.0241998
0.0283097
0.0328126
0.0376221
0.0426398
0.0477738
0.0529459
0.0580872
0.000196908
0.000320232
0.000574623
0.000988538
0.00152671
0.00220135
0.0030184
0.00399314
0.00514477
0.00649571
0.00807158
0.00990179
0.0120198
0.0144634
0.0172745
0.0204955
0.0241593
0.0282685
0.0327784
0.0376045
0.0426478
0.0478148
0.0530251
0.0582066
0.000196867
0.000320062
0.000574156
0.000987664
0.00152526
0.00219913
0.00301517
0.00398865
0.00513872
0.00648772
0.00806115
0.00988835
0.0120027
0.0144418
0.0172477
0.0204631
0.0241223
0.0282312
0.0327486
0.0375919
0.0426616
0.0478632
0.0531159
0.058352
0.000196821
0.000319876
0.00057372
0.000986857
0.00152391
0.00219705
0.00301217
0.00398448
0.00513307
0.00648026
0.00805145
0.00987584
0.0119868
0.0144218
0.0172227
0.0204328
0.0240878
0.0281967
0.0327218
0.0375823
0.0426785
0.0479142
0.0532064
0.0584835
0.000196785
0.000319693
0.000573338
0.000986134
0.00152267
0.00219512
0.00300937
0.00398056
0.00512775
0.00647319
0.00804224
0.00986402
0.0119717
0.0144028
0.0171991
0.0204042
0.0240553
0.0281641
0.0326968
0.0375745
0.0426969
0.0479664
0.0532974
0.0586165
0.000196734
0.000319506
0.000572976
0.000985441
0.00152149
0.00219329
0.00300671
0.00397683
0.00512266
0.00646642
0.00803341
0.00985269
0.0119573
0.0143847
0.0171765
0.0203768
0.024024
0.0281329
0.0326731
0.0375679
0.0427168
0.0480202
0.0533908
0.0587532
0.000196651
0.000319306
0.00057263
0.000984793
0.00152038
0.00219157
0.00300415
0.00397321
0.00511774
0.00645982
0.00802482
0.00984163
0.0119433
0.014367
0.0171546
0.0203501
0.0239935
0.0281022
0.0326498
0.0375618
0.0427377
0.0480761
0.0534883
0.0588989
0.000196539
0.000319082
0.000572279
0.000984153
0.00151931
0.00218988
0.00300163
0.00396966
0.0051129
0.00645335
0.00801631
0.00983072
0.0119294
0.0143495
0.0171328
0.0203236
0.0239629
0.0280712
0.0326257
0.0375547
0.0427574
0.0481312
0.0535854
0.0590433
0.000196409
0.000318836
0.000571937
0.000983532
0.00151827
0.00218822
0.00299917
0.00396617
0.00510811
0.00644695
0.00800793
0.00981988
0.0119155
0.014332
0.0171109
0.020297
0.023932
0.0280392
0.0325999
0.0375449
0.0427739
0.0481825
0.0536782
0.0591827
0.000196252
0.000318602
0.000571616
0.000982951
0.00151726
0.0021866
0.00299677
0.00396275
0.00510338
0.0064406
0.00799956
0.00980904
0.0119016
0.0143144
0.0170889
0.02027
0.0239005
0.0280059
0.0325718
0.0375319
0.0427861
0.0482284
0.0537635
0.0593098
0.000196067
0.000318316
0.000571283
0.000982357
0.00151625
0.00218502
0.00299441
0.00395936
0.00509871
0.0064343
0.00799123
0.00979823
0.0118878
0.0142968
0.0170668
0.0202427
0.0238682
0.0279713
0.0325415
0.0375157
0.0427945
0.0482702
0.0538453
0.0594366
0.000195862
0.000318016
0.000570917
0.00098173
0.00151524
0.00218342
0.00299201
0.00395598
0.00509406
0.00642804
0.00798294
0.00978742
0.0118738
0.014279
0.0170445
0.020215
0.0238351
0.0279353
0.0325087
0.0374959
0.0427986
0.0483078
0.0539246
0.0595663
0.000195638
0.000317677
0.000570529
0.000981073
0.00151417
0.00218175
0.00298957
0.00395254
0.00508936
0.00642177
0.00797469
0.00977667
0.01186
0.0142614
0.0170221
0.0201872
0.0238016
0.0278979
0.0324732
0.0374717
0.0427965
0.0483374
0.0539928
0.0596759
0.00019541
0.000317346
0.000570131
0.00098039
0.00151307
0.00218004
0.00298707
0.00394904
0.0050846
0.00641543
0.00796641
0.00976596
0.0118463
0.0142439
0.017
0.0201597
0.0237682
0.0278601
0.032436
0.037444
0.0427886
0.0483588
0.0540507
0.0597736
0.000195149
0.000317005
0.000569699
0.000979661
0.00151189
0.00217822
0.00298446
0.00394541
0.0050797
0.00640894
0.00795798
0.00975513
0.0118325
0.0142264
0.0169781
0.0201324
0.0237353
0.0278227
0.0323988
0.0374152
0.0427779
0.0483756
0.0541039
0.0598772
0.000194843
0.000316612
0.000569219
0.000978855
0.00151061
0.0021763
0.0029817
0.00394161
0.00507459
0.00640224
0.00794931
0.00974407
0.0118185