/*--------------------------------*- C++ -*----------------------------------*\
| =========                 |                                                 |
| \\      /  F ield         | OpenFOAM: The Open Source CFD Toolbox           |
|  \\    /   O peration     | Version:  2.3.0                                 |
|   \\  /    A nd           | Web:      www.OpenFOAM.org                      |
|    \\/     M anipulation  |                                                 |
\*---------------------------------------------------------------------------*/
FoamFile
{
    version     2.0;
    format      ascii;
    class       volScalarField;
    location    "9000";
    object      p;
}
// * * * * * * * * * * * * * * * * * * * * * * * * * * * * * * * * * * * * * //

dimensions      [0 2 -2 0 0 0 0];

internalField   nonuniform List<scalar> 
14757
(
-0.0104769
-0.89137
-1.73939
-2.54868
-3.27844
-3.90614
-4.40846
-4.7745
-4.9863
-5.02469
-4.85118
-4.42244
-3.6518
-2.4239
-0.630029
1.90327
5.34761
9.77797
15.4494
23.1831
33.5718
43.8817
49.7098
64.2944
9.84066
10.0579
10.4586
10.9864
11.6688
12.5204
13.5714
14.8743
16.4907
18.5151
21.0448
24.1909
28.0725
32.8341
38.6253
45.5884
53.8742
63.5983
74.8597
87.7823
102.412
118.637
136.431
155.569
18.3735
19.1991
20.3184
21.6442
23.1897
24.9758
27.0175
29.3446
31.9705
34.9366
38.2688
42.0156
46.2138
50.9237
56.1895
62.0579
68.5757
75.7648
83.6227
92.1295
101.216
110.769
120.709
130.868
25.2612
26.7442
28.333
30.1148
32.1002
34.3148
36.7794
39.5344
42.6007
46.0191
49.8214
54.048
58.7302
63.901
69.5812
75.7917
82.528
89.7787
97.4999
105.624
114.056
122.649
131.246
139.64
31.3161
33.0966
34.8949
36.8961
39.0879
41.4825
44.1018
46.9622
50.0781
53.478
57.1808
61.2068
65.5813
70.3198
75.437
80.9444
86.8345
93.0954
99.6885
106.559
113.64
120.824
128.001
135.046
36.3843
38.3701
40.2669
42.3508
44.6079
47.055
49.7037
52.5738
55.6815
59.0469
62.6856
66.6148
70.8528
75.401
80.2743
85.4719
90.9795
96.7859
102.85
109.124
115.543
122.023
128.475
134.8
40.7752
42.8105
44.7016
46.7722
49.012
51.4261
54.0222
56.8217
59.8237
63.0589
66.5377
70.2741
74.2837
78.5628
83.1314
87.9778
93.0927
98.4594
104.06
109.832
115.727
121.673
127.594
133.414
44.3912
46.4287
48.3477
50.3751
52.5657
54.9187
57.4404
60.1772
63.0919
66.2326
69.5795
73.1355
76.9212
80.959
85.2825
89.8693
94.6889
99.7024
104.939
110.327
115.853
121.415
126.955
132.4
47.6527
49.5553
51.4417
53.3645
55.503
57.7752
60.187
62.7828
65.5178
68.526
71.7579
75.221
78.8778
82.7608
86.8467
91.1888
95.7516
100.545
105.556
110.656
115.885
121.139
126.399
131.592
52.2061
52.8
54.2245
55.876
57.9035
60.0397
62.2509
64.5551
66.8156
69.394
72.2382
75.6878
79.9598
83.9313
87.8021
91.9294
96.2551
100.625
106.316
111.307
116.214
121.145
126.259
131.428
122.654
153.688
172.593
186.375
197.445
206.471
213.728
219.436
223.798
227.003
229.177
230.455
230.939
230.719
229.884
228.523
226.716
224.543
222.087
219.413
216.565
213.561
210.649
208.404
173.206
186.841
197.697
206.469
213.478
218.886
222.86
225.573
227.203
227.92
227.886
227.257
226.168
224.736
223.059
221.21
219.242
217.186
215.06
212.869
210.599
208.233
205.959
204.258
140.976
150.782
160.007
168.446
176.007
182.668
188.431
193.331
197.419
200.754
203.396
205.411
206.86
207.799
208.282
208.36
208.078
207.481
206.609
205.499
204.175
202.648
201.118
200.062
147.703
155.374
162.566
169.18
175.138
180.414
184.998
188.908
192.178
194.854
196.985
198.625
199.829
200.646
201.125
201.309
201.233
200.929
200.424
199.736
198.875
197.844
196.793
196.125
141.899
148.527
154.853
160.781
166.239
171.185
175.602
179.486
182.853
185.727
188.136
190.119
191.709
192.943
193.855
194.477
194.839
194.966
194.883
194.61
194.161
193.542
192.868
192.507
140.938
146.859
152.506
157.807
162.71
167.179
171.201
174.768
177.892
180.588
182.884
184.81
186.395
187.67
188.666
189.41
189.928
190.241
190.368
190.329
190.137
189.8
189.413
189.296
139.073
144.534
149.745
154.644
159.19
163.361
167.147
170.525
173.512
176.114
178.364
180.28
181.887
183.214
184.29
185.141
185.784
186.238
186.519
186.645
186.633
186.487
186.279
186.276
137.71
142.832
147.723
152.304
156.556
160.482
164.091
167.303
170.185
172.693
174.878
176.739
178.312
179.636
180.739
181.647
182.357
182.89
183.262
183.489
183.608
183.615
183.56
183.779
136.646
141.51
146.141
150.461
154.513
158.277
161.793
164.801
167.595
169.979
172.054
173.823
175.339
176.659
177.787
178.749
179.499
180.076
180.497
180.786
181.009
181.121
181.135
181.491
136.335
140.979
145.241
149.21
153.043
156.819
160.44
163.036
165.558
167.397
169.525
171.3
172.808
174.222
175.388
176.406
177.18
177.772
178.229
178.572
178.893
179.025
178.805
179.382
-4.66816
-5.24942
-5.80199
-6.36899
-6.9315
-7.47314
-7.98158
-8.44521
-8.85415
-9.20033
-9.47788
-9.6827
-9.81162
-9.86045
-9.82079
-9.68248
-9.42478
-9.01662
-8.42959
-7.63412
-6.59726
-5.26835
-3.25023
1.30655
-3.44211
-3.98029
-4.56873
-5.12684
-5.65532
-6.15052
-6.60902
-7.02822
-7.40598
-7.7382
-8.01692
-8.23149
-8.36551
-8.4029
-8.32114
-8.08666
-7.65208
-6.94677
-5.87713
-4.31678
-2.09195
1.02819
5.20867
10.34
-1.90648
-2.57804
-3.22522
-3.84279
-4.44015
-5.01334
-5.5546
-6.05291
-6.49629
-6.87002
-7.15865
-7.34584
-7.40866
-7.3219
-7.0562
-6.5748
-5.83019
-4.75716
-3.26983
-1.26151
1.38509
4.76505
8.85792
13.422
-0.648229
-1.18972
-1.7848
-2.38585
-2.96022
-3.5012
-4.0016
-4.45046
-4.83491
-5.14006
-5.34947
-5.44632
-5.41279
-5.22474
-4.85104
-4.25129
-3.3775
-2.17317
-0.567943
1.51028
4.12178
7.27794
10.9091
14.8327
0.581377
0.186266
-0.367793
-0.932383
-1.46868
-1.97112
-2.43297
-2.84096
-3.17897
-3.43345
-3.58936
-3.63084
-3.53896
-3.286
-2.84095
-2.16684
-1.22023
0.0495785
1.69665
3.76827
6.29564
9.27787
12.6517
16.2497
1.99113
1.53332
1.01918
0.504091
0.0168508
-0.436299
-0.850609
-1.21203
-1.50604
-1.7168
-1.82896
-1.82683
-1.69348
-1.40393
-0.927504
-0.225673
0.745638
2.02996
3.66855
5.704
8.1521
11.0072
14.2088
17.6286
3.09911
2.79382
2.33305
1.87157
1.43781
1.03736
0.667643
0.345553
0.0850228
-0.0955456
-0.176978
-0.144506
0.0147108
0.322617
0.805423
1.51281
2.47971
3.75041
5.37483
7.38351
9.74797
12.489
15.554
18.8309
4.23179
3.98558
3.57559
3.16149
2.77136
2.42995
2.10453
1.81913
1.58169
1.4179
1.35651
1.41938
1.60234
1.92301
2.3857
3.06491
4.00689
5.26036
6.87627
8.93376
11.286
13.9818
16.9455
20.184
5.26357
5.09759
4.73272
4.3587
3.9921
3.73792
3.4601
3.19727
2.96487
2.79763
2.75909
2.89489
3.1037
3.43144
3.83263
4.45882
5.33435
6.50051
7.96495
10.0756
12.281
14.7941
17.5279
20.6882
6.17545
6.10262
5.78277
5.38346
5.11244
4.97134
4.81582
4.47075
4.04208
3.65437
3.49307
3.9536
4.50056
4.86407
5.07873
5.47551
6.42677
8.13833
10.7802
14.4447
16.6401
18.2557
20.7622
24.5703
11.0992
15.7628
18.7145
21.387
23.936
26.3284
28.5653
30.6609
32.6364
34.5187
36.3352
38.1165
39.887
41.6641
43.4581
45.2748
47.1163
48.9815
50.8687
52.777
54.7041
56.6324
58.5578
60.7271
16.0778
19.4175
21.1719
22.7526
24.4576
26.2848
28.1942
30.1482
32.1187
34.0854
36.0339
37.9557
39.8469
41.708
43.5417
45.3526
47.1463
48.9286
50.7034
52.4779
54.2567
56.0285
57.7903
59.6838
18.0016
21.9615
24.2168
25.7519
27.2558
28.8232
30.4522
32.126
33.8284
35.5478
37.2729
38.9966
40.7121
42.4159
44.1064
45.7835
47.4473
49.1001
50.7433
52.3807
54.0151
55.6441
57.2684
58.9327
18.7998
22.6014
25.1823
26.8699
28.458
30.0562
31.6729
33.2966
34.9194
36.5376
38.1473
39.7473
41.3367
42.9164
44.486
46.0469
47.6
49.1466
50.6873
52.2247
53.7597
55.2911
56.8285
58.4213
19.8827
23.3705
26.0128
27.7528
29.3539
30.9488
32.5517
34.1508
35.739
37.3135
38.8716
40.4124
41.9361
43.4429
44.9339
46.4106
47.875
49.3282
50.7719
52.2089
53.6402
55.0612
56.4835
57.9573
21.0766
24.3634
27.0125
28.8055
30.4054
31.9787
33.5478
35.1057
36.6479
38.1717
39.6753
41.1576
42.6187
44.0587
45.4784
46.8791
48.2617
49.6279
50.9794
52.3189
53.6477
54.9589
56.264
57.6334
22.1341
25.3044
27.9488
29.8032
31.4136
32.9736
34.5151
36.0369
37.5374
39.0147
40.4671
41.8945
43.2972
44.675
46.0281
47.3595
48.6685
49.9574
51.2253
52.478
53.7174
54.9345
56.1441
57.4354
23.4106
26.5279
29.1002
30.8767
32.3893
33.8857
35.3804
36.8632
38.3278
39.7672
41.1772
42.561
43.9192
45.2474
46.5454
47.8214
49.0665
50.2892
51.4831
52.6623
53.8276
54.963
56.0802
57.312
23.7427
27.0161
29.7646
31.6034
33.1386
34.6395
36.1316
37.6057
39.0567
40.4753
41.8509
43.199
44.5228
45.8033
47.0407
48.2751
49.4564
50.6275
51.7411
52.8556
53.9506
55.0077
56.044
57.1753
27.6338
30.9589
32.7605
33.3032
34.1137
35.4002
36.8197
38.2495
39.6715
41.0551
42.3692
43.6861
44.9975
46.2511
47.4401
48.7045
49.8012
50.9497
51.9747
53.0597
54.1404
55.1553
56.1655
57.1832
-182.543
-172.166
-161.332
-152.221
-142.043
-130.674
-119.024
-107.625
-96.5926
-85.981
-75.912
-66.5328
-57.9147
-50.1176
-43.1884
-37.1248
-31.8909
-27.4092
-23.5858
-20.3004
-17.4311
-14.8778
-12.5679
-10.4934
-107.069
-107.006
-106.026
-104.495
-103.043
-101.951
-100.877
-99.2931
-96.9503
-93.8082
-89.8893
-85.2469
-79.9285
-74.047
-67.7717
-61.299
-54.862
-48.6491
-42.8204
-37.4641
-32.6079
-28.2329
-24.2807
-20.7771
-117.071
-116.951
-117.023
-117.022
-116.686
-115.76
-114.202
-112.151
-109.731
-106.863
-103.395
-99.3118
-94.6315
-89.3953
-83.6642
-77.5124
-71.0844
-64.5266
-58.0257
-51.7422
-45.7993
-40.2701
-35.1626
-30.5428
-108.177
-108.126
-107.988
-107.78
-107.499
-107.127
-106.629
-105.954
-105.021
-103.827
-102.387
-100.57
-98.207
-95.1798
-91.422
-86.9097
-81.7121
-75.935
-69.767
-63.4149
-57.0895
-50.9661
-45.153
-39.842
-108.22
-108.201
-108.196
-108.165
-108.089
-107.943
-107.696
-107.3
-106.701
-105.846
-104.695
-103.23
-101.406
-99.1338
-96.3312
-92.9093
-88.8209
-84.0421
-78.6404
-72.7452
-66.5484
-60.2565
-54.0327
-48.1103
-105.885
-105.866
-105.832
-105.773
-105.685
-105.559
-105.381
-105.135
-104.795
-104.33
-103.7
-102.85
-101.729
-100.275
-98.3963
-95.9908
-92.9736
-89.2676
-84.8449
-79.7456
-74.0869
-68.0584
-61.8119
-56.1074
-104.962
-104.949
-104.935
-104.907
-104.859
-104.784
-104.672
-104.508
-104.274
-103.945
-103.493
-102.882
-102.067
-100.997
-99.6087
-97.8129
-95.5206
-92.6399
-89.0855
-84.824
-79.8793
-74.3786
-68.368
-63.0635
-103.826
-103.815
-103.799
-103.771
-103.727
-103.664
-103.575
-103.45
-103.28
-103.047
-102.732
-102.308
-101.741
-100.986
-99.9878
-98.6744
-96.9572
-94.741
-91.924
-88.4316
-84.2212
-79.3576
-73.7416
-68.9799
-102.991
-102.982
-102.97
-102.949
-102.916
-102.868
-102.8
-102.704
-102.573
-102.394
-102.153
-101.83
-101.399
-100.826
-100.068
-99.0671
-97.7506
-96.0287
-93.7966
-90.9576
-87.4252
-83.2114
-78.099
-73.7594
-102.2
-102.192
-102.181
-102.162
-102.133
-102.092
-102.034
-101.956
-101.85
-101.709
-101.52
-101.268
-100.935
-100.494
-99.9088
-99.134
-98.1112
-96.7622
-94.9906
-92.6943
-89.7638
-86.1717
-81.6458
-77.9708
-101.511
-101.504
-101.494
-101.477
-101.452
-101.417
-101.369
-101.303
-101.215
-101.098
-100.944
-100.74
-100.471
-100.117
-99.65
-99.0326
-98.2177
-97.142
-95.7209
-93.858
-91.4373
-88.3995
-84.4232
-81.29
-100.877
-100.871
-100.862
-100.846
-100.824
-100.792
-100.75
-100.693
-100.618
-100.518
-100.388
-100.218
-99.9958
-99.7057
-99.3249
-98.8231
-98.1616
-97.2891
-96.1344
-94.6124
-92.6125
-90.0567
-86.6074
-83.9392
-100.299
-100.294
-100.286
-100.271
-100.25
-100.222
-100.184
-100.134
-100.067
-99.9806
-99.8681
-99.7226
-99.5344
-99.2901
-98.9722
-98.5558
-98.0084
-97.2884
-96.3376
-95.083
-93.428
-91.2933
-88.3842
-86.053
-99.7656
-99.762
-99.7538
-99.7402
-99.7208
-99.6946
-99.6597
-99.614
-99.5546
-99.4775
-99.3783
-99.2512
-99.0882
-98.8787
-98.608
-98.2559
-97.7954
-97.1915
-96.3967
-95.3477
-93.959
-92.1465
-89.6511
-87.4122
-99.274
-99.271
-99.263
-99.25
-99.2317
-99.207
-99.1746
-99.1326
-99.0785
-99.0088
-98.9198
-98.8067
-98.6631
-98.4801
-98.2456
-97.9432
-97.5503
-97.0369
-96.364
-95.4788
-94.3082
-92.7736
-90.6666
-88.8514
-98.8161
-98.8138
-98.8063
-98.7939
-98.7766
-98.7535
-98.7233
-98.6845
-98.6348
-98.5713
-98.4907
-98.3889
-98.2607
-98.0988
-97.8932
-97.63
-97.2903
-96.8492
-96.2735
-95.5201
-94.5276
-93.2279
-91.4585
-89.9187
-98.3897
-98.3878
-98.3806
-98.3689
-98.3525
-98.3307
-98.3025
-98.2664
-98.2205
-98.1623
-98.0887
-97.9963
-97.8808
-97.736
-97.5536
-97.3219
-97.0251
-96.642
-96.1436
-95.4926
-94.6346
-93.5025
-91.9468
-90.4365
-97.9893
-97.9877
-97.9808
-97.9697
-97.9543
-97.9339
-97.9076
-97.874
-97.8316
-97.7781
-97.7108
-97.6265
-97.5218
-97.3914
-97.2282
-97.0225
-96.7607
-96.4244
-95.9885
-95.4211
-94.6741
-93.6866
-92.3319
-90.9365
-97.6107
-97.6093
-97.6029
-97.5924
-97.578
-97.5588
-97.5343
-97.5032
-97.464
-97.4148
-97.3531
-97.2762
-97.1809
-97.063
-96.9163
-96.7326
-96.5001
-96.2033
-95.8205
-95.3236
-94.6726
-93.8161
-92.6633
-91.5048
-97.2507
-97.2492
-97.2429
-97.233
-97.2193
-97.2014
-97.1785
-97.1496
-97.1134
-97.068
-97.0114
-96.9411
-96.8541
-96.747
-96.6145
-96.4494
-96.2415
-95.9773
-95.6378
-95.1974
-94.6205
-93.8581
-92.8357
-91.7768
-96.9023
-96.901
-96.8951
-96.8857
-96.8729
-96.8561
-96.8348
-96.8081
-96.7746
-96.733
-96.6811
-96.6166
-96.5373
-96.4398
-96.3198
-96.1711
-95.9848
-95.7492
-95.4478
-95.0584
-94.5509
-93.8796
-92.974
-92.2583
-96.5626
-96.5614
-96.5558
-96.547
-96.535
-96.5194
-96.4996
-96.4747
-96.4438
-96.4053
-96.3574
-96.2981
-96.2251
-96.1356
-96.0257
-95.8897
-95.7198
-95.5051
-95.2301
-94.8728
-94.4011
-93.7694
-92.8845
-91.6302
-96.2276
-96.2266
-96.2215
-96.2134
-96.2022
-96.1877
-96.1693
-96.1463
-96.1176
-96.082
-96.0378
-95.9831
-95.9157
-95.8332
-95.7321
-95.6075
-95.4524
-95.2569
-95.0076
-94.6856
-94.2629
-93.7016
-92.955
-92.2752
-95.8974
-95.8963
-95.8913
-95.8835
-95.873
-95.8593
-95.8421
-95.8206
-95.7939
-95.7608
-95.7197
-95.6689
-95.6065
-95.53
-95.4364
-95.3212
-95.1781
-94.9984
-94.7697
-94.4747
-94.0892
-93.5833
-92.9148
-92.0027
-95.5664
-95.5654
-95.5607
-95.5534
-95.5435
-95.5309
-95.5148
-95.4949
-95.4701
-95.4393
-95.4013
-95.3542
-95.2963
-95.2252
-95.1383
-95.0316
-94.8993
-94.7334
-94.5228
-94.2523
-93.9007
-93.4403
-92.8247
-91.9077
-95.2335
-95.2326
-95.2282
-95.2214
-95.2122
-95.2004
-95.1856
-95.1671
-95.1442
-95.1158
-95.0807
-95.0371
-94.9834
-94.9175
-94.8368
-94.7377
-94.615
-94.4616
-94.2672
-94.0179
-93.6953
-93.2741
-92.7134
-91.8372
-94.8964
-94.8955
-94.8915
-94.8852
-94.8768
-94.8659
-94.8524
-94.8354
-94.8144
-94.7883
-94.7561
-94.716
-94.6665
-94.6057
-94.531
-94.4392
-94.3257
-94.1836
-94.0039
-93.7741
-93.4776
-93.0918
-92.581
-91.7583
-94.5531
-94.5524
-94.5487
-94.543
-94.5353
-94.5254
-94.5131
-94.4977
-94.4786
-94.4549
-94.4256
-94.389
-94.3438
-94.288
-94.2194
-94.1349
-94.0301
-93.8991
-93.7335
-93.5219
-93.249
-92.8925
-92.4173
-91.6798
-94.2026
-94.2018
-94.1982
-94.1929
-94.1858
-94.1769
-94.1657
-94.1518
-94.1346
-94.1132
-94.0867
-94.0538
-94.0128
-93.9622
-93.8998
-93.8228
-93.7273
-93.6079
-93.4573
-93.2662
-93.0206
-92.6923
-92.2544
-91.9088
-93.84
-93.8394
-93.8363
-93.8316
-93.8253
-93.8173
-93.8073
-93.7949
-93.7796
-93.7606
-93.7369
-93.7073
-93.6705
-93.6248
-93.5682
-93.4982
-93.411
-93.3018
-93.1638
-92.9884
-92.7618
-92.4563
-92.0432
-91.7973
-93.4661
-93.4655
-93.4626
-93.4583
-93.4527
-93.4455
-93.4366
-93.4256
-93.4119
-93.395
-93.3738
-93.3473
-93.3141
-93.2727
-93.2212
-93.157
-93.0765
-92.975
-92.8454
-92.6775
-92.4584
-92.1822
-91.8286
-91.013
-93.078
-93.0775
-93.0749
-93.0712
-93.0662
-93.0598
-93.052
-93.0422
-93.0301
-93.015
-92.9962
-92.9725
-92.9427
-92.9052
-92.8583
-92.7995
-92.7254
-92.6313
-92.5105
-92.3535
-92.1495
-91.8991
-91.5976
-90.842
-92.676
-92.6756
-92.6733
-92.6699
-92.6654
-92.6598
-92.6528
-92.6442
-92.6335
-92.6201
-92.6033
-92.5821
-92.5553
-92.5215
-92.4789
-92.425
-92.3567
-92.2693
-92.157
-92.0112
-91.8211
-91.5746
-91.2571
-90.8829
-92.2587
-92.2583
-92.2563
-92.2533
-92.2494
-92.2445
-92.2384
-92.2308
-92.2214
-92.2096
-92.1947
-92.1758
-92.1517
-92.121
-92.0821
-92.0325
-91.9689
-91.8869
-91.7803
-91.6405
-91.4546
-91.2029
-90.8575
-90.4256
-91.8266
-91.8263
-91.8245
-91.8218
-91.8184
-91.814
-91.8087
-91.802
-91.7938
-91.7834
-91.7702
-91.7535
-91.732
-91.7045
-91.6692
-91.6241
-91.5658
-91.49
-91.3912
-91.2614
-91.0897
-90.8605
-90.5505
-90.1796
-91.379
-91.3788
-91.3772
-91.3749
-91.3719
-91.3681
-91.3634
-91.3577
-91.3504
-91.3414
-91.3298
-91.315
-91.2959
-91.2713
-91.2396
-91.1986
-91.1453
-91.0756
-90.984
-90.8631
-90.7028
-90.4887
-90.198
-89.8456
-90.9167
-90.9165
-90.9152
-90.9132
-90.9105
-90.9072
-90.9031
-90.898
-90.8916
-90.8836
-90.8734
-90.8603
-90.8433
-90.8214
-90.793
-90.756
-90.7076
-90.644
-90.56
-90.4488
-90.3011
-90.106
-89.8489
-89.53
-90.4401
-90.44
-90.4388
-90.437
-90.4346
-90.4317
-90.428
-90.4234
-90.4177
-90.4105
-90.4013
-90.3895
-90.3742
-90.3543
-90.3284
-90.2948
-90.2506
-90.1922
-90.1146
-90.0113
-89.8733
-89.6886
-89.4499
-89.2066
-89.9505
-89.9504
-89.9493
-89.9477
-89.9455
-89.9427
-89.9393
-89.935
-89.9296
-89.9228
-89.9142
-89.903
-89.8887
-89.8701
-89.8461
-89.8148
-89.7737
-89.7193
-89.6471
-89.5512
-89.4239
-89.2514
-89.0164
-88.8469
-89.4494
-89.4493
-89.4482
-89.4466
-89.4445
-89.4417
-89.4383
-89.4341
-89.4288
-89.422
-89.4135
-89.4025
-89.3883
-89.37
-89.3464
-89.3157
-89.2754
-89.222
-89.1505
-89.0546
-88.9257
-88.7509
-88.4957
-88.0755
-88.9382
-88.9381
-88.9371
-88.9356
-88.9335
-88.9308
-88.9273
-88.923
-88.9175
-88.9106
-88.9017
-88.8904
-88.8759
-88.8572
-88.8331
-88.8018
-88.761
-88.7068
-88.6341
-88.5357
-88.4012
-88.2147
-87.9558
-87.5919
-88.42
-88.4199
-88.419
-88.4174
-88.4153
-88.4125
-88.4089
-88.4044
-88.3987
-88.3914
-88.3822
-88.3704
-88.3552
-88.3359
-88.311
-88.279
-88.2375
-88.1828
-88.1104
-88.0139
-87.885
-87.7124
-87.4826
-87.253
-87.897
-87.8968
-87.8958
-87.8942
-87.892
-87.8891
-87.8853
-87.8806
-87.8747
-87.8671
-87.8574
-87.8451
-87.8294
-87.8094
-87.7837
-87.7507
-87.7081
-87.6523
-87.5784
-87.4798
-87.3483
-87.1786
-86.9488
-86.366
-87.3702
-87.37
-87.3689
-87.3673
-87.365
-87.3621
-87.3583
-87.3535
-87.3474
-87.3397
-87.3298
-87.3173
-87.3014
-87.281
-87.2551
-87.222
-87.1795
-87.1245
-87.0527
-86.9588
-86.836
-86.6724
-86.4537
-86.3463
-86.8404
-86.8402
-86.8393
-86.8377
-86.8356
-86.8327
-86.829
-86.8243
-86.8183
-86.8106
-86.8008
-86.7883
-86.7724
-86.7521
-86.7263
-86.6933
-86.651
-86.5964
-86.525
-86.4311
-86.3072
-86.1474
-85.9338
-85.4421
-86.3096
-86.3095
-86.3087
-86.3072
-86.3052
-86.3024
-86.2989
-86.2943
-86.2885
-86.281
-86.2715
-86.2594
-86.2439
-86.2243
-86.1992
-86.1674
-86.1269
-86.0749
-86.0079
-85.9216
-85.81
-85.6645
-85.4884
-85.4245
-85.7792
-85.7788
-85.7778
-85.7762
-85.7741
-85.7714
-85.768
-85.7636
-85.758
-85.7509
-85.7418
-85.7303
-85.7155
-85.6967
-85.6727
-85.6422
-85.6033
-85.5535
-85.4892
-85.4062
-85.2984
-85.1572
-84.978
-84.7793
-85.2456
-85.2453
-85.2444
-85.243
-85.2411
-85.2387
-85.2356
-85.2315
-85.2264
-85.2199
-85.2115
-85.2007
-85.1869
-85.1693
-85.1467
-85.1179
-85.0811
-85.0338
-84.9727
-84.8936
-84.7908
-84.6555
-84.4776
-84.2247
-84.7104
-84.7102
-84.7095
-84.7082
-84.7066
-84.7044
-84.7016
-84.6981
-84.6935
-84.6876
-84.6801
-84.6703
-84.6577
-84.6415
-84.6206
-84.5938
-84.5594
-84.515
-84.4576
-84.3834
-84.2875
-84.1601
-83.9871
-83.8525
-84.1731
-84.173
-84.1724
-84.1714
-84.17
-84.1682
-84.1658
-84.1627
-84.1588
-84.1536
-84.147
-84.1383
-84.127
-84.1124
-84.0934
-84.0688
-84.037
-83.9956
-83.9413
-83.8698
-83.7761
-83.6562
-83.4929
-83.0799
-83.6347
-83.6343
-83.6336
-83.6326
-83.6312
-83.6296
-83.6275
-83.6248
-83.6214
-83.617
-83.6113
-83.6039
-83.5941
-83.5813
-83.5647
-83.543
-83.5148
-83.4779
-83.4299
-83.3676
-83.2872
-83.183
-83.0575
-83.0538
-83.0906
-83.0903
-83.0897
-83.0889
-83.0878
-83.0865
-83.0848
-83.0827
-83.08
-83.0764
-83.0716
-83.0654
-83.0571
-83.0462
-83.0317
-83.0127
-82.9875
-82.9543
-82.9103
-82.8517
-82.7738
-82.6675
-82.5212
-82.3584
-82.5418
-82.5418
-82.5414
-82.5408
-82.5401
-82.5391
-82.5379
-82.5362
-82.5341
-82.5312
-82.5274
-82.5223
-82.5153
-82.506
-82.4937
-82.4773
-82.4556
-82.4266
-82.3878
-82.3363
-82.2688
-82.1819
-82.0737
-81.9333
-81.989
-81.989
-81.9887
-81.9883
-81.9877
-81.987
-81.986
-81.9848
-81.9831
-81.9808
-81.9776
-81.9734
-81.9675
-81.9595
-81.9488
-81.9344
-81.9151
-81.8889
-81.8536
-81.8054
-81.7403
-81.6554
-81.5522
-81.3818
-81.4316
-81.4316
-81.4315
-81.4311
-81.4308
-81.4302
-81.4295
-81.4285
-81.4271
-81.4251
-81.4224
-81.4188
-81.4136
-81.4065
-81.3969
-81.384
-81.3665
-81.3426
-81.31
-81.2651
-81.2039
-81.1218
-81.0144
-80.8635
-80.871
-80.8708
-80.8705
-80.8701
-80.8696
-80.8691
-80.8684
-80.8675
-80.8662
-80.8644
-80.862
-80.8585
-80.8537
-80.8471
-80.8381
-80.8259
-80.8094
-80.7867
-80.7555
-80.7121
-80.652
-80.5687
-80.4526
-80.2915
-80.3045
-80.3044
-80.3042
-80.3039
-80.3036
-80.3031
-80.3025
-80.3017
-80.3006
-80.2989
-80.2965
-80.2933
-80.2886
-80.2822
-80.2734
-80.2615
-80.2453
-80.2231
-80.1925
-80.1501
-80.0914
-80.0114
-79.9061
-79.7558
-79.7347
-79.7347
-79.7345
-79.7343
-79.734
-79.7336
-79.733
-79.7323
-79.7312
-79.7295
-79.7272
-79.7239
-79.7192
-79.7127
-79.7038
-79.6917
-79.6753
-79.6527
-79.6213
-79.5772
-79.5145
-79.426
-79.3044
-79.1064
-79.1616
-79.1616
-79.1615
-79.1613
-79.1611
-79.1608
-79.1603
-79.1596
-79.1586
-79.157
-79.1547
-79.1515
-79.1468
-79.1403
-79.1315
-79.1195
-79.1031
-79.0808
-79.0502
-79.0077
-78.9489
-78.868
-78.759
-78.6131
-78.586
-78.586
-78.586
-78.5859
-78.5858
-78.5856
-78.5852
-78.5846
-78.5837
-78.5822
-78.58
-78.5768
-78.5723
-78.566
-78.5572
-78.5452
-78.529
-78.5071
-78.477
-78.4355
-78.3782
-78.3018
-78.2108
-78.0692
-78.0097
-78.0094
-78.0093
-78.0091
-78.0089
-78.0087
-78.0083
-78.0077
-78.0069
-78.0055
-78.0034
-78.0004
-77.996
-77.9898
-77.9813
-77.9697
-77.954
-77.9328
-77.9037
-77.8639
-77.8094
-77.7373
-77.6486
-77.5178
-77.4298
-77.4297
-77.4296
-77.4295
-77.4294
-77.4293
-77.4291
-77.4287
-77.428
-77.4268
-77.425
-77.4223
-77.4183
-77.4125
-77.4043
-77.3931
-77.3779
-77.3572
-77.329
-77.2902
-77.2368
-77.1654
-77.0756
-76.9484
-76.8476
-76.8476
-76.8477
-76.8477
-76.8477
-76.8478
-76.8478
-76.8477
-76.8473
-76.8465
-76.845
-76.8427
-76.8392
-76.8339
-76.8263
-76.8158
-76.8013
-76.7813
-76.7537
-76.7154
-76.6617
-76.5865
-76.4834
-76.3364
-76.2635
-76.2635
-76.2637
-76.2639
-76.2641
-76.2644
-76.2647
-76.2649
-76.2648
-76.2644
-76.2635
-76.2618
-76.2589
-76.2544
-76.2478
-76.2384
-76.2252
-76.2069
-76.1815
-76.1465
-76.0982
-76.0319
-75.9408
-75.8397
-75.6784
-75.6781
-75.6782
-75.6783
-75.6785
-75.6789
-75.6794
-75.6798
-75.6802
-75.6802
-75.6799
-75.6789
-75.6768
-75.6734
-75.6679
-75.6599
-75.6483
-75.6319
-75.6089
-75.5765
-75.5313
-75.4715
-75.4023
-75.293
-75.0883
-75.0882
-75.0884
-75.0887
-75.0892
-75.0899
-75.0907
-75.0916
-75.0925
-75.0931
-75.0935
-75.0934
-75.0923
-75.09
-75.086
-75.0795
-75.0699
-75.0558
-75.0355
-75.0065
-74.9656
-74.9104
-74.8444
-74.7736
-74.4951
-74.495
-74.4954
-74.4958
-74.4965
-74.4975
-74.4986
-74.4999
-74.5013
-74.5026
-74.5037
-74.5045
-74.5046
-74.5036
-74.501
-74.4963
-74.4887
-74.4768
-74.459
-74.4327
-74.3944
-74.3403
-74.266
-74.1512
-73.8972
-73.8972
-73.8976
-73.8982
-73.8992
-73.9005
-73.902
-73.9039
-73.9058
-73.9079
-73.9099
-73.9116
-73.9129
-73.9133
-73.9123
-73.9096
-73.9042
-73.8951
-73.8805
-73.858
-73.8245
-73.7764
-73.7093
-73.6095
-73.2944
-73.2945
-73.2951
-73.296
-73.2972
-73.2989
-73.3008
-73.3031
-73.3057
-73.3084
-73.3113
-73.314
-73.3165
-73.3183
-73.319
-73.3183
-73.3153
-73.309
-73.2977
-73.2793
-73.2506
-73.2084
-73.1514
-73.0753
-72.6877
-72.6876
-72.6881
-72.689
-72.6904
-72.6922
-72.6944
-72.6971
-72.7001
-72.7035
-72.7071
-72.7108
-72.7144
-72.7176
-72.7201
-72.7213
-72.7207
-72.7171
-72.7093
-72.6949
-72.6712
-72.6357
-72.5899
-72.5398
-72.0735
-72.0735
-72.0742
-72.0752
-72.0768
-72.0789
-72.0815
-72.0846
-72.0882
-72.0923
-72.0967
-72.1013
-72.106
-72.1105
-72.1145
-72.1175
-72.1189
-72.1178
-72.1125
-72.1008
-72.0797
-72.0459
-71.9976
-71.9071
-71.4525
-71.4526
-71.4534
-71.4546
-71.4565
-71.4589
-71.4619
-71.4655
-71.4697
-71.4744
-71.4796
-71.4851
-71.4908
-71.4965
-71.502
-71.5067
-71.5101
-71.5112
-71.5086
-71.4998
-71.4818
-71.4499
-71.3967
-71.3098
-70.8249
-70.8251
-70.826
-70.8275
-70.8296
-70.8323
-70.8357
-70.8397
-70.8444
-70.8496
-70.8555
-70.8618
-70.8686
-70.8754
-70.8822
-70.8885
-70.8938
-70.8973
-70.8975
-70.8924
-70.8791
-70.8542
-70.8153
-70.7656
-70.1918
-70.1918
-70.1926
-70.1941
-70.1962
-70.1991
-70.2027
-70.207
-70.2121
-70.2178
-70.2243
-70.2314
-70.2389
-70.2468
-70.2548
-70.2625
-70.2695
-70.2748
-70.2772
-70.2744
-70.2635
-70.2423
-70.215
-70.1582
-69.5497
-69.5498
-69.5509
-69.5525
-69.555
-69.5582
-69.5621
-69.5668
-69.5723
-69.5786
-69.5857
-69.5934
-69.6018
-69.6106
-69.6196
-69.6286
-69.637
-69.644
-69.6482
-69.6475
-69.6386
-69.6178
-69.5844
-69.5263
-68.9012
-68.9013
-68.9025
-68.9042
-68.9069
-68.9103
-68.9144
-68.9195
-68.9254
-68.9322
-68.9398
-68.9482
-68.9574
-68.967
-68.977
-68.9871
-68.9967
-69.0052
-69.0112
-69.0129
-69.0077
-68.992
-68.9607
-68.9283
-68.2452
-68.2453
-68.2465
-68.2485
-68.2513
-68.255
-68.2595
-68.2649
-68.2713
-68.2785
-68.2867
-68.2957
-68.3056
-68.316
-68.3269
-68.3379
-68.3485
-68.3578
-68.3642
-68.3652
-68.3564
-68.3323
-68.2802
-68.0936
-67.5822
-67.5825
-67.5839
-67.586
-67.5891
-67.593
-67.5978
-67.6036
-67.6103
-67.618
-67.6268
-67.6365
-67.6471
-67.6585
-67.6705
-67.6828
-67.695
-67.7065
-67.7159
-67.7216
-67.7203
-67.7068
-67.6824
-67.7546
-66.9138
-66.9138
-66.9151
-66.9172
-66.9203
-66.9243
-66.9293
-66.9353
-66.9424
-66.9505
-66.9598
-66.9701
-66.9814
-66.9937
-67.0067
-67.0203
-67.034
-67.0473
-67.059
-67.0675
-67.0704
-67.0691
-67.0712
-67.009
-66.2366
-66.2368
-66.2382
-66.2405
-66.2439
-66.2481
-66.2534
-66.2598
-66.2672
-66.2758
-66.2856
-66.2965
-66.3086
-66.3216
-66.3355
-66.3501
-66.3651
-66.3798
-66.3931
-66.4033
-66.4081
-66.4067
-66.3941
-66.2865
-65.5533
-65.5536
-65.5551
-65.5575
-65.561
-65.5654
-65.5709
-65.5776
-65.5853
-65.5943
-65.6045
-65.616
-65.6286
-65.6424
-65.6572
-65.6727
-65.6887
-65.7045
-65.719
-65.7307
-65.7359
-65.7284
-65.7055
-65.7236
-64.8632
-64.8635
-64.8651
-64.8677
-64.8713
-64.876
-64.8817
-64.8886
-64.8967
-64.9061
-64.9168
-64.9287
-64.9419
-64.9563
-64.9718
-64.9882
-65.0052
-65.0221
-65.0379
-65.0511
-65.0588
-65.0564
-65.0423
-65.0774
-64.1671
-64.1674
-64.1692
-64.1719
-64.1757
-64.1806
-64.1865
-64.1936
-64.202
-64.2117
-64.2227
-64.235
-64.2488
-64.2638
-64.28
-64.2971
-64.3149
-64.3326
-64.3489
-64.3617
-64.3678
-64.3659
-64.3436
-64.1057
-63.4667
-63.4668
-63.4684
-63.4711
-63.4748
-63.4797
-63.4857
-63.493
-63.5015
-63.5113
-63.5226
-63.5353
-63.5495
-63.5652
-63.5821
-63.6003
-63.6195
-63.6391
-63.6582
-63.6756
-63.6892
-63.6928
-63.6816
-63.8221
-62.759
-62.7592
-62.761
-62.7638
-62.7678
-62.7728
-62.7789
-62.7864
-62.795
-62.8051
-62.8166
-62.8296
-62.8441
-62.8602
-62.8778
-62.8967
-62.9167
-62.9374
-62.9577
-62.976
-62.9895
-62.9958
-62.984
-62.82
-62.0467
-62.047
-62.0489
-62.0518
-62.0558
-62.0609
-62.0672
-62.0747
-62.0835
-62.0936
-62.1052
-62.1183
-62.1329
-62.1492
-62.1672
-62.1867
-62.2077
-62.2301
-62.2533
-62.2769
-62.2994
-62.3177
-62.3371
-62.5226
-61.3304
-61.3307
-61.3326
-61.3357
-61.3398
-61.3449
-61.3512
-61.3587
-61.3674
-61.3775
-61.389
-61.4019
-61.4163
-61.4323
-61.4499
-61.469
-61.4896
-61.5112
-61.5333
-61.5542
-61.5708
-61.5784
-61.5752
-61.5414
-60.6119
-60.6121
-60.6138
-60.6167
-60.6207
-60.6257
-60.632
-60.6393
-60.6479
-60.6577
-60.669
-60.6816
-60.6956
-60.7111
-60.7281
-60.7465
-60.7662
-60.787
-60.8083
-60.8288
-60.8463
-60.8589
-60.864
-60.834
-59.8891
-59.8893
-59.8912
-59.8942
-59.8983
-59.9033
-59.9096
-59.9169
-59.9254
-59.9351
-59.9461
-59.9583
-59.9719
-59.9867
-60.0028
-60.02
-60.0383
-60.0573
-60.076
-60.0932
-60.106
-60.1094
-60.0923
-60.021
-59.165
-59.1653
-59.1672
-59.1702
-59.1742
-59.1793
-59.1855
-59.1929
-59.2013
-59.2109
-59.2217
-59.2336
-59.2468
-59.2611
-59.2764
-59.2926
-59.3096
-59.327
-59.3439
-59.3592
-59.3705
-59.3714
-59.3478
-59.3417
-58.4393
-58.4395
-58.4414
-58.4445
-58.4486
-58.4538
-58.4601
-58.4675
-58.4759
-58.4856
-58.4964
-58.5082
-58.5212
-58.5351
-58.5499
-58.5654
-58.5812
-58.597
-58.6116
-58.6233
-58.6289
-58.6232
-58.5983
-58.5074
-57.7126
-57.7129
-57.7149
-57.7181
-57.7224
-57.7276
-57.7341
-57.7416
-57.7502
-57.76
-57.7709
-57.7829
-57.796
-57.81
-57.8248
-57.8402
-57.8559
-57.8715
-57.8862
-57.8985
-57.9067
-57.9086
-57.8984
-57.8403
-56.9863
-56.9864
-56.9883
-56.9914
-56.9956
-57.0009
-57.0075
-57.0152
-57.024
-57.034
-57.0452
-57.0576
-57.071
-57.0855
-57.1007
-57.1166
-57.1327
-57.1487
-57.1637
-57.1763
-57.1844
-57.1835
-57.168
-57.1476
-56.257
-56.2573
-56.2593
-56.2626
-56.267
-56.2726
-56.2794
-56.2874
-56.2966
-56.3071
-56.3189
-56.3318
-56.346
-56.3612
-56.3773
-56.3941
-56.4114
-56.4288
-56.4455
-56.4606
-56.4725
-56.4784
-56.473
-56.4553
-55.5264
-55.5267
-55.5288
-55.5322
-55.5369
-55.5427
-55.5498
-55.5582
-55.5679
-55.579
-55.5913
-55.605
-55.62
-55.6361
-55.6534
-55.6715
-55.6902
-55.7092
-55.7278
-55.7448
-55.7586
-55.7658
-55.7585
-55.7289
-54.7935
-54.7939
-54.7962
-54.7998
-54.8046
-54.8107
-54.8182
-54.827
-54.8372
-54.8489
-54.8619
-54.8764
-54.8924
-54.9097
-54.9282
-54.9478
-54.9682
-54.9892
-55.0101
-55.0299
-55.0473
-55.0586
-55.054
-55.0522
-54.0592
-54.0593
-54.0615
-54.0651
-54.0701
-54.0764
-54.0841
-54.0933
-54.104
-54.1162
-54.13
-54.1453
-54.1623
-54.1808
-54.2007
-54.2219
-54.2441
-54.267
-54.2899
-54.3116
-54.3298
-54.341
-54.3408
-54.2994
-53.3196
-53.3199
-53.3223
-53.3261
-53.3314
-53.338
-53.3462
-53.3558
-53.3671
-53.38
-53.3946
-53.4108
-53.4289
-53.4487
-53.4701
-53.493
-53.5174
-53.543
-53.5692
-53.5953
-53.6204
-53.6424
-53.6567
-53.6764
-52.5766
-52.5769
-52.5794
-52.5834
-52.5889
-52.5959
-52.6044
-52.6145
-52.6263
-52.6399
-52.6552
-52.6724
-52.6915
-52.7125
-52.7353
-52.7599
-52.786
-52.8135
-52.8418
-52.8696
-52.8949
-52.9138
-52.9208
-52.887
-51.8285
-51.8288
-51.8315
-51.8357
-51.8414
-51.8488
-51.8578
-51.8684
-51.8808
-51.8951
-51.9112
-51.9293
-51.9495
-51.9717
-51.9959
-52.0221
-52.0502
-52.0801
-52.1113
-52.1435
-52.1753
-52.2017
-52.2118
-52.2922
-51.0755
-51.0758
-51.0787
-51.0832
-51.0892
-51.0969
-51.1063
-51.1174
-51.1304
-51.1454
-51.1623
-51.1813
-51.2025