# Forces     
# CofR       : (0.000000e+00 0.000000e+00 0.000000e+00)
# Time       forces(pressure viscous porous) moment(pressure viscous porous)
5.000000e+00	((-9.296223e-19 1.482127e-01 3.280837e-36) (3.673728e-01 5.272568e-06 -2.105342e-38) (0.000000e+00 0.000000e+00 0.000000e+00)) ((-7.410633e-03 -4.648112e-20 3.229534e-02) (-2.636284e-07 1.836864e-02 -9.051811e-07) (0.000000e+00 0.000000e+00 0.000000e+00))
1.000000e+01	((-1.850749e-18 3.707299e-01 -1.837690e-36) (3.304474e-01 1.370398e-06 3.242696e-38) (0.000000e+00 0.000000e+00 0.000000e+00)) ((-1.853649e-02 -9.253745e-20 7.695901e-02) (-6.851992e-08 1.652237e-02 -2.237601e-06) (0.000000e+00 0.000000e+00 0.000000e+00))
1.500000e+01	((-7.434004e-19 2.046118e-01 -1.555919e-36) (2.973913e-01 1.752801e-05 3.923680e-38) (0.000000e+00 0.000000e+00 0.000000e+00)) ((-1.023059e-02 -3.717002e-20 2.561044e-02) (-8.764004e-07 1.486957e-02 6.717330e-07) (0.000000e+00 0.000000e+00 0.000000e+00))
2.000000e+01	((-3.025390e-18 3.622332e-01 -1.909174e-36) (2.746052e-01 9.917719e-06 3.365426e-38) (0.000000e+00 0.000000e+00 0.000000e+00)) ((-1.811166e-02 -1.512695e-19 3.810255e-02) (-4.958860e-07 1.373026e-02 -5.881765e-06) (0.000000e+00 0.000000e+00 0.000000e+00))
2.500000e+01	((-2.194087e-18 4.143653e-01 -3.933347e-37) (2.613519e-01 3.103175e-05 8.522957e-39) (0.000000e+00 0.000000e+00 0.000000e+00)) ((-2.071826e-02 -1.097044e-19 5.754219e-02) (-1.551588e-06 1.306759e-02 -3.666023e-06) (0.000000e+00 0.000000e+00 0.000000e+00))
3.000000e+01	((-2.026564e-18 2.882980e-01 -1.323608e-36) (2.533470e-01 2.802552e-05 2.501307e-38) (0.000000e+00 0.000000e+00 0.000000e+00)) ((-1.441490e-02 -1.013282e-19 3.959085e-03) (-1.401276e-06 1.266735e-02 -8.330858e-06) (0.000000e+00 0.000000e+00 0.000000e+00))
3.500000e+01	((-2.410595e-18 3.861758e-01 -9.000276e-37) (2.480041e-01 3.902942e-05 1.748219e-38) (0.000000e+00 0.000000e+00 0.000000e+00)) ((-1.930879e-02 -1.205297e-19 3.817326e-02) (-1.951471e-06 1.240021e-02 -8.341639e-06) (0.000000e+00 0.000000e+00 0.000000e+00))
4.000000e+01	((-1.675157e-18 3.129890e-01 -7.502613e-37) (2.444488e-01 4.504550e-05 1.497276e-38) (0.000000e+00 0.000000e+00 0.000000e+00)) ((-1.564945e-02 -8.375783e-20 1.043316e-02) (-2.252275e-06 1.222244e-02 -1.079836e-05) (0.000000e+00 0.000000e+00 0.000000e+00))
4.500000e+01	((-2.213793e-18 3.658352e-01 -9.100820e-37) (2.420450e-01 5.332257e-05 1.792108e-38) (0.000000e+00 0.000000e+00 0.000000e+00)) ((-1.829176e-02 -1.106896e-19 1.882193e-02) (-2.666129e-06 1.210225e-02 -1.324478e-05) (0.000000e+00 0.000000e+00 0.000000e+00))
5.000000e+01	((-2.060369e-18 3.737047e-01 -8.072501e-37) (2.404503e-01 6.343487e-05 1.615788e-38) (0.000000e+00 0.000000e+00 0.000000e+00)) ((-1.868523e-02 -1.030184e-19 1.353819e-02) (-3.171743e-06 1.202252e-02 -1.538787e-05) (0.000000e+00 0.000000e+00 0.000000e+00))
5.500000e+01	((-2.223857e-18 3.963906e-01 -5.063248e-37) (2.394283e-01 7.148683e-05 1.079788e-38) (0.000000e+00 0.000000e+00 0.000000e+00)) ((-1.981953e-02 -1.111928e-19 9.989035e-03) (-3.574341e-06 1.197141e-02 -1.802129e-05) (0.000000e+00 0.000000e+00 0.000000e+00))
6.000000e+01	((-2.234000e-18 4.041136e-01 -4.145357e-37) (2.387564e-01 7.752753e-05 9.237444e-39) (0.000000e+00 0.000000e+00 0.000000e+00)) ((-2.020568e-02 -1.117000e-19 6.561875e-03) (-3.876377e-06 1.193782e-02 -1.934102e-05) (0.000000e+00 0.000000e+00 0.000000e+00))
6.500000e+01	((-2.194607e-18 3.963414e-01 -3.757863e-37) (2.383378e-01 7.754371e-05 8.559825e-39) (0.000000e+00 0.000000e+00 0.000000e+00)) ((-1.981707e-02 -1.097304e-19 2.714650e-03) (-3.877186e-06 1.191689e-02 -1.981413e-05) (0.000000e+00 0.000000e+00 0.000000e+00))
7.000000e+01	((-2.160484e-18 3.907985e-01 -3.637087e-37) (2.380586e-01 7.581490e-05 8.348049e-39) (0.000000e+00 0.000000e+00 0.000000e+00)) ((-1.953992e-02 -1.080242e-19 2.766337e-03) (-3.790745e-06 1.190293e-02 -1.926138e-05) (0.000000e+00 0.000000e+00 0.000000e+00))
7.500000e+01	((-2.135817e-18 3.770726e-01 -4.039233e-37) (2.378933e-01 7.257493e-05 9.107006e-39) (0.000000e+00 0.000000e+00 0.000000e+00)) ((-1.885363e-02 -1.067909e-19 1.347014e-03) (-3.628746e-06 1.189467e-02 -1.850809e-05) (0.000000e+00 0.000000e+00 0.000000e+00))
8.000000e+01	((-2.121665e-18 3.710459e-01 -3.652183e-37) (2.377645e-01 6.739989e-05 8.393322e-39) (0.000000e+00 0.000000e+00 0.000000e+00)) ((-1.855230e-02 -1.060832e-19 2.466131e-03) (-3.369994e-06 1.188822e-02 -1.634969e-05) (0.000000e+00 0.000000e+00 0.000000e+00))
8.500000e+01	((-2.116560e-18 3.653788e-01 -3.997415e-37) (2.376957e-01 6.684765e-05 9.037184e-39) (0.000000e+00 0.000000e+00 0.000000e+00)) ((-1.826894e-02 -1.058280e-19 2.335504e-03) (-3.342383e-06 1.188478e-02 -1.642520e-05) (0.000000e+00 0.000000e+00 0.000000e+00))
9.000000e+01	((-2.158006e-18 3.678197e-01 -3.857979e-37) (2.376715e-01 6.648208e-05 8.780565e-39) (0.000000e+00 0.000000e+00 0.000000e+00)) ((-1.839098e-02 -1.079003e-19 3.669214e-03) (-3.324104e-06 1.188358e-02 -1.606516e-05) (0.000000e+00 0.000000e+00 0.000000e+00))
9.500000e+01	((-2.147759e-18 3.676807e-01 -3.887518e-37) (2.376818e-01 6.694978e-05 8.839604e-39) (0.000000e+00 0.000000e+00 0.000000e+00)) ((-1.838404e-02 -1.073879e-19 3.920023e-03) (-3.347489e-06 1.188409e-02 -1.619831e-05) (0.000000e+00 0.000000e+00 0.000000e+00))
1.000000e+02	((-2.189151e-18 3.730827e-01 -3.930369e-37) (2.376958e-01 6.667016e-05 8.920003e-39) (0.000000e+00 0.000000e+00 0.000000e+00)) ((-1.865414e-02 -1.094575e-19 5.102721e-03) (-3.333508e-06 1.188479e-02 -1.601494e-05) (0.000000e+00 0.000000e+00 0.000000e+00))
1.050000e+02	((-2.191906e-18 3.769615e-01 -3.849990e-37) (2.377248e-01 6.731200e-05 8.771584e-39) (0.000000e+00 0.000000e+00 0.000000e+00)) ((-1.884808e-02 -1.095953e-19 6.140851e-03) (-3.365600e-06 1.188624e-02 -1.627651e-05) (0.000000e+00 0.000000e+00 0.000000e+00))
1.100000e+02	((-2.210506e-18 3.802728e-01 -3.782113e-37) (2.377466e-01 6.710948e-05 8.651207e-39) (0.000000e+00 0.000000e+00 0.000000e+00)) ((-1.901364e-02 -1.105253e-19 6.539295e-03) (-3.355474e-06 1.188733e-02 -1.618871e-05) (0.000000e+00 0.000000e+00 0.000000e+00))
1.150000e+02	((-2.228381e-18 3.846191e-01 -3.667758e-37) (2.377767e-01 6.782560e-05 8.443741e-39) (0.000000e+00 0.000000e+00 0.000000e+00)) ((-1.923095e-02 -1.114191e-19 7.336467e-03) (-3.391280e-06 1.188884e-02 -1.654109e-05) (0.000000e+00 0.000000e+00 0.000000e+00))
1.200000e+02	((-2.234747e-18 3.868112e-01 -3.567047e-37) (2.377934e-01 6.776794e-05 8.261155e-39) (0.000000e+00 0.000000e+00 0.000000e+00)) ((-1.934056e-02 -1.117374e-19 7.416731e-03) (-3.388397e-06 1.188967e-02 -1.644619e-05) (0.000000e+00 0.000000e+00 0.000000e+00))
1.250000e+02	((-2.250729e-18 3.893844e-01 -3.505029e-37) (2.378160e-01 6.854462e-05 8.149781e-39) (0.000000e+00 0.000000e+00 0.000000e+00)) ((-1.946922e-02 -1.125365e-19 7.626355e-03) (-3.427231e-06 1.189080e-02 -1.679416e-05) (0.000000e+00 0.000000e+00 0.000000e+00))
1.300000e+02	((-2.259584e-18 3.911303e-01 -3.449698e-37) (2.378240e-01 6.861171e-05 8.050474e-39) (0.000000e+00 0.000000e+00 0.000000e+00)) ((-1.955651e-02 -1.129792e-19 7.472825e-03) (-3.430586e-06 1.189120e-02 -1.668354e-05) (0.000000e+00 0.000000e+00 0.000000e+00))
1.350000e+02	((-2.270925e-18 3.929434e-01 -3.395669e-37) (2.378392e-01 6.945311e-05 7.953633e-39) (0.000000e+00 0.000000e+00 0.000000e+00)) ((-1.964717e-02 -1.135462e-19 7.436336e-03) (-3.472656e-06 1.189196e-02 -1.702036e-05) (0.000000e+00 0.000000e+00 0.000000e+00))
1.400000e+02	((-2.275873e-18 3.937888e-01 -3.348144e-37) (2.378416e-01 6.943666e-05 7.868938e-39) (0.000000e+00 0.000000e+00 0.000000e+00)) ((-1.968944e-02 -1.137937e-19 7.152354e-03) (-3.471833e-06 1.189208e-02 -1.689207e-05) (0.000000e+00 0.000000e+00 0.000000e+00))
1.450000e+02	((-2.280697e-18 3.948120e-01 -3.347363e-37) (2.378528e-01 7.018109e-05 7.867714e-39) (0.000000e+00 0.000000e+00 0.000000e+00)) ((-1.974060e-02 -1.140348e-19 7.057660e-03) (-3.509054e-06 1.189264e-02 -1.719942e-05) (0.000000e+00 0.000000e+00 0.000000e+00))
1.500000e+02	((-2.284686e-18 3.955194e-01 -3.297850e-37) (2.378522e-01 7.012781e-05 7.779142e-39) (0.000000e+00 0.000000e+00 0.000000e+00)) ((-1.977597e-02 -1.142343e-19 6.822593e-03) (-3.506390e-06 1.189261e-02 -1.707404e-05) (0.000000e+00 0.000000e+00 0.000000e+00))
1.550000e+02	((-2.286219e-18 3.961366e-01 -3.267484e-37) (2.378611e-01 7.083527e-05 7.724846e-39) (0.000000e+00 0.000000e+00 0.000000e+00)) ((-1.980683e-02 -1.143109e-19 6.702213e-03) (-3.541764e-06 1.189306e-02 -1.736740e-05) (0.000000e+00 0.000000e+00 0.000000e+00))
1.600000e+02	((-2.289249e-18 3.966822e-01 -3.239714e-37) (2.378592e-01 7.064698e-05 7.675071e-39) (0.000000e+00 0.000000e+00 0.000000e+00)) ((-1.983411e-02 -1.144624e-19 6.579036e-03) (-3.532349e-06 1.189296e-02 -1.721928e-05) (0.000000e+00 0.000000e+00 0.000000e+00))
1.650000e+02	((-2.289078e-18 3.969555e-01 -3.226827e-37) (2.378667e-01 7.123670e-05 7.652259e-39) (0.000000e+00 0.000000e+00 0.000000e+00)) ((-1.984777e-02 -1.144539e-19 6.447919e-03) (-3.561835e-06 1.189334e-02 -1.748512e-05) (0.000000e+00 0.000000e+00 0.000000e+00))
1.700000e+02	((-2.291170e-18 3.973165e-01 -3.222646e-37) (2.378638e-01 7.096874e-05 7.644600e-39) (0.000000e+00 0.000000e+00 0.000000e+00)) ((-1.986582e-02 -1.145585e-19 6.403025e-03) (-3.548437e-06 1.189319e-02 -1.730951e-05) (0.000000e+00 0.000000e+00 0.000000e+00))
1.750000e+02	((-2.292440e-18 3.975519e-01 -3.194198e-37) (2.378706e-01 7.145947e-05 7.593842e-39) (0.000000e+00 0.000000e+00 0.000000e+00)) ((-1.987759e-02 -1.146220e-19 6.324235e-03) (-3.572974e-06 1.189353e-02 -1.754761e-05) (0.000000e+00 0.000000e+00 0.000000e+00))
1.800000e+02	((-2.292663e-18 3.976014e-01 -3.197601e-37) (2.378671e-01 7.108363e-05 7.599986e-39) (0.000000e+00 0.000000e+00 0.000000e+00)) ((-1.988007e-02 -1.146331e-19 6.289869e-03) (-3.554182e-06 1.189336e-02 -1.734292e-05) (0.000000e+00 0.000000e+00 0.000000e+00))
1.850000e+02	((-2.293891e-18 3.977832e-01 -3.192824e-37) (2.378736e-01 7.152245e-05 7.591358e-39) (0.000000e+00 0.000000e+00 0.000000e+00)) ((-1.988916e-02 -1.146946e-19 6.277384e-03) (-3.576123e-06 1.189368e-02 -1.756517e-05) (0.000000e+00 0.000000e+00 0.000000e+00))
1.900000e+02	((-2.295219e-18 3.978912e-01 -3.191158e-37) (2.378698e-01 7.111198e-05 7.588531e-39) (0.000000e+00 0.000000e+00 0.000000e+00)) ((-1.989456e-02 -1.147610e-19 6.282200e-03) (-3.555599e-06 1.189349e-02 -1.734963e-05) (0.000000e+00 0.000000e+00 0.000000e+00))
1.950000e+02	((-2.295726e-18 3.979518e-01 -3.188844e-37) (2.378761e-01 7.151134e-05 7.584415e-39) (0.000000e+00 0.000000e+00 0.000000e+00)) ((-1.989759e-02 -1.147863e-19 6.275620e-03) (-3.575567e-06 1.189381e-02 -1.756324e-05) (0.000000e+00 0.000000e+00 0.000000e+00))
2.000000e+02	((-2.297042e-18 3.981262e-01 -3.181974e-37) (2.378722e-01 7.111354e-05 7.571848e-39) (0.000000e+00 0.000000e+00 0.000000e+00)) ((-1.990631e-02 -1.148521e-19 6.315624e-03) (-3.555677e-06 1.189361e-02 -1.734649e-05) (0.000000e+00 0.000000e+00 0.000000e+00))
2.050000e+02	((-2.298146e-18 3.982380e-01 -3.185017e-37) (2.378784e-01 7.151374e-05 7.577675e-39) (0.000000e+00 0.000000e+00 0.000000e+00)) ((-1.991190e-02 -1.149073e-19 6.319117e-03) (-3.575687e-06 1.189392e-02 -1.756316e-05) (0.000000e+00 0.000000e+00 0.000000e+00))
2.100000e+02	((-2.299029e-18 3.984269e-01 -3.174093e-37) (2.378743e-01 7.113109e-05 7.557598e-39) (0.000000e+00 0.000000e+00 0.000000e+00)) ((-1.992134e-02 -1.149514e-19 6.351951e-03) (-3.556555e-06 1.189372e-02 -1.734935e-05) (0.000000e+00 0.000000e+00 0.000000e+00))
2.150000e+02	((-2.300179e-18 3.985940e-01 -3.172209e-37) (2.378802e-01 7.154743e-05 7.554513e-39) (0.000000e+00 0.000000e+00 0.000000e+00)) ((-1.992970e-02 -1.150090e-19 6.369201e-03) (-3.577371e-06 1.189401e-02 -1.757110e-05) (0.000000e+00 0.000000e+00 0.000000e+00))
2.200000e+02	((-2.301278e-18 3.987920e-01 -3.164833e-37) (2.378760e-01 7.117405e-05 7.541030e-39) (0.000000e+00 0.000000e+00 0.000000e+00)) ((-1.993960e-02 -1.150639e-19 6.383368e-03) (-3.558702e-06 1.189380e-02 -1.736149e-05) (0.000000e+00 0.000000e+00 0.000000e+00))
2.250000e+02	((-2.301896e-18 3.989567e-01 -3.159407e-37) (2.378816e-01 7.160403e-05 7.531289e-39) (0.000000e+00 0.000000e+00 0.000000e+00)) ((-1.994784e-02 -1.150948e-19 6.397860e-03) (-3.580201e-06 1.189408e-02 -1.758556e-05) (0.000000e+00 0.000000e+00 0.000000e+00))
2.300000e+02	((-2.303085e-18 3.991361e-01 -3.160841e-37) (2.378772e-01 7.123280e-05 7.533898e-39) (0.000000e+00 0.000000e+00 0.000000e+00)) ((-1.995681e-02 -1.151542e-19 6.404141e-03) (-3.561640e-06 1.189386e-02 -1.737853e-05) (0.000000e+00 0.000000e+00 0.000000e+00))
2.350000e+02	((-2.303613e-18 3.992789e-01 -3.150640e-37) (2.378826e-01 7.166541e-05 7.515496e-39) (0.000000e+00 0.000000e+00 0.000000e+00)) ((-1.996394e-02 -1.151807e-19 6.405101e-03) (-3.583271e-06 1.189413e-02 -1.760267e-05) (0.000000e+00 0.000000e+00 0.000000e+00))
2.400000e+02	((-2.304231e-18 3.994049e-01 -3.147791e-37) (2.378779e-01 7.128936e-05 7.510331e-39) (0.000000e+00 0.000000e+00 0.000000e+00)) ((-1.997025e-02 -1.152116e-19 6.404687e-03) (-3.564468e-06 1.189389e-02 -1.739443e-05) (0.000000e+00 0.000000e+00 0.000000e+00))
2.450000e+02	((-2.304949e-18 3.995215e-01 -3.144218e-37) (2.378831e-01 7.171974e-05 7.504070e-39) (0.000000e+00 0.000000e+00 0.000000e+00)) ((-1.997607e-02 -1.152474e-19 6.402050e-03) (-3.585987e-06 1.189416e-02 -1.761811e-05) (0.000000e+00 0.000000e+00 0.000000e+00))
2.500000e+02	((-2.305228e-18 3.995979e-01 -3.140889e-37) (2.378783e-01 7.133936e-05 7.497845e-39) (0.000000e+00 0.000000e+00 0.000000e+00)) ((-1.997990e-02 -1.152614e-19 6.393345e-03) (-3.566968e-06 1.189391e-02 -1.740825e-05) (0.000000e+00 0.000000e+00 0.000000e+00))
2.550000e+02	((-2.305601e-18 3.996713e-01 -3.139768e-37) (2.378834e-01 7.176333e-05 7.496093e-39) (0.000000e+00 0.000000e+00 0.000000e+00)) ((-1.998357e-02 -1.152801e-19 6.387232e-03) (-3.588167e-06 1.189417e-02 -1.762994e-05) (0.000000e+00 0.000000e+00 0.000000e+00))
2.600000e+02	((-2.306083e-18 3.997417e-01 -3.137301e-37) (2.378785e-01 7.137798e-05 7.491499e-39) (0.000000e+00 0.000000e+00 0.000000e+00)) ((-1.998709e-02 -1.153042e-19 6.383743e-03) (-3.568899e-06 1.189392e-02 -1.741865e-05) (0.000000e+00 0.000000e+00 0.000000e+00))
2.650000e+02	((-2.306181e-18 3.997825e-01 -3.132962e-37) (2.378836e-01 7.179540e-05 7.483781e-39) (0.000000e+00 0.000000e+00 0.000000e+00)) ((-1.998912e-02 -1.153091e-19 6.372980e-03) (-3.589770e-06 1.189418e-02 -1.763897e-05) (0.000000e+00 0.000000e+00 0.000000e+00))
2.700000e+02	((-2.306414e-18 3.998149e-01 -3.134617e-37) (2.378786e-01 7.140597e-05 7.486742e-39) (0.000000e+00 0.000000e+00 0.000000e+00)) ((-1.999074e-02 -1.153207e-19 6.369644e-03) (-3.570298e-06 1.189393e-02 -1.742602e-05) (0.000000e+00 0.000000e+00 0.000000e+00))
2.750000e+02	((-2.306649e-18 3.998643e-01 -3.131182e-37) (2.378836e-01 7.181765e-05 7.480637e-39) (0.000000e+00 0.000000e+00 0.000000e+00)) ((-1.999322e-02 -1.153324e-19 6.366470e-03) (-3.590883e-06 1.189418e-02 -1.764432e-05) (0.000000e+00 0.000000e+00 0.000000e+00))
2.800000e+02	((-2.306839e-18 3.998881e-01 -3.130777e-37) (2.378786e-01 7.141890e-05 7.479768e-39) (0.000000e+00 0.000000e+00 0.000000e+00)) ((-1.999441e-02 -1.153420e-19 6.363609e-03) (-3.570945e-06 1.189393e-02 -1.743050e-05) (0.000000e+00 0.000000e+00 0.000000e+00))
2.850000e+02	((-2.306811e-18 3.999012e-01 -3.131180e-37) (2.378837e-01 7.183495e-05 7.480708e-39) (0.000000e+00 0.000000e+00 0.000000e+00)) ((-1.999506e-02 -1.153406e-19 6.358501e-03) (-3.591748e-06 1.189418e-02 -1.764878e-05) (0.000000e+00 0.000000e+00 0.000000e+00))
2.900000e+02	((-2.307088e-18 3.999328e-01 -3.130052e-37) (2.378786e-01 7.143204e-05 7.478484e-39) (0.000000e+00 0.000000e+00 0.000000e+00)) ((-1.999664e-02 -1.153544e-19 6.360845e-03) (-3.571602e-06 1.189393e-02 -1.743362e-05) (0.000000e+00 0.000000e+00 0.000000e+00))
2.950000e+02	((-2.307115e-18 3.999543e-01 -3.128171e-37) (2.378837e-01 7.184427e-05 7.475229e-39) (0.000000e+00 0.000000e+00 0.000000e+00)) ((-1.999772e-02 -1.153557e-19 6.358399e-03) (-3.592214e-06 1.189418e-02 -1.765143e-05) (0.000000e+00 0.000000e+00 0.000000e+00))
3.000000e+02	((-2.307284e-18 3.999652e-01 -3.129382e-37) (2.378786e-01 7.144000e-05 7.477352e-39) (0.000000e+00 0.000000e+00 0.000000e+00)) ((-1.999826e-02 -1.153642e-19 6.357776e-03) (-3.572000e-06 1.189393e-02 -1.743606e-05) (0.000000e+00 0.000000e+00 0.000000e+00))
3.050000e+02	((-2.307271e-18 3.999811e-01 -3.128137e-37) (2.378837e-01 7.185108e-05 7.475164e-39) (0.000000e+00 0.000000e+00 0.000000e+00)) ((-1.999905e-02 -1.153635e-19 6.357053e-03) (-3.592554e-06 1.189418e-02 -1.765298e-05) (0.000000e+00 0.000000e+00 0.000000e+00))
3.100000e+02	((-2.307476e-18 4.000040e-01 -3.128252e-37) (2.378787e-01 7.144634e-05 7.475260e-39) (0.000000e+00 0.000000e+00 0.000000e+00)) ((-2.000020e-02 -1.153738e-19 6.359366e-03) (-3.572317e-06 1.189393e-02 -1.743765e-05) (0.000000e+00 0.000000e+00 0.000000e+00))
3.150000e+02	((-2.307520e-18 4.000172e-01 -3.128383e-37) (2.378837e-01 7.185612e-05 7.475679e-39) (0.000000e+00 0.000000e+00 0.000000e+00)) ((-2.000086e-02 -1.153760e-19 6.358066e-03) (-3.592806e-06 1.189419e-02 -1.765459e-05) (0.000000e+00 0.000000e+00 0.000000e+00))
3.200000e+02	((-2.307617e-18 4.000270e-01 -3.126375e-37) (2.378787e-01 7.145104e-05 7.471869e-39) (0.000000e+00 0.000000e+00 0.000000e+00)) ((-2.000135e-02 -1.153809e-19 6.358673e-03) (-3.572552e-06 1.189393e-02 -1.743892e-05) (0.000000e+00 0.000000e+00 0.000000e+00))
3.250000e+02	((-2.307628e-18 4.000428e-01 -3.126064e-37) (2.378837e-01 7.186075e-05 7.471458e-39) (0.000000e+00 0.000000e+00 0.000000e+00)) ((-2.000214e-02 -1.153814e-19 6.358560e-03) (-3.593037e-06 1.189419e-02 -1.765573e-05) (0.000000e+00 0.000000e+00 0.000000e+00))
3.300000e+02	((-2.307807e-18 4.000577e-01 -3.126811e-37) (2.378787e-01 7.145560e-05 7.472712e-39) (0.000000e+00 0.000000e+00 0.000000e+00)) ((-2.000288e-02 -1.153904e-19 6.360707e-03) (-3.572780e-06 1.189394e-02 -1.744017e-05) (0.000000e+00 0.000000e+00 0.000000e+00))
3.350000e+02	((-2.307787e-18 4.000661e-01 -3.125198e-37) (2.378838e-01 7.186475e-05 7.469885e-39) (0.000000e+00 0.000000e+00 0.000000e+00)) ((-2.000330e-02 -1.153894e-19 6.358464e-03) (-3.593238e-06 1.189419e-02 -1.765695e-05) (0.000000e+00 0.000000e+00 0.000000e+00))
3.400000e+02	((-2.307909e-18 4.000780e-01 -3.124910e-37) (2.378787e-01 7.145980e-05 7.469260e-39) (0.000000e+00 0.000000e+00 0.000000e+00)) ((-2.000390e-02 -1.153954e-19 6.359809e-03) (-3.572990e-06 1.189393e-02 -1.744131e-05) (0.000000e+00 0.000000e+00 0.000000e+00))
3.450000e+02	((-2.307876e-18 4.000869e-01 -3.125472e-37) (2.378838e-01 7.186900e-05 7.470422e-39) (0.000000e+00 0.000000e+00 0.000000e+00)) ((-2.000434e-02 -1.153938e-19 6.359455e-03) (-3.593450e-06 1.189419e-02 -1.765799e-05) (0.000000e+00 0.000000e+00 0.000000e+00))
3.500000e+02	((-2.308023e-18 4.000970e-01 -3.124220e-37) (2.378787e-01 7.146362e-05 7.468003e-39) (0.000000e+00 0.000000e+00 0.000000e+00)) ((-2.000485e-02 -1.154012e-19 6.360269e-03) (-3.573181e-06 1.189393e-02 -1.744242e-05) (0.000000e+00 0.000000e+00 0.000000e+00))
3.550000e+02	((-2.307982e-18 4.001045e-01 -3.124478e-37) (2.378838e-01 7.187268e-05 7.468612e-39) (0.000000e+00 0.000000e+00 0.000000e+00)) ((-2.000523e-02 -1.153991e-19 6.358527e-03) (-3.593634e-06 1.189419e-02 -1.765907e-05) (0.000000e+00 0.000000e+00 0.000000e+00))
3.600000e+02	((-2.308079e-18 4.001112e-01 -3.124882e-37) (2.378787e-01 7.146718e-05 7.469229e-39) (0.000000e+00 0.000000e+00 0.000000e+00)) ((-2.000556e-02 -1.154039e-19 6.359639e-03) (-3.573359e-06 1.189393e-02 -1.744335e-05) (0.000000e+00 0.000000e+00 0.000000e+00))
3.650000e+02	((-2.308039e-18 4.001163e-01 -3.123816e-37) (2.378838e-01 7.187608e-05 7.467408e-39) (0.000000e+00 0.000000e+00 0.000000e+00)) ((-2.000582e-02 -1.154019e-19 6.358310e-03) (-3.593804e-06 1.189419e-02 -1.765995e-05) (0.000000e+00 0.000000e+00 0.000000e+00))
3.700000e+02	((-2.308154e-18 4.001237e-01 -3.123966e-37) (2.378787e-01 7.147003e-05 7.467568e-39) (0.000000e+00 0.000000e+00 0.000000e+00)) ((-2.000618e-02 -1.154077e-19 6.359185e-03) (-3.573501e-06 1.189393e-02 -1.744419e-05) (0.000000e+00 0.000000e+00 0.000000e+00))
3.750000e+02	((-2.308096e-18 4.001277e-01 -3.123934e-37) (2.378838e-01 7.187881e-05 7.467649e-39) (0.000000e+00 0.000000e+00 0.000000e+00)) ((-2.000639e-02 -1.154048e-19 6.357369e-03) (-3.593941e-06 1.189419e-02 -1.766070e-05) (0.000000e+00 0.000000e+00 0.000000e+00))
3.800000e+02	((-2.308186e-18 4.001309e-01 -3.123424e-37) (2.378787e-01 7.147227e-05 7.466581e-39) (0.000000e+00 0.000000e+00 0.000000e+00)) ((-2.000654e-02 -1.154093e-19 6.358526e-03) (-3.573614e-06 1.189393e-02 -1.744477e-05) (0.000000e+00 0.000000e+00 0.000000e+00))
3.850000e+02	((-2.308124e-18 4.001338e-01 -3.123552e-37) (2.378838e-01 7.188068e-05 7.466951e-39) (0.000000e+00 0.000000e+00 0.000000e+00)) ((-2.000669e-02 -1.154062e-19 6.357000e-03) (-3.594034e-06 1.189419e-02 -1.766124e-05) (0.000000e+00 0.000000e+00 0.000000e+00))
3.900000e+02	((-2.308237e-18 4.001390e-01 -3.123826e-37) (2.378787e-01 7.147414e-05 7.467327e-39) (0.000000e+00 0.000000e+00 0.000000e+00)) ((-2.000695e-02 -1.154118e-19 6.357889e-03) (-3.573707e-06 1.189393e-02 -1.744527e-05) (0.000000e+00 0.000000e+00 0.000000e+00))
3.950000e+02	((-2.308159e-18 4.001401e-01 -3.123026e-37) (2.378837e-01 7.188212e-05 7.465995e-39) (0.000000e+00 0.000000e+00 0.000000e+00)) ((-2.000700e-02 -1.154079e-19 6.356566e-03) (-3.594106e-06 1.189419e-02 -1.766160e-05) (0.000000e+00 0.000000e+00 0.000000e+00))
4.000000e+02	((-2.308248e-18 4.001424e-01 -3.123121e-37) (2.378787e-01 7.147531e-05 7.466052e-39) (0.000000e+00 0.000000e+00 0.000000e+00)) ((-2.000712e-02 -1.154124e-19 6.357606e-03) (-3.573765e-06 1.189393e-02 -1.744563e-05) (0.000000e+00 0.000000e+00 0.000000e+00))
4.050000e+02	((-2.308186e-18 4.001440e-01 -3.123323e-37) (2.378837e-01 7.188326e-05 7.466548e-39) (0.000000e+00 0.000000e+00 0.000000e+00)) ((-2.000720e-02 -1.154093e-19 6.356081e-03) (-3.594163e-06 1.189419e-02 -1.766190e-05) (0.000000e+00 0.000000e+00 0.000000e+00))
4.100000e+02	((-2.308274e-18 4.001470e-01 -3.123011e-37) (2.378787e-01 7.147633e-05 7.465845e-39) (0.000000e+00 0.000000e+00 0.000000e+00)) ((-2.000735e-02 -1.154137e-19 6.357466e-03) (-3.573816e-06 1.189393e-02 -1.744584e-05) (0.000000e+00 0.000000e+00 0.000000e+00))
4.150000e+02	((-2.308204e-18 4.001476e-01 -3.123129e-37) (2.378837e-01 7.188396e-05 7.466194e-39) (0.000000e+00 0.000000e+00 0.000000e+00)) ((-2.000738e-02 -1.154102e-19 6.356173e-03) (-3.594198e-06 1.189419e-02 -1.766214e-05) (0.000000e+00 0.000000e+00 0.000000e+00))
4.200000e+02	((-2.308294e-18 4.001499e-01 -3.123255e-37) (2.378787e-01 7.147701e-05 7.466298e-39) (0.000000e+00 0.000000e+00 0.000000e+00)) ((-2.000749e-02 -1.154147e-19 6.357105e-03) (-3.573851e-06 1.189393e-02 -1.744605e-05) (0.000000e+00 0.000000e+00 0.000000e+00))
4.250000e+02	((-2.308220e-18 4.001506e-01 -3.123036e-37) (2.378837e-01 7.188467e-05 7.466019e-39) (0.000000e+00 0.000000e+00 0.000000e+00)) ((-2.000753e-02 -1.154110e-19 6.356045e-03) (-3.594234e-06 1.189419e-02 -1.766227e-05) (0.000000e+00 0.000000e+00 0.000000e+00))
4.300000e+02	((-2.308308e-18 4.001529e-01 -3.123074e-37) (2.378787e-01 7.147753e-05 7.465968e-39) (0.000000e+00 0.000000e+00 0.000000e+00)) ((-2.000765e-02 -1.154154e-19 6.357392e-03) (-3.573877e-06 1.189393e-02 -1.744621e-05) (0.000000e+00 0.000000e+00 0.000000e+00))
4.350000e+02	((-2.308239e-18 4.001533e-01 -3.123207e-37) (2.378837e-01 7.188514e-05 7.466337e-39) (0.000000e+00 0.000000e+00 0.000000e+00)) ((-2.000767e-02 -1.154119e-19 6.355917e-03) (-3.594257e-06 1.189419e-02 -1.766243e-05) (0.000000e+00 0.000000e+00 0.000000e+00))
4.400000e+02	((-2.308324e-18 4.001555e-01 -3.122650e-37) (2.378786e-01 7.147819e-05 7.465200e-39) (0.000000e+00 0.000000e+00 0.000000e+00)) ((-2.000777e-02 -1.154162e-19 6.357241e-03) (-3.573909e-06 1.189393e-02 -1.744633e-05) (0.000000e+00 0.000000e+00 0.000000e+00))
4.450000e+02	((-2.308245e-18 4.001553e-01 -3.122691e-37) (2.378837e-01 7.188547e-05 7.465406e-39) (0.000000e+00 0.000000e+00 0.000000e+00)) ((-2.000776e-02 -1.154123e-19 6.356166e-03) (-3.594274e-06 1.189419e-02 -1.766253e-05) (0.000000e+00 0.000000e+00 0.000000e+00))
4.500000e+02	((-2.308334e-18 4.001573e-01 -3.122742e-37) (2.378786e-01 7.147848e-05 7.465372e-39) (0.000000e+00 0.000000e+00 0.000000e+00)) ((-2.000786e-02 -1.154167e-19 6.357157e-03) (-3.573924e-06 1.189393e-02 -1.744645e-05) (0.000000e+00 0.000000e+00 0.000000e+00))
4.550000e+02	((-2.308262e-18 4.001577e-01 -3.122659e-37) (2.378837e-01 7.188600e-05 7.465345e-39) (0.000000e+00 0.000000e+00 0.000000e+00)) ((-2.000788e-02 -1.154131e-19 6.356051e-03) (-3.594300e-06 1.189419e-02 -1.766263e-05) (0.000000e+00 0.000000e+00 0.000000e+00))
4.600000e+02	((-2.308342e-18 4.001592e-01 -3.122667e-37) (2.378786e-01 7.147877e-05 7.465236e-39) (0.000000e+00 0.000000e+00 0.000000e+00)) ((-2.000796e-02 -1.154171e-19 6.357385e-03) (-3.573938e-06 1.189393e-02 -1.744654e-05) (0.000000e+00 0.000000e+00 0.000000e+00))
4.650000e+02	((-2.308269e-18 4.001590e-01 -3.122725e-37) (2.378837e-01 7.188630e-05 7.465468e-39) (0.000000e+00 0.000000e+00 0.000000e+00)) ((-2.000795e-02 -1.154134e-19 6.355936e-03) (-3.594315e-06 1.189419e-02 -1.766275e-05) (0.000000e+00 0.000000e+00 0.000000e+00))
4.700000e+02	((-2.308353e-18 4.001608e-01 -3.122620e-37) (2.378786e-01 7.147915e-05 7.465148e-39) (0.000000e+00 0.000000e+00 0.000000e+00)) ((-2.000804e-02 -1.154177e-19 6.357252e-03) (-3.573958e-06 1.189393e-02 -1.744661e-05) (0.000000e+00 0.000000e+00 0.000000e+00))
4.750000e+02	((-2.308275e-18 4.001606e-01 -3.122659e-37) (2.378837e-01 7.188658e-05 7.465348e-39) (0.000000e+00 0.000000e+00 0.000000e+00)) ((-2.000803e-02 -1.154137e-19 6.356117e-03) (-3.594329e-06 1.189419e-02 -1.766282e-05) (0.000000e+00 0.000000e+00 0.000000e+00))
4.800000e+02	((-2.308360e-18 4.001619e-01 -3.122676e-37) (2.378786e-01 7.147939e-05 7.465252e-39) (0.000000e+00 0.000000e+00 0.000000e+00)) ((-2.000810e-02 -1.154180e-19 6.357161e-03) (-3.573970e-06 1.189393e-02 -1.744670e-05) (0.000000e+00 0.000000e+00 0.000000e+00))
4.850000e+02	((-2.308282e-18 4.001617e-01 -3.122627e-37) (2.378837e-01 7.188688e-05 7.465289e-39) (0.000000e+00 0.000000e+00 0.000000e+00)) ((-2.000808e-02 -1.154141e-19 6.355966e-03) (-3.594344e-06 1.189419e-02 -1.766288e-05) (0.000000e+00 0.000000e+00 0.000000e+00))
4.900000e+02	((-2.308363e-18 4.001630e-01 -3.122616e-37) (2.378786e-01 7.147962e-05 7.465144e-39) (0.000000e+00 0.000000e+00 0.000000e+00)) ((-2.000815e-02 -1.154182e-19 6.357271e-03) (-3.573981e-06 1.189393e-02 -1.744676e-05) (0.000000e+00 0.000000e+00 0.000000e+00))
4.950000e+02	((-2.308288e-18 4.001626e-01 -3.122652e-37) (2.378837e-01 7.188707e-05 7.465336e-39) (0.000000e+00 0.000000e+00 0.000000e+00)) ((-2.000813e-02 -1.154144e-19 6.355904e-03) (-3.594354e-06 1.189419e-02 -1.766295e-05) (0.000000e+00 0.000000e+00 0.000000e+00))
5.000000e+02	((-2.308369e-18 4.001638e-01 -3.122596e-37) (2.378786e-01 7.147985e-05 7.465106e-39) (0.000000e+00 0.000000e+00 0.000000e+00)) ((-2.000819e-02 -1.154185e-19 6.357144e-03) (-3.573993e-06 1.189393e-02 -1.744681e-05) (0.000000e+00 0.000000e+00 0.000000e+00))
5.050000e+02	((-2.308290e-18 4.001633e-01 -3.122616e-37) (2.378837e-01 7.188724e-05 7.465272e-39) (0.000000e+00 0.000000e+00 0.000000e+00)) ((-2.000816e-02 -1.154145e-19 6.355964e-03) (-3.594362e-06 1.189419e-02 -1.766300e-05) (0.000000e+00 0.000000e+00 0.000000e+00))
5.100000e+02	((-2.308373e-18 4.001645e-01 -3.122601e-37) (2.378786e-01 7.147999e-05 7.465117e-39) (0.000000e+00 0.000000e+00 0.000000e+00)) ((-2.000822e-02 -1.154186e-19 6.357096e-03) (-3.574000e-06 1.189393e-02 -1.744686e-05) (0.000000e+00 0.000000e+00 0.000000e+00))
5.150000e+02	((-2.308295e-18 4.001639e-01 -3.122590e-37) (2.378837e-01 7.188741e-05 7.465223e-39) (0.000000e+00 0.000000e+00 0.000000e+00)) ((-2.000820e-02 -1.154147e-19 6.355877e-03) (-3.594370e-06 1.189419e-02 -1.766303e-05) (0.000000e+00 0.000000e+00 0.000000e+00))
5.200000e+02	((-2.308374e-18 4.001649e-01 -3.122576e-37) (2.378786e-01 7.148011e-05 7.465072e-39) (0.000000e+00 0.000000e+00 0.000000e+00)) ((-2.000825e-02 -1.154187e-19 6.357140e-03) (-3.574005e-06 1.189393e-02 -1.744689e-05) (0.000000e+00 0.000000e+00 0.000000e+00))
5.250000e+02	((-2.308297e-18 4.001643e-01 -3.122592e-37) (2.378837e-01 7.188750e-05 7.465227e-39) (0.000000e+00 0.000000e+00 0.000000e+00)) ((-2.000822e-02 -1.154148e-19 6.355831e-03) (-3.594375e-06 1.189419e-02 -1.766307e-05) (0.000000e+00 0.000000e+00 0.000000e+00))
5.300000e+02	((-2.308378e-18 4.001654e-01 -3.122552e-37) (2.378786e-01 7.148023e-05 7.465028e-39) (0.000000e+00 0.000000e+00 0.000000e+00)) ((-2.000827e-02 -1.154189e-19 6.357082e-03) (-3.574011e-06 1.189393e-02 -1.744691e-05) (0.000000e+00 0.000000e+00 0.000000e+00))
5.350000e+02	((-2.308298e-18 4.001647e-01 -3.122567e-37) (2.378837e-01 7.188758e-05 7.465182e-39) (0.000000e+00 0.000000e+00 0.000000e+00)) ((-2.000824e-02 -1.154149e-19 6.355884e-03) (-3.594379e-06 1.189419e-02 -1.766309e-05) (0.000000e+00 0.000000e+00 0.000000e+00))
5.400000e+02	((-2.308379e-18 4.001657e-01 -3.122545e-37) (2.378786e-01 7.148029e-05 7.465016e-39) (0.000000e+00 0.000000e+00 0.000000e+00)) ((-2.000828e-02 -1.154190e-19 6.357044e-03) (-3.574014e-06 1.189393e-02 -1.744694e-05) (0.000000e+00 0.000000e+00 0.000000e+00))
5.450000e+02	((-2.308300e-18 4.001650e-01 -3.122550e-37) (2.378837e-01 7.188767e-05 7.465152e-39) (0.000000e+00 0.000000e+00 0.000000e+00)) ((-2.000825e-02 -1.154150e-19 6.355829e-03) (-3.594383e-06 1.189419e-02 -1.766310e-05) (0.000000e+00 0.000000e+00 0.000000e+00))
5.500000e+02	((-2.308381e-18 4.001660e-01 -3.122526e-37) (2.378786e-01 7.148035e-05 7.464982e-39) (0.000000e+00 0.000000e+00 0.000000e+00)) ((-2.000830e-02 -1.154190e-19 6.357099e-03) (-3.574018e-06 1.189393e-02 -1.744695e-05) (0.000000e+00 0.000000e+00 0.000000e+00))