/*--------------------------------*- C++ -*----------------------------------*\
| =========                 |                                                 |
| \\      /  F ield         | OpenFOAM: The Open Source CFD Toolbox           |
|  \\    /   O peration     | Version:  2.3.0                                 |
|   \\  /    A nd           | Web:      www.OpenFOAM.org                      |
|    \\/     M anipulation  |                                                 |
\*---------------------------------------------------------------------------*/
FoamFile
{
    version     2.0;
    format      ascii;
    class       volScalarField;
    location    "1000";
    object      nut;
}
// * * * * * * * * * * * * * * * * * * * * * * * * * * * * * * * * * * * * * //

dimensions      [0 2 -1 0 0 0 0];

internalField   nonuniform List<scalar> 
14201
(
0.0614024
0.0581689
0.0549877
0.051875
0.0488392
0.0458886
0.0430321
0.0402804
0.0376453
0.0351416
0.0327871
0.0305984
0.0285887
0.0267748
0.0251759
0.0237873
0.0225209
0.0212819
0.0200392
0.018771
0.0174383
0.0159848
0.0143861
0.0129122
0.0646556
0.0619515
0.0593245
0.0567709
0.0542929
0.0518948
0.0495815
0.0473582
0.0452302
0.0432035
0.041284
0.0394775
0.0377911
0.0362346
0.034818
0.0335508
0.0324408
0.0314918
0.0307107
0.0301009
0.0296663
0.0294079
0.0293249
0.0294157
0.0675688
0.0653156
0.063132
0.0610163
0.0589697
0.0569947
0.055095
0.0532745
0.0515375
0.0498882
0.0483314
0.0468726
0.0455167
0.0442705
0.0431401
0.0421328
0.0412553
0.0405128
0.0399108
0.0394529
0.03914
0.0389715
0.038944
0.0390501
0.0701988
0.0683058
0.0664788
0.0647119
0.0630041
0.0613567
0.0597727
0.058255
0.0568074
0.0554333
0.0541363
0.0529214
0.051793
0.050756
0.0498159
0.0489779
0.0482479
0.0476309
0.0471314
0.0467528
0.0464966
0.0463628
0.0463493
0.0464515
0.0725371
0.0709492
0.0694118
0.0679228
0.0664814
0.0650887
0.0637468
0.0624585
0.061227
0.0600554
0.0589473
0.057907
0.0569385
0.0560466
0.0552363
0.0545124
0.0538799
0.0533445
0.0529103
0.0525808
0.0523581
0.0522438
0.0522371
0.0523353
0.0746272
0.0732831
0.0719785
0.0707109
0.06948
0.0682865
0.067132
0.0660195
0.0649522
0.0639328
0.0629653
0.0620535
0.0612019
0.0604147
0.0596973
0.0590543
0.0584906
0.0580117
0.0576224
0.0573262
0.0571258
0.0570237
0.05702
0.0571134
0.0764817
0.0753403
0.0742241
0.0731341
0.0720706
0.0710344
0.070027
0.0690509
0.06811
0.0672077
0.0663473
0.0655328
0.0647684
0.0640595
0.0634112
0.0628282
0.0623155
0.0618782
0.0615213
0.0612492
0.0610649
0.0609715
0.0609698
0.0610589
0.0781378
0.0771556
0.0761913
0.0752442
0.0743151
0.0734049
0.0725145
0.0716457
0.070803
0.0699923
0.0692161
0.0684773
0.0677803
0.0671299
0.0665346
0.065998
0.0655249
0.0651195
0.0647865
0.0645329
0.0643613
0.0642748
0.0642749
0.0643606
0.0796035
0.0787575
0.0779173
0.0770858
0.0762653
0.075457
0.074662
0.0738797
0.0731129
0.0723741
0.0716671
0.0709868
0.0703488
0.0697378
0.0691846
0.0686838
0.068242
0.0678656
0.0675479
0.0673102
0.0671482
0.0670675
0.0670706
0.0671563
0.0809205
0.0801805
0.0794363
0.0786938
0.0779572
0.0772286
0.0765109
0.0758079
0.0751061
0.074419
0.0737754
0.0731268
0.0725638
0.071965
0.0714465
0.070974
0.0705521
0.0702162
0.0698995
0.0696811
0.0695249
0.0694473
0.0694524
0.0695505
0.0138241
0.01624
0.0177491
0.0191684
0.0207102
0.0224261
0.0243139
0.0263575
0.0285388
0.0308419
0.0332543
0.0357658
0.0383687
0.0410559
0.0438207
0.0466568
0.0495578
0.0525171
0.0555279
0.058583
0.0616752
0.0647968
0.0679416
0.0711145
0.0296603
0.0300707
0.0306737
0.0314743
0.0324693
0.0336503
0.0350059
0.0365222
0.0381845
0.0399781
0.0418897
0.043907
0.0460188
0.0482155
0.0504885
0.0528309
0.0552355
0.0576961
0.0602073
0.0627635
0.0653591
0.0679886
0.0706466
0.0733419
0.0392768
0.0396313
0.0401332
0.0407853
0.0415868
0.042534
0.0436206
0.0448385
0.0461785
0.0476308
0.0491856
0.050834
0.052567
0.0543764
0.0562557
0.0581986
0.0601991
0.0622521
0.0643532
0.066498
0.068682
0.0709011
0.0731521
0.0754483
0.0466622
0.046985
0.0474307
0.0480008
0.0486946
0.049508
0.0504362
0.0514732
0.0526109
0.0538418
0.0551584
0.0565531
0.0580184
0.0595481
0.0611364
0.062778
0.0644686
0.0662043
0.0679814
0.0697968
0.0716471
0.0735293
0.0754408
0.0773964
0.0525335
0.0528341
0.053243
0.0537606
0.0543853
0.0551125
0.0559369
0.0568531
0.0578535
0.0589317
0.0600809
0.061294
0.0625648
0.063888
0.0652583
0.0666714
0.0681242
0.0696131
0.0711355
0.0726891
0.0742715
0.0758803
0.077513
0.0791764
0.057301
0.0575845
0.0579669
0.0584471
0.0590225
0.0596888
0.0604399
0.0612698
0.0621722
0.0631401
0.0641668
0.0652459
0.066372
0.0675399
0.0687446
0.0699825
0.0712509
0.0725473
0.0738696
0.0752156
0.0765833
0.0779711
0.0793777
0.0808046
0.0612373
0.0615065
0.0618681
0.0623203
0.0628591
0.06348
0.0641766
0.0649425
0.0657717
0.0666566
0.0675904
0.0685675
0.0695826
0.0706306
0.0717067
0.0728075
0.0739313
0.0750763
0.07624
0.0774203
0.0786152
0.0798237
0.0810448
0.0822778
0.0645302
0.0647864
0.065131
0.0655616
0.0660727
0.0666585
0.0673128
0.06803
0.0688029
0.0696231
0.0704841
0.0713812
0.0723098
0.0732634
0.0742369
0.075228
0.0762368
0.0772617
0.0782986
0.0793453
0.0804003
0.0814623
0.0825314
0.0836092
0.0673137
0.067557
0.0678873
0.068302
0.0687917
0.0693491
0.0699691
0.0706492
0.0713786
0.0721462
0.0729472
0.073781
0.0746424
0.0755202
0.0764086
0.0773092
0.0782264
0.0791568
0.0800901
0.0810291
0.0819695
0.0829109
0.0838557
0.0848079
0.0696834
0.0699145
0.0702326
0.0706364
0.071105
0.0716358
0.072227
0.07288
0.0735711
0.0742891
0.0750402
0.0758268
0.0766381
0.0774501
0.0782646
0.0790937
0.0799408
0.0807981
0.0816456
0.082501
0.0833433
0.0841873
0.0850342
0.0858906
0.0586696
0.0534617
0.0482367
0.0431433
0.0383623
0.0340114
0.0300964
0.0265813
0.0234265
0.0205955
0.0180554
0.0157776
0.0137364
0.0119097
0.0102785
0.00882653
0.00754101
0.00641553
0.00544754
0.00464296
0.00406521
0.00349914
0.00285922
0.00206512
0.0594131
0.0547084
0.04999
0.0453519
0.0409247
0.0368261
0.0330954
0.0297152
0.0266549
0.0238849
0.0213786
0.0191128
0.0170683
0.0152295
0.0135857
0.0121343
0.0108758
0.00981497
0.00898592
0.00817275
0.00731149
0.00635782
0.00525682
0.00392847
0.060232
0.0560287
0.0517994
0.0476081
0.0435392
0.0396913
0.0361359
0.0328845
0.0299168
0.0272091
0.02474
0.0224926
0.0204546
0.0186194
0.0169905
0.0155705
0.0143651
0.013375
0.0123864
0.0113387
0.0101859
0.00888453
0.00738676
0.00563408
0.0611164
0.0573511
0.0535549
0.049767
0.0460381
0.0424382
0.0390469
0.0359098
0.0330235
0.0303694
0.0279319
0.0257002
0.0236697
0.0218447
0.0202342
0.0188413
0.0176842
0.0165522
0.0153733
0.0141001
0.0126895
0.0110976
0.0092762
0.0071749
0.0619948
0.0586147
0.0551947
0.0517583
0.0483363
0.0449754
0.0417446
0.0387133
0.0358996
0.033293
0.0308826
0.0286639
0.0266398
0.0248252
0.0232303
0.0218749
0.0206215
0.0193465
0.0179967
0.0165274
0.0148953
0.0130551
0.010958
0.00855258
0.0628394
0.0597893
0.0566898
0.0535542
0.0504004
0.0472591
0.0441853
0.0412562
0.0385122
0.0359501
0.0335654
0.0313595
0.0293415
0.0275284
0.0259275
0.0245578
0.0232089
0.0218094
0.0203126
0.0186748
0.0168517
0.0147964
0.0124573
0.00977984
0.0636167
0.0608537
0.0580289
0.0551502
0.0522279
0.049283
0.0463582
0.0435294
0.0408534
0.0383349
0.0359761
0.0337846
0.0317767
0.0299689
0.0283732
0.026943
0.0255017
0.0239912
0.022366
0.0205818
0.0185926
0.0163482
0.0137937
0.0108716
0.0643238
0.0618012
0.0592119
0.0565534
0.0538312
0.0510601
0.0482739
0.0455427
0.0429333
0.0404566
0.0381227
0.0359465
0.03395
0.0321494
0.0305645
0.0290647
0.027537
0.0259273
0.0241894
0.0222778
0.0201432
0.017733
0.0149876
0.0118451
0.0649114
0.0626235
0.0602434
0.0577765
0.0552278
0.0526101
0.049952
0.0473163
0.0447735
0.0423335
0.0400206
0.0378583
0.0358748
0.034081
0.0324919
0.0309376
0.0293375
0.0276422
0.0258061
0.0237834
0.0215223
0.0189688
0.0160603
0.0127239
0.0654328
0.0633366
0.0611363
0.0588352
0.0564361
0.0539514
0.051411
0.0488728
0.0464057
0.04399
0.0416865
0.0395338
0.0375672
0.0357962
0.0341865
0.032586
0.030926
0.0291571
0.0272345
0.0251161
0.022739
0.0200595
0.0170357
0.0135892
0.00110834
0.000823411
0.00109475
0.00139613
0.00168622
0.00196904
0.00225256
0.00254822
0.00287431
0.00325997
0.00374795
0.00436888
0.00510187
0.00594035
0.00688613
0.00794476
0.0091239
0.0104311
0.0118737
0.0134606
0.0152017
0.017107
0.0191855
0.0214487
0.00235329
0.00134627
0.00138933
0.00168119
0.00197998
0.00227801
0.00258853
0.00293061
0.00332749
0.00380459
0.0043858
0.0050804
0.00586563
0.00674004
0.00770658
0.00877051
0.00993779
0.0112138
0.012605
0.0141189
0.0157641
0.0175487
0.0194821
0.0215765
0.00362451
0.00197973
0.00167372
0.0019384
0.00225451
0.00258399
0.00294326
0.00335343
0.0038334
0.00439668
0.00505528
0.00580773
0.006636
0.00753995
0.00852267
0.00958816
0.0107404
0.0119837
0.0133234
0.0147658
0.0163175
0.0179859
0.0197792
0.021707
0.00478829
0.00263363
0.0019488
0.00217037
0.00251294
0.00288746
0.00330881
0.0037937
0.00435181
0.00498779
0.00571251
0.00651182
0.00737513
0.00830309
0.00929776
0.0103616
0.0114973
0.0127082
0.0139986
0.0153736
0.0168387
0.0183995
0.0200632
0.0218374
0.00582726
0.00325566
0.00221448
0.00238455
0.00276162
0.0031902
0.00367827
0.00423505
0.00486236
0.00556102
0.0063396
0.00717831
0.0080713
0.0090189
0.0100221
0.0110822
0.0122008
0.0133809
0.0146254
0.0159381
0.0173234
0.0187861
0.0203315
0.0219658
0.00675053
0.00382494
0.00246814
0.00258645
0.0030036
0.00348983
0.00404313
0.00466526
0.00535289
0.00610687
0.00692957
0.00780195
0.00872034
0.00968435
0.0106938
0.0117488
0.0128508
0.0140017
0.0152037
0.0164594
0.0177721
0.0191452
0.0205829
0.0220888
0.00756894
0.00433656
0.0027074
0.00277873
0.00323884
0.00378262
0.00439655
0.00507619
0.00581565
0.00661951
0.00747963
0.00838156
0.00932183
0.0102995
0.0113133
0.012363
0.0134492
0.0145729
0.0157357
0.0169395
0.0181861
0.0194777
0.020817
0.0222058
0.00829344
0.0047921
0.00293158
0.00296244
0.00346638
0.00406492
0.00473364
0.00546367
0.00624922
0.00709687
0.0079897
0.00891747
0.00987699
0.0108658
0.0118827
0.0129269
0.0139983
0.0150971
0.0162241
0.0173804
0.0185668
0.0197845
0.0210346
0.0223184
0.00894141
0.00519532
0.00313668
0.0031375
0.00368342
0.00433117
0.00505004
0.00582603
0.00665393
0.00753892
0.00846096
0.0094119
0.0103878
0.0113856
0.0124044
0.0134436
0.0145015
0.0155771
0.0166716
0.0177858
0.0189181
0.0200677
0.0212372
0.0224334
0.00961788
0.00560846
0.00335008
0.00330139
0.00388856
0.00460005
0.00536009
0.00617068
0.00703466
0.00794975
0.00889494
0.00986251
0.0108453
0.0118484
0.0128781
0.0139229
0.0149669
0.0160121
0.0170829
0.0181707
0.0192528
0.0203288
0.0214132
0.0225192
0.000609233
0.00210068
0.00426214
0.00663628
0.00897095
0.0112061
0.0133313
0.0153508
0.017282
0.019166
0.0210566
0.0229918
0.0249695
0.0269544
0.029174
0.0317463
0.0345967
0.037649
0.0408526
0.0441747
0.0475933
0.051091
0.0546531
0.0582599
0.000450327
0.00139723
0.0032407
0.0051162
0.00692721
0.00873144
0.0105563
0.0123985
0.0142525
0.016116
0.0179945
0.0198997
0.0218403
0.0238291
0.0259521
0.0282858
0.0307843
0.0335825
0.0367721
0.0402282
0.043855
0.0475949
0.0514097
0.0552579
0.000279869
0.000936253
0.0021945
0.00389254
0.00596806
0.00796904
0.00984464
0.0116329
0.0133658
0.015069
0.0167662
0.0184808
0.0202376
0.0220669
0.024011
0.0261198
0.0284187
0.0309655
0.0337597
0.036938
0.0405248
0.0443651
0.0483475
0.0523964
0.000305473
0.00080673
0.00188388
0.00333749
0.00520859
0.00729988
0.00934932
0.0113016
0.0131506
0.0149011
0.0165672
0.0181747
0.0197611
0.0213738
0.0230674
0.0249017
0.0269341
0.0292142
0.0317639
0.0346331
0.0377992
0.0414889
0.0455061
0.0496979
0.000280916
0.000722611
0.0016905
0.00299002
0.00465879
0.00669018
0.00883772
0.0109366
0.0129451
0.0148501
0.0166417
0.0183179
0.0198932
0.0214031
0.0229056
0.024477
0.0262033
0.0281644
0.0304195
0.0330048
0.0359091
0.0391546
0.042975
0.0471678
0.000280245
0.000674793
0.00157596
0.0027793
0.00432062
0.00622787
0.00838666
0.0105821
0.0127199
0.0147693
0.0167118
0.0185298
0.020212
0.021763
0.0232142
0.024629
0.0261015
0.027742
0.0296545
0.0319117
0.0345381
0.0375242
0.0409106
0.0449013
0.000273246
0.000636844
0.00148874
0.00262324
0.00407284
0.00586928
0.00798831
0.0102413
0.0124833
0.0146566
0.0167358
0.0186995
0.020525
0.0221958
0.0237115
0.0251021
0.0264383
0.0278315
0.0294158
0.0313148
0.0336086
0.036319
0.0394413
0.0430171
0.000270396
0.000610067
0.00142616
0.00250939
0.00389071
0.00560099
0.0076533
0.00992476
0.012245
0.0145244
0.0167248
0.0188212
0.0207882
0.0225996
0.0242359
0.0256962
0.0270147
0.0282743
0.0296067
0.031169
0.0331002
0.0354818
0.0383311
0.0416332
0.000266873
0.000588044
0.00137528
0.00241815
0.00374569
0.00538723
0.00736943
0.0096313
0.0120068
0.0143769
0.0166854
0.0189021
0.0210003
0.0229504
0.0247236
0.0262998
0.0276821
0.028915
0.0301007
0.0313965
0.0329809
0.0350012
0.0375313
0.0405755
0.000264239
0.000570775
0.00133438
0.00234451
0.00362854
0.00521426
0.0071325
0.00936473
0.0117728
0.0142176
0.0166225
0.0189488
0.0211675
0.0232483
0.025158
0.0268662
0.0283552
0.029637
0.0307746
0.031898
0.0331935
0.0348576
0.0370338
0.0397792
0.000261677
0.000556831
0.00129973
0.00228249
0.00353026
0.0050694
0.00693165
0.00912342
0.0115449
0.0140492
0.0165397
0.0189659
0.0212957
0.0234981
0.0255384
0.0273806
0.0289947
0.0303695
0.0315326
0.0325752
0.0336631
0.0350126
0.0368278
0.0392363
0.000259274
0.000544849
0.00127016
0.00222948
0.00344634
0.00494585
0.00675944
0.00890691
0.0113257
0.0138746
0.0164398
0.0189573
0.0213897
0.0237052
0.0258685
0.0278412
0.0295857
0.0310756
0.0323118
0.0333472
0.0343116
0.0354124
0.0368907
0.0389453
0.000256898
0.000534345
0.00124423
0.00218311
0.00337301
0.00483818
0.00660909
0.00871252
0.0111165
0.0136961
0.0163253
0.0189259
0.0214536
0.0238743
0.0261531
0.0282503
0.0301243
0.0317388
0.0330754
0.0341559
0.0350703
0.0359973
0.0371862
0.0388904
0.000254498
0.000524889
0.00122102
0.00214184
0.00330786
0.00474263
0.00647594
0.00853755
0.0109183
0.0135157
0.0161985
0.0188744
0.0214902
0.0240094
0.0263965
0.0286118
0.0306114
0.0323527
0.0338042
0.0349637
0.0358852
0.0367094
0.0376702
0.0390497
0.000252065
0.000516316
0.00120007
0.00210461
0.00324928
0.00465685
0.00635639
0.00837919
0.0107314
0.0133355
0.0160613
0.0188048
0.0215024
0.0241136
0.0266025
0.0289293
0.0310494
0.0329161
0.0344891
0.035748
0.0367176
0.0374995
0.0382967
0.039395
0.000249575
0.000508414
0.00118087
0.00207063
0.00319596
0.00457892
0.00624793
0.00823477
0.0105556
0.0131571
0.0159161
0.0187191
0.0214923
0.0241897
0.0267742
0.0292065
0.0314413
0.0334301
0.0351262
0.0364964
0.0375419
0.0383291
0.0390231
0.0398931
0.000247075
0.000501105
0.00116326
0.00203934
0.00314696
0.00450749
0.0061486
0.00810206
0.0103908
0.012982
0.0157649
0.0186195
0.021462
0.0242402
0.0269148
0.0294465
0.0317906
0.033897
0.0357152
0.0372025
0.0383419
0.0391701
0.0398134
0.0405112
0.000244568
0.000494345
0.00114691
0.00201039
0.00310151
0.00444142
0.00605681
0.00797946
0.0102363
0.0128114
0.0156096
0.0185081
0.0214139
0.0242675
0.027027
0.0296527
0.0321005
0.0343197
0.0362571
0.0378636
0.0391082
0.0400032
0.0406392
0.0412208
0.000242017
0.000487981
0.00113164
0.0019834
0.00305923
0.00437983
0.00597156
0.00786551
0.0100913
0.0126462
0.015452
0.0183872
0.0213502
0.0242741
0.0271135
0.0298282
0.0323743
0.0347013
0.0367543
0.0384796
0.0398359
0.0408158
0.0414791
0.0419939
0.000239447
0.000482013
0.00111736
0.00195819
0.00301981
0.00432248
0.00589212
0.00775943
0.0099554
0.0124873
0.0152941
0.0182589
0.0212733
0.0242627
0.0271774
0.0299762
0.0326155
0.0350453
0.03721
0.0390523
0.0405233
0.0416002
0.0423165
0.042803
0.000236867
0.000476443
0.00110404
0.00193465
0.00298305
0.00426902
0.00581809
0.0076605
0.00982795
0.0123355
0.0151378
0.0181257
0.0211857
0.0242359
0.0272216
0.0301
0.0328278
0.0353556
0.0376274
0.039584
0.0411706
0.0423522
0.0431406
0.0436341
0.000234279
0.000471204
0.00109163
0.00191262
0.00294868
0.00421911
0.00574891
0.00756798
0.00970855
0.012191
0.0149845
0.0179894
0.0210898
0.0241962
0.0272488
0.0302028
0.0330147
0.0356359
0.0380104
0.0400777
0.0417789
0.0430696
0.043943
0.044465
0.000231684
0.000466275
0.00107994
0.00189198
0.00291636
0.00417228
0.00568411
0.00748134
0.0095965
0.0120539
0.0148351
0.0178518
0.0209874
0.0241459
0.0272617
0.0302875
0.0331794
0.0358895
0.0383623
0.0405366
0.0423504
0.0437515
0.0447172
0.045282
0.000229075
0.000461623
0.00106896
0.00187256
0.00288602
0.0041282
0.00562322
0.00740007
0.00949118
0.0119238
0.0146902
0.0177141
0.0208801
0.0240866
0.0272621
0.0303561
0.0333244
0.0361194
0.0386862
0.0409632
0.0428863
0.0443969
0.0454585
0.0460781
0.000226448
0.000457201
0.00105854
0.00185419
0.00285733
0.00408658
0.00556576
0.00732337
0.00939172
0.0118002
0.0145498
0.0175767
0.0207688
0.0240194
0.0272513
0.0304104
0.0334515
0.0363274
0.0389839
0.0413595
0.0433881
0.0450063
0.0461672
0.0468645
0.00022379
0.00045296
0.0010486
0.00183668
0.00283007
0.00404706
0.00551119
0.00725058
0.00929728
0.0116822
0.0144137
0.0174399
0.0206536
0.0239446
0.0272297
0.0304508
0.0335615
0.0365148
0.039257
0.0417268
0.043857
0.0455804
0.0468417
0.0476183
0.000221089
0.00044889
0.00103912
0.00181991
0.00280394
0.00400927
0.00545905
0.00718104
0.00920709
0.0115691
0.0142813
0.0173035
0.0205348
0.0238625
0.0271976
0.030478
0.0336552
0.0366824
0.0395066
0.0420667
0.0442946
0.0461205
0.0474817
0.0483405
0.000218348
0.000444937
0.00102994
0.00180371
0.00277871
0.00397282
0.00540883
0.00711417
0.00912044
0.0114602
0.0141523
0.0171674
0.0204123
0.0237729
0.0271549
0.0304917
0.0337327
0.0368308
0.0397335
0.0423802
0.0447023
0.0466278
0.0480885
0.0490361
0.000215557
0.000441077
0.00102098
0.00178795
0.00275421
0.00393744
0.00536018
0.00704947
0.00903662
0.0113546
0.0140261
0.0170313
0.020286
0.0236757
0.0271015
0.030492
0.0337941
0.0369601
0.0399382
0.042668
0.0450811
0.0471036
0.0486634
0.0497045
0.000212709
0.000437269
0.00101221
0.00177254
0.00273031
0.00390295
0.00531278
0.00698653
0.00895516
0.0112519
0.0139023
0.0168954
0.020156
0.0235712
0.0270375
0.0304788
0.0338394
0.0370706
0.040121
0.0429309
0.0454318
0.047549
0.0492074
0.0503453
0.000209822
0.000433548
0.00100367
0.00175749
0.00270694
0.00386926
0.0052665
0.00692511
0.00887572
0.0111516
0.0137807
0.0167596
0.0200226
0.0234595
0.0269631
0.0304525
0.0338689
0.0371627
0.0402826
0.0431696
0.0457555
0.047965
0.0497208
0.0509556
0.000206893
0.000429894
0.000995291
0.00174275
0.00268408
0.00383636
0.00522131
0.00686515
0.00879821
0.0110538
0.0136615
0.0166244
0.0198866
0.0233414
0.0268789
0.0304135
0.0338832
0.037237
0.0404238
0.0433851
0.0460533
0.0483527
0.0502047
0.0515382
0.000203932
0.000426325
0.000987135
0.0017284
0.00266182
0.00380427
0.00517729
0.00680678
0.00872276
0.0109585
0.0135448
0.0164905
0.0197488
0.0232179
0.0267861
0.0303631
0.0338834
0.0372947
0.0405457
0.0435787
0.0463265
0.0487134
0.0506594
0.0520899
0.000200955
0.00042285
0.000979211
0.00171445
0.00264017
0.00377309
0.00513452
0.00675007
0.00864946
0.0108659
0.0134311
0.0163585
0.0196104
0.0230905
0.026686
0.0303025
0.033871
0.0373372
0.0406498
0.0437517
0.0465762
0.0490476
0.051085
0.0526096
0.000197964
0.000419487
0.000971552
0.00170097
0.00261923
0.00374292
0.00509313
0.00669517
0.00857852
0.0107761
0.0133207
0.0162293
0.0194726
0.0229608
0.0265805
0.0302338
0.0338478
0.0373666
0.0407383
0.0439064
0.0468048
0.0493583
0.0514846
0.0531019
0.000194957
0.000416218
0.000964136
0.00168792
0.00259898
0.00371374
0.0050531
0.00664212
0.00850998
0.0106895
0.0132138
0.0161034
0.0193365
0.0228301
0.0264713
0.0301588
0.0338162
0.0373853
0.0408139
0.0440459
0.0470159
0.0496492
0.0518633
0.0535743
0.000191938
0.00041305
0.000956959
0.00167528
0.00257938
0.00368553
0.00501442
0.00659088
0.0084438
0.0106058
0.0131105
0.015981
0.0192026
0.0226993
0.0263597
0.0300792
0.0337779
0.0373953
0.0408788
0.0441725
0.0472121
0.0499233
0.0522235
0.0540266
0.000188896
0.000409956
0.000949976
0.001663
0.00256034
0.00365815
0.0049769
0.00654121
0.00837971
0.0105248
0.0130103
0.0158619
0.0190709
0.0225688
0.0262461
0.0299956
0.0337337
0.0373978
0.0409343
0.0442878
0.0473949
0.0501817
0.0525662
0.0544623
0.000185828
0.000406926
0.000943154
0.001651
0.00254176
0.00363142
0.00494031
0.00649281
0.00831728
0.0104459
0.0129127
0.0157453
0.0189408
0.022438
0.02613
0.0299075
0.0336834
0.0373925
0.0409801
0.0443913
0.0475632
0.0504227
0.0528873
0.0548688
0.000182727
0.000403945
0.000936457
0.00163922
0.00252352
0.00360522
0.00490446
0.0064454
0.00825617
0.0103687
0.0128171
0.0156307
0.0188118
0.0223064
0.0260109
0.0298144
0.0336262
0.0373784
0.0410154
0.044482
0.0477161
0.0506449
0.0531853
0.0552463
0.000179595
0.000401007
0.000929867
0.00162763
0.00250559
0.00357946
0.00486922
0.00639882
0.00819613
0.0102928
0.0127232
0.0155177
0.0186833
0.0221734
0.0258883
0.0297155
0.0335612
0.0373547
0.041039
0.0445588
0.0478524
0.0508474
0.0534602
0.0555971
0.000176427
0.000398104
0.000923367
0.00161621
0.00248791
0.00355407
0.0048345
0.00635295
0.00813705
0.0102182
0.0126308
0.0154062
0.0185556
0.0220394
0.0257622
0.0296109
0.0334886
0.0373215
0.0410512
0.0446222
0.0479732
0.0510327
0.0537183
0.0559413
0.000173216
0.000395222
0.000916935
0.00160491
0.00247044
0.003529
0.00480024
0.00630771
0.0080788
0.0101447
0.0125397
0.0152961
0.0184286
0.0219044
0.0256331
0.0295013
0.0334089
0.0372795
0.0410528
0.0446733
0.04808
0.0512022
0.0539581
0.0562564
0.000169961
0.000392355
0.000910555
0.00159372
0.00245313
0.00350419
0.00476636
0.00626299
0.00802128
0.0100722
0.0124498
0.0151873
0.0183024
0.0217688
0.0255013
0.029387
0.0333229
0.0372296
0.0410452
0.0447136
0.0481744
0.0513577
0.0541823
0.0565572
0.000166662
0.000389495
0.000904202
0.00158258
0.00243594
0.00347955
0.00473274
0.00621867
0.00796428
0.0100003
0.0123608
0.0150793
0.0181765
0.0216321
0.0253666
0.0292677
0.0332302
0.0371714
0.0410277
0.0447422
0.048255
0.0514964
0.0543852
0.0568281
0.000163317
0.000386636
0.000897861
0.00157147
0.0024188
0.00345502
0.00469929
0.00617461
0.00790768
0.00992901
0.0122724
0.0149721
0.018051
0.0214945
0.025229
0.0291436
0.0331308
0.037105
0.0410005
0.0447597
0.0483228
0.0516208
0.0545729
0.0570879
0.000159925
0.00038377
0.000891516
0.00156036
0.00240168
0.00343052
0.00466593
0.00613069
0.00785131
0.00985806
0.0121846
0.0148654
0.0179256
0.0213558
0.0250884
0.0290146
0.0330248
0.0370306
0.0409639
0.0447666
0.0483789
0.0517325
0.0547474
0.0573313
0.000156482
0.00038089
0.000885152
0.00154923
0.00238453
0.00340602
0.00463257
0.00608681
0.00779504
0.00978729
0.0120971
0.0147591
0.0178001
0.0212159
0.0249449
0.0288808
0.0329124
0.0369483
0.0409184
0.0447635
0.0484243
0.0518332
0.0549119
0.0575714
0.000152992
0.000377998
0.00087877
0.00153807
0.00236736
0.00338148
0.00459919
0.00604293
0.00773879
0.00971659
0.0120096
0.0146528
0.0176744
0.0210746
0.0247983
0.0287419
0.032793
0.0368575
0.0408631
0.0447494
0.0484572
0.0519195
0.055059
0.0577864
0.000149481
0.000375116
0.000872399
0.00152693
0.0023502
0.00335696
0.00456583
0.00599909
0.00768262
0.00964601
0.0119224
0.0145467
0.0175486
0.0209322
0.0246487
0.0285979
0.0326667
0.0367584
0.0407979
0.044724
0.0484771
0.0519911
0.0551891
0.0579838
0.000145915
0.000372244
0.000866058
0.00151583
0.0023331
0.00333253
0.00453259
0.0059554
0.00762666
0.00957572
0.0118355
0.0144409
0.0174229
0.0207891
0.0244967
0.0284495
0.0325341
0.0366511
0.0407233
0.0446879
0.048485
0.052049
0.0553034
0.05816
0.000142315
0.000369365
0.000859747
0.0015048
0.00231611
0.00330827
0.0044996
0.00591204
0.00757112
0.00950597
0.0117493
0.0143361
0.0172979
0.020646
0.0243432
0.0282977
0.0323962
0.036537
0.0406403
0.0446422
0.0484825
0.052096
0.0554074
0.0583298
0.000138718
0.000366545
0.000853523
0.00149392
0.00229937
0.00328432
0.00446703
0.00586925
0.00751632
0.00943711
0.0116642
0.0142325
0.0171744
0.0205039
0.0241894
0.0281438
0.0322544
0.0364174
0.0405508
0.0445889
0.0484715
0.0521341
0.0555029
0.0584942
0.000135105
0.000363772
0.000847396
0.00148325
0.00228294
0.00326082
0.00443504
0.00582722
0.00746243
0.0093695
0.0115806
0.0141308
0.0170528
0.0203634
0.0240363
0.0279891
0.03211
0.0362936
0.0404555
0.0445286
0.0484521
0.0521621
0.0555853
0.0586374
0.000131485
0.000361062
0.00084147
0.00147281
0.00226689
0.00323788
0.00440379
0.00578609
0.00740976
0.00930329
0.0114988
0.014031
0.0169337
0.0202254
0.0238847
0.0278344
0.0319641
0.0361667
0.0403557
0.0444624
0.0484254
0.052181
0.0556564
0.0587672
0.000127864
0.000358415
0.000835646
0.00146263
0.00225114
0.00321546
0.00437325
0.00574595
0.00735831
0.00923874
0.011419
0.0139339
0.0168173
0.0200902
0.0237355
0.0276809
0.0318178
0.036038
0.0402527
0.0443916
0.0483928
0.0521926
0.0557188
0.0588873
0.000124237
0.000355834
0.000829978
0.00145272
0.00223584
0.00319353
0.0043435
0.00570683
0.00730826
0.00917584
0.0113414
0.0138393
0.016704
0.0199583
0.0235892
0.0275294
0.0316723
0.0359088
0.040148
0.0443179
0.0483563
0.0521996
0.0557762
0.0590028
0.000120583
0.000353299
0.000824417
0.00144302
0.00222091
0.00317219
0.00431447
0.00566875
0.0072595
0.00911463
0.0112656
0.0137473
0.0165938
0.0198296
0.023446
0.0273802
0.031528
0.0357797
0.0400426
0.0442429
0.0483175
0.0522036
0.0558305
0.0591173
0.00011694
0.000350803
0.000818963
0.00143352
0.00220632
0.00315134
0.00428612
0.00563153
0.00721182
0.00905486
0.0111918
0.0136574
0.0164861
0.0197038
0.0233055
0.0272331
0.031385
0.035651
0.0399365
0.0441663
0.0482764
0.0522043
0.0558801
0.059224
0.000113301
0.000348389
0.000813649
0.00142417
0.00219195
0.00313085
0.00425823
0.00559492
0.00716503
0.00899615
0.0111195
0.0135692
0.0163805
0.0195802
0.0231669
0.0270871
0.0312422
0.0355216
0.0398288
0.0440872
0.0482318
0.0522002
0.0559231
0.0593206
0.000109618
0.000345983
0.000808371
0.00141495
0.00217773
0.00311058
0.00423073
0.00555879
0.00711887
0.0089383
0.0110481
0.0134824
0.0162764
0.0194582
0.0230295
0.0269417
0.0310988
0.0353905
0.0397184
0.0440042
0.0481822
0.0521895
0.0559572
0.059405
0.000105918
0.00034362
0.000803186
0.00140589
0.00216378
0.00309063
0.00420361
0.00552326
0.00707341
0.00888126
0.0109777
0.0133967
0.0161736
0.0193375
0.022893
0.0267961
0.0309542
0.0352568
0.0396042
0.0439161
0.048126
0.0521706
0.0559815
0.0594789
0.000102186
0.000341302
0.000798079
0.00139699
0.00215008
0.00307105
0.00417701
0.00548834
0.00702871
0.00882518
0.0109084
0.0133124
0.0160723
0.0192183
0.0227576
0.0266509
0.0308085
0.0351208
0.0394866
0.0438234
0.0480639
0.0521447
0.0559979
0.0595467
9.84687e-05
0.000339028
0.000793108
0.00138829
0.00213673
0.00305195
0.00415101
0.00545418
0.0069849
0.00877024
0.0108405
0.0132296
0.0159728
0.019101
0.0226241
0.0265066
0.0306629
0.0349835
0.0393662
0.0437268
0.0479966
0.0521122
0.0560061
0.0596017
9.47671e-05
0.000336866
0.00078834
0.00137989
0.00212373
0.00303339
0.00412569
0.00542085
0.00694223
0.00871663
0.0107743
0.0131489
0.0158758
0.0189865
0.0224931
0.0263645
0.0305183
0.0348463
0.0392446
0.0436279
0.0479258
0.0520748
0.0560073
0.0596468
9.10257e-05
0.000334724
0.00078363
0.00137165
0.00211101
0.00301521
0.00410101
0.00538838
0.0069007
0.00866449
0.01071
0.0130704
0.0157813
0.018875
0.0223654
0.0262253
0.030376
0.0347102
0.0391231
0.0435277
0.0478528
0.052034
0.0560034
0.0596835
8.72646e-05
0.000332629
0.000779018
0.00136361
0.00209861
0.00299749
0.0040769
0.00535677
0.00686022
0.00861369
0.0106471
0.0129939
0.0156894
0.0187664
0.0222408
0.0260891
0.030236
0.0345758
0.0390025
0.0434276
0.0477787
0.0519909
0.0559969
0.0597189
8.34556e-05
0.000330542
0.000774432
0.00135564
0.00208638
0.00298003
0.00405321
0.00532571
0.00682046
0.00856387
0.0105856
0.0129191
0.0155994
0.0186601
0.0221187
0.0259553
0.0300981
0.0344425
0.0388824
0.0433273
0.0477038
0.0519466
0.0559883
0.0597526
7.96489e-05
0.00032847
0.000769894
0.00134768
0.00207422
0.00296271
0.00402971
0.00529486
0.00678106
0.00851447
0.0105248
0.012845
0.0155105
0.0185549
0.0219979
0.0258224
0.0299607
0.0343092
0.0387615
0.0432255
0.0476266
0.0518989
0.0559755
0.0597803
7.57981e-05
0.000326409
0.000765326
0.00133971
0.00206194
0.00294531
0.00400608
0.00526393
0.00674155
0.00846512
0.010464
0.012771
0.0154216
0.0184499
0.0218768
0.025689
0.0298219
0.0341741
0.0386379
0.0431205
0.0475456
0.0518468
0.0559573
0.0598016
7.18765e-05
0.000324279
0.000760674
0.00133162
0.00204953
0.00292761
0.00398216
0.00523262
0.00670172
0.00841526
0.0104026
0.0126964
0.015332
0.0183439
0.0217545
0.0255536
0.0296804
0.0340352
0.03851
0.0430101
0.0474584
0.0517875
0.0559306
0.0598124
6.79535e-05
0.000322142
0.000755964
0.00132345
0.00203698
0.00290974
0.00395797
0.00520103
0.00666144
0.00836488
0.0103405
0.012621
0.0152415
0.0182367
0.0216305
0.0254156
0.0295352
0.0338917
0.0383768
0.042894
0.0473649
0.0517215
0.0558972
0.0598185
6.40385e-05
0.000320009
0.000751241
0.00131524
0.0020244
0.00289181
0.00393368
0.00516925
0.00662084
0.00831412
0.010278
0.0125449
0.0151501
0.0181283
0.0215047
0.0252752
0.0293865
0.0337435
0.0382378
0.0427715
0.0472644
0.0516477
0.0558544
0.0598096
6.01792e-05
0.000317912
0.000746603
0.00130709
0.00201193
0.00287403
0.00390948
0.00513753
0.00658035
0.00826338
0.0102155
0.0124689
0.0150587
0.0180198
0.0213785
0.0251334
0.0292357
0.0335921
0.0380946
0.0426442
0.0471588
0.051569
0.0558081
0.0598035
5.63887e-05
0.000315879
0.00074208
0.00129919
0.00199969
0.00285663
0.00388579
0.00510635
0.0065405
0.00821352
0.010154
0.0123939
0.0149684
0.0179126
0.0212537
0.0249927
0.0290848
0.0334399
0.0379499
0.0425146
0.0470506
0.0514879
0.0557598
0.059796
5.271e-05
0.000313944
0.00073779
0.00129166
0.00198804
0.00283987
0.00386305
0.00507644
0.00650216
0.0081653
0.0100944
0.0123213
0.014881
0.0178086
0.0211322
0.0248555
0.028937
0.0332898
0.0378064
0.0423854
0.0469425
0.0514063
0.0557107
0.0597849
4.91958e-05
0.000312161
0.000733775
0.00128462
0.00197713
0.00282419
0.00384162
0.00504822
0.00646591
0.00811968
0.0100379
0.0122524
0.0147978
0.0177096
0.0210165
0.0247243
0.0287952
0.0331453
0.0376678
0.0422605
0.0468376
0.0513274
0.0556634
0.0597754
4.58842e-05
0.000310518
0.000730103
0.00127814
0.00196712
0.00280976
0.00382184
0.00502208
0.00643222
0.00807725
0.00998526
0.012188
0.0147201
0.0176171
0.0209083
0.0246015
0.0286623
0.0330093
0.0375371
0.0421426
0.046739
0.0512539
0.0556205
0.059769
4.27713e-05
0.000309057
0.000726798