/*--------------------------------*- C++ -*----------------------------------*\
| =========                 |                                                 |
| \\      /  F ield         | OpenFOAM: The Open Source CFD Toolbox           |
|  \\    /   O peration     | Version:  2.3.0                                 |
|   \\  /    A nd           | Web:      www.OpenFOAM.org                      |
|    \\/     M anipulation  |                                                 |
\*---------------------------------------------------------------------------*/
FoamFile
{
    version     2.0;
    format      ascii;
    class       volVectorField;
    location    "1000";
    object      U;
}
// * * * * * * * * * * * * * * * * * * * * * * * * * * * * * * * * * * * * * //

dimensions      [0 1 -1 0 0 0 0];

internalField   nonuniform List<vector> 
14201
(
(23.3432 7.93371 0)
(23.2787 8.3455 -1.31346e-20)
(23.206 8.76012 -3.16409e-20)
(23.1208 9.19102 -2.3202e-20)
(23.0221 9.64033 0)
(22.9105 10.1115 -1.01779e-19)
(22.7867 10.6072 1.37436e-19)
(22.6502 11.1288 1.73077e-19)
(22.4984 11.6752 -3.5929e-19)
(22.3251 12.2426 2.17769e-19)
(22.1201 12.8245 0)
(21.8695 13.4117 -2.06931e-19)
(21.5567 13.9932 2.09875e-19)
(21.1635 14.5575 -1.95086e-19)
(20.6708 15.0933 1.73421e-20)
(20.0591 15.5894 3.3543e-19)
(19.3092 16.0371 -1.31429e-19)
(18.403 16.4293 -4.42065e-20)
(17.3233 16.7585 7.49783e-20)
(16.0517 17.0098 -4.37084e-20)
(14.5714 17.1613 -2.24097e-19)
(12.8858 17.2273 2.53383e-19)
(11.024 17.2749 0)
(9.0031 17.1318 -8.08606e-21)
(22.953 7.88342 1.0819e-19)
(22.856 8.23313 -2.7197e-20)
(22.7507 8.58315 -4.57152e-21)
(22.6298 8.93778 -3.04096e-20)
(22.4897 9.29692 5.46353e-20)
(22.3285 9.66127 -1.08664e-19)
(22.1443 10.0316 1.22145e-19)
(21.9355 10.409 -1.04686e-21)
(21.7003 10.7942 0)
(21.4368 11.1876 -1.55128e-19)
(21.1426 11.5881 1.57231e-19)
(20.8149 11.9935 2.26255e-19)
(20.4503 12.3993 5.20337e-20)
(20.0449 12.799 -2.7072e-19)
(19.5953 13.1844 2.09833e-20)
(19.0979 13.5443 -5.37829e-19)
(18.5508 13.8658 5.34971e-19)
(17.9541 14.1342 0)
(17.3101 14.332 5.32514e-19)
(16.6245 14.4408 -5.27551e-19)
(15.9083 14.4403 -7.40417e-19)
(15.1789 14.3109 1.64993e-18)
(14.4526 14.0333 -9.29608e-19)
(13.7361 13.5921 -2.02433e-20)
(22.6142 7.80687 -4.75353e-20)
(22.5048 8.10157 1.03783e-19)
(22.3829 8.39798 -1.68599e-19)
(22.247 8.69671 1.72746e-20)
(22.095 8.99592 1.42802e-19)
(21.9255 9.29514 -1.42828e-19)
(21.7372 9.59347 -1.35217e-20)
(21.5284 9.88983 0)
(21.2972 10.1828 2.80218e-20)
(21.0413 10.4709 3.04665e-20)
(20.7581 10.7521 3.33516e-20)
(20.4453 11.0239 0)
(20.1008 11.2834 0)
(19.7227 11.5265 -3.21236e-19)
(19.3098 11.7486 3.15459e-19)
(18.8617 11.944 -2.01259e-20)
(18.3793 12.1065 -4.51367e-19)
(17.865 12.2291 4.8026e-19)
(17.3231 12.3045 -5.5451e-20)
(16.7607 12.3256 0)
(16.1876 12.2866 -2.19738e-20)
(15.6171 12.1829 -4.18506e-19)
(15.0652 12.0119 9.06018e-19)
(14.5515 11.7736 -4.26848e-19)
(22.3315 7.69643 0)
(22.2135 7.95456 9.32394e-20)
(22.0855 8.20581 1.40063e-19)
(21.9446 8.45629 -3.36238e-20)
(21.7889 8.70472 9.99361e-21)
(21.6177 8.95098 -4.3287e-19)
(21.4301 9.19453 4.58404e-19)
(21.2256 9.43448 -2.36271e-19)
(21.0033 9.66955 -2.99959e-19)
(20.7622 9.89823 2.42345e-19)
(20.5011 10.1186 -3.33588e-20)
(20.2191 10.3282 0)
(19.9152 10.5244 4.3734e-19)
(19.5888 10.7039 -4.13902e-19)
(19.2399 10.8629 5.04158e-19)
(18.8691 10.9973 -5.12992e-19)
(18.4776 11.1021 0)
(18.0679 11.1728 0)
(17.644 11.2044 7.55972e-19)
(17.211 11.1925 6.4648e-20)
(16.7757 11.1338 -7.97218e-19)
(16.3463 11.0264 -4.70459e-19)
(15.9319 10.8707 -3.46125e-20)
(15.5424 10.6696 4.45239e-19)
(22.0942 7.60183 -5.27105e-20)
(21.9762 7.81199 0)
(21.848 8.02235 -6.50116e-20)
(21.7091 8.23256 6.74443e-20)
(21.5579 8.44012 3.50996e-20)
(21.3932 8.6445 0)
(21.2144 8.84518 -2.94092e-19)
(21.021 9.0414 2.94172e-19)
(20.8125 9.23206 -4.30373e-20)
(20.5882 9.41582 0)
(20.3473 9.59094 3.82468e-19)
(20.0889 9.75541 -7.46014e-19)
(19.8126 9.90715 3.0999e-19)
(19.518 10.0436 4.86992e-19)
(19.2056 10.1618 7.18563e-21)
(18.8763 10.2588 -1.12061e-18)
(18.5314 10.331 5.88165e-19)
(18.1733 10.375 6.916e-19)
(17.8054 10.3874 -7.0183e-19)
(17.4321 10.3655 -4.10007e-19)
(17.0587 10.3074 4.15263e-19)
(16.6915 10.212 0)
(16.3372 10.08 0)
(16.0025 9.91411 3.39991e-19)
(21.8985 7.48055 -5.49083e-21)
(21.7806 7.66725 -1.38697e-19)
(21.6555 7.84816 2.03977e-19)
(21.522 8.02744 4.21573e-20)
(21.3781 8.20333 -1.83578e-19)
(21.2224 8.37561 0)
(21.0543 8.54407 0)
(20.8732 8.70819 -4.56733e-20)
(20.6791 8.8672 -4.7635e-21)
(20.472 9.01996 0)
(20.2513 9.16476 0)
(20.0163 9.29972 -1.11039e-19)
(19.7665 9.42299 1.19369e-19)
(19.5017 9.53255 -4.68472e-19)
(19.2223 9.62605 5.42775e-19)
(18.9293 9.7009 -2.76765e-19)
(18.6238 9.75434 3.18602e-19)
(18.3079 9.7836 -3.23224e-19)
(17.9843 9.78601 4.2323e-19)
(17.6564 9.7596 0)
(17.3285 9.70293 0)
(17.0054 9.61529 -4.96759e-19)
(16.692 9.49731 5.66566e-19)
(16.3935 9.35091 0)
(21.7283 7.37458 -5.03996e-21)
(21.6166 7.53419 2.72896e-19)
(21.4978 7.68958 -1.1463e-19)
(21.3717 7.84361 3.88931e-20)
(21.2369 7.99446 1.72786e-19)
(21.0917 8.14167 -1.72348e-19)
(20.9348 8.28508 4.76507e-20)
(20.7658 8.42459 4.60234e-20)
(20.5845 8.55968 4.85472e-20)
(20.3913 8.68961 0)
(20.1869 8.81272 0)
(19.9704 8.92694 3.06671e-19)
(19.7409 9.0306 -3.13928e-19)
(19.4983 9.12186 1.46731e-19)
(19.2425 9.19911 -2.89119e-19)
(18.9752 9.25993 0)
(18.697 9.30193 0)
(18.4099 9.323 -4.59031e-20)
(18.1163 9.32062 3.1203e-19)
(17.8187 9.29308 -4.18898e-19)
(17.5209 9.23928 4.74332e-19)
(17.2268 9.15853 -7.96028e-19)
(16.9406 9.05121 1.24924e-19)
(16.6662 8.91873 6.93363e-20)
(21.5875 7.27349 0)
(21.4812 7.41215 -4.07075e-20)
(21.3683 7.54622 -2.18462e-19)
(21.2493 7.68008 1.75824e-19)
(21.1233 7.8114 -1.87858e-19)
(20.9885 7.9392 -7.33686e-21)
(20.8429 8.06316 1.46642e-19)
(20.6856 8.18354 2.11516e-19)
(20.5165 8.30008 -2.12363e-19)
(20.3351 8.41265 0)
(20.1439 8.52 2.46923e-19)
(19.9431 8.61932 -2.49551e-19)
(19.7306 8.70909 0)
(19.5065 8.78724 -2.4131e-21)
(19.2687 8.85334 0)
(19.0219 8.90462 -3.41721e-19)
(18.7648 8.93856 4.37558e-19)
(18.4997 8.9547 -2.96502e-19)
(18.2297 8.94971 4.50566e-19)
(17.955 8.92214 1.10148e-19)
(17.6796 8.87105 0)
(17.407 8.79575 3.17928e-19)
(17.1414 8.69654 -1.92484e-19)
(16.8854 8.57408 -2.09705e-19)
(21.469 7.1848 8.8651e-20)
(21.3688 7.30069 -1.37209e-19)
(21.2614 7.41682 0)
(21.149 7.53435 1.94203e-19)
(21.0315 7.65039 -3.43045e-19)
(20.9069 7.76339 2.50671e-19)
(20.7719 7.87265 -2.67394e-19)
(20.6248 7.97861 -8.60874e-21)
(20.4674 8.0807 2.24055e-19)
(20.2958 8.17891 -2.44497e-19)
(20.1136 8.2743 5.67907e-19)
(19.9264 8.36251 -2.60228e-19)
(19.7259 8.44217 0)
(19.5196 8.50982 7.39838e-20)
(19.2937 8.56813 0)
(19.0635 8.61414 -3.49279e-19)
(18.8235 8.64146 2.64874e-19)
(18.5722 8.65555 1.02699e-19)
(18.322 8.64899 1.00769e-20)
(18.0643 8.62158 -3.26229e-19)
(17.8063 8.57299 -1.22792e-19)
(17.5497 8.50197 -1.11804e-20)
(17.2995 8.40937 2.5574e-19)
(17.0578 8.29495 2.75654e-19)
(21.3634 7.09901 -4.53382e-20)
(21.2713 7.19711 4.86381e-20)
(21.1715 7.30046 0)
(21.0682 7.40554 1.05443e-19)
(20.9615 7.50956 -1.56222e-19)
(20.8497 7.61038 6.75131e-22)
(20.728 7.70728 -5.29855e-20)
(20.5864 7.80194 -5.57553e-20)
(20.4347 7.89453 -2.3452e-19)
(20.2697 7.98062 2.46029e-19)
(20.094 8.06703 -1.29185e-19)
(19.9189 8.14635 0)
(19.7233 8.21917 0)
(19.5372 8.27836 7.84998e-20)
(19.323 8.32713 -2.46311e-19)
(19.1091 8.37418 7.97817e-20)
(18.8827 8.39214 9.41126e-20)
(18.6328 8.40758 -2.87711e-19)
(18.395 8.40246 -1.04411e-19)
(18.1469 8.375 0)
(17.9048 8.32936 -2.38308e-19)
(17.6602 8.26077 -2.54049e-19)
(17.4173 8.17186 -1.34695e-19)
(17.1823 8.06898 0)
(6.965 16.1092 6.47077e-19)
(6.5903 14.6143 -6.6676e-19)
(6.63065 13.3276 0)
(6.85226 12.2025 6.02821e-20)
(7.1759 11.206 0)
(7.56207 10.3096 -2.31773e-20)
(7.98657 9.50169 0)
(8.43306 8.77345 1.10114e-18)
(8.88918 8.11732 1.13286e-18)
(9.34509 7.52644 -4.31342e-18)
(9.79308 6.99449 4.62437e-18)
(10.2272 6.51596 7.42911e-21)
(10.6434 6.08575 -4.43054e-18)
(11.039 5.69879 4.09509e-18)
(11.413 5.35032 -2.1533e-18)
(11.7655 5.03566 -2.62253e-19)
(12.0978 4.75033 1.50303e-20)
(12.4118 4.48992 5.02009e-19)
(12.7097 4.25034 9.97182e-19)
(12.9935 4.02798 0)
(13.2653 3.81976 -9.23228e-19)
(13.5266 3.62376 4.39229e-19)
(13.7791 3.43623 0)
(14.0235 3.23871 7.64297e-19)
(13.0465 13.0081 0)
(12.4995 12.3267 3.35558e-19)
(12.0965 11.619 -4.33586e-19)
(11.816 10.9197 -1.61206e-19)
(11.6342 10.2457 1.12003e-19)
(11.533 9.6057 -5.78025e-20)
(11.4978 9.0051 -1.12222e-19)
(11.5167 8.44642 0)
(11.5793 7.93008 -1.17205e-19)
(11.6769 7.45508 -1.13968e-18)
(11.8022 7.01924 -1.00977e-18)
(11.9491 6.61967 4.03674e-18)
(12.1125 6.2529 -2.01196e-18)
(12.2883 5.91525 0)
(12.4731 5.60306 2.50027e-19)
(12.6643 5.31289 2.47329e-19)
(12.8597 5.0416 -1.66727e-18)
(13.0576 4.78661 1.1876e-18)
(13.2565 4.54586 -4.69989e-19)
(13.4552 4.31776 8.98099e-19)
(13.6529 4.10125 -8.79505e-19)
(13.849 3.89623 -5.22992e-20)
(14.0436 3.70135 5.03911e-20)
(14.2368 3.49733 -1.38046e-20)
(14.0925 11.4708 3.36393e-20)
(13.6973 11.1071 7.68247e-20)
(13.3677 10.6952 4.38267e-20)
(13.1043 10.2535 -8.61397e-20)
(12.9039 9.79651 1.76373e-19)
(12.7617 9.33563 0)
(12.672 8.87922 1.06762e-19)
(12.6285 8.43363 0)
(12.6251 8.00321 8.43795e-19)
(12.6554 7.59091 -7.3234e-19)
(12.714 7.19847 0)
(12.7955 6.82665 8.6829e-19)
(12.8952 6.47548 -8.68675e-19)
(13.0091 6.14449 -2.15044e-19)
(13.1338 5.83292 0)
(13.2666 5.53974 -8.77267e-19)
(13.4052 5.26376 6.6066e-19)
(13.5478 5.00377 2.22158e-19)
(13.6934 4.75856 0)
(13.8411 4.52687 0)
(13.9901 4.30763 -4.08938e-19)
(14.14 4.10055 0)
(14.2908 3.90411 0)
(14.4418 3.69809 0)
(15.1831 10.4274 -3.45835e-20)
(14.8555 10.1467 1.18068e-19)
(14.5637 9.83271 -2.77955e-19)
(14.3117 9.49465 4.17507e-20)
(14.1009 9.14084 -1.76449e-19)
(13.9308 8.77892 0)
(13.7992 8.41519 0)
(13.7036 8.05467 -9.50894e-20)
(13.6404 7.70144 9.01709e-19)
(13.6061 7.3583 -9.17737e-20)
(13.5972 7.02726 -8.09278e-19)
(13.6104 6.70953 2.00354e-19)
(13.6423 6.40565 0)
(13.6902 6.11579 -4.147e-19)
(13.7516 5.83966 -1.61704e-21)
(13.8244 5.57678 2.02631e-19)
(13.9066 5.32654 8.31939e-19)
(13.9968 5.08822 -8.20748e-19)
(14.0937 4.86105 2.13884e-21)
(14.1961 4.64425 8.08117e-19)
(14.3031 4.43716 9.72192e-21)
(14.4138 4.23975 -2.41968e-20)
(14.5275 4.0506 -1.64528e-19)
(14.644 3.84881 -5.343e-19)
(15.6909 9.71691 -4.94418e-19)
(15.4032 9.48982 1.39375e-19)
(15.1425 9.23589 1.57211e-19)
(14.9123 8.96088 4.21833e-20)
(14.7143 8.67056 2.21118e-19)
(14.5487 8.3706 -1.7525e-19)
(14.4145 8.06604 3.69535e-19)
(14.31 7.76094 -2.73053e-19)
(14.2329 7.45886 0)
(14.1807 7.16242 6.77708e-19)
(14.1506 6.87352 9.52097e-21)
(14.1399 6.59361 -9.73648e-19)
(14.1462 6.3235 -1.92859e-19)
(14.167 6.06366 -3.93467e-19)
(14.2002 5.8142 1.93901e-19)
(14.2439 5.57509 7.81825e-19)
(14.2968 5.3461 -5.85769e-19)
(14.3574 5.12682 7.84346e-19)
(14.4248 4.9168 -7.80687e-19)
(14.4978 4.71552 0)
(14.5759 4.52258 9.56644e-19)
(14.6583 4.33786 -1.88296e-19)
(14.7442 4.16053 0)
(14.8323 3.976 3.44996e-19)
(16.1126 9.17841 -2.20894e-19)
(15.8508 8.98127 2.25207e-19)
(15.6108 8.76206 3.9798e-20)
(15.3956 8.52504 4.08432e-20)
(15.2068 8.27458 0)
(15.045 8.01487 8.72883e-20)
(14.9095 7.75013 0)
(14.7992 7.48382 3.70144e-19)
(14.7125 7.21888 -7.41932e-19)
(14.6474 6.9576 4.66432e-19)
(14.6018 6.70176 -7.57855e-19)
(14.5734 6.45269 7.5252e-19)
(14.5603 6.21131 9.53504e-19)
(14.5605 5.97801 -1.32605e-18)
(14.5723 5.75313 1.32668e-18)
(14.594 5.53679 -7.62401e-19)
(14.6245 5.32887 5.67244e-19)
(14.6628 5.12903 -3.78048e-19)
(14.7077 4.93698 0)
(14.7585 4.75234 0)
(14.8145 4.57487 -1.90933e-19)
(14.8752 4.40434 1.81449e-19)
(14.94 4.23987 -1.7664e-19)
(15.0074 4.07373 -8.33826e-19)
(16.4061 8.76314 0)
(16.1621 8.58629 -7.7293e-20)
(15.9374 8.39058 0)
(15.7344 8.17938 1.24341e-19)
(15.5548 7.95631 4.44645e-20)
(15.399 7.72456 -3.51169e-19)
(15.2662 7.48779 8.76305e-20)
(15.1555 7.24924 0)
(15.0659 7.0114 0)
(14.9957 6.77614 -3.69274e-19)
(14.9426 6.54518 3.65943e-19)
(14.9051 6.31986 1.8822e-19)
(14.8815 6.10099 -3.679e-19)
(14.87 5.8889 0)
(14.8688 5.68407 3.7033e-19)
(14.8768 5.48685 -5.5446e-19)
(14.8931 5.2969 -1.86043e-19)
(14.9165 5.114 1.82045e-19)
(14.9463 4.938 0)
(14.9813 4.76854 -1.80666e-19)
(15.0211 4.60563 -3.63273e-19)
(15.0656 4.44909 9.77517e-21)
(15.1145 4.29825 1.69063e-19)
(15.1665 4.14928 3.43393e-19)
(16.6402 8.43006 1.46516e-19)
(16.4083 8.26753 7.8059e-20)
(16.1945 8.08864 -2.36807e-19)
(16.0008 7.89608 -8.27752e-20)
(15.829 7.69275 1.67776e-19)
(15.6787 7.48138 0)
(15.5485 7.26516 2.62397e-19)
(15.4384 7.04738 -2.85511e-21)
(15.3475 6.83006 -3.60762e-19)
(15.2746 6.6148 3.56973e-19)
(15.2168 6.40318 0)
(15.1733 6.19676 -1.49599e-21)
(15.1428 5.996 -3.19425e-21)
(15.1234 5.80115 7.21936e-19)
(15.113 5.61309 -3.59381e-19)
(15.1111 5.43229 0)
(15.1178 5.25759 -3.59758e-19)
(15.1304 5.08911 3.54848e-19)
(15.1493 4.92738 -1.46743e-21)
(15.1725 4.77127 5.35088e-19)
(15.2 4.62155 -1.7681e-19)
(15.2323 4.478 -1.63176e-19)
(15.2692 4.33985 -8.51361e-21)
(15.3098 4.20218 0)
(16.8246 8.15819 -2.92178e-19)
(16.601 8.00601 7.43835e-20)
(16.3957 7.84038 2.15359e-19)
(16.2088 7.66265 4.04878e-20)
(16.0441 7.47364 -3.53143e-19)
(15.8991 7.27744 0)
(15.7713 7.07646 -1.7308e-19)
(15.6619 6.87508 -1.98653e-21)
(15.5712 6.67335 3.53122e-19)
(15.498 6.47397 4.45573e-21)
(15.4372 6.2775 4.19022e-21)
(15.3901 6.08629 -3.54016e-19)
(15.3556 5.90014 -3.54928e-19)
(15.3309 5.7191 -2.64033e-21)
(15.3137 5.54568 5.26426e-19)
(15.3056 5.37889 -3.5255e-19)
(15.3063 5.2163 7.01867e-19)
(15.3099 5.0594 -5.26039e-19)
(15.3219 4.91131 -1.75944e-19)
(15.3369 4.766 -1.72899e-19)
(15.3556 4.62801 0)
(15.3788 4.49574 1.73336e-19)
(15.4063 4.36813 8.62365e-20)
(15.437 4.2382 -8.2824e-20)
(16.964 7.9379 -7.22334e-20)
(16.7495 7.79107 -1.89345e-19)
(16.5527 7.63435 -5.82119e-20)
(16.3675 7.47119 1.92178e-20)
(16.2064 7.29412 2.38579e-19)
(16.0676 7.11082 2.50923e-19)
(15.944 6.91846 -3.43898e-21)
(15.8356 6.73176 -2.27677e-21)
(15.7458 6.5433 1.69215e-19)
(15.6757 6.35874 3.59065e-19)
(15.6143 6.17231 1.92656e-21)
(15.5664 5.9922 -5.41316e-19)
(15.5299 5.8173 1.76893e-19)
(15.5013 5.64752 0)
(15.4799 5.48908 -5.24654e-19)
(15.4712 5.33187 1.7025e-19)
(15.4693 5.17574 1.66379e-19)
(15.4639 5.02777 1.71129e-19)
(15.4737 4.89649 0)
(15.4823 4.7572 1.68896e-19)
(15.4934 4.63035 1.72429e-19)
(15.5097 4.50655 1.74448e-19)
(15.53 4.38562 1.74418e-19)
(15.5531 4.25559 1.83134e-21)
(4.88874 -1.6991 1.63331e-19)
(4.41844 -1.68067 5.50285e-19)
(3.99748 -1.66672 3.86846e-19)
(3.61902 -1.65564 -6.25827e-19)
(3.27835 -1.64706 6.7179e-19)
(2.97218 -1.64067 4.78949e-19)
(2.69805 -1.63612 -1.28172e-18)
(2.45393 -1.63312 1.0849e-18)
(2.23797 -1.63138 -1.16209e-18)
(2.0485 -1.63059 -1.52652e-19)
(1.88401 -1.63038 0)
(1.74322 -1.63033 -8.75763e-20)
(1.62512 -1.62984 -1.41985e-18)
(1.52916 -1.62801 1.64317e-18)
(1.45551 -1.62347 1.77061e-18)
(1.40566 -1.61397 -9.70935e-19)
(1.38366 -1.59604 -3.77214e-21)
(1.39881 -1.56421 -1.15568e-18)
(1.47144 -1.5105 0)
(1.64469 -1.42338 8.88614e-20)
(2.00682 -1.28841 -9.78341e-20)
(2.7391 -1.08664 -8.07357e-19)
(4.25024 -0.799963 9.57979e-19)
(7.54189 -0.555308 8.12703e-20)
(4.84291 -1.73844 -5.38084e-21)
(4.41856 -1.72886 -3.6973e-19)
(4.03067 -1.72276 0)
(3.67704 -1.71896 0)
(3.35457 -1.71703 -6.63981e-19)
(3.06058 -1.71654 7.01682e-19)
(2.79312 -1.71707 2.45986e-19)
(2.55072 -1.71819 0)
(2.33225 -1.71939 -1.39581e-19)
(2.13694 -1.72004 -1.47866e-19)
(1.96443 -1.71928 1.56913e-19)
(1.81503 -1.71597 1.31859e-18)
(1.68997 -1.70848 -1.58695e-18)
(1.592 -1.69446 0)
(1.52632 -1.67061 1.01751e-19)
(1.50214 -1.63225 1.08995e-19)
(1.53533 -1.57312 0)
(1.65242 -1.48509 -5.52086e-19)
(1.8956 -1.35948 1.04518e-18)
(2.33289 -1.18878 -5.57578e-19)
(3.08002 -0.970171 -7.76595e-20)
(4.33458 -0.719135 0)
(6.42013 -0.495682 0)
(9.79688 -0.428676 1.8209e-18)
(4.80631 -1.77215 1.71113e-19)
(4.40863 -1.76298 1.16693e-20)
(4.04405 -1.75836 -1.23381e-20)
(3.70917 -1.75689 2.06475e-19)
(3.40129 -1.75695 -2.21769e-19)
(3.11829 -1.75772 4.56585e-19)
(2.85872 -1.75854 -4.82575e-19)
(2.6218 -1.75869 5.05459e-19)
(2.40723 -1.75729 -9.3487e-19)
(2.21529 -1.75322 7.03308e-19)
(2.04694 -1.74499 -1.47283e-19)
(1.90426 -1.73069 0)
(1.79093 -1.70778 8.2677e-20)
(1.71302 -1.67294 0)
(1.68029 -1.62189 5.64707e-19)
(1.70774 -1.54931 -7.97839e-19)
(1.81784 -1.44922 8.47039e-19)
(2.04277 -1.3162 -3.31496e-19)
(2.42967 -1.14635 -4.74381e-19)
(3.05092 -0.939225 6.21198e-20)
(4.01572 -0.703831 3.42299e-21)
(5.48288 -0.47054 0)
(7.66248 -0.308122 0)
(10.7434 -0.343054 -1.01786e-19)
(4.77077 -1.77849 -2.2254e-21)
(4.39806 -1.77756 0)
(4.05602 -1.77796 -9.9865e-20)
(3.74007 -1.77844 -5.14649e-19)
(3.44768 -1.77897 -1.5172e-22)
(3.17722 -1.77899 7.85728e-19)
(2.92775 -1.77777 -4.72153e-19)
(2.69906 -1.77438 0)
(2.49172 -1.7677 5.18659e-19)
(2.30697 -1.75633 -5.48181e-19)
(2.1471 -1.73841 1.45586e-19)
(2.01576 -1.71166 0)
(1.9186 -1.67317 -1.63086e-19)
(1.86415 -1.61943 0)
(1.86497 -1.54632 8.97028e-20)
(1.93892 -1.44924 -9.47254e-20)
(2.11033 -1.32432 0)
(2.41274 -1.16884 3.24138e-19)
(2.8947 -0.982172 -4.56407e-19)
(3.62543 -0.768888 1.22413e-19)
(4.70174 -0.544021 -1.35176e-19)
(6.25176 -0.341665 -1.56032e-19)
(8.42578 -0.224865 -6.95105e-19)
(11.3344 -0.294963 6.94399e-20)
(4.72733 -1.79357 1.78248e-19)
(4.38554 -1.79169 -1.17744e-20)
(4.06709 -1.79079 2.07335e-19)
(3.7702 -1.79017 -8.71117e-22)
(3.49351 -1.78913 1.05889e-19)
(3.23609 -1.78684 2.21534e-19)
(2.99761 -1.78238 0)
(2.77852 -1.77468 0)
(2.58005 -1.76244 -1.28413e-19)
(2.40439 -1.74409 0)
(2.25485 -1.71767 -1.40332e-19)
(2.13637 -1.68067 1.50684e-19)
(2.05593 -1.6301 1.56826e-19)
(2.02352 -1.56258 5.85133e-19)
(2.0531 -1.47448 -7.08072e-19)
(2.16348 -1.36245 -3.74114e-19)
(2.37949 -1.22403 3.9422e-19)
(2.73532 -1.05816 0)
(3.27865 -0.8665 0)
(4.07483 -0.656273 -1.23626e-19)
(5.21098 -0.444915 0)
(6.79739 -0.266234 4.53182e-19)
(8.95558 -0.177384 -3.25855e-19)
(11.7699 -0.261079 1.81447e-19)
(4.69404 -1.79924 0)
(4.37686 -1.7973 -1.18037e-20)
(4.07959 -1.79613 1.22615e-20)
(3.8006 -1.79399 0)
(3.53903 -1.79071 -1.19894e-21)
(3.29443 -1.78556 1.304e-21)
(3.06707 -1.77764 -1.15071e-19)
(2.85784 -1.76575 -1.20511e-19)
(2.66861 -1.74849 7.53342e-19)
(2.50212 -1.72428 -6.62806e-19)
(2.36264 -1.69124 0)
(2.25622 -1.64677 -7.35246e-19)
(2.19074 -1.58775 -1.56299e-19)
(2.17697 -1.51099 9.07893e-19)
(2.22941 -1.41338 -3.48776e-19)
(2.36717 -1.2925 3.67509e-19)
(2.61541 -1.14686 0)
(3.00841 -0.976367 0)
(3.59263 -0.784138 0)
(4.43021 -0.578773 -6.3254e-20)
(5.60214 -0.378348 1.33577e-19)
(7.20724 -0.215315 -7.28782e-20)
(9.35278 -0.142113 -4.87654e-19)
(12.1081 -0.231345 -5.35623e-19)
(4.66012 -1.80408 2.6412e-19)
(4.36984 -1.80088 0)
(4.09345 -1.79731 -1.95802e-19)
(3.83165 -1.79272 2.01923e-19)
(3.58455 -1.78666 -1.05682e-19)
(3.3522 -1.7784 -1.07988e-19)
(3.13546 -1.76705 1.1258e-19)
(2.93573 -1.75136 -1.32679e-21)
(2.75538 -1.72974 1.24699e-19)
(2.59729 -1.7006 -2.63376e-19)
(2.46638 -1.66255 2.75506e-19)
(2.37026 -1.61302 -4.38127e-19)
(2.31742 -1.54848 1.52967e-19)
(2.319 -1.46573 2.15156e-21)
(2.38953 -1.36212 -5.17149e-19)
(2.5482 -1.23593 3.62585e-19)
(2.82051 -1.08618 0)
(3.24053 -0.913518 -1.03267e-19)
(3.854 -0.721908 -1.11002e-19)
(4.72059 -0.520864 1.18767e-19)
(5.91764 -0.328741 0)
(7.53757 -0.176334 0)
(9.67731 -0.112728 -4.65944e-21)
(12.394 -0.205049 3.33671e-19)
(4.63675 -1.81215 -2.24827e-19)
(4.36715 -1.80301 4.7477e-20)
(4.10934 -1.7955 9.71971e-20)
(3.86332 -1.7879 0)
(3.62977 -1.77879 -3.13982e-22)
(3.40874 -1.76729 1.07819e-19)
(3.2019 -1.75264 -1.12669e-19)
(3.01101 -1.73365 2.34502e-19)
(2.83909 -1.70837 0)
(2.68847 -1.6747 3.87028e-19)
(2.56377 -1.6326 -6.82475e-19)
(2.47582 -1.58 7.18951e-19)
(2.43343 -1.51233 -3.04255e-19)
(2.44776 -1.42611 -1.59558e-19)
(2.53246 -1.31895 1.68253e-19)
(2.70678 -1.18986 3.58888e-19)
(2.9968 -1.03799 -1.89073e-19)
(3.43574 -0.864398 -1.03002e-19)
(4.06907 -0.673463 2.17106e-19)
(4.95339 -0.475653 1.16798e-19)
(6.16503 -0.290911 2.59381e-19)
(7.79184 -0.147524 -2.83249e-19)
(9.92209 -0.0889074 1.54834e-19)
(12.6045 -0.175585 -3.31152e-19)
(4.62305 -1.81155 0)
(4.37153 -1.80107 0)
(4.13073 -1.79134 0)
(3.89833 -1.7809 0)
(3.67667 -1.76874 1.0341e-19)
(3.46503 -1.75405 1.06745e-19)
(3.26605 -1.73611 3.33068e-19)
(3.08187 -1.71388 -5.79534e-19)
(2.91915 -1.6859 5.13985e-22)
(2.77649 -1.64765 -1.2778e-19)
(2.6544 -1.60171 5.38652e-19)
(2.57134 -1.54745 -1.42812e-19)
(2.53706 -1.47837 -1.50512e-19)
(2.56361 -1.39036 -3.15678e-19)
(2.66222 -1.28091 3.32062e-19)
(2.85217 -1.15023 -1.74403e-19)
(3.16118 -0.997858 -1.14281e-21)
(3.6201 -0.823646 4.9384e-19)
(4.27767 -0.632339 -3.17005e-19)
(5.1819 -0.433741 2.28329e-19)
(6.41076 -0.25339 -5.30819e-19)
(8.06186 -0.11694 3.05339e-19)
(10.2194 -0.0661517 -5.81469e-19)
(12.9042 -0.158856 0)
(4.5878 -1.81466 4.48351e-20)
(4.35855 -1.7958 -5.00102e-20)
(4.13827 -1.78174 5.18528e-20)
(3.92306 -1.76894 -5.09772e-20)
(3.71712 -1.75436 -1.05385e-19)
(3.51792 -1.73731 0)
(3.33179 -1.71714 4.11614e-22)
(3.15125 -1.69289 -1.18367e-19)
(2.98762 -1.66381 -2.41058e-19)
(2.8593 -1.62 -2.5253e-19)
(2.73947 -1.56965 2.70851e-19)
(2.66165 -1.51477 -2.85864e-19)
(2.62958 -1.4466 -1.56156e-21)
(2.65815 -1.35937 1.5813e-19)
(2.75518 -1.24985 -2.01378e-21)
(2.94019 -1.11752 -3.45762e-19)
(3.24669 -0.966818 -3.6635e-19)
(3.70044 -0.792487 -1.96612e-19)
(4.34992 -0.600434 -2.09409e-19)
(5.24293 -0.386805 -1.91892e-19)
(6.45921 -0.208131 2.13201e-19)
(8.06812 -0.0771122 0)
(10.1408 -0.0149173 2.82196e-19)
(12.748 -0.0547535 2.98568e-19)
(14.33 -1.12493 1.21391e-19)
(17.5437 -1.77765 -7.37058e-20)
(18.8319 -1.99261 0)
(19.569 -2.0932 -1.04876e-19)
(20.0953 -2.15379 0)
(20.491 -2.19388 -5.35232e-18)
(20.7935 -2.21884 9.71013e-18)
(21.0232 -2.23231 -4.46509e-18)
(21.1927 -2.23653 -1.31239e-19)
(21.3111 -2.23311 4.1151e-18)
(21.3857 -2.2233 -3.83607e-18)
(21.4239 -2.20818 -3.57139e-18)
(21.4332 -2.18883 3.24884e-18)
(21.4205 -2.16626 -2.02057e-19)
(21.3911 -2.14128 1.95626e-19)
(21.3491 -2.11451 0)
(21.2977 -2.08638 0)
(21.2393 -2.05719 3.54078e-19)
(21.1757 -2.02712 2.78144e-18)
(21.1084 -1.99629 -2.68763e-18)
(21.0383 -1.96484 3.33336e-19)
(20.9665 -1.93254 -6.53961e-19)
(20.8936 -1.89814 1.92247e-18)
(20.8192 -1.87143 -1.85474e-18)
(14.275 -0.854892 -1.88896e-18)
(17.8541 -1.51666 6.10765e-20)
(19.339 -1.77733 0)
(20.041 -1.87622 9.78522e-20)
(20.5122 -1.93868 -2.83e-18)
(20.8516 -1.98418 2.53695e-18)
(21.097 -2.01647 1.49716e-19)
(21.2701 -2.03815 -4.45311e-18)
(21.3855 -2.05094 4.2526e-18)
(21.4549 -2.05621 3.84042e-18)
(21.4877 -2.05524 -7.47097e-18)
(21.4927 -2.04916 3.53446e-18)
(21.4772 -2.03904 1.06603e-19)
(21.4467 -2.02574 2.04953e-19)
(21.4054 -2.00998 0)
(21.3561 -1.99224 0)
(21.3011 -1.97291 -2.8224e-18)
(21.2419 -1.95226 2.35478e-18)
(21.1797 -1.93046 0)
(21.1154 -1.90765 0)
(21.0494 -1.88395 1.38895e-18)
(20.9824 -1.85902 -1.35148e-18)
(20.9149 -1.83257 -3.36237e-19)
(20.8464 -1.81228 0)
(14.5432 -0.733043 -1.09118e-19)
(18.029 -1.33313 0)
(19.6557 -1.63501 -3.46456e-18)
(20.3297 -1.73611 2.89038e-18)
(20.7513 -1.79502 0)
(21.0442 -1.83786 -2.59612e-18)
(21.2462 -1.86921 2.23091e-18)
(21.3795 -1.89145 0)
(21.4602 -1.90619 0)
(21.5008 -1.91478 -1.25964e-19)
(21.5117 -1.91831 1.91513e-18)
(21.501 -1.91779 -1.80507e-18)
(21.475 -1.91396 -2.18915e-19)
(21.4381 -1.90746 -3.3792e-18)
(21.3934 -1.8987 3.22975e-18)
(21.3433 -1.88802 0)
(21.2892 -1.87569 -1.91942e-19)
(21.2324 -1.86188 1.87885e-19)
(21.1736 -1.84674 0)
(21.1134 -1.83042 0)
(21.0523 -1.81303 3.57819e-19)
(20.9906 -1.79425 -1.41936e-18)
(20.9289 -1.77407 1.03745e-18)
(20.8666 -1.75847 6.81225e-19)
(14.8596 -0.652124 1.01642e-18)
(18.1895 -1.20088 1.72524e-18)
(19.8934 -1.52739 -1.85618e-18)
(20.5448 -1.63208 1.89105e-19)
(20.9209 -1.68819 1.76249e-19)
(21.1715 -1.72896 0)
(21.3356 -1.7593 2.43384e-18)
(21.4365 -1.78151 2.74484e-20)
(21.4909 -1.79719 -2.13429e-18)
(21.5116 -1.80757 1.26498e-19)
(21.5086 -1.81371 -1.21854e-19)
(21.4891 -1.81642 -1.86638e-18)
(21.4581 -1.81631 1.99463e-18)
(21.419 -1.81383 0)
(21.3742 -1.80932 0)
(21.3253 -1.80303 -2.0299e-19)
(21.2737 -1.79519 1.58902e-18)
(21.2201 -1.78593 -1.34694e-18)
(21.165 -1.77538 -1.33896e-18)
(21.109 -1.76367 2.99933e-18)
(21.0524 -1.75091 -1.8441e-18)
(20.9954 -1.73689 0)
(20.9386 -1.7216 -3.62092e-19)
(20.8816 -1.70954 7.09664e-19)
(15.1379 -0.5961 -1.93748e-19)
(18.3362 -1.11038 0)
(20.0729 -1.44619 1.99703e-19)
(20.706 -1.55292 -1.51333e-18)
(21.0435 -1.60612 1.21154e-18)
(21.2586 -1.6449 2.60848e-18)
(21.3919 -1.67417 -2.57239e-18)
(21.4674 -1.69606 0)
(21.5021 -1.7121 0)
(21.5087 -1.72348 -1.29954e-19)
(21.4962 -1.73113 -1.07094e-21)
(21.4708 -1.73576 0)
(21.4365 -1.73787 2.28514e-19)
(21.3963 -1.73786 -2.20691e-19)
(21.3519 -1.73602 0)
(21.3046 -1.73256 4.1567e-19)
(21.2554 -1.72769 1.63184e-18)
(21.2049 -1.7215 -3.18542e-18)
(21.1535 -1.71414 1.56076e-18)
(21.1015 -1.70572 1.74748e-18)
(21.0491 -1.69633 -1.52398e-18)
(20.9966 -1.68584 -7.61948e-19)
(20.9444 -1.67427 1.88191e-18)
(20.8919 -1.66468 -1.47964e-18)
(15.3681 -0.55145 1.69281e-18)
(18.4644 -1.04182 6.11413e-19)
(20.2077 -1.38043 -1.56041e-18)
(20.8236 -1.48967 0)
(21.1279 -1.54088 0)
(21.3136 -1.57808 1.30569e-18)
(21.4223 -1.60631 -1.06538e-18)
(21.4784 -1.62769 -1.45577e-19)
(21.499 -1.64373 2.21337e-18)
(21.4959 -1.65556 4.1549e-19)
(21.4771 -1.66405 -1.87417e-18)
(21.4481 -1.66982 0)
(21.4121 -1.67331 -2.10083e-18)
(21.3716 -1.6749 1.79053e-18)
(21.328 -1.67483 1.75612e-18)
(21.2825 -1.67331 -1.90933e-18)
(21.2357 -1.67049 -1.88352e-18)
(21.188 -1.66648 1.22093e-18)
(21.14 -1.66141 -2.01465e-19)
(21.0917 -1.65538 -1.19938e-18)
(21.0433 -1.64845 7.87151e-19)
(20.9951 -1.64056 -1.96303e-19)
(20.9471 -1.63175 0)
(20.899 -1.62424 3.87335e-19)
(15.5724 -0.515652 -3.6377e-19)
(18.5823 -0.989391 1.90692e-19)
(20.3132 -1.32798 0)
(20.9104 -1.43904 -1.84857e-19)
(21.1861 -1.48853 0)
(21.3471 -1.52425 0)
(21.4362 -1.55138 1.39002e-18)
(21.4777 -1.57214 -7.2358e-19)
(21.488 -1.58797 2.79424e-19)
(21.4781 -1.59994 -2.65019e-19)
(21.4552 -1.60886 0)
(21.424 -1.61528 0)
(21.3872 -1.61962 0)
(21.3469 -1.62224 -1.25512e-21)
(21.3045 -1.62339 -2.24003e-19)
(21.2607 -1.6232 0)
(21.2162 -1.6218 2.13245e-19)
(21.1712 -1.61931 2.09741e-19)
(21.1262 -1.6159 6.24588e-19)
(21.0813 -1.61163 5.83845e-21)
(21.0365 -1.60651 -1.8328e-18)
(20.992 -1.60055 1.01043e-18)
(20.9479 -1.59386 -4.05717e-19)
(20.9037 -1.58836 4.00921e-19)
(15.7207 -0.471712 5.22239e-19)
(18.6639 -0.933812 3.76987e-19)
(20.3869 -1.27821 -3.80936e-19)
(20.9732 -1.39588 1.27666e-18)
(21.2261 -1.44542 -6.83303e-19)
(21.3678 -1.48019 0)
(21.4412 -1.50639 -1.53414e-19)
(21.4713 -1.52638 -1.47206e-18)
(21.4738 -1.54183 8.37945e-19)
(21.459 -1.55377 0)
(21.4333 -1.56286 2.59299e-19)
(21.4007 -1.5696 1.00107e-18)
(21.3636 -1.57442 -9.60533e-19)
(21.3237 -1.57774 -4.71825e-19)
(21.2823 -1.57978 1.13554e-18)
(21.2402 -1.58057 -2.23187e-19)
(21.1978 -1.58009 0)
(21.1552 -1.57863 -1.07879e-18)
(21.1127 -1.57645 8.46143e-19)
(21.0708 -1.57346 2.10427e-19)
(21.0294 -1.56961 2.09382e-19)
(20.9882 -1.56504 0)
(20.9475 -1.56 0)
(20.9069 -1.55645 0)
(15.9423 -0.448653 -3.38752e-19)
(18.7745 -0.908021 -7.32612e-19)
(20.4598 -1.25728 3.70997e-19)
(21.0227 -1.36977 -7.19402e-19)
(21.2569 -1.4136 3.41913e-19)
(21.3795 -1.44492 -6.49405e-19)
(21.4408 -1.46884 6.13302e-19)
(21.4621 -1.48798 -1.18256e-18)
(21.4587 -1.50302 1.40646e-18)
(21.4402 -1.51488 0)
(21.4125 -1.52402 -2.60321e-19)
(21.3789 -1.53083 -2.52764e-19)
(21.3415 -1.53587 0)
(21.3018 -1.53963 -2.37081e-19)
(21.2613 -1.54245 -9.30388e-19)
(21.2212 -1.54398 9.03308e-19)
(21.1809 -1.54397 0)
(21.14 -1.54315 1.10072e-18)
(21.0998 -1.54204 -6.49098e-19)
(21.061 -1.54015 0)
(21.0224 -1.53718 0)
(20.9837 -1.53355 0)
(20.9453 -1.52978 0)
(20.9074 -1.52876 2.16854e-19)
(15.8237 -0.311918 1.0993e-20)
(18.6611 -0.801951 -3.71047e-19)
(20.4567 -1.21625 1.10204e-18)
(21.0568 -1.34106 -3.53704e-19)
(21.2728 -1.38468 2.29086e-21)
(21.3905 -1.4137 -6.45075e-19)
(21.4393 -1.43746 -5.19164e-21)
(21.4521 -1.45548 -4.94815e-21)
(21.4435 -1.47 8.53506e-19)
(21.4221 -1.48182 -5.4516e-19)
(21.3934 -1.49082 0)
(21.359 -1.49728 -1.12744e-21)
(21.3214 -1.50219 0)
(21.2822 -1.50634 0)
(21.2427 -1.51017 -9.33139e-19)
(21.205 -1.51267 9.07369e-19)
(21.1659 -1.51242 9.18015e-19)
(21.1257 -1.51181 -9.03013e-19)
(21.0875 -1.51195 0)
(21.0514 -1.51092 0)
(21.0147 -1.508 0)
(20.9793 -1.50494 4.47237e-19)
(20.9438 -1.50225 -6.72023e-19)
(20.9082 -1.50353 2.23641e-19)
(1.34769 2.4432 9.0661e-20)
(4.26508 2.88665 0)
(7.29918 4.00172 0)
(10.0285 5.45404 -2.30397e-18)
(12.3804 6.84855 1.82709e-18)
(14.4602 8.12861 0)
(16.3159 9.2852 -2.81887e-20)
(17.9542 10.2858 -3.05082e-20)
(19.3692 11.1009 0)
(20.5561 11.7153 0)
(21.5153 12.123 -7.25524e-20)
(22.2563 12.3299 0)
(22.7987 12.3503 -2.98087e-19)
(23.171 12.2084 4.66982e-20)
(23.4076 11.9343 2.47886e-19)
(23.5458 11.5625 0)
(23.6208 11.1269 0)
(23.6606 10.6574 0)
(23.6847 10.1766 -4.2087e-20)
(23.7033 9.69921 -6.98527e-20)
(23.72 9.23379 -4.98247e-20)
(23.7348 8.78329 1.13617e-19)
(23.7475 8.35072 -4.37889e-20)
(23.7657 7.9139 9.15498e-20)
(-13.392 1.54723 -1.41633e-17)
(-10.9238 1.62828 2.41635e-19)
(-7.96016 1.87139 0)
(-4.70135 2.34059 0)
(-1.13163 3.0152 0)
(2.5691 3.85783 0)
(6.25064 4.82699 -1.33205e-18)
(9.74 5.88304 1.30481e-18)
(12.9275 6.96869 -1.00671e-18)
(15.743 8.01573 9.0395e-19)
(18.1427 8.95806 8.81947e-20)
(20.1066 9.7411 -6.3945e-19)
(21.6377 10.3267 5.37518e-19)
(22.7629 10.6972 1.37052e-19)
(23.5302 10.8553 0)
(24.0039 10.8223 0)
(24.2571 10.6339 0)
(24.3614 10.3317 -2.47217e-19)
(24.3775 9.95644 2.37183e-19)
(24.3497 9.54232 -3.35503e-20)
(24.3048 9.11347 0)
(24.2561 8.68387 0)
(24.2095 8.26547 0)
(24.1745 7.82867 -5.40446e-20)
(-7.64601 1.13783 2.74695e-19)
(-7.31684 0.969035 -3.14287e-19)
(-6.17038 0.882566 0)
(-4.70471 0.86872 1.33589e-19)
(-3.00102 0.995631 0)
(-1.04052 1.3023 0)
(1.24612 1.81437 0)
(3.91479 2.53271 -1.88456e-18)
(6.88618 3.42969 1.61732e-18)
(10.0078 4.45826 0)
(13.1028 5.55659 -1.34409e-19)