/*--------------------------------*- C++ -*----------------------------------*\
| =========                 |                                                 |
| \\      /  F ield         | OpenFOAM: The Open Source CFD Toolbox           |
|  \\    /   O peration     | Version:  2.3.0                                 |
|   \\  /    A nd           | Web:      www.OpenFOAM.org                      |
|    \\/     M anipulation  |                                                 |
\*---------------------------------------------------------------------------*/
FoamFile
{
    version     2.0;
    format      ascii;
    class       volVectorField;
    location    "9000";
    object      U;
}
// * * * * * * * * * * * * * * * * * * * * * * * * * * * * * * * * * * * * * //

dimensions      [0 1 -1 0 0 0 0];

internalField   nonuniform List<vector> 
14050
(
(22.6503 9.01113 -1.2882e-20)
(22.5305 9.40104 -4.2702e-21)
(22.3973 9.80324 -3.9983e-20)
(22.2521 10.2189 7.86677e-20)
(22.0956 10.651 -2.90799e-20)
(21.9286 11.1015 3.31694e-20)
(21.7506 11.5716 3.17758e-20)
(21.5594 12.0599 0)
(21.3499 12.5628 -8.11862e-20)
(21.1136 13.0739 3.34804e-21)
(20.839 13.5848 1.06422e-19)
(20.5129 14.0859 -4.03378e-20)
(20.1207 14.5673 -9.54757e-21)
(19.6466 15.0202 -6.18439e-21)
(19.0748 15.4379 0)
(18.3896 15.815 -1.04553e-20)
(17.5762 16.1475 8.10988e-20)
(16.6218 16.4342 -5.02718e-20)
(15.5142 16.671 0)
(14.2398 16.8469 -2.16228e-19)
(12.7867 16.9399 2.29333e-19)
(11.1682 16.9737 -2.34166e-20)
(9.42737 17.0334 0)
(7.57908 16.9466 9.57125e-19)
(22.2806 8.89782 -3.28444e-20)
(22.1375 9.23008 6.73858e-20)
(21.981 9.56415 -6.80329e-20)
(21.809 9.90122 -1.44971e-19)
(21.6196 10.2415 1.5194e-19)
(21.4114 10.5856 2.55572e-20)
(21.1826 10.9345 0)
(20.9318 11.2888 1.96638e-19)
(20.6569 11.6489 -1.77428e-19)
(20.356 12.0143 1.80968e-20)
(20.0265 12.383 2.53867e-20)
(19.6652 12.7518 7.24484e-21)
(19.2691 13.1158 -3.65091e-19)
(18.8348 13.4683 4.17514e-19)
(18.3596 13.8006 2.13136e-20)
(17.8412 14.1021 -6.73227e-19)
(17.2791 14.3604 1.56933e-18)
(16.6748 14.562 -8.79024e-19)
(16.0313 14.6917 -6.12497e-19)
(15.3545 14.7331 5.86592e-19)
(14.6548 14.6686 8.53508e-19)
(13.9494 14.4818 1.57224e-19)
(13.2525 14.1586 1.49778e-19)
(12.5654 13.6888 -4.94235e-19)
(21.9657 8.76305 -7.47371e-20)
(21.8118 9.04705 -8.00322e-20)
(21.6457 9.32804 4.22286e-20)
(21.4661 9.60888 1.52064e-19)
(21.2719 9.88855 -1.52383e-19)
(21.0619 10.1665 -3.15592e-20)
(20.835 10.4417 -5.46809e-20)
(20.5894 10.7133 0)
(20.323 10.9797 -2.02712e-20)
(20.0338 11.2395 -5.20062e-19)
(19.7194 11.4905 -1.12055e-19)
(19.3777 11.7302 1.1635e-18)
(19.007 11.9555 -6.47e-19)
(18.6057 12.1624 0)
(18.1729 12.3465 4.02601e-19)
(17.7089 12.5026 -4.52352e-19)
(17.2149 12.6246 0)
(16.694 12.7064 0)
(16.1511 12.7417 6.63753e-19)
(15.5935 12.7242 -6.2654e-19)
(15.031 12.6489 -8.66814e-19)
(14.4767 12.5123 8.17066e-19)
(13.9457 12.3127 5.47028e-19)
(13.4561 12.0503 -1.01206e-18)
(21.7007 8.62034 7.58848e-20)
(21.5465 8.8605 2.82999e-20)
(21.3803 9.09526 -1.90238e-19)
(21.2016 9.32824 3.60018e-19)
(21.0099 9.55833 -1.53255e-19)
(20.8045 9.78508 2.43991e-19)
(20.5849 10.0077 7.19207e-20)
(20.3502 10.2254 -2.24225e-19)
(20.0997 10.4366 4.00482e-20)
(19.8324 10.64 -3.29295e-19)
(19.5473 10.8335 3.22688e-19)
(19.2434 11.0148 0)
(18.92 11.1813 4.30859e-19)
(18.5767 11.3296 -4.35323e-19)
(18.2135 11.4562 5.22897e-19)
(17.8313 11.557 -1.03465e-18)
(17.4316 11.6278 -1.32803e-20)
(17.0171 11.6641 1.34691e-18)
(16.5918 11.6617 6.13177e-20)
(16.161 11.6169 1.15974e-19)
(15.7313 11.5268 -7.44962e-19)
(15.3107 11.3903 0)
(14.9077 11.2083 -1.25873e-19)
(14.5314 10.9839 0)
(21.4843 8.48047 -5.42423e-20)
(21.3323 8.67913 -6.6837e-20)
(21.1705 8.87562 1.30853e-19)
(20.9984 9.06984 -1.09659e-20)
(20.8153 9.26049 -6.2313e-20)
(20.6204 9.44697 -2.20093e-19)
(20.4133 9.62866 5.72371e-19)
(20.1934 9.80466 -3.53619e-19)
(19.96 9.97382 3.19229e-19)
(19.7123 10.1348 2.43896e-20)
(19.4499 10.2861 -2.88405e-19)
(19.172 10.4257 -4.47787e-19)
(18.8783 10.5514 4.52326e-19)
(18.5688 10.6609 0)
(18.2438 10.7513 -5.72079e-19)
(17.9042 10.8195 5.07567e-19)
(17.5516 10.8625 -3.97615e-20)
(17.1883 10.8771 7.37529e-19)
(16.818 10.8606 -1.49986e-18)
(16.4451 10.8104 3.25917e-19)
(16.0748 10.7251 3.82278e-19)
(15.7134 10.6041 0)
(15.3672 10.4485 6.57553e-20)
(15.0425 10.2609 0)
(21.3032 8.33216 7.13e-20)
(21.1562 8.50382 0)
(21.0023 8.6717 -2.14424e-19)
(20.8396 8.83582 2.1729e-19)
(20.6674 8.99598 4.06216e-19)
(20.4848 9.1519 -6.07241e-20)
(20.2914 9.3032 -2.98588e-19)
(20.087 9.44913 -4.81154e-20)
(19.8712 9.5887 5.08881e-20)
(19.6435 9.72071 5.40019e-20)
(19.4034 9.84376 -5.3156e-20)
(19.1507 9.95619 -6.14303e-20)
(18.8851 10.0561 0)
(18.6069 10.1416 0)
(18.3162 10.2102 0)
(18.0141 10.2594 -6.66109e-19)
(17.7015 10.2865 1.03703e-18)
(17.3805 10.2889 2.33263e-20)
(17.0536 10.2649 -4.45767e-19)
(16.7244 10.2124 0)
(16.3975 10.1306 -6.03724e-19)
(16.0774 10.0191 4.91494e-19)
(15.7692 9.87891 6.69684e-20)
(15.4778 9.712 0)
(21.1476 8.20084 -7.57013e-20)
(21.0107 8.34443 0)
(20.8665 8.4874 0)
(20.7144 8.62697 -8.72635e-20)
(20.5539 8.76296 -2.1677e-19)
(20.3837 8.89507 -8.5333e-21)
(20.2034 9.02311 1.37413e-19)
(20.013 9.14636 4.84298e-20)
(19.8123 9.26404 -2.69274e-19)
(19.6011 9.37503 1.6493e-19)
(19.379 9.47791 0)
(19.1455 9.57124 6.20291e-20)
(18.9007 9.65345 6.94731e-20)
(18.6447 9.72289 0)
(18.3782 9.77772 7.95879e-20)
(18.1024 9.81549 -2.61808e-19)
(17.8179 9.83361 -2.05004e-20)
(17.5261 9.82985 2.81551e-19)
(17.2286 9.80253 -1.05502e-19)
(16.9288 9.75048 0)
(16.6303 9.67271 1.20309e-19)
(16.3373 9.56912 3.91582e-19)
(16.0538 9.44039 -4.70546e-19)
(15.7841 9.28833 -1.43459e-19)
(21.0208 8.07865 -8.9537e-20)
(20.8919 8.19897 8.34683e-20)
(20.7562 8.32158 4.53903e-20)
(20.614 8.44167 8.77878e-20)
(20.465 8.55853 -4.56308e-20)
(20.3071 8.67194 5.04867e-20)
(20.1392 8.78207 4.97491e-20)
(19.9615 8.88802 0)
(19.7737 8.98934 0)
(19.5765 9.0851 3.0506e-19)
(19.3698 9.17344 1.22308e-20)
(19.1527 9.25297 -1.93443e-19)
(18.9252 9.32212 -7.00429e-20)
(18.6871 9.37973 0)
(18.4385 9.42524 -8.02926e-20)
(18.1827 9.45598 -1.73986e-19)
(17.9204 9.46869 3.83203e-19)
(17.652 9.46112 -7.008e-19)
(17.3778 9.43217 8.47403e-20)
(17.1001 9.38103 8.00519e-19)
(16.8231 9.30686 -5.97986e-19)
(16.5502 9.20908 -1.29621e-19)
(16.2846 9.08854 1.37373e-19)
(16.0302 8.94718 5.83718e-19)
(20.9141 7.96503 8.57323e-20)
(20.7938 8.06574 -4.69307e-20)
(20.6662 8.172 -1.41261e-19)
(20.5332 8.27716 -1.02211e-19)
(20.3948 8.37948 -7.67571e-21)
(20.2485 8.47806 -1.11892e-19)
(20.0911 8.57422 -6.38405e-20)
(19.9254 8.66634 2.21183e-19)
(19.7485 8.75427 5.99259e-20)
(19.5626 8.83897 1.81375e-21)
(19.3685 8.91728 0)
(19.165 8.98761 -6.82955e-20)
(18.9516 9.04736 -3.01271e-19)
(18.7285 9.09395 2.2658e-19)
(18.492 9.13214 -4.24901e-19)
(18.2504 9.15931 5.23626e-19)
(18.0046 9.1701 0)
(17.7557 9.16021 4.14471e-19)
(17.4997 9.13038 -4.21149e-19)
(17.2391 9.08022 -4.3286e-22)
(16.9786 9.0095 3.71522e-19)
(16.7213 8.91631 -2.52889e-19)
(16.469 8.80107 1.36557e-19)
(16.2255 8.66822 -2.90022e-19)
(20.82 7.85864 4.71829e-20)
(20.7136 7.94575 1.99911e-19)
(20.598 8.03787 -1.00322e-19)
(20.4764 8.13045 1.56923e-19)
(20.3468 8.22172 -1.00547e-19)
(20.2069 8.30788 -1.67933e-19)
(20.0542 8.39394 2.81541e-19)
(19.9013 8.47731 0)
(19.7364 8.55162 -1.24656e-19)
(19.5603 8.62687 -3.30937e-19)
(19.3781 8.6974 -1.12478e-20)
(19.1868 8.76181 2.75825e-19)
(18.983 8.81867 0)
(18.7721 8.85441 4.06536e-19)
(18.5465 8.8833 -2.54947e-19)
(18.3187 8.90706 -9.12166e-20)
(18.0847 8.91999 0)
(17.8453 8.90959 0)
(17.5991 8.88057 0)
(17.3521 8.83167 -1.2235e-19)
(17.1036 8.76367 2.39853e-19)
(16.8558 8.67626 -1.26925e-19)
(16.6136 8.56318 -1.35998e-19)
(16.3769 8.43775 -1.41899e-19)
(5.72836 15.9791 -1.65788e-18)
(5.48193 14.5257 6.89176e-19)
(5.60672 13.2679 0)
(5.86923 12.1627 -5.96732e-20)
(6.21378 11.1868 -3.37452e-20)
(6.61197 10.3115 0)
(7.04455 9.52238 -2.28156e-19)
(7.49757 8.81068 -9.81904e-19)
(7.95981 8.16811 1.14231e-18)
(8.42216 7.5879 1.30188e-18)
(8.87769 7.06412 9.8098e-19)
(9.32064 6.59108 -2.24848e-18)
(9.74708 6.16397 0)
(10.1547 5.77832 0)
(10.5425 5.42947 -2.69249e-19)
(10.9105 5.11309 0)
(11.2601 4.82504 -5.18645e-19)
(11.593 4.56113 -1.05075e-18)
(11.9113 4.31738 2.02411e-18)
(12.2169 4.09028 -1.45331e-18)
(12.5114 3.87688 -1.3903e-18)
(12.7962 3.67567 -1.76337e-18)
(13.0718 3.48279 8.25232e-19)
(13.337 3.27533 -7.51379e-19)
(11.9018 13.092 -1.36349e-18)
(11.3807 12.4072 7.76672e-19)
(11.0058 11.7028 0)
(10.7535 11.01 -5.29985e-20)
(10.5983 10.3429 5.64211e-20)
(10.5215 9.70944 0)
(10.5085 9.11422 6.24317e-19)
(10.5477 8.55955 -6.29535e-19)
(10.6292 8.04578 1.27149e-19)
(10.7445 7.57198 0)
(10.8868 7.13608 0)
(11.05 6.73526 7.76388e-19)
(11.2296 6.36637 -1.01673e-18)
(11.4216 6.02578 -1.76133e-18)
(11.6229 5.71006 2.82974e-20)
(11.8311 5.41577 2.95204e-18)
(12.0442 5.13994 -4.81089e-19)
(12.2606 4.88005 4.64253e-19)
(12.4788 4.63395 -4.64428e-19)
(12.6976 4.40003 4.41141e-19)
(12.9161 4.17715 4.6958e-19)
(13.1334 3.96499 1.90722e-18)
(13.3488 3.76135 -2.03537e-19)
(13.5614 3.55179 7.39861e-19)
(13.022 11.7271 5.3055e-19)
(12.6517 11.3457 3.09291e-19)
(12.3462 10.919 -6.6697e-20)
(12.1057 10.4647 -2.5645e-19)
(11.9266 9.99715 -9.1677e-20)
(11.804 9.52719 9.56277e-20)
(11.7322 9.0628 4.0477e-19)
(11.7053 8.60999 -8.22084e-19)
(11.7172 8.17281 5.20464e-19)
(11.762 7.75411 8.62612e-19)
(11.8345 7.35542 -6.49146e-19)
(11.9295 6.97743 1.1101e-18)
(12.0427 6.62019 -6.62607e-19)
(12.1705 6.28314 -2.30079e-19)
(12.3095 5.96552 4.47067e-19)
(12.4573 5.66619 0)
(12.6117 5.38402 8.81812e-19)
(12.7712 5.11771 -1.75358e-18)
(12.9345 4.86592 4.36834e-19)
(13.1007 4.62736 -1.28204e-18)
(13.2691 4.40086 1.26053e-18)
(13.4389 4.18564 -7.21296e-19)
(13.6096 3.9797 -9.81571e-20)
(13.7806 3.77148 -1.46911e-18)
(14.1865 10.7215 0)
(13.8742 10.4227 -7.69988e-20)
(13.5981 10.0929 -8.29588e-20)
(13.362 9.74077 1.73406e-19)
(13.1668 9.37445 8.81457e-20)
(13.0117 9.0012 2.82377e-19)
(12.8945 8.62711 -2.87322e-19)
(12.8125 8.25711 -9.69764e-20)
(12.7624 7.89496 9.47295e-20)
(12.7407 7.54345 0)
(12.7441 7.20447 -1.24073e-18)
(12.7694 6.87919 1.66039e-18)
(12.8137 6.56809 -1.04311e-18)
(12.8744 6.27122 0)
(12.9492 5.98828 -2.12481e-19)
(13.036 5.71869 0)
(13.1332 5.46176 0)
(13.2391 5.21666 0)
(13.3525 4.98256 -5.26479e-21)
(13.4722 4.75866 1.63258e-18)
(13.597 4.54423 -8.00113e-19)
(13.726 4.33894 3.86648e-19)
(13.8586 4.1417 0)
(13.9938 3.9431 1.44851e-18)
(14.7423 10.0441 -7.31027e-20)
(14.4672 9.79884 7.92362e-20)
(14.2198 9.52813 1.6633e-19)
(14.0031 9.23766 -2.54584e-19)
(13.8184 8.93305 -9.0648e-20)
(13.6658 8.6197 -9.34091e-20)
(13.5439 8.30258 2.84218e-19)
(13.4511 7.98578 -2.77999e-19)
(13.3851 7.67272 1.91063e-19)
(13.3435 7.36604 -1.94509e-19)
(13.3238 7.06767 2.00712e-19)
(13.3237 6.77887 0)
(13.3408 6.50043 -9.89934e-19)
(13.373 6.2327 7.91272e-19)
(13.4184 5.97572 1.95886e-19)
(13.4752 5.72934 0)
(13.5419 5.49314 0)
(13.6173 5.26668 5.90519e-19)
(13.6999 5.04941 -1.18515e-18)
(13.7889 4.84076 3.81181e-19)
(13.8832 4.6403 8.52664e-21)
(13.9821 4.44797 -3.82626e-19)
(14.0854 4.26301 3.69265e-19)
(14.1918 4.07605 -3.52952e-21)
(15.2058 9.52062 3.81786e-19)
(14.9542 9.30577 -2.26229e-19)
(14.7255 9.06995 1.60586e-21)
(14.5219 8.8173 0)
(14.345 8.55189 -1.74169e-19)
(14.1944 8.27806 0)
(14.0696 7.99982 0)
(13.9692 7.72071 5.66023e-19)
(13.8915 7.44386 -3.74219e-19)
(13.835 7.17165 -1.9281e-19)
(13.798 6.90578 3.84305e-19)
(13.7787 6.64743 -9.55603e-19)
(13.7751 6.39735 7.66359e-19)
(13.7857 6.15594 0)
(13.8087 5.92334 -1.9437e-19)
(13.8427 5.69954 0)
(13.8863 5.48426 0)
(13.9385 5.27709 1.88652e-19)
(13.9979 5.07764 -7.59423e-19)
(14.0635 4.88544 5.58186e-19)
(14.1343 4.70023 5.60579e-19)
(14.2099 4.52219 9.20268e-20)
(14.2906 4.35041 -9.04229e-20)
(14.3763 4.17405 -3.48979e-19)
(15.531 9.11466 1.50574e-19)
(15.2961 8.92062 2.36878e-19)
(15.0815 8.70865 -2.55088e-21)
(14.8896 8.48209 2.15545e-20)
(14.7215 8.2437 2.8376e-19)
(14.576 7.99731 4.40149e-20)
(14.4529 7.74639 -3.53008e-21)
(14.3507 7.49417 1.85159e-19)
(14.2681 7.24372 -5.56844e-19)
(14.2046 6.99726 3.69667e-19)
(14.1588 6.75612 0)
(14.1291 6.52131 1.89279e-19)
(14.1141 6.29352 -1.89215e-19)
(14.112 6.07316 3.74736e-19)
(14.1214 5.86052 1.95949e-21)
(14.1411 5.65559 -3.71417e-19)
(14.1699 5.4582 0)
(14.2066 5.26793 -1.83397e-19)
(14.25 5.0845 -3.67204e-19)
(14.2991 4.90743 -3.42808e-21)
(14.3526 4.73675 -9.10112e-19)
(14.4102 4.57319 0)
(14.4732 4.41645 -3.51561e-19)
(14.5414 4.25727 0)
(15.7906 8.78625 -2.98112e-19)
(15.5677 8.60682 -1.55796e-21)
(15.3632 8.41198 -1.64485e-19)
(15.1805 8.20469 -1.88766e-19)
(15.0207 7.98614 -3.24303e-19)
(14.8798 7.75948 -8.89787e-20)
(14.7591 7.52886 -2.69279e-19)
(14.6558 7.2967 1.85034e-19)
(14.5697 7.06652 -1.80334e-19)
(14.5014 6.84024 0)
(14.4498 6.61868 0)
(14.4135 6.40269 1.81538e-19)
(14.3908 6.19286 -3.67074e-19)
(14.3801 5.9896 3.63621e-19)
(14.38 5.79351 1.80523e-19)
(14.3896 5.60462 -3.63791e-19)
(14.4079 5.42259 3.61313e-19)
(14.4337 5.247 1.81987e-19)
(14.4655 5.07778 1.35325e-21)
(14.5026 4.91405 1.78876e-19)
(14.5423 4.75643 3.1408e-19)
(14.5852 4.60622 -1.31018e-19)
(14.6339 4.4631 3.5061e-19)
(14.6882 4.31564 -8.31155e-22)
(15.9958 8.5174 -1.55992e-19)
(15.782 8.34824 2.31551e-19)
(15.5835 8.16658 -1.61174e-19)
(15.4072 7.97375 2.48413e-19)
(15.2563 7.77148 1.70771e-19)
(15.1194 7.55786 0)
(15.0024 7.34344 2.62755e-19)
(14.8991 7.12644 8.74765e-20)
(14.8104 6.91175 -2.69505e-21)
(14.7396 6.70194 1.77581e-19)
(14.6851 6.49619 1.80017e-19)
(14.6449 6.29525 1.7893e-19)
(14.6179 6.09985 2.91397e-21)
(14.6013 5.91014 -7.12969e-19)
(14.5946 5.72778 -4.65954e-21)
(14.5974 5.55237 3.53685e-19)
(14.6088 5.38337 1.75543e-19)
(14.627 5.22026 1.76508e-19)
(14.6504 5.06324 -1.75524e-19)
(14.6786 4.91047 -1.74153e-19)
(14.7071 4.76468 0)
(14.7376 4.62639 2.17596e-19)
(14.7756 4.49557 -2.13235e-19)
(14.8187 4.35668 -3.39479e-19)
(16.1545 8.29706 -1.45796e-19)
(15.9499 8.13327 -1.53096e-19)
(15.752 7.9633 -1.52852e-19)
(15.576 7.78086 0)
(15.4376 7.59959 -1.65695e-19)
(15.3016 7.39176 -2.11557e-19)
(15.1899 7.19368 -1.34296e-19)
(15.0894 6.98764 8.95419e-20)
(15.0009 6.7825 9.11877e-20)
(14.9314 6.58602 -5.57084e-22)
(14.8775 6.39246 1.80874e-19)
(14.8361 6.20251 -3.57076e-19)
(14.8073 6.01842 0)
(14.7868 5.83822 1.76105e-19)
(14.7754 5.66729 -5.309e-19)
(14.7734 5.50265 0)
(14.7798 5.34439 -1.79867e-19)
(14.7917 5.19102 1.76081e-19)
(14.8081 5.04374 -1.71885e-19)
(14.8295 4.89816 1.70902e-19)
(14.8494 4.7654 0)
(14.8718 4.63792 -1.26721e-19)
(14.9034 4.51815 2.19285e-19)
(14.9368 4.38017 -2.48483e-19)
(0.396296 -2.26448 1.45307e-19)
(0.0360638 -2.24944 -8.9032e-21)
(-0.269643 -2.24204 0)
(-0.522588 -2.23893 0)
(-0.724796 -2.23876 -9.72074e-20)
(-0.878454 -2.2405 0)
(-0.985832 -2.24314 0)
(-1.04923 -2.24571 0)
(-1.07092 -2.24721 -5.36111e-20)
(-1.05313 -2.24662 0)
(-0.997932 -2.24281 5.97794e-20)
(-0.907141 -2.23454 -6.21846e-20)
(-0.78212 -2.22035 3.28469e-20)
(-0.623428 -2.19839 -3.40903e-20)
(-0.430223 -2.16624 3.60286e-20)
(-0.199159 -2.12043 -2.9267e-19)
(0.0768908 -2.05679 3.32183e-19)
(0.412 -1.97 -2.20009e-20)
(0.832846 -1.85311 -6.97597e-20)
(1.38492 -1.69885 2.30979e-20)
(2.14956 -1.50049 -2.08181e-19)
(3.28806 -1.2485 7.83516e-19)
(5.13714 -0.942553 -6.348e-19)
(8.45462 -0.750995 0)
(0.354622 -2.29275 -1.6021e-19)
(0.0223129 -2.28468 -8.19514e-21)
(-0.261563 -2.27987 -1.85326e-19)
(-0.500144 -2.2751 -9.65571e-20)
(-0.695397 -2.27027 2.8712e-19)
(-0.848655 -2.26473 -2.96093e-19)
(-0.960941 -2.25755 2.06193e-19)
(-1.0329 -2.24775 0)
(-1.06476 -2.23416 -5.55171e-20)
(-1.05628 -2.21543 4.40459e-19)
(-1.00654 -2.18988 -5.13365e-19)
(-0.913776 -2.15546 5.6747e-20)
(-0.774969 -2.10975 -5.8385e-20)
(-0.585189 -2.0498 2.78602e-19)
(-0.336855 -1.97226 -2.55763e-19)
(-0.0189894 -1.87356 3.00285e-19)
(0.383654 -1.75007 -3.06675e-19)
(0.895014 -1.59823 -3.32577e-21)
(1.5535 -1.41516 5.88534e-20)
(2.41938 -1.20119 0)
(3.5871 -0.964791 0)
(5.20193 -0.73329 4.23774e-21)
(7.47301 -0.571047 0)
(10.6351 -0.601679 -7.89305e-19)
(0.304458 -2.30975 -4.05976e-21)
(0.00442238 -2.29852 1.73609e-19)
(-0.256798 -2.28812 2.53883e-19)
(-0.47841 -2.277 2.26587e-20)
(-0.660629 -2.26432 2.01325e-19)
(-0.803692 -2.24891 5.28178e-21)
(-0.907507 -2.22946 0)
(-0.971499 -2.20457 -5.45625e-20)
(-0.994472 -2.17264 5.2774e-20)
(-0.974497 -2.13194 -1.62686e-19)
(-0.908687 -2.08053 2.2715e-19)
(-0.792962 -2.01622 -2.30115e-19)
(-0.62178 -1.93676 4.7329e-19)
(-0.387842 -1.83993 -1.79897e-19)
(-0.0816374 -1.72386 -3.00774e-20)
(0.31043 -1.58679 -1.59839e-19)
(0.808404 -1.4271 1.32931e-19)
(1.44117 -1.24422 3.4031e-20)
(2.24919 -1.04018 -1.16461e-19)
(3.28936 -0.822303 4.18904e-20)
(4.63988 -0.608271 0)
(6.39963 -0.434412 -2.74226e-20)
(8.67652 -0.365415 0)
(11.5257 -0.497363 3.93748e-20)
(0.276505 -2.31631 8.39599e-20)
(0.0025131 -2.29572 -9.36964e-20)
(-0.236947 -2.2772 -6.9822e-20)
(-0.440623 -2.2579 -2.48617e-20)
(-0.60815 -2.23572 4.77148e-21)
(-0.738948 -2.2091 -3.07089e-19)
(-0.832046 -2.17656 3.1474e-19)
(-0.885844 -2.13662 -1.09193e-19)
(-0.897995 -2.08769 2.19555e-19)
(-0.865276 -2.02811 -2.81178e-19)
(-0.783476 -1.95618 0)
(-0.647151 -1.87018 0)
(-0.449637 -1.76864 -6.22055e-20)
(-0.182625 -1.65048 1.8791e-19)
(0.165336 -1.51456 -2.53706e-19)
(0.610038 -1.36008 0)
(1.17292 -1.18702 1.04715e-19)
(1.88304 -0.997101 -1.83972e-19)
(2.77883 -0.795599 1.18465e-19)
(3.91095 -0.593525 0)
(5.34299 -0.411685 0)
(7.14707 -0.285276 0)
(9.39132 -0.268512 6.95866e-20)
(12.0968 -0.430802 -6.58457e-19)
(0.264749 -2.30277 8.66287e-20)
(0.0127836 -2.27821 9.14196e-20)
(-0.205914 -2.25316 -1.0004e-19)
(-0.39167 -2.2265 -5.30085e-20)
(-0.543777 -2.19608 -1.53512e-19)
(-0.660967 -2.1602 1.0827e-19)
(-0.74163 -2.11727 -1.87473e-21)
(-0.78352 -2.06579 5.70012e-20)
(-0.783567 -2.00433 -2.24671e-19)
(-0.737782 -1.93137 1.62743e-21)
(-0.64123 -1.84551 1.25247e-21)
(-0.487934 -1.74559 2.41956e-19)
(-0.270667 -1.63075 -2.51426e-19)
(0.0199758 -1.50039 3.19864e-19)
(0.396562 -1.35402 0)
(0.876001 -1.19163 0)
(1.4801 -1.01434 -3.85259e-20)
(2.23717 -0.825481 3.84117e-20)
(3.18398 -0.631837 -6.22124e-20)
(4.3663 -0.445778 -2.32353e-20)
(5.8384 -0.288254 -5.49414e-20)
(7.65974 -0.191975 0)
(9.8823 -0.203425 -6.76023e-20)
(12.5178 -0.377598 -8.09701e-20)
(0.259572 -2.27061 -8.79081e-20)
(0.0309091 -2.24708 9.52588e-20)
(-0.167471 -2.21946 1.23433e-19)
(-0.3358 -2.18764 1.80677e-19)
(-0.472975 -2.15106 0)
(-0.576949 -2.10834 -1.61124e-19)
(-0.645639 -2.05784 -5.63646e-20)
(-0.676406 -1.99818 5.76345e-20)
(-0.665685 -1.92813 0)
(-0.608921 -1.84637 5.74587e-20)
(-0.500792 -1.75174 -5.93959e-20)
(-0.334934 -1.64341 -1.24173e-19)
(-0.103709 -1.52085 1.89757e-19)
(0.203288 -1.38367 -1.31582e-19)
(0.599168 -1.23195 0)
(1.10155 -1.06639 0)
(1.73254 -0.888592 0)
(2.51961 -0.702811 7.9818e-20)
(3.49807 -0.516874 -9.15343e-20)
(4.71129 -0.343218 1.26611e-19)
(6.20796 -0.202032 1.40407e-19)
(8.03994 -0.123998 0)
(10.2502 -0.150957 0)
(12.8451 -0.330839 7.89106e-20)
(0.255361 -2.24205 4.59009e-20)
(0.0533198 -2.21475 -4.97701e-20)
(-0.124719 -2.18267 0)
(-0.276371 -2.14627 3.50997e-21)
(-0.399684 -2.10493 -1.17266e-21)
(-0.491414 -2.05738 1.64619e-19)
(-0.549116 -2.00164 -5.77392e-20)
(-0.569999 -1.93642 5.82607e-20)
(-0.550209 -1.86077 -6.71959e-22)
(-0.484605 -1.77357 -1.82383e-19)
(-0.367608 -1.67378 6.34039e-20)
(-0.192402 -1.56069 6.48704e-20)
(0.0488525 -1.43379 0)
(0.367443 -1.29286 -1.38962e-19)
(0.776302 -1.13836 1.40872e-19)
(1.29421 -0.971962 -9.12972e-22)
(1.94384 -0.795066 1.60914e-21)
(2.7508 -0.612254 -8.40873e-20)
(3.7501 -0.432912 9.06558e-20)
(4.9851 -0.269016 -8.71434e-20)
(6.50026 -0.138537 -2.99594e-19)
(8.34192 -0.0710838 -6.67113e-20)
(10.5465 -0.106915 0)
(13.117 -0.290646 3.30437e-19)
(0.264145 -2.21835 -1.42748e-21)
(0.0820499 -2.18101 -5.12124e-20)
(-0.0784908 -2.14484 0)
(-0.21504 -2.10453 -2.44126e-20)
(-0.326486 -2.0595 2.64506e-20)
(-0.407455 -2.00877 6.75718e-22)
(-0.455308 -1.94961 -1.71449e-19)
(-0.467614 -1.88063 1.17408e-19)
(-0.440759 -1.80139 0)
(-0.368415 -1.71114 6.02753e-20)
(-0.245358 -1.60875 -2.52267e-19)
(-0.0631372 -1.49353 1.31748e-19)
(0.184728 -1.36471 6.79645e-20)
(0.511769 -1.22249 -7.11356e-20)
(0.928234 -1.06634 1.44176e-19)
(1.45536 -0.900384 -2.01819e-21)
(2.1183 -0.725341 7.97435e-20)
(2.9381 -0.544262 -8.60522e-20)
(3.94875 -0.369761 0)
(5.20046 -0.214732 0)
(6.73102 -0.0916339 5.45475e-20)
(8.57924 -0.0286652 3.1877e-19)
(10.7766 -0.0674974 -1.38742e-19)
(13.3272 -0.252993 0)
(0.281096 -2.1832 -9.76175e-20)
(0.115344 -2.14463 5.07287e-20)
(-0.0297247 -2.1074 0)
(-0.152591 -2.06388 -5.33895e-20)
(-0.255286 -2.0157 0)
(-0.327754 -1.96296 5.65031e-20)
(-0.367201 -1.9016 -4.19028e-22)
(-0.371944 -1.82986 -5.9368e-20)
(-0.339135 -1.74803 1.20965e-19)
(-0.261311 -1.65632 -6.32509e-20)
(-0.133058 -1.55282 0)
(0.0561223 -1.43776 -6.43998e-20)
(0.310852 -1.3082 -6.65531e-20)
(0.649857 -1.16876 7.05616e-20)
(1.07467 -1.01209 -3.92762e-22)
(1.60778 -0.845574 0)
(2.28806 -0.675267 8.08161e-20)
(3.12097 -0.497942 0)
(4.13574 -0.324553 0)
(5.40006 -0.178476 1.05117e-19)
(6.95365 -0.0578461 0)
(8.82744 0.00671596 0)
(11.0248 -0.0327809 0)
(13.557 -0.225198 0)
(0.28934 -2.1525 0)
(0.141362 -2.10842 -7.00024e-20)
(0.0141811 -2.0706 2.65525e-20)
(-0.0893189 -2.02411 -1.39469e-20)
(-0.183123 -1.97373 -5.85299e-20)
(-0.245939 -1.92003 -3.12232e-22)
(-0.278733 -1.85754 5.81302e-20)
(-0.280704 -1.78519 -5.77074e-20)
(-0.251135 -1.69889 -5.97195e-20)
(-0.1712 -1.60935 6.0031e-20)
(-0.0543648 -1.50069 -6.40025e-20)
(0.137548 -1.39263 6.7985e-20)
(0.370089 -1.25473 0)
(0.707964 -1.12325 0)
(1.12618 -0.970369 -6.9231e-20)
(1.64795 -0.791106 -3.59493e-20)
(2.31845 -0.616699 1.26537e-19)
(3.16541 -0.462731 2.13849e-20)
(4.1831 -0.269599 7.5294e-20)
(5.4851 -0.139126 -8.21842e-21)
(7.03957 -0.0288243 1.37314e-20)
(8.86646 0.0528997 6.83668e-20)
(11.0217 0.0509644 2.00639e-19)
(13.5595 -0.145071 1.67559e-20)
(14.6006 -1.4593 -7.48242e-20)
(18.1933 -2.3344 -2.71988e-18)
(19.5966 -2.66873 4.81804e-18)
(20.3055 -2.7877 -2.07679e-18)
(20.7988 -2.85424 6.00254e-20)
(21.1604 -2.89451 -5.81295e-20)
(21.4277 -2.91574 -3.28414e-18)
(21.6219 -2.9223 2.89767e-18)
(21.7564 -2.91738 -2.96876e-18)
(21.8409 -2.90311 2.74925e-18)
(21.8838 -2.88127 8.49069e-20)
(21.8937 -2.85342 -2.57299e-18)
(21.8782 -2.82109 2.41739e-18)
(21.8435 -2.7854 -1.50294e-19)
(21.7943 -2.74733 0)
(21.7342 -2.70748 -2.12111e-18)
(21.6659 -2.66637 2.16758e-18)
(21.5915 -2.62428 -3.02401e-21)
(21.5124 -2.58145 0)
(21.43 -2.53802 0)
(21.345 -2.49418 5.2314e-19)
(21.2585 -2.4497 0)
(21.1711 -2.4032 -1.53669e-18)
(21.0819 -2.36813 1.47932e-18)
(14.5038 -1.09612 9.03606e-19)
(18.2202 -1.93714 0)
(20.079 -2.38895 0)
(20.7989 -2.52029 2.03463e-18)
(21.2318 -2.58747 -1.85601e-18)
(21.5314 -2.63189 1.71707e-18)
(21.7371 -2.66007 -1.56288e-18)
(21.8715 -2.67534 9.45016e-20)
(21.9502 -2.68002 9.10182e-20)
(21.9856 -2.67604 2.78475e-18)
(21.9882 -2.66507 -5.44383e-18)
(21.9667 -2.64865 5.09002e-18)
(21.9279 -2.62804 -2.43446e-18)
(21.8766 -2.60421 -2.42557e-18)
(21.8162 -2.57788 2.45982e-18)
(21.7494 -2.54962 -2.17294e-18)
(21.6778 -2.51983 -4.79e-20)
(21.6028 -2.48876 3.88287e-18)
(21.5253 -2.45665 -2.17089e-18)
(21.4459 -2.42365 -2.7159e-19)
(21.3651 -2.38995 0)
(21.2835 -2.35522 -5.33518e-19)
(21.2016 -2.31913 5.28589e-19)
(21.1184 -2.28996 0)
(14.8362 -0.935949 0)
(18.2347 -1.65662 -1.95586e-18)
(20.3328 -2.17482 2.04208e-18)
(21.0931 -2.33517 0)
(21.4731 -2.39834 0)
(21.7206 -2.43888 0)
(21.8795 -2.46563 0)
(21.9729 -2.4817 -1.55928e-18)
(22.0173 -2.48925 -1.26772e-19)
(22.0259 -2.49004 2.80994e-18)
(22.0089 -2.48543 -9.96952e-19)
(21.9739 -2.47665 1.64207e-19)
(21.9263 -2.46448 2.55533e-18)
(21.8699 -2.44959 -4.91937e-18)
(21.8072 -2.43244 4.65658e-18)
(21.7402 -2.41339 -2.62693e-18)
(21.6701 -2.39271 0)
(21.5979 -2.37059 -8.68658e-19)
(21.5242 -2.34722 1.40371e-18)
(21.4494 -2.32274 1.69248e-18)
(21.3739 -2.29729 -1.10416e-18)
(21.298 -2.27063 1.67099e-18)
(21.222 -2.24263 -1.64241e-18)
(21.1453 -2.21788 0)
(15.1942 -0.833671 1.41686e-18)
(18.3479 -1.46796 -6.9245e-20)
(20.5109 -2.00137 -9.72756e-19)
(21.3102 -2.18853 0)
(21.6433 -2.24967 1.17276e-19)
(21.8437 -2.28796 0)
(21.9622 -2.31391 0)
(22.0225 -2.33069 9.88348e-20)
(22.0416 -2.34028 0)
(22.0321 -2.34428 0)
(22.003 -2.34388 2.55006e-21)
(21.9607 -2.34002 -1.65795e-19)
(21.9092 -2.33329 1.30796e-18)
(21.8514 -2.32417 -1.24898e-18)
(21.7894 -2.31301 0)
(21.7243 -2.3001 1.50806e-19)
(21.6572 -2.28564 0)
(21.5886 -2.26979 0)
(21.5192 -2.25271 -2.91119e-19)
(21.4491 -2.23449 -1.45524e-18)
(21.3785 -2.21523 -1.87911e-20)
(21.3078 -2.19479 8.5038e-19)
(21.2372 -2.17311 0)
(21.166 -2.15299 8.52245e-19)
(15.4958 -0.761079 -2.63333e-21)
(18.4937 -1.34255 1.07108e-19)
(20.6424 -1.86609 -1.09602e-18)
(21.4649 -2.06974 8.37059e-19)
(21.7599 -2.12938 -1.99088e-18)
(21.9216 -2.16597 1.84342e-18)
(22.0082 -2.19145 -2.10217e-19)
(22.0437 -2.20891 1.01928e-19)
(22.0447 -2.22013 1.53849e-18)
(22.0227 -2.2265 -1.26373e-18)
(21.9857 -2.22906 -1.75332e-19)
(21.9387 -2.22856 1.71857e-19)
(21.8851 -2.22551 0)
(21.827 -2.22031 0)
(21.7661 -2.21326 1.2769e-18)
(21.7032 -2.20461 -2.48583e-18)
(21.6391 -2.19452 1.06066e-18)
(21.5743 -2.18317 1.37153e-18)
(21.5091 -2.17067 -2.3991e-18)
(21.4436 -2.15712 -1.83907e-20)
(21.378 -2.14259 2.79308e-19)
(21.3126 -2.12698 1.77337e-18)
(21.2472 -2.11028 -5.87241e-19)
(21.1813 -2.09434 -9.02931e-22)
(15.7463 -0.702645 9.09681e-20)
(18.6376 -1.25008 0)
(20.7429 -1.75698 -1.21933e-19)
(21.5702 -1.96974 1.19474e-19)
(21.8331 -2.02932 0)
(21.9636 -2.06514 -1.22538e-18)
(22.0257 -2.09064 1.04238e-18)
(22.0433 -2.10881 -2.00029e-19)
(22.0319 -2.12132 1.95249e-19)
(22.002 -2.12944 1.32175e-18)
(21.9601 -2.13409 2.08292e-19)
(21.9106 -2.13596 -2.79429e-18)
(21.8563 -2.1355 1.17739e-18)
(21.7988 -2.13309 -1.33865e-18)
(21.7395 -2.12899 1.28915e-18)
(21.679 -2.12342 0)
(21.618 -2.11654 1.56942e-19)
(21.5567 -2.10851 9.43152e-19)
(21.4955 -2.09946 -1.368e-19)
(21.4344 -2.08947 -1.22046e-18)
(21.3737 -2.07859 4.03341e-21)
(21.3133 -2.06667 -6.12369e-19)
(21.2531 -2.05371 9.1498e-19)
(21.1928 -2.04134 -6.48867e-22)
(15.9658 -0.65516 -7.32961e-19)
(18.7769 -1.17909 4.09738e-19)
(20.8285 -1.66916 2.31217e-19)
(21.6436 -1.88566 -2.42898e-19)
(21.8776 -1.94573 0)
(21.9826 -1.9814 -6.79108e-19)
(22.0262 -2.00729 1.05859e-18)
(22.0309 -2.02615 -1.03235e-18)
(22.0111 -2.0396 -2.10229e-19)
(21.976 -2.0489 -1.36835e-20)
(21.9313 -2.05499 5.46635e-19)
(21.8807 -2.05851 1.92214e-21)
(21.8264 -2.05989 1.04971e-18)
(21.77 -2.05951 -8.45407e-19)
(21.7124 -2.05755 -6.71429e-19)
(21.6544 -2.0542 6.50429e-19)
(21.5962 -2.04965 6.5102e-19)
(21.5382 -2.0441 -3.15367e-19)
(21.4806 -2.03767 1.5854e-19)
(21.4235 -2.03043 1.58439e-19)
(21.3671 -2.02244 9.5144e-19)
(21.3114 -2.01352 -9.44371e-19)
(21.2561 -2.00382 3.18719e-19)
(21.2007 -1.99592 -6.38205e-19)
(16.1376 -0.610771 -1.83748e-19)
(18.8871 -1.11385 -2.08986e-19)
(20.8885 -1.58776 2.33577e-19)
(21.6875 -1.8084 2.3767e-19)
(21.9008 -1.87339 2.35774e-19)
(21.9872 -1.91139 0)
(22.0175 -1.93828 3.09958e-21)
(22.0133 -1.95765 2.05573e-19)
(21.9878 -1.97155 0)
(21.9492 -1.98148 -7.79062e-19)
(21.9026 -1.9885 -2.00562e-19)
(21.8514 -1.99314 3.58407e-19)
(21.7974 -1.99581 3.60523e-19)
(21.742 -1.9969 -5.16534e-19)
(21.6863 -1.99652 8.57338e-19)
(21.6305 -1.99474 -6.66128e-19)
(21.5749 -1.99188 0)
(21.5198 -1.98822 6.61055e-19)
(21.4654 -1.98387 -8.11271e-19)
(21.4119 -1.97883 4.91686e-19)
(21.3593 -1.97317 -4.83422e-19)
(21.3079 -1.96664 0)
(21.2568 -1.95924 -6.56332e-19)
(21.2058 -1.95407 3.34716e-19)
(16.3415 -0.58452 3.5643e-19)
(19.0413 -1.07653 2.02518e-19)
(20.9661 -1.53305 -6.93393e-19)
(21.7263 -1.75389 4.74269e-19)
(21.9119 -1.8199 -2.323e-19)
(21.9838 -1.85647 0)
(22.0047 -1.88227 -4.32472e-19)
(21.9943 -1.90079 0)
(21.9647 -1.91423 -2.02632e-19)
(21.9233 -1.92421 -7.8791e-19)
(21.8753 -1.93177 -1.37199e-20)
(21.824 -1.93722 9.17936e-19)
(21.7704 -1.94084 9.07489e-19)
(21.716 -1.94326 -7.02435e-19)
(21.6624 -1.94419 -1.73158e-19)
(21.6085 -1.94347 0)
(21.5547 -1.94179 8.50398e-19)
(21.5016 -1.93957 -1.00246e-18)
(21.4499 -1.93692 -6.72219e-19)
(21.3995 -1.93363 6.62718e-19)
(21.35 -1.9298 4.16597e-22)
(21.3025 -1.92489 -3.36806e-19)
(21.2552 -1.91883 3.35536e-19)
(21.2082 -1.91575 0)
(16.3329 -0.498841 -1.75391e-19)
(19.0027 -0.956352 4.08409e-19)
(20.9283 -1.41808 -6.73709e-19)
(21.6891 -1.67 2.45795e-19)
(21.9031 -1.76527 -2.37527e-19)
(21.9744 -1.81001 2.2726e-19)
(21.9905 -1.83563 -2.19551e-21)
(21.9758 -1.85311 -2.12969e-19)
(21.9426 -1.86529 8.12934e-19)
(21.8986 -1.87485 -7.99537e-19)
(21.8493 -1.88306 3.74447e-19)
(21.7982 -1.8893 7.49325e-19)
(21.7441 -1.89344 0)
(21.6902 -1.89706 0)
(21.639 -1.89906 1.77096e-19)
(21.5863 -1.89834 0)
(21.5346 -1.89745 8.64993e-22)
(21.4841 -1.89668 1.73136e-19)
(21.4353 -1.89565 -1.74116e-19)
(21.3886 -1.8936 1.69117e-19)
(21.3424 -1.89105 4.44622e-22)
(21.3012 -1.88778 0)
(21.256 -1.88197 5.25714e-19)
(21.2165 -1.88213 -7.11943e-19)
(0.649772 2.21073 -3.95114e-19)
(2.70015 2.57637 -5.79709e-18)
(5.13215 3.5559 0)
(7.52102 4.83097 0)
(9.67543 6.10549 -4.5765e-20)
(11.6406 7.33611 1.18823e-18)
(13.4578 8.51122 -1.03945e-18)
(15.1288 9.59117 -7.89606e-19)
(16.6391 10.5386 1.58609e-19)
(17.9736 11.326 1.10868e-18)
(19.1196 11.9367 -4.93624e-19)
(20.0722 12.362 -5.51476e-20)
(20.8349 12.602 -5.06094e-20)
(21.4205 12.6666 0)
(21.8516 12.5749 0)
(22.1572 12.3536 1.48854e-19)
(22.3694 12.033 -1.30364e-19)
(22.5191 11.6452 -1.83127e-19)
(22.6325 11.2189 6.87183e-20)
(22.7277 10.7766 -7.07573e-20)
(22.8154 10.3332 1.28448e-19)
(22.8995 9.89733 7.44272e-20)
(22.9802 9.47123 -5.20339e-20)
(23.057 9.06007 4.99582e-20)
(-11.9787 1.73696 -1.26773e-17)
(-10.3609 1.74174 -1.87116e-19)
(-8.23126 1.86345 5.29332e-20)
(-5.89373 2.2109 1.31576e-19)
(-3.1682 2.71753 1.60145e-19)
(-0.180823 3.38643 1.86638e-20)
(2.93964 4.19893 2.11941e-20)
(6.07885 5.13132 1.20395e-18)
(9.10655 6.15255 -1.174e-19)
(11.9298 7.21292 -6.82689e-19)
(14.4794 8.25173 -5.76623e-20)
(16.7061 9.20684 6.86607e-19)