/*--------------------------------*- C++ -*----------------------------------*\
| =========                 |                                                 |
| \\      /  F ield         | OpenFOAM: The Open Source CFD Toolbox           |
|  \\    /   O peration     | Version:  2.3.0                                 |
|   \\  /    A nd           | Web:      www.OpenFOAM.org                      |
|    \\/     M anipulation  |                                                 |
\*---------------------------------------------------------------------------*/
FoamFile
{
    version     2.0;
    format      ascii;
    class       volScalarField;
    location    "8000";
    object      nuTilda;
}
// * * * * * * * * * * * * * * * * * * * * * * * * * * * * * * * * * * * * * //

dimensions      [0 2 -1 0 0 0 0];

internalField   nonuniform List<scalar> 
14767
(
0.04904
0.0459804
0.0430389
0.0402509
0.0376413
0.0352394
0.0330751
0.0311247
0.029232
0.0274061
0.0256728
0.0240385
0.0224994
0.0210454
0.0196662
0.0183528
0.0170966
0.0158921
0.0147364
0.0136272
0.0125638
0.011546
0.0105983
0.00993527
0.0530908
0.0505295
0.0480631
0.0457013
0.04345
0.041311
0.0392891
0.0373833
0.0355887
0.0339056
0.0323372
0.0308887
0.0295647
0.0283681
0.0273049
0.0263783
0.0255945
0.0249582
0.0244743
0.0241474
0.02398
0.023973
0.0241276
0.0244389
0.056735
0.0545955
0.0525416
0.0505776
0.0487054
0.0469268
0.045244
0.0436573
0.0421689
0.0407808
0.0394945
0.0383143
0.0372435
0.0362861
0.0354456
0.034727
0.0341332
0.0336687
0.0333368
0.0331383
0.033074
0.0331414
0.0333348
0.0336477
0.0599845
0.0581919
0.0564743
0.0548324
0.0532673
0.0517801
0.0503718
0.0490438
0.0477978
0.046635
0.0455586
0.044572
0.0436772
0.0428786
0.0421806
0.0415867
0.0411
0.0407247
0.0404632
0.0403171
0.0402871
0.0403715
0.0405669
0.0408685
0.062872
0.0613594
0.0599125
0.0585276
0.0572051
0.0559457
0.0547507
0.0536214
0.0525589
0.051565
0.0506429
0.0497946
0.0490248
0.048336
0.0477342
0.0472218
0.0468038
0.0464835
0.046264
0.0461478
0.0461353
0.0462271
0.0464207
0.0467126
0.065418
0.0641416
0.0629144
0.0617351
0.0606045
0.0595235
0.058494
0.057518
0.0565962
0.0557309
0.0549248
0.0541801
0.0535009
0.0528923
0.0523575
0.0519019
0.0515299
0.0512453
0.0510525
0.050954
0.0509517
0.0510456
0.0512359
0.0515191
0.0676725
0.0665869
0.0655368
0.0645226
0.0635447
0.0626047
0.0617045
0.0608473
0.0600352
0.0592699
0.0585535
0.0578886
0.057279
0.056729
0.0562439
0.0558289
0.055489
0.0552294
0.0550538
0.0549663
0.0549693
0.0550639
0.0552502
0.0555265
0.0696689
0.0687376
0.0678304
0.0669502
0.066096
0.0652685
0.0644701
0.0637056
0.0629788
0.0622924
0.0616478
0.0610465
0.0604918
0.0599878
0.0595404
0.059156
0.05884
0.0585971
0.0584321
0.0583512
0.0583569
0.0584508
0.0586335
0.0589036
0.0714345
0.0706337
0.0698394
0.0690686
0.0683169
0.0675809
0.0668659
0.0661712
0.0655105
0.0648858
0.0642992
0.0637515
0.0632423
0.0627788
0.0623579
0.0619973
0.0617004
0.0614717
0.0613105
0.0612324
0.0612383
0.0613308
0.0615105
0.0617758
0.073003
0.0723202
0.0716009
0.0709188
0.0702569
0.0695929
0.0689548
0.0683074
0.0676954
0.0671165
0.066572
0.0660754
0.0656039
0.0651905
0.064783
0.064441
0.0641562
0.063947
0.0637821
0.063705
0.063708
0.0637969
0.0639736
0.0642363
0.0109936
0.0131635
0.014653
0.0161273
0.0177322
0.019498
0.0214188
0.0234846
0.0256839
0.0280064
0.0304427
0.0329843
0.035625
0.0383587
0.0411798
0.044083
0.0470624
0.0501119
0.0532251
0.0563948
0.0596133
0.062872
0.0661622
0.0694774
0.0248912
0.025499
0.0262858
0.0272542
0.0284011
0.0297198
0.0312015
0.0328345
0.0346059
0.0365043
0.0385182
0.0406364
0.0428503
0.0451513
0.0475318
0.049986
0.0525078
0.0550916
0.0577323
0.0604244
0.0631633
0.0659436
0.0687599
0.0716088
0.0340692
0.034612
0.0352959
0.0361225
0.0370912
0.0381975
0.039436
0.0407994
0.0422791
0.0438667
0.0455539
0.0473318
0.0491935
0.0511319
0.0531406
0.0552142
0.057348
0.0595371
0.0617775
0.0640651
0.0663963
0.0687685
0.0711786
0.0736263
0.0412702
0.0417792
0.0424078
0.0431557
0.0440217
0.0450024
0.0460922
0.047285
0.0485744
0.0499531
0.0514139
0.05295
0.0545548
0.0562233
0.0579496
0.0597291
0.0615581
0.0634329
0.0653504
0.0673079
0.0693027
0.0713329
0.0733961
0.0754838
0.0470993
0.0475849
0.0481762
0.0488719
0.0496696
0.0505655
0.0515539
0.0526289
0.0537843
0.0550132
0.0563094
0.0576668
0.0590798
0.0605434
0.0620532
0.0636049
0.0651955
0.0668216
0.0684809
0.0701715
0.0718915
0.0736404
0.0754158
0.0772022
0.0518929
0.0523602
0.0529238
0.0535813
0.0543298
0.0551641
0.0560786
0.0570672
0.0581234
0.0592407
0.0604133
0.0616359
0.0629028
0.0642096
0.0655522
0.0669266
0.0683299
0.0697591
0.071212
0.0726874
0.0741841
0.0757023
0.0772428
0.0787894
0.0558897
0.0563419
0.0568838
0.0575124
0.0582234
0.0590114
0.0598699
0.060792
0.0617712
0.0628017
0.0638784
0.0649958
0.066149
0.0673332
0.0685447
0.0697794
0.0710342
0.0723062
0.0735931
0.0748938
0.0762077
0.0775351
0.0788775
0.080248
0.0592586
0.0596981
0.060222
0.0608277
0.0615106
0.0622629
0.0630775
0.0639469
0.0648642
0.0658251
0.0668246
0.0678583
0.0689209
0.0700074
0.0711146
0.0722379
0.0733738
0.0745192
0.0756713
0.076829
0.0779921
0.0791625
0.0803402
0.0815367
0.0621232
0.0625526
0.0630601
0.0636471
0.0643097
0.0650359
0.0658155
0.0666407
0.0675059
0.0684094
0.0693434
0.0703107
0.0713002
0.0723074
0.0733314
0.0743646
0.0754042
0.0764467
0.0774885
0.078527
0.0795642
0.0806054
0.0816462
0.0826796
0.0645738
0.0649955
0.0654848
0.066057
0.0667067
0.0674092
0.0681583
0.068945
0.0697632
0.0706169
0.0714853
0.0724057
0.0733343
0.0742791
0.0752397
0.0761973
0.0771607
0.0781192
0.0790705
0.0800069
0.080932
0.0818715
0.0828333
0.0837492
0.080553
0.0746725
0.0690315
0.0636024
0.0583847
0.0533839
0.0486078
0.0440646
0.0397609
0.0357021
0.0318919
0.0283309
0.0250161
0.0219463
0.0191195
0.0165341
0.0141843
0.0120614
0.0101657
0.00853383
0.00727412
0.00606583
0.00477807
0.00329753
0.0842006
0.0790541
0.0740954
0.0692869
0.0646244
0.0601119
0.0557573
0.0515698
0.0475589
0.0437328
0.0400968
0.0366563
0.0334146
0.0303744
0.0275443
0.0249581
0.022661
0.0205874
0.0185801
0.0165549
0.0144749
0.012293
0.00994508
0.00734588
0.0880261
0.0836178
0.079328
0.0751342
0.0710349
0.0670346
0.0631408
0.0593644
0.0557169
0.052211
0.0488627
0.0456865
0.0426885
0.0398516
0.0371391
0.0345087
0.0319237
0.0293485
0.0267387
0.0240466
0.0212233
0.0182225
0.0149959
0.011491
0.0920411
0.0882902
0.0846158
0.0809967
0.0774314
0.0739234
0.0704798
0.0671078
0.0638154
0.0606066
0.0574809
0.0544328
0.0514538
0.0485275
0.045631
0.0427339
0.0398067
0.0368154
0.0337262
0.0304981
0.0270892
0.0234552
0.0195495
0.0153333
0.0961
0.0928976
0.0897269
0.0865684
0.0834201
0.0802845
0.0771656
0.0740668
0.070991
0.0679394
0.0649064
0.061884
0.058863
0.0558285
0.0527599
0.0496368
0.0464311
0.0431126
0.0396481
0.0360001
0.032127
0.0279864
0.0235348
0.0187315
0.0999608
0.0971649
0.0943632
0.0915395
0.0886932
0.0858245
0.0829338
0.0800231
0.0770929
0.0741419
0.0711634
0.068149
0.0650876
0.061965
0.0587644
0.0554644
0.0520401
0.0484623
0.0446975
0.0407086
0.0364559
0.0318964
0.0269863
0.0216842
0.103459
0.100963
0.0984356
0.095863
0.0932441
0.0905758
0.0878569
0.0850869
0.0822663
0.0793923
0.0764568
0.0734496
0.0703584
0.0671699
0.0638671
0.0604293
0.0568315
0.0530443
0.0490337
0.0447622
0.0401905
0.0352745
0.0299701
0.0242358
0.106526
0.104283
0.101974
0.0996001
0.0971608
0.0946507
0.0920668
0.0894084
0.0866747
0.0838648
0.0809705
0.0779744
0.0748629
0.0716235
0.06824
0.0646927
0.0609562
0.0569979
0.0527821
0.0482717
0.0434272
0.038204
0.0325575
0.0264444
0.109238
0.107177
0.105046
0.102835
0.100542
0.0981604
0.095685
0.0931171
0.0904541
0.0876981
0.0848482
0.0818725
0.0787466
0.0754635
0.0720121
0.0683761
0.0645307
0.0604351
0.0560454
0.0513269
0.0462469
0.0407594
0.0348164
0.0283718
0.111581
0.109684
0.10771
0.105646
0.103474
0.101197
0.0988074
0.0963152
0.0937096
0.0909904
0.0881966
0.0852651
0.082126
0.0787967
0.0752812
0.0715664
0.0676433
0.0634496
0.0589051
0.0539951
0.0487118
0.0430003
0.0368055
0.0300924
0.00162328
0.000875603
0.00112115
0.00141183
0.001694
0.00198427
0.00230513
0.00268852
0.00317548
0.00379146
0.00451074
0.00533011
0.00625205
0.00728244
0.00842882
0.00969864
0.0110995
0.0126402
0.0143296
0.0161778
0.0181953
0.0203936
0.0227835
0.0253673
0.00442023
0.00196675
0.001446
0.00171433
0.00203208
0.00238546
0.00279983
0.00329838
0.00389774
0.00460714
0.00540257
0.00628416
0.00725514
0.00832047
0.00948579
0.0107567
0.0121392
0.0136405
0.0152685
0.0170317
0.0189392
0.021
0.0232223
0.0256149
0.00764203
0.00380149
0.0019406
0.00202286
0.0023997
0.00284231
0.00336256
0.00396831
0.00466405
0.00545271
0.00631454
0.00725087
0.00826432
0.00935853
0.0105373
0.0118048
0.0131659
0.0146264
0.0161929
0.0178723
0.0196717
0.0215981
0.023659
0.0258615
0.0107334
0.0059137
0.00268659
0.00234941
0.00278892
0.00332725
0.00394582
0.00464252
0.00542378
0.00628018
0.00719971
0.00818332
0.00923275
0.0103501
0.0115377
0.0127989
0.0141378
0.0155584
0.017066
0.0186659
0.0203638
0.0221647
0.0240733
0.0260889
0.0135071
0.00795474
0.00361593
0.00270659
0.00318967
0.00381865
0.00452401
0.00530056
0.00615555
0.00707096
0.00804092
0.00906539
0.0101453
0.0112812
0.0124747
0.0137281
0.0150446
0.0164273
0.0178797
0.019406
0.0210099
0.0226956
0.0244682
0.0263391
0.0159273
0.00978509
0.00460526
0.00309524
0.00359118
0.0043017
0.00508361
0.00593194
0.00684934
0.00781696
0.00883122
0.00989155
0.0109971
0.0121481
0.0133453
0.0145906
0.0158854
0.0172322
0.0186334
0.0200917
0.02161
0.0231921
0.0248434
0.0265723
0.018015
0.0113766
0.00555916
0.00350415
0.00398448
0.00476603
0.00561443
0.00652901
0.00750068
0.00851489
0.00956839
0.0106596
0.0117871
0.0129507
0.0141504
0.015387
0.0166614
0.0179748
0.0193289
0.0207253
0.0221663
0.0236551
0.0251966
0.026799
0.0198142
0.0127486
0.00643322
0.00391784
0.00436373
0.00520697
0.00611559
0.00708871
0.00810828
0.00916377
0.010252
0.0113702
0.0125169
0.0136908
0.014892
0.0161202
0.0173753
0.0186581
0.0199689
0.021309
0.0226801
0.0240844
0.0255244
0.0270019
0.0213803
0.0139357
0.00721027
0.00432019
0.00472484
0.0056215
0.00658593
0.00761004
0.00867202
0.00976393
0.0108831
0.0120257
0.013189
0.0143719
0.015574
0.0167942
0.0180315
0.0192854
0.0205557
0.0218436
0.0231513
0.0244789
0.0258269
0.0271974
0.0227979
0.0150194
0.00794582
0.00471502
0.00506313
0.00601732
0.0070304
0.00809162
0.00918802
0.0103229
0.0114787
0.0126386
0.0138108
0.0150017
0.0162071
0.0174185
0.0186371
0.0198578
0.0210804
0.0223163
0.0235707
0.0248322
0.0260994
0.0273914
0.000358536
0.00119727
0.00253486
0.00413718
0.00576025
0.00737272
0.00899113
0.0106279
0.0122831
0.0139575
0.0156543
0.0173795
0.0191425
0.0209556
0.0228312
0.0247787
0.026798
0.0288915
0.0311158
0.0335119
0.0360495
0.0387986
0.0418648
0.0451446
0.000272564
0.000684693
0.00158421
0.00282794
0.00431304
0.00580052
0.00728711
0.00877061
0.010266
0.0117903
0.0133556
0.0149664
0.0166278
0.0183471
0.0201338
0.0219988
0.0239523
0.0260054
0.0281806
0.0305092
0.033004
0.0357034
0.038656
0.0417529
0.000123415
0.000417149
0.000980687
0.00179051
0.00286603
0.00422634
0.00590381
0.00765573
0.0093594
0.0110141
0.0126297
0.0142216
0.0158057
0.0173979
0.0190169
0.0206846
0.0224255
0.024266
0.0262345
0.0283643
0.030688
0.0332397
0.0360483
0.039072
0.000141196
0.000350891
0.000805114
0.00144926
0.00230618
0.00340141
0.00476853
0.00644439
0.00828315
0.0101252
0.0119391
0.0137165
0.015449
0.0171324
0.0187703
0.0203761
0.0219757
0.0236058
0.0253129
0.0271509
0.0291776
0.031448
0.0340056
0.0368566
0.00010835
0.000307477
0.000695489
0.00124505
0.00198069
0.00291848
0.00408614
0.00551646
0.00724593
0.00919268
0.0111591
0.0131012
0.0150078
0.0168674
0.018666
0.0203917
0.0220419
0.0236312
0.0251958
0.0267951
0.0285075
0.0304216
0.0326212
0.0351588
0.000105383
0.000288462
0.000629139
0.00111856
0.00177167
0.00260613
0.00364514
0.00491886
0.00646236
0.00831158
0.010346
0.0124087
0.014457
0.0164751
0.0184467
0.020351
0.0221654
0.023874
0.0254779
0.0270065
0.0285239
0.0301304
0.0319484
0.0341051
9.8443e-05
0.000281567
0.000578568
0.0010241
0.00161714
0.00237768
0.00332402
0.00448309
0.00588656
0.00757101
0.0095607
0.0116953
0.0138535
0.0160001
0.0181174
0.0201853
0.0221783
0.0240665
0.0258243
0.0274412
0.0289395
0.0303884
0.0319081
0.0336431
9.5713e-05
0.000276361
0.000541519
0.000953588
0.00150092
0.00220459
0.00308024
0.00415225
0.00545024
0.0070085
0.00886527
0.0109966
0.0132273
0.0154755
0.017713
0.0199199
0.0220718
0.0241375
0.0260813
0.0278688
0.0294825
0.0309411
0.0323204
0.0337477
9.27978e-05
0.00027253
0.000512312
0.000898132
0.00140986
0.00206761
0.00288716
0.00389023
0.00510416
0.00656123
0.00829815
0.0103474
0.0126048
0.0149287
0.0172642
0.0195871
0.0218746
0.0240975
0.0262187
0.0281959
0.0299884
0.0315736
0.0329696
0.034249
9.08711e-05
0.000268949
0.000489496
0.000854392
0.00133772
0.00195796
0.00273204
0.00367914
0.0048248
0.00619926
0.00783761
0.00977868
0.0120108
0.0143802
0.0167934
0.0192128
0.0216149
0.023973
0.0262523
0.0284089
0.030394
0.0321608
0.0336827
0.0349764
8.94752e-05
0.000266061
0.000471676
0.000819312
0.00127964
0.00186938
0.00260645
0.00350773
0.00459724
0.00590365
0.00746024
0.00930521
0.0114676
0.0138491
0.0163194
0.0188184
0.0213173
0.0237909
0.0262071
0.0285245
0.0306924
0.0326539
0.0343564
0.03577
8.88011e-05
0.000264172
0.000458714
0.000791405
0.00123293
0.00179781
0.00250455
0.00336824
0.00441136
0.00566121
0.00714968
0.00891344
0.0109909
0.0133525
0.0158581
0.0184213
0.0210021
0.0235743
0.0261086
0.0285669
0.0308998
0.0330482
0.0349472
0.0365386
8.86413e-05
0.000263305
0.000450276
0.000769323
0.00119545
0.00174001
0.00242186
0.00325457
0.00425951
0.00546248
0.00689402
0.00858946
0.0105883
0.0129034
0.0154229
0.0180356
0.0206858
0.023343
0.0259795
0.0285602
0.0310394
0.0333591
0.0354515
0.0372486
8.89703e-05
0.000263232
0.000445307
0.0007518
0.00116541
0.0016936
0.00235469
0.00316204
0.00413552
0.00529983
0.00668416
0.00832254
0.0102538
0.0125095
0.0150239
0.0176724
0.0203815
0.023113
0.025839
0.0285272
0.0311353
0.0336092
0.035882
0.0378801
8.96422e-05
0.000263585
0.000442521
0.000737743
0.00114103
0.00165598
0.0022998
0.00308629
0.00403387
0.00516624
0.0065115
0.00810231
0.00997643
0.0121721
0.0146663
0.0173384
0.0200975
0.0228952
0.0257013
0.0284852
0.0312082
0.0338197
0.0362559
0.0384398
9.0501e-05
0.000264036
0.000440822
0.000726149
0.00112086
0.0016248
0.00225431
0.00302347
0.00394968
0.00505566
0.00636839
0.00791955
0.00974584
0.0118871
0.0143506
0.0170356
0.0198372
0.0226952
0.0255746
0.0284456
0.0312726
0.0340087
0.0365941
0.0389557
9.1512e-05
0.000264499
0.000439741
0.000716434
0.00110384
0.00159856
0.00221599
0.00297074
0.00387904
0.00496293
0.00624848
0.00776636
0.00955233
0.0116465
0.0140735
0.0167622
0.0195995
0.022513
0.0254609
0.0284131
0.0313357
0.0341859
0.0369075
0.0394301
9.26051e-05
0.000264925
0.000439002
0.000708198
0.00108923
0.00157599
0.00218307
0.00292547
0.00381858
0.00488356
0.00614597
0.00763565
0.00938724
0.0114405
0.0138294
0.0165138
0.0193806
0.0223451
0.025358
0.0283865
0.0313987
0.0343541
0.0372002
0.0398693
9.37909e-05
0.000265289
0.00043846
0.00070101
0.00107648
0.00155624
0.00215426
0.00288581
0.00376563
0.00481424
0.00605647
0.00752159
0.00924334
0.0112607
0.0136126
0.0162853
0.0191749
0.0221859
0.0252602
0.0283613
0.0314574
0.0345107
0.0374714
0.0402746
9.50233e-05
0.000265637
0.000438083
0.000694619
0.00106507
0.00153858
0.00212845
0.0028504
0.00371835
0.00475235
0.00597674
0.00742004
0.00911529
0.0111008
0.0134172
0.0160721
0.0189775
0.0220298
0.0251617
0.0283316
0.0315069
0.034651
0.0377163
0.040639
9.61799e-05
0.000265899
0.00043769
0.000688858
0.00105471
0.00152246
0.00210492
0.00281803
0.00367523
0.00469596
0.00590412
0.00732765
0.00899892
0.0109555
0.0132388
0.0158705
0.0187844
0.0218726
0.025058
0.028293
0.0315431
0.0347728
0.037937
0.0409773
9.73331e-05
0.000266111
0.000437308
0.000683527
0.00104511
0.00150756
0.00208312
0.0027881
0.00363535
0.0046439
0.00583706
0.00724237
0.00889154
0.0108214
0.0130735
0.0156787
0.0185936
0.0217113
0.0249456
0.0282418
0.0315625
0.0348719
0.0381254
0.0412611
9.84927e-05
0.000266334
0.000437037
0.000678645
0.00103617
0.0014936
0.00206273
0.00276012
0.003598
0.00459512
0.00577438
0.00716264
0.0087912
0.0106962
0.0129187
0.0154954
0.0184043
0.021545
0.0248233
0.028177
0.0315648
0.0349503
0.0382907
0.0415295
9.95951e-05
0.000266527
0.00043677
0.000674126
0.00102781
0.00148048
0.00204348
0.00273362
0.00356268
0.00454902
0.00571512
0.00708739
0.00869657
0.0105781
0.0127727
0.0153201
0.0182168
0.0213736
0.0246906
0.028098
0.0315495
0.0350076
0.03843
0.0417595
0.000100664
0.000266731
0.000436574
0.000669971
0.00101996
0.00146813
0.0020253
0.00270847
0.0035291
0.00450517
0.00565878
0.00701589
0.00860673
0.0104662
0.0126342
0.0151525
0.0180317
0.0211979
0.0245481
0.028005
0.0315171
0.0350451
0.0385479
0.041974
0.00010169
0.000266944
0.000436421
0.000666145
0.00101256
0.00145648
0.00200822
0.0026845
0.00349703
0.00446329
0.00560498
0.00694767
0.00852106
0.0103595
0.0125023
0.014992
0.01785
0.0210192
0.0243968
0.0278987
0.0314677
0.035062
0.03864
0.0421494
0.000102663
0.000267172
0.000436319
0.000662658
0.00100551
0.00144534
0.0019919
0.00266159
0.00346637
0.00442323
0.00555354
0.00688246
0.00843919
0.0102576
0.0123764
0.0148384
0.0176725
0.020839
0.0242382
0.0277805
0.031403
0.0350606
0.0387114
0.042305
0.000103597
0.000267432
0.000436293
0.000659547
0.000998848
0.00143474
0.00197634
0.00263974
0.00343712
0.00438502
0.00550445
0.00682017
0.00836098
0.0101602
0.0122561
0.0146914
0.0175002
0.0206586
0.0240738
0.0276519
0.0313244
0.0350426
0.038764
0.0424384
0.000104509
0.000267725
0.00043636
0.00065684
0.000992579
0.00142468
0.00196155
0.00261896
0.00340929
0.00434866
0.00545769
0.00676081
0.00828641
0.0100673
0.0121414
0.0145509
0.0173336
0.0204796
0.0239054
0.0275144
0.031233
0.0350092
0.0388003
0.0425601
0.000105422
0.000268072
0.000436557
0.000654569
0.000986721
0.00141519
0.00194757
0.00259929
0.00338295
0.00431422
0.00541339
0.00670452
0.00821564
0.00997914
0.0120322
0.014417
0.0171736
0.0203037
0.0237347
0.0273695
0.0311296
0.0349596
0.0388161
0.0426579
0.000106332
0.000268463
0.000436868
0.000652711
0.000981261
0.00140627
0.0019344
0.00258074
0.00335809
0.00428172
0.00537158
0.00665138
0.00814879
0.00989573
0.0119289
0.0142901
0.0170208
0.0201323
0.0235638
0.0272192
0.0310159
0.034894
0.038807
0.0427091
0.000107249
0.000268903
0.000437303
0.000651265
0.000976217
0.00139792
0.00192205
0.00256333
0.00333476
0.00425123
0.00533233
0.00660149
0.00808598
0.00981731
0.0118318
0.0141706
0.0168762
0.0199675
0.0233955
0.0270668
0.0308957
0.0348179
0.0387847
0.0427506
0.000108165
0.000269386
0.000437847
0.000650186
0.000971568
0.00139014
0.00191051
0.00254707
0.00331297
0.00422272
0.00529563
0.00655482
0.00802724
0.00974398
0.0117408
0.0140587
0.0167405
0.0198108
0.0232322
0.0269157
0.0307729
0.0347357
0.0387528
0.0427782
0.000109074
0.00026989
0.000438459
0.00064942
0.000967306
0.00138294
0.0018998
0.00253194
0.00329269
0.00419616
0.00526142
0.00651131
0.00797248
0.00967563
0.0116561
0.0139544
0.0166138
0.0196633
0.0230762
0.0267688
0.0306511
0.0346514
0.038715
0.0427939
0.000109998
0.000270421
0.000439152
0.000648932
0.000963427
0.0013763
0.00188991
0.00251794
0.00327389
0.00417152
0.00522964
0.0064709
0.00792158
0.00961208
0.0115774
0.0138575
0.016496
0.0195255
0.0229287
0.0266284
0.0305341
0.0345706
0.0386806
0.0428158
0.000110929
0.00027097
0.0004399
0.00064868
0.00095993
0.00137023
0.00188081
0.00250505
0.00325656
0.00414877
0.00520028
0.00643346
0.00787435
0.00955303
0.0115042
0.0137675
0.0163864
0.0193966
0.0227897
0.0264952
0.0304229
0.0344948
0.038651
0.0428429
0.000111868
0.000271534
0.000440695
0.000648616
0.000956773
0.00136469
0.0018725
0.00249324
0.00324066
0.00412787
0.00517325
0.00639893
0.00783069
0.00949833
0.0114362
0.0136836
0.0162841
0.0192757
0.0226579
0.0263679
0.0303163
0.0344227
0.0386245
0.042871
0.000112816
0.000272106
0.000441523
0.000648705
0.00095393
0.00135964
0.00186491
0.00248246
0.00322611
0.00410873
0.00514846
0.0063672
0.00779047
0.00944782
0.0113733
0.0136057
0.0161887
0.0191621
0.0225325
0.0262451
0.0302124
0.0343522
0.0385992
0.0429012
0.000113771
0.000272682
0.000442373
0.000648911
0.000951365
0.00135505
0.00185799
0.0024726
0.00321282
0.00409125
0.00512582
0.00633817
0.00775363
0.00940143
0.0113152
0.0135337
0.0161001
0.0190557
0.0224132
0.026126
0.0301093
0.0342798
0.0385702
0.0429293
0.00011473
0.000273259
0.000443233
0.000649205
0.00094905
0.00135086
0.00185167
0.00246361
0.00320071
0.00407533
0.00510518
0.00631171
0.00772
0.00935901
0.0112621
0.0134676
0.0160184
0.0189569
0.0223009
0.0260117
0.0300079
0.0342047
0.0385318
0.0429348
0.000115692
0.00027383
0.000444089
0.000649558
0.000946951
0.00134703
0.0018459
0.00245538
0.00318965
0.00406079
0.00508635
0.00628759
0.00768936
0.00932037
0.0112137
0.0134072
0.0159436
0.0188661
0.0221968
0.0259044
0.0299115
0.0341321
0.0384926
0.0429331
0.000116653
0.000274394
0.000444935
0.000649949
0.000945042
0.00134353
0.0018406
0.00244785
0.00317952
0.0040475
0.00506915
0.00626558
0.00766144
0.00928517
0.0111696
0.0133522
0.0158756
0.0187833
0.0221014
0.0258056
0.0298228
0.0340667
0.0384612
0.0429429
0.000117607
0.00027495
0.000445762
0.000650371
0.000943311
0.00134031
0.00183573
0.00244093
0.00317022
0.00403531
0.0050534
0.00624545
0.00763592
0.00925304
0.0111293
0.0133021
0.0158136
0.0187078
0.0220142
0.0257152
0.0297421
0.0340095
0.0384397
0.0429693
0.000118561
0.000275492
0.00044657
0.000650814
0.000941733
0.00133735
0.00183125
0.00243454
0.00316166
0.00402409
0.00503893
0.00622697
0.00761252
0.00922362
0.0110925
0.0132563
0.0157569
0.0186389
0.0219343
0.0256319
0.029668
0.0339578
0.0384224
0.0429966
0.000119526
0.000276019
0.000447371
0.000651278
0.000940304
0.00133464
0.00182712
0.00242865
0.00315373
0.00401371
0.00502555
0.00620991
0.00759095
0.00919654
0.0110587
0.0132143
0.0157051
0.0185757
0.0218609
0.0255552
0.0295999
0.0339111
0.0384081
0.0430239
0.000120497
0.000276542
0.000448169
0.000651763
0.000939024
0.00133216
0.00182331
0.00242319
0.00314637
0.00400407
0.00501311
0.00619407
0.00757095
0.00917147
0.0110275
0.0131756
0.0156573
0.0185175
0.0217931
0.0254842
0.0295373
0.03387
0.0384003
0.0430571
0.000121463
0.000277059
0.000448956
0.00065226
0.000937884
0.0013299
0.00181981
0.00241814
0.00313954
0.00399508
0.00500149
0.00617925
0.00755225
0.00914806
0.0109984
0.0131395
0.0156129
0.0184636
0.0217301
0.0254178
0.0294786
0.0338319
0.0383951
0.0430978
0.00012241
0.000277558
0.000449721
0.000652763
0.000936872
0.00132786
0.00181661
0.00241348
0.00313319
0.00398668
0.00499059
0.0061653
0.00753463
0.00912601
0.010971
0.0131057
0.0155714
0.0184131
0.0216711
0.0253554
0.0294229
0.0337953
0.0383895
0.0431335
0.00012335
0.000278043
0.000450475
0.000653275
0.000935984
0.00132602
0.00181371
0.0024092
0.00312731
0.00397883
0.00498034
0.00615213
0.00751792
0.00910507
0.010945
0.0130736
0.0155321
0.0183656
0.0216157
0.0252966
0.0293704
0.0337605
0.0383828
0.0431647
0.000124278
0.000278518
0.00045121
0.000653793
0.000935238
0.00132442
0.0018111
0.00240531
0.00312192
0.00397155
0.00497074
0.0061397
0.00750206
0.00908507
0.01092
0.0130428
0.0154944
0.0183201
0.0215628
0.0252408
0.0293212
0.033729
0.0383776
0.0431859
0.000125185
0.000278983
0.000451932
0.000654337
0.000934636
0.00132302
0.0018088
0.00240184
0.00311701
0.00396487
0.00496184
0.00612805
0.00748705
0.00906599
0.0108961
0.0130131
0.0154579
0.0182759
0.0215112
0.0251862
0.0292736
0.0337014
0.0383835
0.0432416
0.00012608
0.000279448
0.000452645
0.0006549
0.000934171
0.00132186
0.00180682
0.00239878
0.00311261
0.00395881
0.00495367
0.00611722
0.00747294
0.00904787
0.0108731
0.0129842
0.0154222
0.0182323
0.0214599
0.025131
0.029224
0.0336695
0.0383813
0.0432776
0.000126986
0.000279909
0.000453371
0.000655489
0.000933835
0.0013209
0.00180515
0.0023961
0.00310874
0.00395342
0.00494627
0.00610729
0.00745987
0.00903086
0.0108513
0.0129566
0.0153874
0.0181895
0.0214087
0.0250746
0.0291715
0.033634
0.0383751
0.0433118
0.000127895
0.000280369
0.0004541
0.000656095
0.000933617
0.00132014
0.00180375
0.00239386
0.00310538
0.00394865
0.00493968
0.00609832
0.00744789
0.00901518
0.0108308
0.0129304
0.0153542
0.0181478
0.021358
0.0250175
0.0291161
0.0335932
0.0383622
0.0433379
0.000128764
0.000280822
0.000454808
0.000656703
0.000933501
0.00131957
0.00180261
0.00239196
0.00310255
0.00394447
0.00493384
0.00609039
0.00743715
0.00900085
0.0108121
0.012906
0.0153229
0.018108
0.0213088
0.0249603
0.0290585
0.0335468
0.0383398
0.0433492
0.000129629
0.000281251
0.000455488
0.000657331
0.000933529
0.00131921
0.0018018
0.00239044
0.00310017
0.00394098
0.00492879
0.00608332
0.00742758
0.00898798
0.0107951
0.0128838
0.015294
0.0180711
0.0212624
0.0249054
0.0290008
0.0334978
0.0383127
0.0433567
0.000130517
0.000281716
0.000456224
0.000657977
0.00093369
0.00131909
0.00180127
0.00238937
0.00309832
0.00393807
0.00492456
0.00607731
0.0074192
0.00897671
0.01078
0.0128639
0.0152681
0.0180375
0.0212198
0.0248544
0.0289464
0.0334496
0.0382836
0.0433607
0.000131312
0.000282144
0.000456878
0.000658644
0.000933996
0.00131917
0.00180104
0.0023886
0.0030969
0.00393573
0.00492098
0.00607215
0.00741199
0.00896674
0.0107666
0.0128461
0.0152448
0.0180075
0.0211818
0.0248086
0.0288974
0.0334062
0.0382559
0.043359
0.000132139
0.000282565
0.000457536
0.000659335
0.000934431
0.00131947
0.00180111
0.00238832
0.00309602
0.00393409
0.00491822
0.00606791
0.00740582
0.00895818
0.0107548
0.0128304
0.0152241
0.0179805
0.0211478
0.0247682
0.0288545
0.0333698
0.038236
0.0433603
0.00013302
0.000283031
0.000458297
0.000660097
0.000935025
0.00132004
0.00180159
0.00238855
0.00309575
0.00393312
0.00491634
0.0060647
0.00740084
0.00895086
0.0107447
0.0128165
0.0152056
0.0179563
0.0211171
0.0247315
0.0288168
0.0333402
0.0382277
0.0433901
0.000133852
0.000283467
0.000458985
0.00066086
0.000935805
0.00132087
0.00180243
0.00238917
0.00309601
0.00393283
0.00491518
0.00606236
0.00739695
0.00894485
0.010736
0.0128044
0.0151891
0.0179346
0.0210891
0.0246977
0.028781
0.0333117
0.038218
0.0434113
0.000134678
0.000283908
0.000459695
0.000661636
0.00093672
0.00132198
0.00180362
0.00239037
0.00309695
0.00393337
0.00491503
0.00606115
0.0073943
0.00894037
0.0107289
0.0127942
0.0151748
0.0179152
0.0210637
0.0246666
0.0287474
0.0332834
0.0382054
0.0434248
0.000135455
0.000284339
0.000460376
0.000662461
0.000937805
0.00132335
0.00180522
0.00239204
0.00309858
0.00393465
0.00491579
0.00606113
0.00739301
0.00893729
0.0107236
0.0127857
0.0151626
0.0178982
0.0210413
0.0246386
0.0287174
0.0332583
0.0381943
0.0434353
0.000136261
0.000284759
0.000461055
0.00066332
0.000939089
0.001325
0.0018072
0.00239427
0.00310088
0.00393688
0.00491761
0.00606225
0.00739311
0.00893581
0.01072
0.0127793
0.0151526
0.0178837
0.0210215
0.0246139
0.028691
0.0332382
0.0381908
0.0434559
0.000137087
0.000285217
0.000461799
0.000664231
0.000940586
0.00132702
0.00180965
0.00239713
0.00310396
0.00394
0.00492064
0.00606484
0.00739479
0.00893626
0.0107185
0.0127752
0.015145
0.0178716
0.0210041
0.0245916
0.028667
0.033221
0.0381941
0.0434985
0.000137836
0.00028564
0.000462463
0.000665168
0.000942267
0.00132931
0.00181253
0.00240048
0.00310773
0.00394402
0.00492474
0.00606876
0.00739823
0.00893861
0.0107193
0.0127736
0.01514
0.0178624
0.0209895
0.0245712
0.0286436
0.0332022
0.0381908
0.0435219
0.000138632
0.00028606
0.000463138
0.000666137
0.000944135
0.00133193
0.00181584
0.00240448
0.00311231
0.00394911
0.00493008
0.00607416
0.00740337
0.00894315
0.0107225
0.0127749
0.0151383
0.0178565
0.0209784
0.0245543
0.0286222
0.0331825
0.0381836
0.0435384
0.000139453
0.000286518
0.000463889
0.000667178
0.000946211
0.00133489
0.00181967
0.00240916
0.00311772
0.00395517
0.00493673
0.00608115
0.0074104
0.0089498
0.0107283
0.0127791
0.0151402
0.0178549
0.0209719
0.024542
0.0286055
0.0331665
0.0381782
0.0435568
0.000140257
0.000286946
0.000464602
0.000668267
0.000948548
0.00133822
0.001824
0.00241443
0.00312392
0.00396223
0.00494452
0.00608954
0.00741922
0.00895866
0.0107369
0.0127867
0.015146
0.0178578
0.0209707
0.0245356
0.0285947
0.0331563
0.0381779
0.0435802
0.000141085
0.000287403
0.000465377
0.000669397
0.000951099
0.00134196
0.00182886
0.00242046
0.00313107
0.00397042
0.00495368
0.00609954
0.00742991
0.00896987
0.0107481
0.0127975
0.0151558
0.0178655
0.020975
0.0245359
0.0285911
0.0331524
0.0381808
0.0436004
0.000141842
0.000287828
0.000466075
0.000670548
0.000953868
0.00134604
0.00183424
0.00242709
0.00313904
0.00397965
0.00496413
0.00611118
0.00744251
0.00898319
0.0107619
0.0128114
0.0151692
0.0178778
0.0209854
0.0245433
0.0285962
0.0331575
0.0381896
0.0436146
0.000142633
0.000288244
0.000466777
0.00067177
0.000956952
0.00135054
0.00184017
0.00243453
0.00314799
0.00399011
0.00497601
0.00612443
0.007457
0.00899873
0.0107783
0.0128283
0.0151861
0.0178944
0.021001
0.0245578
0.0286107
0.0331759
0.0382153
0.0436361
0.000143446
0.000288692
0.000467539
0.000673046
0.000960306
0.00135553
0.00184676
0.00244285
0.00315799
0.00400181
0.00498948
0.00613955
0.00747368
0.00901683
0.0107975
0.0128484
0.0152067
0.0179149
0.0210211
0.0245779
0.028633
0.0332074
0.0382702
0.0437435
0.00014419
0.000289116
0.000468225
0.000674357
0.000963932
0.00136094
0.00185398
0.0024519
0.00316899
0.00401479
0.00500441
0.00615642
0.00749248
0.00903737
0.0108196
0.0128717
0.0152307
0.0179392
0.0210453
0.0246016
0.0286583
0.0332405
0.0383226
0.0438317
0.000144989
0.000289524
0.00046892
0.0006757
0.000967817
0.00136681
0.00186182
0.00246187
0.00318112
0.0040292
0.00502111
0.00617538
0.00751368
0.00906076
0.0108448
0.0128985
0.0152586
0.0179676
0.0210735
0.0246295
0.0286865
0.0332732
0.038367
0.0438918
0.000145798
0.000289929
0.000469641
0.000677112
0.000971976
0.00137312
0.00187034
0.00247276
0.00319437
0.0040449
0.00503946
0.00619647
0.00753741
0.00908701
0.0108735
0.0129292
0.0152909
0.0180008
0.021107
0.0246626
0.0287203
0.0333121
0.0384201
0.0439717
0.000146583
0.000290302
0.000470294
0.000678549
0.000976452
0.0013799
0.00187951
0.00248444
0.0032087
0.00406202
0.00505952
0.00621956
0.00756364
0.00911627
0.0109057