/*--------------------------------*- C++ -*----------------------------------*\
| =========                 |                                                 |
| \\      /  F ield         | OpenFOAM: The Open Source CFD Toolbox           |
|  \\    /   O peration     | Version:  2.3.0                                 |
|   \\  /    A nd           | Web:      www.OpenFOAM.org                      |
|    \\/     M anipulation  |                                                 |
\*---------------------------------------------------------------------------*/
FoamFile
{
    version     2.0;
    format      ascii;
    class       volVectorField;
    location    "8000";
    object      U;
}
// * * * * * * * * * * * * * * * * * * * * * * * * * * * * * * * * * * * * * //

dimensions      [0 1 -1 0 0 0 0];

internalField   nonuniform List<vector> 
14767
(
(21.4507 10.3358 -3.21919e-20)
(21.2573 10.7264 5.20074e-21)
(21.0594 11.1228 -3.87342e-20)
(20.8487 11.5262 1.84599e-20)
(20.6229 11.9359 -8.78484e-20)
(20.3785 12.3479 1.08931e-19)
(20.1107 12.7568 -5.9929e-20)
(19.8123 13.1559 1.30539e-20)
(19.4747 13.5386 1.3732e-19)
(19.0878 13.8991 -1.65681e-19)
(18.6413 14.2334 1.05813e-19)
(18.1252 14.5397 1.01125e-19)
(17.5302 14.8193 -1.5015e-20)
(16.8479 15.076 -1.03268e-19)
(16.071 15.3152 2.50301e-20)
(15.1937 15.5446 1.74485e-20)
(14.2107 15.7697 -1.08743e-19)
(13.1196 15.9964 1.12276e-19)
(11.9187 16.2239 3.08913e-20)
(10.6042 16.4382 3.20014e-20)
(9.17967 16.6253 -1.60621e-20)
(7.68813 16.8307 0)
(6.20719 17.1582 0)
(4.7129 17.3665 0)
(21.0988 10.1865 -1.07275e-19)
(20.8952 10.5148 1.15837e-19)
(20.6838 10.8461 3.9273e-20)
(20.4575 11.1788 1.99625e-20)
(20.2141 11.515 0)
(19.9519 11.855 2.24041e-19)
(19.669 12.199 2.25296e-20)
(19.3637 12.5466 -2.16099e-19)
(19.0338 12.8964 -1.47474e-20)
(18.6775 13.2458 5.81803e-20)
(18.2928 13.5909 -4.40642e-19)
(17.8776 13.9266 4.00103e-19)
(17.4299 14.2465 0)
(16.948 14.5431 0)
(16.4305 14.8077 -2.35257e-20)
(15.8768 15.0305 -9.39514e-19)
(15.2871 15.2012 1.05116e-18)
(14.6631 15.3083 8.11283e-20)
(14.008 15.3401 -2.6787e-20)
(13.3271 15.2838 -1.8893e-18)
(12.6299 15.1262 1.84059e-18)
(11.9312 14.8583 -6.5814e-20)
(11.2396 14.476 0)
(10.5446 13.9794 7.97756e-20)
(20.7986 10.0161 1.3486e-19)
(20.5929 10.2914 -8.98448e-20)
(20.3781 10.5671 9.65427e-20)
(20.1501 10.8398 -1.03779e-19)
(19.9072 11.1101 0)
(19.6477 11.3769 4.19557e-19)
(19.3699 11.6394 -3.56347e-19)
(19.0717 11.8962 -1.17295e-19)
(18.7509 12.1457 0)
(18.4058 12.3861 -6.54886e-19)
(18.0345 12.6153 5.1069e-19)
(17.6357 12.8305 0)
(17.2085 13.0285 0)
(16.7525 13.2056 -8.93707e-19)
(16.2684 13.3575 9.03275e-19)
(15.7579 13.4793 0)
(15.2236 13.566 1.2423e-18)
(14.6698 13.6119 -1.31783e-18)
(14.1026 13.6115 0)
(13.5299 13.5596 5.0396e-20)
(12.9621 13.4518 0)
(12.412 13.2858 6.33661e-20)
(11.8929 13.0604 1.14073e-18)
(11.4195 12.7749 -2.29754e-18)
(20.5568 9.84251 0)
(20.3537 10.0706 9.06524e-20)
(20.1434 10.2982 -2.2241e-19)
(19.9231 10.5229 1.04025e-19)
(19.6911 10.7439 0)
(19.4462 10.9604 0)
(19.1875 11.1714 -6.47817e-20)
(18.914 11.3755 7.01081e-20)
(18.6246 11.5714 0)
(18.3186 11.7573 -3.92742e-19)
(17.995 11.9309 4.86049e-19)
(17.6534 12.0897 0)
(17.2933 12.2309 0)
(16.9149 12.3514 -5.64316e-19)
(16.5187 12.4475 4.93535e-19)
(16.1061 12.5154 -6.81363e-19)
(15.6791 12.5514 6.99183e-19)
(15.2409 12.5514 0)
(14.7956 12.512 -1.08067e-19)
(14.3486 12.4302 1.08862e-18)
(13.9066 12.3042 -8.51799e-19)
(13.477 12.1335 0)
(13.0679 11.92 -6.89335e-20)
(12.6875 11.667 -1.51523e-19)
(20.3527 9.65701 -2.51654e-19)
(20.1588 9.85405 1.12116e-19)
(19.9578 10.0439 -1.58647e-19)
(19.7482 10.23 2.85008e-19)
(19.5287 10.4114 3.21205e-19)
(19.2983 10.5876 -3.21346e-19)
(19.0561 10.7577 -4.58077e-19)
(18.8012 10.9206 3.64994e-19)
(18.5327 11.0751 0)
(18.2498 11.2199 1.1394e-19)
(17.9521 11.3532 4.81368e-19)
(17.6392 11.4731 -1.13619e-18)
(17.3111 11.5773 5.24577e-19)
(16.9681 11.6637 -6.08318e-19)
(16.6114 11.7291 6.92847e-19)
(16.2421 11.771 -8.04602e-19)
(15.8628 11.7862 6.32921e-19)
(15.476 11.7721 0)
(15.0855 11.7259 1.09235e-19)
(14.6959 11.6458 -1.18502e-19)
(14.3125 11.5305 -1.04935e-18)
(13.941 11.3799 1.05755e-18)
(13.5876 11.1956 7.39191e-19)
(13.258 10.9806 -4.40538e-19)
(20.182 9.4888 0)
(20.0011 9.65297 3.03026e-19)
(19.8126 9.81175 0)
(19.6162 9.96694 0)
(19.4115 10.1178 9.34336e-20)
(19.1977 10.2637 0)
(18.974 10.4037 -9.67562e-21)
(18.7398 10.537 0)
(18.4944 10.6626 0)
(18.2373 10.7791 -4.84014e-19)
(17.9679 10.885 4.97228e-19)
(17.6858 10.9786 1.31836e-19)
(17.3911 11.058 0)
(17.0839 11.1212 1.6213e-19)
(16.7651 11.1661 0)
(16.4359 11.1904 8.98674e-20)
(16.0983 11.1917 0)
(15.7545 11.1676 0)
(15.4077 11.1163 9.51818e-19)
(15.0615 11.0361 -9.64275e-19)
(14.7201 10.9263 -1.31208e-19)
(14.3881 10.7871 5.79152e-19)
(14.0703 10.6193 -1.34418e-18)
(13.7713 10.4255 6.157e-19)
(20.0433 9.33098 -1.65167e-19)
(19.8739 9.46762 1.79032e-19)
(19.6981 9.60171 -1.74354e-19)
(19.5146 9.73231 0)
(19.3238 9.85919 7.76203e-21)
(19.1248 9.98162 5.27844e-19)
(18.917 10.0989 -2.06231e-19)
(18.6997 10.2102 0)
(18.4724 10.3148 0)
(18.2349 10.4112 -1.24293e-19)
(17.9866 10.4982 5.60204e-19)
(17.7272 10.5742 -5.66006e-19)
(17.4565 10.6375 0)
(17.1744 10.6861 -1.63447e-19)
(16.8818 10.7185 0)
(16.5799 10.7327 0)
(16.2706 10.7267 2.07746e-19)
(15.9558 10.6983 0)
(15.6381 10.6457 0)
(15.3206 10.568 7.73486e-19)
(15.0072 10.4643 -8.09348e-19)
(14.7016 10.3345 5.59287e-19)
(14.4079 10.1795 -1.51067e-19)
(14.1298 10.001 -6.49953e-19)
(19.9313 9.18709 -9.23223e-20)
(19.7723 9.29946 1.90061e-19)
(19.6085 9.41355 -1.89658e-19)
(19.4369 9.52445 -1.03966e-19)
(19.2591 9.63245 6.36546e-21)
(19.0738 9.73664 1.18339e-19)
(18.8802 9.83658 -2.19195e-19)
(18.6778 9.93117 0)
(18.4659 10.02 0)
(18.2447 10.1017 -4.13987e-19)
(18.0139 10.175 1.31129e-19)
(17.7735 10.2383 1.42359e-19)
(17.5235 10.2899 1.63715e-19)
(17.2628 10.3281 1.79793e-19)
(16.9915 10.3516 -3.5942e-19)
(16.711 10.3591 -4.04848e-19)
(16.4234 10.3488 2.02116e-19)
(16.1312 10.3178 0)
(15.836 10.2644 -2.41567e-19)
(15.5397 10.189 -5.12918e-19)
(15.247 10.0903 -1.10339e-18)
(14.9607 9.96799 5.64586e-19)
(14.6846 9.82243 1.52484e-19)
(14.4217 9.6551 0)
(19.8375 9.05308 9.32607e-20)
(19.6882 9.14649 -2.03826e-19)
(19.5368 9.24519 3.07756e-19)
(19.3765 9.34056 3.77519e-21)
(19.2103 9.43379 4.90618e-21)
(19.037 9.52342 9.58668e-21)
(18.8557 9.60982 1.49592e-20)
(18.6666 9.691 -2.47638e-19)
(18.4672 9.76776 1.34116e-19)
(18.2595 9.8387 -1.48643e-19)
(18.0421 9.90238 1.43198e-19)
(17.816 9.95767 4.747e-19)
(17.5833 10.0011 -4.88238e-19)
(17.3399 10.0316 -3.22746e-21)
(17.0862 10.0476 1.89343e-19)
(16.8221 10.0498 4.10416e-19)
(16.5508 10.0377 2.0656e-20)
(16.2753 10.0071 -4.44211e-19)
(15.9987 9.95253 -1.13262e-20)
(15.7176 9.87865 1.01797e-18)
(15.4404 9.78426 8.3005e-19)
(15.1687 9.66822 -5.63704e-19)
(14.9065 9.53055 3.02825e-19)
(14.6557 9.37176 0)
(19.7449 8.93388 1.09903e-19)
(19.61 9.01147 -1.1174e-19)
(19.4774 9.0973 2.2411e-19)
(19.329 9.17863 4.41765e-21)
(19.173 9.26022 2.34861e-19)
(19.0114 9.33736 -3.74288e-19)
(18.8403 9.41401 1.2496e-19)
(18.6677 9.48316 -1.37034e-19)
(18.482 9.54798 -6.50403e-21)
(18.2897 9.60843 1.51343e-19)
(18.0879 9.66262 1.56917e-19)
(17.8706 9.71401 0)
(17.6452 9.75568 1.68999e-19)
(17.4086 9.7844 3.60557e-19)
(17.1689 9.79387 -7.82408e-19)
(16.9179 9.78914 -1.85037e-20)
(16.6602 9.77348 8.82272e-19)
(16.3992 9.7484 -2.18254e-19)
(16.1341 9.69538 -2.29219e-19)
(15.8587 9.62283 -5.17063e-19)
(15.5943 9.53124 5.52593e-19)
(15.3347 9.42037 -2.94199e-19)
(15.083 9.29022 -6.191e-21)
(14.8397 9.14022 3.1594e-19)
(3.17903 16.5615 -1.37389e-18)
(3.20496 15.1258 1.2407e-18)
(3.4842 13.8308 0)
(3.84535 12.7133 9.03676e-20)
(4.24015 11.7282 -9.45101e-19)
(4.65069 10.8446 1.22439e-18)
(5.06867 10.0434 1.47477e-19)
(5.496 9.31592 1.78093e-19)
(5.93245 8.65421 4.46151e-19)
(6.37336 8.05063 -4.4345e-19)
(6.81318 7.49929 2.96515e-19)
(7.2468 6.99521 -9.11915e-19)
(7.6704 6.53415 0)
(8.08127 6.11223 5.8039e-19)
(8.47795 5.72556 -6.14829e-19)
(8.86018 5.37055 2.82585e-19)
(9.22854 5.04346 -4.1807e-19)
(9.5842 4.74062 1.36913e-19)
(9.92875 4.4585 -7.82671e-19)
(10.2638 4.19378 7.94764e-19)
(10.5908 3.94373 9.87331e-19)
(10.9111 3.70655 -9.5354e-19)
(11.225 3.47917 -1.81435e-18)
(11.5326 3.25229 1.70677e-18)
(9.8572 13.3854 0)
(9.31804 12.713 9.29515e-20)
(8.93552 12.028 0)
(8.68149 11.3565 -1.09912e-19)
(8.52928 10.7097 -2.35412e-19)
(8.45854 10.0934 -6.52117e-19)
(8.45322 9.51038 3.98317e-19)
(8.50025 8.96162 5.2094e-19)
(8.58947 8.44716 -5.3734e-19)
(8.71302 7.96632 1.41372e-20)
(8.86426 7.51769 -2.56243e-19)
(9.03759 7.09932 1.08279e-21)
(9.22855 6.7087 2.6772e-19)
(9.43336 6.34304 0)
(9.64897 5.99953 -5.31777e-19)
(9.87299 5.67545 -2.5906e-19)
(10.1034 5.36832 7.57951e-19)
(10.3385 5.0761 0)
(10.5771 4.79717 1.00881e-18)
(10.818 4.53026 0)
(11.0607 4.27468 0)
(11.3045 4.02988 0)
(11.5487 3.79521 -3.46312e-18)
(11.7942 3.56724 1.66909e-18)
(11.0025 12.4293 1.15765e-18)
(10.6488 12.0239 0)
(10.3591 11.5725 -7.20447e-19)
(10.1329 11.0934 8.32141e-19)
(9.96681 10.6009 -6.94923e-19)
(9.85542 10.1059 1.22517e-18)
(9.79315 9.61642 -6.31084e-19)
(9.77418 9.13786 -2.35828e-19)
(9.79289 8.67418 0)
(9.84402 8.22794 2.4133e-19)
(9.92264 7.80058 2.42683e-19)
(10.0241 7.39287 4.57597e-19)
(10.1444 7.00488 2.34391e-19)
(10.2801 6.63629 -6.95466e-19)
(10.4281 6.28646 0)
(10.586 5.9545 4.62471e-19)
(10.7518 5.63942 -4.80446e-19)
(10.924 5.34016 0)
(11.1015 5.05557 0)
(11.2835 4.78458 8.99992e-19)
(11.4694 4.52614 -8.83877e-19)
(11.6588 4.2791 -8.69875e-19)
(11.8508 4.04351 3.38995e-18)
(12.0473 3.82271 -2.36496e-18)
(12.3399 11.3782 1.60255e-19)
(12.026 11.0549 0)
(11.7493 10.7017 0)
(11.5132 10.3271 0)
(11.3187 9.93902 2.09538e-19)
(11.1648 9.54435 -1.01732e-18)
(11.0494 9.14882 4.19811e-19)
(10.9695 8.75696 2.08223e-19)
(10.9221 8.37225 1.56744e-19)
(10.9037 7.99724 5.42234e-20)
(10.911 7.63372 0)
(10.941 7.28278 -1.26263e-19)
(10.9906 6.94504 3.32812e-19)
(11.0573 6.62058 1.61028e-20)
(11.1389 6.30925 2.14724e-19)
(11.2333 6.01062 -5.6209e-19)
(11.3389 5.72416 1.66194e-19)
(11.4542 5.44918 -4.90368e-19)
(11.578 5.18506 4.32841e-19)
(11.7092 4.93113 -1.73922e-18)
(11.847 4.6866 4.39953e-19)
(11.9904 4.45033 1.25183e-18)
(12.1383 4.22259 0)
(12.292 4.01031 3.06009e-18)
(12.9547 10.7371 6.56468e-19)
(12.6778 10.4659 -4.94822e-19)
(12.4296 10.1695 7.24908e-19)
(12.2131 9.85379 -7.26461e-19)
(12.0294 9.52434 1.95979e-19)
(11.8784 9.18636 2.01279e-19)
(11.759 8.84455 2.05499e-19)
(11.6692 8.50285 -4.10223e-19)
(11.6068 8.16448 -4.15e-19)
(11.5692 7.8319 0)
(11.5539 7.50697 -4.66457e-19)
(11.5584 7.19101 -3.77182e-19)
(11.5802 6.88491 0)
(11.6175 6.58914 1.06016e-18)
(11.6682 6.30377 -6.41611e-19)
(11.7308 6.02879 0)
(11.8038 5.76388 5.29148e-20)
(11.8859 5.50871 4.01497e-19)
(11.9762 5.26282 -3.6618e-20)
(12.0738 5.02571 6.36298e-19)
(12.1781 4.79671 2.06671e-19)
(12.2886 4.57469 -8.21666e-19)
(12.4054 4.36057 0)
(12.5307 4.16757 1.45897e-18)
(13.4932 10.2078 5.09466e-19)
(13.2368 9.96699 -1.46645e-19)
(13.0043 9.70556 -7.06127e-19)
(12.798 9.42773 0)
(12.6194 9.13765 1.89086e-19)
(12.4685 8.83946 0)
(12.3445 8.53684 0)
(12.2459 8.23319 2.03189e-19)
(12.1711 7.93139 2.56185e-19)
(12.1182 7.63365 -5.05795e-20)
(12.0848 7.34161 4.14324e-19)
(12.0691 7.05669 -1.02981e-19)
(12.0692 6.77988 2.05037e-19)
(12.0834 6.51156 -5.17338e-19)
(12.1103 6.25194 0)
(12.1484 6.00102 4.04694e-19)
(12.1964 5.75865 5.11313e-20)
(12.2534 5.52455 -6.36334e-20)
(12.3183 5.29836 -3.97807e-19)
(12.3905 5.07969 0)
(12.4692 4.868 -4.00229e-19)
(12.5545 4.66271 1.17936e-18)
(12.6481 4.46357 -7.69795e-19)
(12.7498 4.28082 -1.47877e-18)
(13.8697 9.80123 6.53119e-19)
(13.6288 9.58123 -1.7262e-19)
(13.4092 9.3434 0)
(13.2133 9.09129 0)
(13.0421 8.82827 -3.83452e-19)
(12.8959 8.55753 5.73901e-19)
(12.7736 8.28205 0)
(12.6735 8.00525 0)
(12.5944 7.72986 0)
(12.535 7.45757 -1.25842e-20)
(12.493 7.18986 1.24397e-20)
(12.4662 6.92862 0)
(12.454 6.67464 0)
(12.4547 6.42822 0)
(12.4671 6.18941 0)
(12.4896 5.95847 -4.02199e-19)
(12.5214 5.73531 -3.93413e-19)
(12.5614 5.51964 0)
(12.6087 5.31123 -3.91091e-19)
(12.6625 5.10967 0)
(12.722 4.91487 0)
(12.7876 4.72777 -7.78475e-19)
(12.8617 4.54718 7.66422e-19)
(12.9398 4.36439 -2.53079e-21)
(14.1745 9.46799 3.32528e-19)
(13.9444 9.26286 1.74046e-19)
(13.7338 9.04226 0)
(13.5453 8.80926 0)
(13.3803 8.56647 3.73184e-19)
(13.2387 8.31615 -7.63928e-19)
(13.119 8.06065 3.83988e-19)
(13.0181 7.80413 9.83065e-20)
(12.9366 7.54914 -9.71364e-20)
(12.8734 7.29672 0)
(12.8256 7.0481 -4.39802e-19)
(12.7905 6.80614 -5.09245e-22)
(12.77 6.57119 -4.38765e-19)
(12.7613 6.34298 9.73913e-20)
(12.7636 6.12161 0)
(12.7748 5.90773 4.8695e-20)
(12.795 5.70127 3.42464e-19)
(12.8226 5.50184 1.20885e-20)
(12.8571 5.30923 3.76148e-19)
(12.8971 5.12281 0)
(12.9418 4.94269 3.78471e-19)
(12.9915 4.77066 3.75123e-19)
(13.0508 4.60297 3.73896e-19)
(13.1121 4.42407 -7.30251e-19)
(14.4182 9.19385 -6.62421e-19)
(14.1961 8.99949 3.42425e-19)
(13.9912 8.79138 0)
(13.8083 8.57375 -3.6082e-19)
(13.6488 8.34734 -3.71616e-19)
(13.5124 8.11191 3.77529e-19)
(13.3964 7.87098 -3.82108e-19)
(13.294 7.63051 -3.32146e-19)
(13.2117 7.39075 -4.76674e-20)
(13.1479 7.15428 0)
(13.0967 6.92065 7.71394e-19)
(13.0537 6.69467 -4.83571e-20)
(13.0297 6.47593 4.34626e-19)
(13.0152 6.26227 0)
(13.0111 6.05499 0)
(13.0138 5.8554 4.76226e-20)
(13.0261 5.66326 -4.72565e-20)
(13.0446 5.47775 -5.91065e-21)
(13.07 5.29911 5.8758e-21)
(13.1003 5.12612 0)
(13.1343 4.95971 -5.6009e-19)
(13.171 4.80284 -3.73245e-19)
(13.2206 4.65003 1.85063e-19)
(13.2669 4.48965 -3.58195e-19)
(14.6082 8.96978 3.33161e-19)
(14.3926 8.78516 -1.70888e-19)
(14.1941 8.58301 3.59834e-19)
(14.0169 8.37686 -3.58668e-19)
(13.8629 8.16615 7.10338e-19)
(13.7317 7.94232 -6.30343e-19)
(13.6217 7.71256 9.37104e-20)
(13.5185 7.48617 7.36953e-19)
(13.4388 7.25525 -3.37492e-19)
(13.3781 7.03328 -2.86673e-20)
(13.3267 6.81071 -3.38599e-19)
(13.2748 6.59774 -2.34411e-20)
(13.2542 6.39533 3.36463e-19)
(13.2343 6.18985 4.75574e-20)
(13.2267 5.99342 3.73122e-19)
(13.2212 5.80528 -4.71251e-20)
(13.2294 5.62544 4.73134e-20)
(13.2407 5.45108 3.78151e-19)
(13.2609 5.28504 0)
(13.285 5.1231 0)
(13.3121 4.97027 3.70796e-19)
(13.3339 4.82559 1.83185e-19)
(13.3707 4.67727 1.79367e-19)
(13.409 4.51513 0)
(-4.40713 -2.55982 4.57061e-19)
(-4.06715 -2.5844 1.025e-18)
(-3.70423 -2.60829 -1.09686e-18)
(-3.32503 -2.62965 0)
(-2.9353 -2.64835 -2.97637e-19)
(-2.53957 -2.66423 -3.1982e-19)
(-2.14147 -2.67702 -3.34343e-19)
(-1.74395 -2.68648 1.747e-19)
(-1.34927 -2.69242 -1.74351e-19)
(-0.959114 -2.69466 1.91607e-19)
(-0.574824 -2.69284 0)
(-0.197183 -2.68646 0)
(0.173767 -2.67488 -1.10935e-19)
(0.538528 -2.65727 0)
(0.898671 -2.63232 1.87877e-19)
(1.25752 -2.59813 -1.95292e-19)
(1.62139 -2.55197 0)
(2.0023 -2.49033 6.32198e-19)
(2.42375 -2.40946 -7.0288e-19)
(2.93315 -2.30585 7.60823e-19)
(3.62183 -2.18122 -8.53785e-19)
(4.67811 -2.04966 0)
(6.52369 -1.96746 2.11468e-18)
(10.1612 -2.27024 -3.73251e-19)
(-4.33447 -2.55392 -9.02239e-19)
(-4.01259 -2.56416 0)
(-3.67249 -2.5799 5.29924e-19)
(-3.31784 -2.59431 -1.38679e-19)
(-2.95245 -2.60708 -2.17622e-19)
(-2.57911 -2.61797 3.63079e-19)
(-2.20001 -2.62656 6.95324e-21)
(-1.8166 -2.63234 -1.59092e-19)
(-1.4297 -2.63466 -3.30935e-19)
(-1.03933 -2.63269 -8.72458e-20)
(-0.644709 -2.62543 -1.76879e-19)
(-0.244525 -2.61154 1.83045e-19)
(0.163605 -2.58932 9.5279e-20)
(0.584074 -2.55677 9.97293e-20)
(1.02374 -2.51158 -1.03218e-19)
(1.49355 -2.45104 0)
(2.01002 -2.37236 1.11561e-19)
(2.59861 -2.27338 -4.71686e-19)
(3.30077 -2.15414 6.14799e-19)
(4.18568 -2.02016 -1.03621e-18)
(5.36506 -1.89102 4.96439e-19)
(7.01792 -1.8181 0)
(9.41663 -1.91346 7.04939e-20)
(12.8966 -2.3899 0)
(-4.24161 -2.50621 2.25271e-19)
(-3.92882 -2.50978 2.429e-19)
(-3.60045 -2.5176 0)
(-3.25764 -2.52379 0)
(-2.90268 -2.52791 3.39405e-19)
(-2.53727 -2.52939 -7.88e-20)
(-2.16243 -2.52755 4.39349e-19)
(-1.77852 -2.52162 0)
(-1.38509 -2.5107 1.51066e-19)
(-0.980857 -2.49373 3.90254e-19)
(-0.563597 -2.46947 -1.60829e-19)
(-0.12997 -2.43651 8.25943e-20)
(0.324976 -2.39321 -8.39308e-20)
(0.8084 -2.33786 -8.63141e-20)
(1.33033 -2.26876 4.4283e-20)
(1.90514 -2.18454 -4.63122e-20)
(2.55412 -2.08452 9.50783e-20)
(3.30801 -1.97001 9.58568e-20)
(4.21145 -1.84651 -3.99184e-21)
(5.32973 -1.72765 -4.05603e-19)
(6.75437 -1.64283 5.05117e-19)
(8.60486 -1.64803 -1.06785e-19)
(11.0189 -1.84038 -5.66404e-20)
(14.0693 -2.35816 -4.98662e-20)
(-4.1337 -2.43514 4.37888e-19)
(-3.83107 -2.42721 0)
(-3.51402 -2.42474 0)
(-3.18215 -2.42017 0)
(-2.83645 -2.41298 3.20844e-20)
(-2.47752 -2.40254 -1.63469e-19)
(-2.10552 -2.38813 -2.67817e-19)
(-1.7199 -2.36911 0)
(-1.31922 -2.34472 0)
(-0.901074 -2.31403 -2.15528e-19)
(-0.46203 -2.276 7.34543e-20)
(0.00267359 -2.22942 1.48791e-19)
(0.499224 -2.173 0)
(1.03618 -2.10554 -1.45775e-19)
(1.62527 -2.02626 -1.01116e-20)
(2.28256 -1.93517 -8.17043e-20)
(3.03028 -1.83362 0)
(3.89918 -1.72572 8.85628e-20)
(4.93096 -1.62054 -2.66101e-19)
(6.18106 -1.53574 1.89927e-19)
(7.7204 -1.50274 3.59013e-19)
(9.63075 -1.57293 -2.98042e-19)
(11.9887 -1.82253 -8.8997e-20)
(14.8133 -2.34387 6.80031e-19)
(-4.01392 -2.3483 -1.4452e-21)
(-3.72082 -2.33094 0)
(-3.41329 -2.31948 2.29942e-19)
(-3.09007 -2.30554 0)
(-2.75113 -2.28883 9.01399e-20)
(-2.39629 -2.2685 1.54689e-19)
(-2.02518 -2.24378 1.26309e-19)
(-1.63681 -2.21417 0)
(-1.22923 -2.17925 1.30497e-19)
(-0.799211 -2.13847 1.33507e-19)
(-0.342361 -2.09115 1.36111e-19)
(0.146959 -2.03635 -1.75227e-19)
(0.675902 -1.97304 3.58982e-20)
(1.25377 -1.90052 1.47309e-19)
(1.89288 -1.81882 -1.67379e-19)
(2.60965 -1.72892 5.926e-20)
(3.4262 -1.63375 -3.81846e-20)
(4.3714 -1.53928 0)
(5.4832 -1.45627 2.44053e-19)
(6.80961 -1.40348 -2.59905e-19)
(8.40733 -1.41143 8.48995e-20)
(10.3377 -1.52588 4.03335e-19)
(12.6512 -1.8087 3.80592e-20)
(15.3507 -2.32822 -2.62611e-19)
(-3.88724 -2.25736 4.10489e-19)
(-3.60354 -2.23076 -2.1525e-19)
(-3.30491 -2.21161 -2.08995e-21)
(-2.98994 -2.18991 0)
(-2.6574 -2.16577 -1.15541e-19)
(-2.30628 -2.13801 0)
(-1.93617 -2.10559 -1.3363e-19)
(-1.54584 -2.06806 1.52318e-20)
(-1.13318 -2.02528 -9.40804e-20)
(-0.694705 -1.97732 -1.6012e-19)
(-0.225098 -1.92403 -1.30807e-19)
(0.282325 -1.86475 3.30225e-20)
(0.83543 -1.7987 -5.10386e-20)
(1.44398 -1.72528 2.18565e-20)
(2.12032 -1.64495 1.3965e-19)
(2.88046 -1.5596 1.45438e-19)
(3.7457 -1.47313 7.61118e-20)
(4.74384 -1.39251 0)
(5.90953 -1.32935 -8.00075e-20)
(7.28482 -1.30211 8.16615e-20)
(8.91765 -1.33944 -1.61942e-19)
(10.8575 -1.48286 2.18172e-19)
(13.1413 -1.78542 -4.21913e-20)
(15.7618 -2.30243 -3.89841e-19)
(-3.76132 -2.16251 2.98676e-19)
(-3.48358 -2.13132 -1.03808e-19)
(-3.19292 -2.10665 -2.12836e-19)
(-2.88639 -2.07897 -5.40741e-20)
(-2.56071 -2.04962 1.64073e-19)
(-2.2133 -2.017 0)
(-1.84416 -1.9793 1.00528e-19)
(-1.45243 -1.93612 -1.45243e-20)
(-1.03612 -1.88738 2.98245e-20)
(-0.591891 -1.83381 0)
(-0.113823 -1.77635 1.5458e-19)
(0.405967 -1.71494 -3.2863e-22)
(0.97692 -1.64864 9.65765e-20)
(1.60855 -1.57657 0)
(2.31315 -1.49926 -8.4718e-21)
(3.10597 -1.41909 -9.85681e-20)
(4.00716 -1.34113 1.06566e-19)
(5.04318 -1.27332 -7.21059e-20)
(6.24768 -1.22721 1.50616e-19)
(7.65909 -1.21984 7.29187e-20)
(9.31739 -1.27817 7.7521e-20)
(11.2652 -1.44154 0)
(13.5297 -1.75733 7.16233e-20)
(16.0973 -2.27298 0)
(-3.63308 -2.06986 -9.71948e-20)
(-3.36343 -2.03907 -2.00043e-19)
(-3.08036 -2.0083 2.39506e-22)
(-2.78327 -1.97553 -1.03073e-19)
(-2.46562 -1.94234 -2.10718e-19)
(-2.12244 -1.90694 1.06609e-19)
(-1.75454 -1.86606 6.85072e-21)
(-1.36164 -1.81931 -7.00223e-21)
(-0.94252 -1.76624 0)
(-0.495053 -1.70772 -1.16489e-19)
(-0.0126719 -1.64613 -1.20599e-19)
(0.513236 -1.58343 1.36257e-19)
(1.09605 -1.51836 -2.50627e-19)
(1.745 -1.44892 -1.62252e-20)
(2.47135 -1.37526 0)
(3.28886 -1.29972 -3.33875e-20)
(4.21591 -1.22835 -7.07337e-20)
(5.2786 -1.17116 -3.62744e-20)
(6.51098 -1.14007 0)
(7.95164 -1.1495 -1.47912e-19)
(9.62902 -1.22227 0)
(11.5813 -1.39852 -1.34463e-19)
(13.8291 -1.72191 7.74125e-20)
(16.3574 -2.23415 1.27805e-19)
(-3.49821 -1.98328 0)
(-3.24022 -1.95293 0)
(-2.9645 -1.91802 4.98512e-20)
(-2.67812 -1.8826 1.50657e-19)
(-2.36872 -1.84596 1.02041e-19)
(-2.02991 -1.80909 -1.04007e-19)
(-1.66297 -1.76652 6.59173e-21)
(-1.26767 -1.71862 6.72559e-21)
(-0.842964 -1.66376 -1.26844e-19)
(-0.390043 -1.60175 1.13711e-19)
(0.0993982 -1.53519 0)
(0.62778 -1.4729 2.51888e-21)
(1.21886 -1.41077 1.2851e-19)
(1.88229 -1.34538 -7.73423e-21)
(2.6299 -1.27649 -1.30809e-19)
(3.47244 -1.20499 -1.58847e-20)
(4.42551 -1.13921 1.67914e-20)
(5.50621 -1.09217 0)
(6.75695 -1.07542 -6.61268e-20)
(8.22694 -1.10041 7.11051e-20)
(9.93124 -1.182 0)
(11.896 -1.36806 1.41107e-19)
(14.1383 -1.69949 1.3584e-19)
(16.6456 -2.21838 -1.22862e-19)
(-3.39262 -1.89642 -9.43156e-20)
(-3.1468 -1.86363 9.62322e-20)
(-2.88607 -1.82199 4.61776e-20)
(-2.61604 -1.79248 4.98676e-20)
(-2.31297 -1.74801 7.98616e-20)
(-1.975 -1.7097 1.10567e-19)
(-1.61631 -1.66496 6.71422e-21)
(-1.23079 -1.61544 -2.09445e-20)
(-0.811419 -1.55965 1.2788e-19)
(-0.371834 -1.49782 1.07789e-19)
(0.106001 -1.40991 -1.10317e-19)
(0.627157 -1.34708 -8.11031e-21)
(1.22941 -1.28731 0)
(1.89713 -1.22595 0)
(2.64815 -1.16071 1.29489e-19)
(3.49282 -1.08935 1.71839e-20)
(4.43629 -1.00832 7.14706e-20)
(5.53263 -0.970881 -5.02693e-20)
(6.80746 -0.963482 8.29562e-20)
(8.33059 -1.02791 0)
(10.0041 -1.09715 0)
(11.9582 -1.28357 -1.42765e-20)
(14.1558 -1.59886 -1.32097e-19)
(16.6267 -2.08861 -1.03333e-19)
(17.214 -4.10588 -6.01156e-18)
(20.6972 -5.46889 3.68284e-18)
(21.926 -5.91319 2.43559e-18)
(22.5595 -6.10047 -2.01121e-18)
(22.9758 -6.20239 -1.35367e-18)
(23.2544 -6.25551 1.16411e-18)
(23.4368 -6.27316 2.50416e-20)
(23.5469 -6.26434 5.26861e-19)
(23.6012 -6.23504 -4.565e-19)
(23.6134 -6.19004 2.23767e-19)
(23.5947 -6.1335 -2.12999e-19)
(23.5536 -6.06823 -2.52694e-20)
(23.4963 -5.99661 2.53845e-20)
(23.4272 -5.92008 0)
(23.3491 -5.83963 0)
(23.2643 -5.75598 3.52477e-20)
(23.1743 -5.66958 4.88855e-20)
(23.0802 -5.58065 -9.59773e-20)
(22.9827 -5.48939 -4.21477e-19)
(22.8822 -5.3959 6.34314e-19)
(22.7791 -5.30037 5.17803e-19)
(22.6743 -5.20194 -5.02225e-19)
(22.568 -5.10038 0)
(22.455 -5.01347 0)
(17.2325 -3.55501 -1.00469e-18)
(20.9858 -4.96615 1.23469e-18)
(22.5385 -5.56615 9.42221e-19)
(23.1121 -5.74454 -2.35619e-18)
(23.4478 -5.83943 1.38728e-18)
(23.652 -5.8929 0)
(23.7655 -5.91582 -2.41758e-20)
(23.8143 -5.91558 0)
(23.8171 -5.89761 -3.98531e-19)
(23.7883 -5.86629 3.61916e-19)
(23.738 -5.82482 0)
(23.6731 -5.77562 -3.55587e-21)
(23.5983 -5.72041 -5.13541e-20)
(23.5167 -5.66033 3.66378e-20)
(23.4302 -5.59624 -1.92676e-19)
(23.3401 -5.52875 1.56944e-19)
(23.2475 -5.45827 3.45552e-19)
(23.1527 -5.38502 -2.17337e-19)
(23.0561 -5.30923 0)
(22.9578 -5.23106 -1.10886e-19)
(22.858 -5.15067 0)
(22.7571 -5.06747 0)
(22.6557 -4.98195 2.76609e-19)
(22.5529 -4.90282 2.88331e-19)
(17.5985 -3.32521 0)
(21.0372 -4.58333 -5.20084e-20)
(22.8501 -5.31248 -8.62665e-20)
(23.4097 -5.50404 0)
(23.6793 -5.58239 0)
(23.8291 -5.62446 0)
(23.8993 -5.64147 3.61688e-20)
(23.9151 -5.64027 0)
(23.8945 -5.62552 2.88348e-19)
(23.8498 -5.6006 -2.85228e-19)
(23.7893 -5.56788 0)
(23.7182 -5.52897 7.61102e-21)
(23.6399 -5.48502 -5.15668e-21)
(23.5569 -5.4368 1.22797e-20)
(23.4705 -5.38494 -2.01684e-19)
(23.3817 -5.32985 2.22138e-19)
(23.2913 -5.27186 -3.46354e-20)
(23.1995 -5.21118 2.78194e-19)
(23.1065 -5.148 -3.50235e-20)
(23.0125 -5.08246 -2.95105e-19)
(22.9175 -5.01471 2.514e-19)
(22.8218 -4.94452 -2.45758e-19)
(22.7263 -4.87241 -2.87749e-19)
(22.631 -4.80085 -3.08884e-19)
(18.0022 -3.20732 -8.15731e-19)
(21.1329 -4.32457 5.17692e-19)
(23.0615 -5.1112 -5.7647e-19)
(23.6384 -5.32933 -6.56112e-20)
(23.8496 -5.39234 3.54744e-19)
(23.9517 -5.42313 -3.74085e-19)
(23.9862 -5.43331 -3.56356e-20)
(23.9769 -5.42909 -1.81653e-19)
(23.9397 -5.41444 4.3918e-20)
(23.8848 -5.39197 1.17849e-19)
(23.8183 -5.36348 1.20397e-20)
(23.7443 -5.33007 -4.07281e-21)
(23.6653 -5.2926 5.16298e-20)
(23.5829 -5.25163 -3.82942e-20)
(23.4983 -5.20758 2.15137e-20)
(23.4121 -5.16079 0)
(23.3247 -5.11147 -1.18525e-19)
(23.2364 -5.05983 3.27932e-19)
(23.1474 -5.00599 -2.80167e-19)
(23.0576 -4.95007 -1.35954e-19)
(22.9674 -4.89213 1.0543e-19)
(22.8771 -4.83197 1.4427e-19)
(22.787 -4.76975 -2.65255e-19)
(22.696 -4.70767 -4.62219e-19)
(18.3409 -3.13146 7.57293e-20)
(21.2558 -4.14975 -4.59875e-19)
(23.2013 -4.94272 5.95666e-19)
(23.8066 -5.18644 6.31155e-20)
(23.9723 -5.23696 4.31638e-19)
(24.0365 -5.25828 -3.11304e-19)
(24.044 -5.26259 2.28694e-19)
(24.0163 -5.25554 -2.13405e-19)
(23.9671 -5.24033 1.14426e-19)
(23.9046 -5.21904 -1.27984e-19)
(23.8338 -5.19295 -1.21166e-20)
(23.7578 -5.16296 0)
(23.6783 -5.12967 1.51412e-21)
(23.5968 -5.09358 0)
(23.514 -5.05495 -4.44704e-20)
(23.4304 -5.01407 2.91287e-20)
(23.3462 -4.97114 0)
(23.2616 -4.92627 0)
(23.1767 -4.8796 -4.68503e-20)
(23.0916 -4.83126 2.24598e-19)
(23.0065 -4.78132 -3.48506e-19)
(22.9219 -4.72956 3.73133e-19)
(22.8373 -4.67639 -1.36546e-19)
(22.7503 -4.62605 1.51959e-19)
(18.6199 -3.06737 6.83168e-20)
(21.3827 -4.01679 -6.48518e-20)
(23.2965 -4.79444 0)
(23.9231 -5.05856 0)
(24.0535 -5.1013 4.59256e-20)
(24.0885 -5.11578 -2.40919e-21)
(24.0762 -5.11608 0)
(24.0356 -5.10723 0)
(23.9783 -5.09177 1.29222e-19)
(23.9111 -5.07138 -9.21067e-20)
(23.8378 -5.04709 0)
(23.7608 -5.01956 0)
(23.6818 -4.98936 -8.04431e-21)
(23.6016 -4.95683 1.72775e-20)
(23.5208 -4.92228 2.29697e-20)
(23.4398 -4.88588 -1.63784e-19)
(23.3587 -4.84783 1.30287e-19)
(23.2778 -4.80823 -1.39323e-19)
(23.197 -4.76723 2.15335e-20)
(23.1164 -4.72503 4.26164e-19)
(23.0363 -4.68173 -2.22426e-19)
(22.9569 -4.63706 -7.53278e-21)
(22.8775 -4.59142 4.11395e-19)
(22.795 -4.54936 0)
(18.8617 -3.01202 -1.29614e-19)
(21.5092 -3.91136 2.86915e-19)
(23.3714 -4.66585 -2.55765e-19)
(24.0054 -4.94271 -3.02677e-19)
(24.1082 -4.9813 1.44393e-19)
(24.1205 -4.99135 -3.59103e-20)
(24.0934 -4.98931 0)
(24.0436 -4.97954 1.05493e-19)
(23.9809 -4.96418 -9.26781e-20)
(23.9106 -4.94463 1.72926e-20)
(23.836 -4.92168 4.77203e-21)
(23.7588 -4.89597 -3.9318e-21)
(23.6804 -4.86804 5.95846e-20)
(23.6016 -4.83825 -1.62946e-19)
(23.5228 -4.80678 2.25124e-19)
(23.4443 -4.77381 -1.10966e-19)
(23.3662 -4.73949 -3.75783e-20)
(23.2886 -4.70396 -4.29672e-20)
(23.2115 -4.66742 -4.85631e-20)
(23.135 -4.63013 -5.38737e-20)
(23.0592 -4.59226 -1.24831e-19)
(22.9845 -4.55341 -7.37924e-21)
(22.9096 -4.5138 -2.11066e-19)
(22.8316 -4.47907 -1.50847e-19)
(19.0554 -2.95194 -4.19047e-20)
(21.6173 -3.8137 2.56133e-19)
(23.4283 -4.54696 0)
(24.0621 -4.8345 -8.3582e-20)
(24.1448 -4.87393 1.78351e-19)
(24.14 -4.8823 1.17355e-19)
(24.1024 -4.87929 -1.58299e-19)
(24.0461 -4.86919 -3.1231e-21)
(23.9794 -4.85408 0)
(23.9071 -4.83517 1.20041e-20)
(23.8317 -4.81309 -4.79921e-21)
(23.7546 -4.78861 3.96342e-21)
(23.6767 -4.76242 0)
(23.5992 -4.73481 -2.66042e-20)
(23.5224 -4.70569 -1.32427e-20)
(23.4461 -4.67529 -1.37572e-20)
(23.3707 -4.64383 1.47288e-19)
(23.2962 -4.61145 0)
(23.2224 -4.57843 9.91603e-20)
(23.1494 -4.5452 1.09944e-19)
(23.0774 -4.512 0)
(23.007 -4.47803 -1.36558e-19)
(22.9365 -4.44305 2.07007e-19)
(22.8636 -4.41415 1.55297e-19)
(19.2746 -2.92103 -1.3204e-19)
(21.7401 -3.74834 -1.29485e-19)
(23.4823 -4.45343 -2.42379e-20)
(24.1017 -4.74188 -1.10488e-19)
(24.1674 -4.78132 1.40595e-19)
(24.1507 -4.78795 -2.40204e-20)
(24.1058 -4.78394 -1.35978e-19)
(24.0448 -4.77326 4.20413e-20)
(23.9753 -4.75824 1.98842e-20)
(23.9024 -4.73995 -1.20128e-20)
(23.8268 -4.71836 0)
(23.7493 -4.69448 0)
(23.6714 -4.66964 -1.54143e-20)
(23.5953 -4.64401 -2.08398e-20)
(23.5204 -4.61674 -5.58316e-20)
(23.4461 -4.58827 -7.45808e-20)
(23.3732 -4.55916 1.19135e-19)
(23.301 -4.52911 -3.8643e-20)
(23.2293 -4.49868 -5.05102e-20)
(23.1585 -4.46868 -5.59832e-20)
(23.0894 -4.43953 0)
(23.0234 -4.4095 0)
(22.9567 -4.37826 -7.43999e-20)
(22.8907 -4.35328 1.4718e-19)
(19.2852 -2.76359 1.08157e-19)
(21.7636 -3.59962 3.2545e-19)
(23.4968 -4.32755 7.69463e-20)
(24.1153 -4.64454 -1.84976e-19)
(24.1781 -4.69748 -6.57266e-20)
(24.1562 -4.70617 1.17818e-19)
(24.1067 -4.70083 0)
(24.0422 -4.68927 0)
(23.9705 -4.67501 -1.98459e-20)
(23.897 -4.65729 0)
(23.8209 -4.63455 -7.83353e-22)
(23.7427 -4.61041 0)
(23.6648 -4.58768 -1.75708e-21)
(23.591 -4.56455 0)
(23.5179 -4.53811 -8.68699e-22)
(23.4446 -4.51087 0)
(23.3739 -4.48348 0)
(23.3042 -4.45482 -4.68699e-20)
(23.2355 -4.42648 -1.11528e-19)
(23.1678 -4.39934 -1.20486e-20)
(23.1027 -4.3743 1.18426e-19)
(23.0454 -4.34946 -6.54292e-20)
(22.979 -4.32097 -7.19828e-20)
(22.927 -4.30918 -9.21633e-22)
(-0.107237 1.55332 0)
(0.592323 1.80586 0)
(1.7868 2.45203 0)
(3.0931 3.2546 5.64116e-20)
(4.45479 4.07413 -9.11148e-20)
(5.90539 4.9381 2.56543e-18)
(7.41941 5.86246 -2.20891e-18)
(8.95329 6.82725 -9.98701e-20)
(10.492 7.79368 -8.93933e-20)
(12.0117 8.72802 0)
(13.4817 9.60046 6.39571e-20)
(14.8685 10.382 -1.09473e-19)
(16.1415 11.0493 0)
(17.2768 11.5841 0)
(18.2584 11.9735 0)
(19.0809 12.2126 -5.47393e-20)
(19.7497 12.3052 2.11307e-19)
(20.2798 12.263 0)
(20.693 12.1054 0)
(21.0145 11.8563 0)
(21.2689 11.5413 0)
(21.4776 11.1835 1.79151e-19)
(21.6563 10.8024 9.38206e-20)
(21.8236 10.4007 1.18174e-19)
(-8.51472 2.34433 0)
(-8.22032 2.27026 0)
(-7.49471 2.19149 0)
(-6.56076 2.24581 -2.03331e-19)
(-5.42597 2.4068 0)
(-4.06866 2.66371 -2.30795e-19)
(-2.43676 3.00439 0)
(-0.536015 3.43563 1.62055e-19)
(1.56653 3.97695 0)
(3.8193 4.63361 0)
(6.15521 5.39913 -2.03564e-19)
(8.49805 6.2541 -2.43374e-20)
(10.7776 7.16269 -3.02499e-19)
(12.9281 8.07663 0)
(14.8925 8.94396 0)
(16.6239 9.71412 1.9443e-19)
(18.0909 10.3444 -2.37724e-19)
(19.282 10.8056 0)
(20.2068 11.0855 0)
(20.8938 11.1892 0)
(21.385 11.1375 0)
(21.7281 10.9606 1.09244e-19)
(21.9689 10.6953 -1.51229e-19)
(22.1498 10.3517 -3.24057e-19)
(-3.70764 1.28451 0)
(-4.61648 1.41376 0)
(-4.83937 1.46267 0)
(-4.77849 1.43067 -6.57523e-21)
(-4.51988 1.38739 7.11628e-18)
(-4.0894 1.36692 -4.87017e-18)
(-3.48705 1.39769 0)
(-2.69277 1.50652 -2.21757e-19)
(-1.67356 1.71942 3.83547e-19)
(-0.398475 2.05812 3.35482e-19)
(1.17228 2.5358 2.78579e-19)