/*--------------------------------*- C++ -*----------------------------------*\
| =========                 |                                                 |
| \\      /  F ield         | OpenFOAM: The Open Source CFD Toolbox           |
|  \\    /   O peration     | Version:  2.3.0                                 |
|   \\  /    A nd           | Web:      www.OpenFOAM.org                      |
|    \\/     M anipulation  |                                                 |
\*---------------------------------------------------------------------------*/
FoamFile
{
    version     2.0;
    format      ascii;
    class       volScalarField;
    location    "1000";
    object      p;
}
// * * * * * * * * * * * * * * * * * * * * * * * * * * * * * * * * * * * * * //

dimensions      [0 2 -2 0 0 0 0];

internalField   nonuniform List<scalar> 
38296
(
0.0169362
1.20204
3.03695
4.98495
6.90314
8.80772
10.7102
12.6105
14.5043
16.3908
18.2694
20.1391
21.9985
23.8445
25.677
27.4897
29.2811
31.0448
32.7764
34.4657
36.1051
37.6807
39.182
40.5915
41.8849
43.0493
44.0495
44.8607
45.4441
45.7483
45.725
45.3015
44.3937
42.8891
40.6558
37.5058
33.2151
27.5033
19.7269
9.08717
-5.4991
-27.4147
-67.0362
-1.65532
-0.564824
1.12847
2.93649
4.73289
6.52801
8.32894
10.1335
11.9434
13.7529
15.5638
17.374
19.1804
20.9841
22.7817
24.5721
26.3529
28.1224
29.8784
31.6194
33.3417
35.039
36.7077
38.3383
39.9185
41.4367
42.8714
44.1992
45.3861
46.3971
47.1801
47.6729
47.7987
47.4633
46.5583
44.9497
42.4746
38.9522
34.1674
27.8238
19.5704
8.89638
-5.23063
-3.61149
-2.60745
-1.1378
0.400976
1.91076
3.40322
4.8869
6.3572
7.81628
9.25859
10.6845
12.0892
13.4708
14.8247
16.1481
17.4339
18.6791
19.8762
21.0195
22.1007
23.1098
24.0365
24.8688
25.5923
26.189
26.6394
26.9163
26.9914
26.8297
26.3889
25.6164
24.4565
22.8321
20.6628
17.8553
14.2996
9.86892
4.43766
-2.13056
-9.95736
-19.1448
-29.7062
-41.4669
-5.17902
-4.36362
-3.10266
-1.78204
-0.477218
0.816147
2.10353
3.38132
4.64913
5.90597
7.14856
8.37512
9.58413
10.7708
11.9316
13.0615
14.1559
15.2091
16.216
17.1692
18.059
18.877
19.6115
20.2484
20.7719
21.1637
21.3995
21.4507
21.2882
20.8728
20.1596
19.1009
17.6378
15.706
13.2346
10.1467
6.36052
1.79898
-3.61173
-9.92219
-17.1589
-25.2859
-34.196
-6.72158
-6.03943
-4.94391
-3.79348
-2.66227
-1.54284
-0.432338
0.665102
1.75183
2.82398
3.87982
4.9172
5.93344
6.92627
7.88727
8.81235
9.6969
10.5334
11.3152
12.0362
12.6836
13.2486
13.7203
14.0858
14.3311
14.4379
14.3848
14.1429
13.6841
12.9748
11.9756
10.6414
8.92589
6.77273
4.12617
0.927966
-2.88309
-7.35645
-12.5317
-18.4295
-25.0275
-32.2657
-40.0247
-8.03715
-7.54925
-6.59982
-5.59519
-4.60501
-3.62719
-2.65232
-1.69827
-0.746616
0.185584
1.10431
2.00586
2.8899
3.75628
4.5937
5.38904
6.14736
6.85979
7.51527
8.11805
8.6513
9.09766
9.44547
9.68809
9.81319
9.80911
9.65322
9.31685
8.76841
7.98665
6.93386
5.56688
3.84234
1.72312
-0.845499
-3.90289
-7.5025
-11.6768
-16.4503
-21.8358
-27.7969
-34.2723
-41.1735
-9.13381
-8.95761
-8.1127
-7.22078
-6.33826
-5.46968
-4.60409
-3.78204
-2.93078
-2.10936
-1.30397
-0.519378
0.251105
1.02377
1.78443
2.48472
3.14671
3.76111
4.29597
4.79026
5.22979
5.58608
5.82446
5.95322
5.95573
5.84379
5.59368
5.17602
4.53243
3.67651
2.56977
1.16854
-0.584992
-2.69097
-5.22467
-8.18666
-11.6513
-15.6287
-20.1257
-25.1758
-30.7446
-36.7254
-43.0953
-9.76043
-10.0714
-9.42599
-8.67059
-7.90531
-7.08972
-6.28058
-5.6199
-4.86258
-4.12899
-3.39293
-2.71946
-2.09571
-1.43765
-0.731783
-0.094487
0.525134
1.12868
1.59263
2.00644
2.38244
2.71415
2.90198
2.97282
2.87934
2.68113
2.36774
1.9393
1.23137
0.326518
-0.796917
-2.18384
-3.94846
-6.00476
-8.50883
-11.3521
-14.6955
-18.4827
-22.6872
-27.4037
-32.7595
-38.3946
-44.4399
-9.9778
-10.4546
-10.1856
-9.73608
-9.30997
-8.82107
-7.68466
-7.26178
-6.73401
-6.21981
-5.52005
-4.8982
-4.56462
-4.27542
-3.8219
-3.50527
-3.20908
-2.67133
-2.30908
-1.97447
-1.67755
-1.32109
-1.20127
-1.10348
-1.30128
-1.58277
-1.89281
-2.10521
-2.77147
-3.57092
-4.54149
-5.70448
-7.38906
-9.18089
-11.5335
-14.0328
-17.1551
-20.6116
-24.453
-29.1747
-34.303
-39.4206
-45.1971
-137.538
-147.854
-146.981
-153.677
-161.998
-167.855
-171.866
-174.967
-177.483
-179.477
-181.018
-182.217
-183.133
-183.83
-184.331
-184.69
-184.911
-184.998
-184.996
-184.893
-184.725
-184.489
-184.196
-183.869
-183.507
-183.13
-182.732
-182.328
-181.924
-181.523
-181.13
-180.742
-180.369
-180.01
-179.667
-179.343
-179.038
-178.752
-178.489
-178.25
-178.037
-177.86
-177.871
-25.6272
-47.4498
-66.6128
-83.3962
-97.9349
-110.214
-120.516
-129.174
-136.43
-142.46
-147.453
-151.576
-154.962
-157.742
-160.013
-161.866
-163.382
-164.636
-165.667
-166.527
-167.261
-167.893
-168.45
-168.946
-169.394
-169.805
-170.179
-170.529
-170.851
-171.15
-171.427
-171.683
-171.921
-172.139
-172.339
-172.524
-172.697
-172.855
-173.004
-173.146
-173.28
-173.397
-173.589
-54.0022
-66.3395
-77.6842
-87.9626
-97.2695
-105.602
-112.997
-119.501
-125.223
-130.232
-134.621
-138.468
-141.854
-144.827
-147.459
-149.793
-151.858
-153.703
-155.354
-156.832
-158.16
-159.354
-160.433
-161.402
-162.278
-163.07
-163.781
-164.426
-165.012
-165.545
-166.034
-166.478
-166.891
-167.272
-167.626
-167.96
-168.274
-168.572
-168.86
-169.136
-169.403
-169.657
-169.966
-43.7074
-53.5084
-63.2618
-72.7006
-81.6617
-90.0084
-97.6874
-104.676
-110.998
-116.683
-121.77
-126.307
-130.36
-133.969
-137.185
-140.048
-142.608
-144.895
-146.947
-148.794
-150.455
-151.96
-153.329
-154.573
-155.71
-156.75
-157.71
-158.595
-159.417
-160.174
-160.883
-161.538
-162.154
-162.73
-163.268
-163.774
-164.253
-164.707
-165.14
-165.552
-165.946
-166.33
-166.728
-48.1434
-56.4457
-64.7413
-72.8368
-80.5852
-87.8893
-94.6945
-100.969
-106.705
-111.935
-116.68
-120.969
-124.852
-128.354
-131.532
-134.397
-137.001
-139.366
-141.52
-143.49
-145.287
-146.932
-148.44
-149.828
-151.108
-152.288
-153.384
-154.396
-155.339
-156.212
-157.029
-157.788
-158.5
-159.168
-159.796
-160.388
-160.95
-161.488
-162.002
-162.492
-162.965
-163.45
-163.863
-48.3756
-55.7615
-63.1905
-70.5072
-77.5974
-84.3561
-90.7355
-96.6864
-102.197
-107.272
-111.927
-116.181
-120.071
-123.621
-126.86
-129.809
-132.503
-134.978
-137.244
-139.311
-141.203
-142.946
-144.549
-146.034
-147.402
-148.673
-149.853
-150.95
-151.972
-152.923
-153.81
-154.643
-155.424
-156.155
-156.847
-157.499
-158.121
-158.723
-159.287
-159.829
-160.344
-160.859
-161.066
-49.6995
-56.4742
-63.3141
-70.0536
-76.6321
-82.9231
-88.9102
-94.4935
-99.7039
-104.55
-109.044
-113.181
-117.002
-120.498
-123.68
-126.621
-129.321
-131.815
-134.093
-136.162
-138.088
-139.867
-141.519
-143.068
-144.484
-145.814
-147.042
-148.182
-149.245
-150.24
-151.164
-152.046
-152.875
-153.644
-154.38
-155.061
-155.712
-156.36
-156.955
-157.537
-158.079
-158.61
-158.7
-50.588
-56.921
-63.3235
-69.6569
-75.8454
-81.7251
-87.3809
-92.7359
-97.7414
-102.459
-106.848
-110.86
-114.564
-117.995
-121.162
-124.082
-126.743
-129.229
-131.541
-133.622
-135.609
-137.43
-139.13
-140.725
-142.132
-143.49
-144.747
-145.923
-147.028
-148.06
-148.996
-149.918
-150.796
-151.547
-152.3
-152.997
-153.667
-154.335
-154.918
-155.534
-156.103
-156.627
-156.773
-50.7677
-56.7158
-62.7651
-68.7794
-74.6511
-80.3155
-86.7503
-91.8776
-97.3859
-102.087
-106.19
-109.798
-113.279
-116.927
-120.207
-122.949
-125.107
-128.135
-130.7
-132.777
-134.804
-136.586
-138.219
-139.693
-140.869
-142.228
-143.481
-144.692
-145.799
-146.778
-147.599
-148.55
-149.352
-149.854
-150.545
-151.208
-152.165
-152.853
-153.162
-153.838
-154.363
-154.739
-154.83
-109.279
-109.159
-109.061
-108.956
-108.848
-108.737
-108.622
-108.504
-108.38
-108.25
-108.114
-107.969
-107.815
-107.65
-107.473
-107.281
-107.075
-106.852
-106.615
-106.363
-106.101
-105.829
-105.554
-105.278
-105.007
-104.747
-104.503
-104.281
-104.086
-103.923
-103.797
-103.71
-103.668
-103.672
-103.725
-103.827
-103.978
-104.179
-104.426
-104.718
-105.044
-105.467
-106.298
-108.658
-108.519
-108.404
-108.286
-108.167
-108.047
-107.926
-107.804
-107.683
-107.562
-107.442
-107.323
-107.206
-107.093
-106.982
-106.875
-106.772
-106.673
-106.577
-106.483
-106.391
-106.3
-106.209
-106.117
-106.024
-105.928
-105.83
-105.728
-105.622
-105.512
-105.399
-105.281
-105.161
-105.038
-104.913
-104.786
-104.657
-104.528
-104.397
-104.272
-104.169
-104.151
-104.563
-108.065
-107.944
-107.825
-107.702
-107.577
-107.451
-107.325
-107.198
-107.07
-106.943
-106.815
-106.689
-106.564
-106.44
-106.319
-106.201
-106.086
-105.973
-105.864
-105.757
-105.653
-105.549
-105.447
-105.345
-105.242
-105.138
-105.032
-104.924
-104.811
-104.693
-104.569
-104.439
-104.301
-104.156
-104.002
-103.839
-103.668
-103.49
-103.308
-103.131
-102.998
-103.029
-103.603
-107.545
-107.43
-107.31
-107.185
-107.058
-106.928
-106.796
-106.662
-106.525
-106.386
-106.245
-106.101
-105.956
-105.808
-105.658
-105.507
-105.354
-105.2
-105.044
-104.888
-104.731
-104.573
-104.414
-104.255
-104.097
-103.939
-103.782
-103.625
-103.47
-103.317
-103.164
-103.012
-102.86
-102.707
-102.554
-102.402
-102.252
-102.104
-101.964
-101.847
-101.798
-101.968
-102.714
-107.102
-106.978
-106.856
-106.731
-106.602
-106.471
-106.337
-106.201
-106.061
-105.919
-105.774
-105.626
-105.475
-105.32
-105.164
-105.004
-104.842
-104.677
-104.509
-104.339
-104.165
-103.989
-103.809
-103.627
-103.443
-103.256
-103.069
-102.881
-102.695
-102.509
-102.324
-102.143
-101.964
-101.786
-101.61
-101.438
-101.272
-101.115
-100.974
-100.865
-100.841
-101.081
-101.879
-106.709
-106.578
-106.456
-106.331
-106.203
-106.073
-105.939
-105.803
-105.663
-105.52
-105.375
-105.225
-105.072
-104.915
-104.755
-104.592
-104.426
-104.256
-104.083
-103.906
-103.725
-103.54
-103.35
-103.156
-102.956
-102.752
-102.543
-102.333
-102.122
-101.911
-101.703
-101.498
-101.298
-101.1
-100.902
-100.706
-100.516
-100.337
-100.177
-100.059
-100.042
-100.33
-101.145
-106.354
-106.22
-106.1
-105.978
-105.853
-105.722
-105.591
-105.455
-105.314
-105.172
-105.027
-104.877
-104.721
-104.56
-104.395
-104.227
-104.054
-103.877
-103.697
-103.512
-103.322
-103.126
-102.926
-102.719
-102.505
-102.283
-102.054
-101.818
-101.582
-101.347
-101.113
-100.884
-100.672
-100.467
-100.259
-100.05
-99.8415
-99.6479
-99.4773
-99.3439
-99.3146
-99.6278
-100.457
-106.031
-105.9
-105.784
-105.665
-105.545
-105.414
-105.286
-105.152
-105.01
-104.869
-104.725
-104.577
-104.421
-104.256
-104.089
-103.918
-103.74
-103.555
-103.371
-103.182
-102.984
-102.78
-102.573
-102.359
-102.137
-101.903
-101.657
-101.398
-101.133
-100.865
-100.599
-100.34
-100.104
-99.8927
-99.6636
-99.4318
-99.1883
-98.9684
-98.787
-98.6552
-98.6216
-98.9698
-99.8145
-105.755
-105.616
-105.5
-105.385
-105.277
-105.137
-105.017
-104.891
-104.739
-104.6
-104.459
-104.316
-104.167
-103.992
-103.817
-103.648
-103.47
-103.268
-103.074
-102.887
-102.687
-102.461
-102.249
-102.027
-101.803
-101.557
-101.301
-101.003
-100.73
-100.464
-100.132
-99.7688
-99.5716
-99.4564
-99.2701
-99.0614
-98.7658
-98.5308
-98.3899
-98.1828
-98.0475
-98.1989
-99.0639
-108.362
-109.042
-109.135
-109.093
-109.008
-108.897
-108.773
-108.646
-108.523
-108.407
-108.299
-108.202
-108.115
-108.042
-107.981
-107.935
-107.904
-107.889
-107.89
-107.908
-107.943
-107.995
-108.064
-108.151
-108.255
-108.375
-108.512
-108.664
-108.832
-109.015
-109.212
-109.424
-109.649
-109.889
-110.141
-110.408
-110.687
-110.98
-111.286
-111.603
-111.93
-112.266
-112.594
-105.883
-106.809
-107.355
-107.606
-107.703
-107.732
-107.73
-107.716
-107.699
-107.686
-107.68
-107.684
-107.698
-107.723
-107.76
-107.808
-107.867
-107.938
-108.019
-108.11
-108.211
-108.321
-108.44
-108.567
-108.701
-108.843
-108.99
-109.145
-109.305
-109.471
-109.643
-109.821
-110.004
-110.194
-110.389
-110.591
-110.798
-111.011
-111.227
-111.447
-111.668
-111.888
-112.096
-104.632
-105.508
-106.116
-106.466
-106.646
-106.732
-106.77
-106.781
-106.781
-106.778
-106.776
-106.78
-106.792
-106.813
-106.844
-106.886
-106.939
-107.003
-107.078
-107.165
-107.264
-107.375
-107.496
-107.629
-107.771
-107.925
-108.087
-108.259
-108.44
-108.628
-108.825
-109.03
-109.24
-109.458
-109.681
-109.909
-110.139
-110.371
-110.601
-110.828
-111.049
-111.259
-111.441
-103.661
-104.466
-105.063
-105.451
-105.684
-105.815
-105.891
-105.936
-105.964
-105.985
-106.004
-106.026
-106.054
-106.089
-106.133
-106.185
-106.247
-106.32
-106.403
-106.497
-106.601
-106.716
-106.841
-106.975
-107.118
-107.271
-107.431
-107.601
-107.78
-107.965
-108.159
-108.363
-108.572
-108.79
-109.013
-109.243
-109.473
-109.706
-109.937
-110.163
-110.384
-110.597
-110.788
-102.789
-103.567
-104.163
-104.576
-104.843
-105.009
-105.116
-105.189
-105.239
-105.278
-105.31
-105.342
-105.378
-105.419
-105.466
-105.521
-105.585
-105.657
-105.74
-105.833
-105.935
-106.048
-106.169
-106.3
-106.439
-106.587
-106.745
-106.911
-107.087
-107.271
-107.465
-107.668
-107.878
-108.098
-108.325
-108.557
-108.788
-109.019
-109.247
-109.469
-109.683
-109.89
-110.085
-102.025
-102.792
-103.394
-103.83
-104.123
-104.316
-104.447
-104.538
-104.603
-104.65
-104.686
-104.723
-104.762
-104.803
-104.847
-104.898
-104.956
-105.022
-105.099
-105.186
-105.281
-105.385
-105.496
-105.615
-105.742
-105.88
-106.028
-106.187
-106.354
-106.533
-106.725
-106.927
-107.136
-107.356
-107.59
-107.824
-108.052
-108.279
-108.504
-108.722
-108.929
-109.136
-109.353
-101.353
-102.146
-102.757
-103.212
-103.514
-103.713
-103.853
-103.946
-104.013
-104.052
-104.078
-104.115
-104.158
-104.192
-104.224
-104.266
-104.309
-104.364
-104.433
-104.517
-104.598
-104.689
-104.784
-104.887
-105
-105.126
-105.267
-105.42
-105.582
-105.757
-105.95
-106.143
-106.344
-106.564
-106.815
-107.05
-107.264
-107.484
-107.706
-107.915
-108.107
-108.311
-108.558
-100.697
-101.532
-102.146
-102.67
-102.988
-103.201
-103.371
-103.467
-103.541
-103.561
-103.58
-103.652
-103.717
-103.729
-103.744
-103.777
-103.799
-103.853
-103.923
-103.999
-104.036
-104.108
-104.172
-104.244
-104.334
-104.435
-104.562
-104.686
-104.813
-104.955
-105.134
-105.291
-105.479
-105.726
-106.032
-106.238
-106.396
-106.616
-106.852
-107.047
-107.202
-107.414
-107.752
-100.447
-101.726
-102.349
-102.717
-102.814
-102.756
-102.808
-102.751
-102.751
-102.629
-102.593
-102.696
-102.659
-102.513
-102.509
-102.521
-102.494
-102.531
-102.547
-102.573
-102.573
-102.68
-102.693
-102.743
-102.826
-102.94
-103.09
-103.197
-103.346
-103.572
-103.906
-104.143
-104.465
-104.85
-105.216
-105.201
-105.345
-105.728
-105.96
-106.08
-106.156
-106.43
-106.94
174.457
171.987
165.376
157.993
150.536
143.141
135.706
128.278
121.05
114.14
107.632
101.523
95.8368
90.5363
85.6036
80.9976
76.684
72.6329
68.8004
65.1619
61.6822
58.3395
55.1098
51.9759
48.9221
45.9364
43.0103
40.1322
37.3035
34.5095
31.7588
29.0396
26.3559
23.7016
21.0816
18.4894
15.9257
13.3921
10.8898
8.4081
5.9254
3.58558
2.03201
128.355
126.064
121.553
117.086
112.937
109.009
105.231
101.582
98.0427
94.5812
91.1917
87.8438
84.545
81.2809
78.047
74.8499
71.6851
68.5591
65.4777
62.4295
59.4296
56.4742
53.5641
50.6989
47.8771
45.0983
42.3594
39.6586
36.9954
34.361
31.7608
29.1892
26.6465
24.1271
21.6334
19.1635
16.7162
14.2915
11.8896
9.50708
7.11988
4.82352
3.13868
130.442
129.492
127.918
125.938
123.54
120.774
117.696
114.371
110.843
107.158
103.363
99.49
95.5816
91.6681
87.7704
83.91
80.1055
76.3637
72.7004
69.1094
65.6056
62.1791
58.8325
55.5618
52.3645
49.2404
46.1776
43.1804
40.2429
37.3592
34.5276
31.7458
29.0097
26.3179
23.6657
21.0536
18.4772
15.9374
13.4293
10.953
8.4961
6.09272
3.82667
118.981
117.943
116.533
114.853
112.947
110.836
108.543
106.092
103.504
100.793
97.9793
95.0745
92.0928
89.0482
85.9523
82.813
79.6488
76.4648
73.2721
70.0759
66.8891
63.7185
60.5651
57.4392
54.3412
51.2768
48.2465
45.2539
42.2985
39.3824
36.5023
33.6628
30.8613
28.0966
25.368
22.6763
20.0195
17.3961
14.8067
12.2503
9.72806
7.2166
4.59334
106.334
105.981
105.485
104.749
103.788
102.613
101.231
99.653
97.8893
95.9502
93.85
91.6009
89.2172
86.7157
84.1088
81.4112
78.6383
75.803
72.9194
69.9962
67.045
64.0792
61.1001
58.1207
55.1496
52.1848
49.236
46.3059
43.3959
40.5121
37.6549
34.8223
32.0205
29.2476
26.5037
23.7904
21.1086
18.4542
15.8319
13.2411
10.6929
8.13594
5.31623
97.9515
97.7647
97.4221
96.8812
96.1736
95.3022
94.2702
93.0802
91.7357
90.2414
88.6032
86.8269
84.92
82.8905
80.7458
78.4963
76.1498
73.7152
71.2055
68.6272
65.9903
63.3087
60.5833
57.8276
55.0484
52.2542
49.4494
46.6405
43.8345
41.0318
38.2419
35.4617
32.6999
29.9569
27.2321
24.5299
21.8518
19.1953
16.5639
13.9618
11.3991
8.8179
5.91145
90.5212
90.3695
90.0652
89.6181
89.0538
88.3711
87.5691
86.6447
85.5979
84.4277
83.1334
81.7179
80.1812
78.5278
76.7605
74.8842
72.9051
70.8283
68.6606
66.4107
64.0828
61.6894
59.2333
56.7277
54.1738
51.5847
48.9629
46.3172
43.6541
40.9782
38.2957
35.6098
32.9248
30.2467
27.5761
24.9165
22.2714
19.6408
17.0271
14.4345
11.8769
9.29713
6.3828
83.4539
83.3504
83.1297
82.8003
82.3769
81.8569
81.238
80.5188
79.6957
78.7671
77.7312
76.5878
75.3355
73.9757
72.5086
70.9368
69.2625
67.4892
65.6202
63.663
61.6198
59.4978
57.302
55.0397
52.7179
50.3427
47.919
45.4567
42.9585
40.4321
37.8837
35.3172
32.738
30.1516
27.5609
24.9695
22.3827
19.7994
17.2269
14.6641
12.1252
9.54771
6.63823
77.0191
76.9559
76.7954
76.5447
76.2156
75.8073
75.3171
74.7424
74.0803
73.3283
72.4849
71.5471
70.5141
69.3837
68.1561
66.8307
65.4085
63.8911
62.2793
60.5766
58.7859
56.9119
54.9577
52.9283
50.8297
48.6652
46.4434
44.1673
41.8452
39.4795
37.0807
34.649
32.1928
29.7171
27.2252
24.7217
22.2136
19.6994
17.1879
14.6843
12.2066
9.70135
6.89955
71.1516
71.1103
70.9845
70.7823
70.5168
70.1854
69.7859
69.3154
68.7719
68.1521
67.4537
66.6733
65.8096
64.8599
63.8225
62.6961
61.4798
60.1742
58.7796
57.2956
55.7255
54.0706
52.3327
50.5169
48.6266
46.6627
44.6353
42.5438
40.3971
38.1974
35.9522
33.6647
31.3418
28.9879
26.6083
24.2058
21.7884
19.3561
16.9147
14.4699
12.0416
9.58916
6.64214
65.6857
65.6627
65.5652
65.4024
65.1863
64.9151
64.5855
64.1962
63.7442
63.2273
62.6419
61.9852
61.2556
60.4497
59.5653
58.6008
57.5542
56.4249
55.212
53.9148
52.5345
51.0711
49.5264
47.9015
46.2008
44.4241
42.5777
40.6638
38.6858
36.65
34.559
32.4188
30.2331
28.0074
25.7472
23.4549
21.1386
18.7997
16.4456
14.084
11.7358
9.37435
6.81663
60.5558
60.5497
60.4762
60.3472
60.1716
59.9491
59.6763
59.3516
58.973
58.5378
58.0426
57.4858
56.864
56.1744
55.4147
54.5833
53.6769
52.6951
51.6353
50.4973
49.2802
47.9832
46.6081
45.1542
43.6235
42.0176
40.3389
38.59
36.7732
34.8936
32.9533
30.9574
28.9091
26.8138
24.6756
22.4984
20.2872
18.0457
15.7776
13.4873
11.1877
8.8265
6.01488
55.7453
55.7514
55.6952
55.5908
55.4468
55.2619
55.0336
54.7606
54.4403
54.0704
53.6485
53.1717
52.6375
52.0433
51.3867
50.6649
49.8759
49.0175
48.0875
47.0847
46.0082
44.8563
43.6291
42.3261
40.9481
39.4959
37.9705
36.3744
34.708
32.9761
31.1798
29.3232
27.4103
25.4437
23.4285
21.368
19.267
17.1282
14.9565
12.7605
10.5527
8.27872
5.58778
51.1973
51.2133
51.1719
51.0889
50.9711
50.8174
50.6261
50.3949
50.1222
49.8059
49.4439
49.033
48.5716
48.0567
47.4856
46.8559
46.1653
45.4112
44.5919
43.7048
42.7495
41.7235
40.6261
39.4563
38.2143
36.8999
35.5138
34.0568
32.5301
30.9357
29.2756
27.5518
25.7686
23.9275
22.0341
20.0886
18.0994
16.0664
13.9948
11.8924
9.7789
7.61307
5.03848
46.8831
46.9069
46.8771
46.8116
46.7156
46.5877
46.4266
46.2308
45.9979
45.7268
45.4145
45.0593
44.6587
44.2102
43.7111
43.1593
42.5519
41.8869
41.1621
40.3751
39.5246
38.608
37.6243
36.5725
35.4514
34.2602
33.0002
31.67
30.2712
28.8039
27.2715
25.6733
24.0133
22.2932
20.5166
18.6853
16.8048
14.8759
12.9033
10.8904
8.85376
6.7582
4.24355
42.7688
42.7999
42.7811
42.7315
42.6545
42.5489
42.4134
42.2477
42.049
41.8157
41.5462
41.2378
40.8891
40.4968
40.0593
39.5738
39.038
38.4497
37.8063
37.106
36.3465
35.5255
34.6422
33.6942
32.6807
31.6005
30.4533
29.2388
27.9564
26.607
25.1921
23.7116
22.1686
20.5637
18.8994
17.1788
15.405
13.5808
11.7097
9.79744
7.86156
5.87822
3.57075
38.8361
38.8748
38.8655
38.8291
38.7688
38.6828
38.5702
38.4302
38.2608
38.0603
37.827
37.5591
37.2543
36.9106
36.5258
36.0973
35.6231
35.101
34.5286
33.9039
33.2239
32.487
31.692
30.8362
29.9182
28.9375
27.8922
26.7821
25.6064
24.3653
23.0593
21.6885
20.2543
18.758
17.2013
15.5865
13.9163
12.1923
10.4189
8.60039
6.75084
4.85394
2.66343
35.0613
35.108
35.1087
35.0852
35.0399
34.9713
34.8786
34.7614
34.6176
34.4456
34.244
34.0112
33.7449
33.4433
33.1043
32.7257
32.3052
31.8407
31.3302
30.7715
30.1615
29.4992
28.7819
28.008
27.1757
26.2839
25.3307
24.315
23.2368
22.0947
20.8893
19.6202
18.2879
16.8938
15.439
13.9242
12.353
10.7256
9.04601
7.31837
5.55435
3.74101
1.66297
31.4626
31.5101
31.5146
31.4997
31.4651
31.41
31.3333
31.2347
31.1124
30.9644
30.79
30.5872
30.3541
30.0888
29.79
29.4548
29.0811
28.6673
28.2111
27.7102
27.1624
26.5658
25.9178
25.217
24.4612
23.6491
22.7792
21.8494
20.8598
19.8082
18.6956
17.5205
16.2833
14.9848
13.6257
12.2065
10.7292
9.19486
7.60533
5.96387
4.28053
2.53694
0.506896
27.9758
28.0305
28.0437
28.0393
28.0163
27.9746
27.9136
27.8321
27.729
27.603
27.4527
27.2766
27.0728
26.8402
26.5762
26.2792
25.9471
25.5779
25.1695
24.7201
24.2272
23.689
23.1032
22.4677
21.7807
21.0407
20.2455
19.3942
18.485
17.5168
16.4891
15.4013
14.2525
13.0435
11.7743
10.4452
9.05775
7.6121
6.1109
4.55485
2.9554
1.29124
-0.686734
24.6233
24.6825
24.701
24.7039
24.6905
24.6607
24.6126
24.546
24.4601
24.3536
24.2245
24.0718
23.8943
23.6898
23.457
23.1939
22.8987
22.5693
22.2038
21.7999
21.3562
20.8701
20.3397
19.763
19.1382
18.4632
17.7359
16.9555
16.1198
15.2281
14.2787
13.2713
12.205
11.0794
9.89464
8.65114
7.34906
5.98912
4.57289
3.10194
1.58889
0.0200976
-1.86979
21.3853
21.4505
21.4744
21.4842
21.4791
21.4588
21.4224
21.3693
21.2985
21.2088
21.0986
20.9669
20.8121
20.6328
20.4277
20.1946
19.932
19.6381
19.3107
18.9481
18.5483
18.1089
17.6283
17.1046
16.5358
15.9196
15.2546
14.5385
13.7704
12.9484
12.0716
11.1385
10.1485
9.10102
7.99532
6.83218
5.61095
4.33239
2.99697
1.60519
0.169322
-1.31041
-3.11379
18.2502
18.3218
18.3506
18.3668
18.3694
18.3586
18.3327
18.2915
18.2344
18.1596
18.0665
17.9537
17.8196
17.6632
17.4828
17.277
17.0436
16.7812
16.4882
16.1625
15.8021
15.4051
14.9695
14.4936
13.9754
13.4127
12.804
12.147
11.4408
10.683
9.87286
9.00859
8.08954
7.11484
6.08351
4.99591
3.85156
2.65059
1.39364
0.0814366
-1.27736
-2.67221
-4.24894
15.2128
15.2898
15.3224
15.3447
15.355
15.3522
15.3361
15.3061
15.261
15.2002
15.1223
15.0264
14.911
14.7749
14.6168
14.4354
14.2285
13.995
13.7328
13.4403
13.1158
12.757
12.3625
11.9301
11.458
10.9441
10.3867
9.78378
9.13419
8.43546
7.68683
6.88639
6.03344
5.1264
4.16471
3.14808
2.0761
0.948213
-0.23531
-1.47559
-2.77034
-4.10852
-5.56982
12.2683
12.3488
12.3847
12.4125
12.429
12.4339
12.4268
12.4065
12.3727
12.3243
12.2606
12.1797
12.0815
11.964
11.8262
11.6667
11.484
11.2766
11.0423
10.7799
10.4878
10.1639
9.80654
9.4136
8.98345
8.51418
8.00388
7.45072
6.85313
6.20893
5.517
4.77578
3.98385
3.14015
2.2438
1.29372
0.290504
-0.767305
-1.87835
-3.0435
-4.26075
-5.50893
-6.71659
9.40725
9.48977
9.52876
9.56207
9.58501
9.59702
9.59792
9.58697
9.5634
9.52671
9.47544
9.40882
9.32609
9.22561
9.10629
8.96672
8.80586
8.62206
8.41333
8.17861
7.91609
7.62379
7.30046
6.94372
6.55188
6.12346
5.65634
5.14884
4.59904
4.00544
3.36599
2.6797
1.94452
1.15982
0.324322
-0.562822
-1.50191
-2.49325
-3.53568
-4.62886
-5.77087
-6.94661
-8.01407
6.62758
6.71024
6.75281
6.79145
6.81942
6.83796
6.84644
6.84391
6.82971
6.80325
6.76358
6.71008
6.64131
6.55611
6.45364
6.33229
6.19123
6.02902
5.84365
5.63408
5.3984
5.13526
4.84292
4.5193
4.16293
3.77209
3.34479
2.87908
2.37343
1.82634
1.23567
0.600089
-0.0821289
-0.811909
-1.59087
-2.41944
-3.29902
-4.22969
-5.21127
-6.24451
-7.33192
-8.47369
-9.5722
3.91368
4.00043
4.04733
4.09055
4.12436
4.14958
4.16514
4.17062
4.16526
4.1484
4.1197
4.07797
4.02211
3.95117
3.86426
3.75984
3.63699
3.49451
3.3306
3.14395
2.93321
2.69665
2.43273
2.13962
1.81564
1.45938
1.06879
0.641918
0.17726
-0.326923
-0.872472
-1.46097
-2.09379
-2.77259
-3.49845
-4.27259
-5.0962
-5.96992
-6.89397
-7.86935
-8.8993
-9.98583
-11.0453
1.29461
1.3776
1.42325
1.46843
1.50519
1.53439
1.55523
1.56701
1.5689
1.56055
1.54116
1.5102
1.46598
1.4079
1.33523
1.24621
1.14011
1.01582
0.871614
0.706297
0.518297
0.306198
0.068559
-0.196445
-0.490381
-0.814792
-1.17168
-1.56267
-1.98939
-2.45365
-2.9573
-3.50184
-4.08863
-4.71977
-5.39602
-6.11911
-6.88977
-7.70912
-8.57753
-9.49532
-10.4647
-11.4858
-12.4741
-1.28177
-1.19759
-1.14694
-1.09704
-1.05544
-1.02098
-0.994061
-0.975547
-0.965942
-0.966133
-0.976442
-0.997427
-1.03061
-1.07681
-1.13655
-1.21128
-1.30182
-1.4094
-1.53547
-1.68123
-1.84815
-2.0376
-2.2511
-2.49014
-2.75623
-3.05113
-3.37668
-3.73449
-4.12607
-4.55333
-5.01777
-5.52125
-6.06539
-6.65175
-7.28163
-7.95658
-8.67772
-9.44619
-10.2629
-11.1285
-12.0458
-13.0191
-13.9826
-3.80683
-3.71823
-3.66364
-3.60869
-3.56138
-3.52076
-3.48749
-3.46196
-3.44479
-3.43687
-3.438
-3.44966
-3.47252
-3.50745
-3.55488
-3.61614
-3.69212
-3.78409
-3.89333
-4.02112
-4.16844
-4.33684
-4.52763
-4.74258
-4.98302
-5.25067
-5.54709
-5.87376
-6.23261
-6.62524
-7.05328
-7.51843
-8.02259
-8.56703
-9.15331
-9.78291
-10.4574
-11.1781
-11.9458
-12.7621
-13.6296
-14.5557
-15.4922
-6.24095
-6.15687
-6.10322
-6.0477
-5.99865
-5.95489
-5.91759
-5.88718
-5.86431
-5.8493
-5.84324
-5.84646
-5.86009
-5.88439
-5.9207
-5.96963
-6.03238
-6.10999
-6.20389
-6.31456
-6.44379
-6.59265
-6.7626
-6.95516
-7.17162
-7.41382
-7.68294
-7.98089
-8.30911
-8.66946
-9.0635
-9.49286
-9.95932
-10.4643
-11.0094
-11.5964
-12.2266
-12.9016
-13.6224
-14.3911
-15.2098
-16.0883
-17.0028
-8.65148
-8.56219
-8.50351
-8.4432
-8.38922
-8.34052
-8.29777
-8.26146
-8.23245
-8.21076
-8.19705
-8.19255
-8.19692
-8.21168
-8.23739
-8.27489
-8.32517
-8.38966
-8.46871
-8.5637
-8.67608
-8.80675
-8.95738
-9.12893
-9.3232
-9.54138
-9.78518
-10.0561
-10.3559
-10.6861
-11.0481
-11.4439
-11.875
-12.3428
-12.8492
-13.3956
-13.9836
-14.6148
-15.2904
-16.0119
-16.7812
-17.6061
-18.4698
-10.9855
-10.8991
-10.8411
-10.78
-10.7238
-10.6718
-10.625
-10.5843
-10.5499
-10.5221
-10.5017
-10.4895
-10.4858
-10.4914
-10.5074
-10.5341
-10.573
-10.6246
-10.6899
-10.7702
-10.8666
-10.9806
-11.1129
-11.2651
-11.4386
-11.6345
-11.8545
-12.1003
-12.3733
-12.6749
-13.0071
-13.3713
-13.7689
-14.2018
-14.6715
-15.1796
-15.7275
-16.3167
-16.9484
-17.6237
-18.3435
-19.1099
-19.9008
-13.2901
-13.2017
-13.1395
-13.0736
-13.0133
-12.9571
-12.9058
-12.8602
-12.8201
-12.7862
-12.7594
-12.74
-12.7285
-12.7257
-12.7321
-12.749
-12.7769
-12.8166
-12.8694
-12.9361
-13.0177
-13.1157
-13.231
-13.3648
-13.5187
-13.6938
-13.8916
-14.1138
-14.3615
-14.6365
-14.9406
-15.2749
-15.6412
-16.041
-16.4762
-16.9478
-17.4577
-18.0073
-18.5974
-19.2298
-19.9038
-20.618
-21.3819
-15.5536
-15.4601
-15.3935
-15.3238
-15.2595
-15.1987
-15.1429
-15.0917
-15.0461
-15.0064
-14.9732
-14.9467
-14.9277
-14.9165
-14.9143
-14.9217
-14.9392
-14.9677
-15.0085
-15.0622
-15.1302
-15.2132
-15.3124
-15.4291
-15.5647
-15.7202
-15.8972
-16.097
-16.3212
-16.5712
-16.8485
-17.1547
-17.4914
-17.8602
-18.2626
-18.7
-19.1739
-19.6858
-20.2363
-20.8266
-21.4572
-22.1247
-22.7756
-17.7418
-17.6512
-17.5868
-17.5165
-17.4512
-17.3888
-17.3298
-17.2754
-17.2256
-17.1811
-17.1423
-17.1097
-17.0837
-17.0653
-17.0552
-17.0535
-17.0613
-17.0794
-17.1089
-17.1507
-17.2056
-17.2745
-17.3586
-17.4592
-17.5776
-17.7146
-17.872
-18.0509
-18.2528
-18.4793
-18.7315
-19.0111
-19.3199
-19.6593
-20.0306
-20.4357
-20.876
-21.3526
-21.8668
-22.4199
-23.0143
-23.6526
-24.2815
-19.9032
-19.8122
-19.7451
-19.6724
-19.604
-19.5385
-19.4762
-19.4178
-19.3637
-19.3144
-19.2705
-19.232
-19.1996
-19.174
-19.156
-19.1461
-19.1449
-19.1534
-19.1723
-19.2025
-19.2451
-19.3007
-19.3707
-19.4564
-19.5582
-19.678
-19.8169
-19.9759
-20.1569
-20.361
-20.5896
-20.8442
-21.1266
-21.4381
-21.7802
-22.1546
-22.5629
-23.0063
-23.4866
-24.0052
-24.5658
-25.1771
-25.8019
-22.0352
-21.9408
-21.8708
-21.7943
-21.7224
-21.6527
-21.5863
-21.5236
-21.4647
-21.4103
-21.3605
-21.3162
-21.2776
-21.2451
-21.2197
-21.2016
-21.1918
-21.1912
-21.2002
-21.2195
-21.2502
-21.2933
-21.3498
-21.4212
-21.5077
-21.6111
-21.7324
-21.8729
-22.034
-22.2169
-22.4232
-22.6541
-22.9113
-23.1965
-23.5109
-23.8561
-24.2337
-24.6455
-25.0931
-25.5783
-26.1057
-26.6863
-27.2922
-24.1171
-24.0227
-23.9524
-23.8741
-23.799
-23.7265
-23.6567
-23.5901
-23.5269
-23.4676
-23.4128
-23.3629
-23.3182
-23.2794
-23.2468
-23.2212
-23.2032
-23.1937
-23.1931
-23.2021
-23.222
-23.2533
-23.2973
-23.3549
-23.4269
-23.5147
-23.6195
-23.7423
-23.8846
-24.0475
-24.2327
-24.4411
-24.6745
-24.9345
-25.2223
-25.5396
-25.8878
-26.2685
-26.6834
-27.1337
-27.6216
-28.1532
-28.7171
-26.1573
-26.0631
-25.9919
-25.912
-25.8352
-25.7601
-25.6873
-25.6172
-25.5506
-25.4874
-25.4279
-25.3728
-25.3226
-25.2778
-25.2386
-25.2059
-25.1802
-25.1623
-25.1526
-25.1521
-25.1616
-25.1817
-25.2137
-25.2584
-25.3168
-25.3899
-25.4788
-25.5849
-25.7093
-25.8533
-26.0183
-26.2054
-26.4162
-26.6522
-26.9148
-27.2053
-27.5253
-27.8763
-28.2599
-28.6773
-29.1291
-29.6227
-30.1894
-28.168
-28.0721
-27.999
-27.9166
-27.8369
-27.7589
-27.683
-27.6096
-27.5392
-27.4719
-27.4081
-27.3482
-27.2925
-27.2419
-27.1965
-27.1571
-27.1241
-27.098
-27.0799
-27.0704
-27.07
-27.0794
-27.1
-27.1325
-27.1779
-27.237
-27.3112
-27.4014
-27.5088
-27.6349
-27.7806
-27.9474
-28.1368
-28.3499
-28.5884
-28.8535
-29.1466
-29.4692
-29.8225
-30.2079
-30.6242
-31.0773
-31.6069
-30.1312
-30.037
-29.9648
-29.8823
-29.8017
-29.7219
-29.6436
-29.5674
-29.4935
-29.4224
-29.3546
-29.2901
-29.2296
-29.1733
-29.122
-29.0762
-29.0363
-29.0026
-28.9765
-28.9581
-28.9484
-28.9478
-28.9575
-28.9784
-29.0112
-29.0572
-29.1171
-29.1922
-29.2837
-29.3927
-29.5202
-29.6679
-29.8367
-30.0281
-30.2436
-30.4844
-30.7519
-31.0475
-31.3723
-31.727
-32.1114
-32.5367
-33.0387
-32.0571
-31.966
-31.8944
-31.812
-31.7305
-31.6493
-31.5693
-31.4907
-31.4139
-31.3397
-31.2681
-31.1994
-31.1342
-31.0728
-31.016
-30.9641
-30.9173
-30.8768
-30.8429
-30.8162
-30.7973
-30.7873
-30.7869
-30.7968
-30.8178
-30.851
-30.8975
-30.9584
-31.0346
-31.1271
-31.2375