/*--------------------------------*- C++ -*----------------------------------*\
| =========                 |                                                 |
| \\      /  F ield         | OpenFOAM: The Open Source CFD Toolbox           |
|  \\    /   O peration     | Version:  2.3.0                                 |
|   \\  /    A nd           | Web:      www.OpenFOAM.org                      |
|    \\/     M anipulation  |                                                 |
\*---------------------------------------------------------------------------*/
FoamFile
{
    version     2.0;
    format      ascii;
    class       volVectorField;
    location    "1000";
    object      U;
}
// * * * * * * * * * * * * * * * * * * * * * * * * * * * * * * * * * * * * * //

dimensions      [0 1 -1 0 0 0 0];

internalField   nonuniform List<vector> 
38296
(
(13.893 -1.68087 0)
(13.7506 -1.78078 5.10188e-21)
(13.6007 -1.86831 1.41611e-20)
(13.4492 -1.95844 2.33984e-20)
(13.296 -2.05165 -2.86186e-20)
(13.1409 -2.14752 3.37427e-20)
(12.9837 -2.24603 0)
(12.8245 -2.34734 0)
(12.663 -2.45161 0)
(12.4992 -2.55897 -1.69067e-20)
(12.3328 -2.66959 0)
(12.1638 -2.78366 -5.41481e-20)
(11.9918 -2.90139 1.00896e-19)
(11.8166 -3.02304 0)
(11.6379 -3.14888 6.01865e-20)
(11.4555 -3.27928 -9.89722e-20)
(11.269 -3.41459 3.17536e-20)
(11.0781 -3.55527 0)
(10.8824 -3.70183 7.85371e-20)
(10.6814 -3.85488 -7.96099e-20)
(10.4747 -4.01518 -1.16265e-19)
(10.2617 -4.18358 2.57268e-20)
(10.0419 -4.36102 2.00711e-20)
(9.81475 -4.54884 1.36328e-19)
(9.57932 -4.74835 -2.69049e-20)
(9.33479 -4.96108 -9.84862e-20)
(9.08042 -5.18903 9.14571e-20)
(8.81524 -5.43434 -4.25737e-20)
(8.53852 -5.69972 6.8056e-20)
(8.24927 -5.98833 8.84011e-21)
(7.94669 -6.30378 0)
(7.63011 -6.65058 2.40466e-21)
(7.29936 -7.0342 -2.52364e-21)
(6.95465 -7.46119 -3.95463e-20)
(6.59657 -7.93955 4.59099e-21)
(6.22662 -8.47953 6.05537e-20)
(5.84675 -9.09355 -9.0018e-20)
(5.45938 -9.7992 1.23165e-19)
(5.06211 -10.6153 0)
(4.66046 -11.5734 -8.69646e-21)
(4.27624 -12.7291 7.60013e-20)
(3.96305 -14.1611 -6.75714e-20)
(3.84301 -15.8907 -1.19234e-18)
(13.9939 -1.82892 3.43828e-21)
(13.8707 -1.92403 5.42297e-22)
(13.7425 -2.01092 -3.79417e-21)
(13.6133 -2.10073 -8.6517e-21)
(13.4832 -2.19358 -7.23584e-21)
(13.352 -2.28916 1.51039e-20)
(13.2196 -2.38752 -3.5283e-21)
(13.0859 -2.48878 -6.48103e-22)
(12.951 -2.59313 0)
(12.8148 -2.70078 3.63969e-22)
(12.6772 -2.81189 -2.01845e-21)
(12.5381 -2.92675 -2.44752e-21)
(12.3975 -3.04561 -1.84567e-20)
(12.2551 -3.16869 -1.31242e-20)
(12.1109 -3.29637 -1.01698e-19)
(11.9647 -3.42893 2.97373e-20)
(11.8164 -3.56678 -3.12504e-20)
(11.666 -3.71029 0)
(11.5132 -3.85992 0)
(11.3579 -4.01615 -1.5472e-20)
(11.2004 -4.1796 0)
(11.0404 -4.35101 0)
(10.8781 -4.53107 -2.31834e-20)
(10.7135 -4.72081 0)
(10.547 -4.92131 2.62024e-20)
(10.3787 -5.13379 0)
(10.209 -5.35982 -2.94688e-20)
(10.0386 -5.60107 2.46845e-20)
(9.86819 -5.85953 0)
(9.69891 -6.13738 5.23802e-20)
(9.53228 -6.43724 -3.64188e-20)
(9.37039 -6.76197 0)
(9.21616 -7.11484 2.00239e-20)
(9.0732 -7.49937 -6.1267e-21)
(8.94619 -7.91927 0)
(8.84184 -8.37849 -6.31361e-20)
(8.76886 -8.88105 5.45363e-20)
(8.73909 -9.43071 6.17295e-21)
(8.76891 -10.0306 -8.11095e-21)
(8.882 -10.6822 1.01244e-19)
(9.11249 -11.3835 -1.06952e-19)
(9.5107 -12.1224 0)
(10.1423 -12.8684 -6.74731e-20)
(14.0899 -1.95083 1.11889e-21)
(13.9818 -2.04599 -1.02592e-20)
(13.8696 -2.13341 3.90642e-22)
(13.7566 -2.22319 -3.94133e-22)
(13.6429 -2.31574 4.27284e-21)
(13.5285 -2.41093 -9.35985e-21)
(13.4132 -2.50894 0)
(13.2971 -2.60995 0)
(13.1802 -2.71412 -6.80605e-21)
(13.0624 -2.82172 0)
(12.9437 -2.93291 0)
(12.8242 -3.04799 0)
(12.7038 -3.16729 2.73488e-20)
(12.5824 -3.29111 6.85892e-20)
(12.46 -3.4198 0)
(12.3364 -3.5538 2.30611e-20)
(12.2117 -3.69347 1.81687e-20)
(12.0858 -3.83932 0)
(11.9586 -3.99181 0)
(11.8301 -4.15154 1.53064e-20)
(11.7005 -4.31912 3.94404e-20)
(11.5699 -4.49525 -5.69998e-20)
(11.4383 -4.6807 7.3497e-20)
(11.3063 -4.8763 -3.11918e-20)
(11.1742 -5.08319 1.86488e-20)
(11.0424 -5.30241 4.70984e-22)
(10.9118 -5.53532 -7.1741e-20)
(10.7831 -5.7833 3.13223e-20)
(10.6576 -6.04795 -2.09918e-21)
(10.5365 -6.33092 -9.5225e-21)
(10.4221 -6.63406 9.84441e-21)
(10.3165 -6.9592 -5.78704e-22)
(10.223 -7.30828 2.57479e-20)
(10.1451 -7.68313 -8.04113e-21)
(10.0874 -8.08527 0)
(10.0559 -8.51566 3.24918e-20)
(10.0574 -8.97456 -1.78433e-20)
(10.1001 -9.46072 1.2172e-20)
(10.1937 -9.97074 3.93479e-21)
(10.3494 -10.4977 0)
(10.5791 -11.0298 9.77221e-20)
(10.8951 -11.5468 -1.11809e-19)
(11.305 -12.0192 2.10325e-19)
(14.1844 -2.06214 1.25358e-20)
(14.0888 -2.15045 0)
(13.9906 -2.23481 0)
(13.8921 -2.32196 0)
(13.7931 -2.41179 -3.7422e-22)
(13.6937 -2.50422 0)
(13.5938 -2.59936 -8.43551e-22)
(13.4934 -2.69743 2.14645e-21)
(13.3926 -2.79855 1.01867e-20)
(13.2913 -2.90296 0)
(13.1896 -3.01087 -5.93941e-21)
(13.0875 -3.12251 0)
(12.9851 -3.23814 -3.33451e-20)
(12.8824 -3.35818 -4.31433e-21)
(12.7794 -3.4829 0)
(12.676 -3.61273 0)
(12.5723 -3.74801 -1.81012e-20)
(12.4683 -3.8892 -1.42885e-20)
(12.3641 -4.03675 1.89057e-20)
(12.2598 -4.1912 -1.91546e-20)
(12.1556 -4.35311 -3.34355e-20)
(12.0516 -4.52305 2.18924e-20)
(11.9481 -4.70162 -2.33604e-20)
(11.8459 -4.88951 0)
(11.7453 -5.08755 1.47726e-20)
(11.6473 -5.29665 0)
(11.5527 -5.51779 0)
(11.4625 -5.75204 0)
(11.3781 -6.00049 -4.6744e-21)
(11.3012 -6.26426 0)
(11.2337 -6.54445 -1.19654e-20)
(11.1781 -6.84221 0)
(11.1371 -7.15825 -1.61548e-20)
(11.1144 -7.49338 -2.41537e-20)
(11.114 -7.84769 -7.26972e-21)
(11.1406 -8.2208 -2.26463e-20)
(11.1994 -8.61128 7.37548e-21)
(11.2964 -9.01658 7.51875e-21)
(11.4377 -9.43213 -3.68399e-21)
(11.6292 -9.85155 1.30177e-20)
(11.876 -10.2653 0)
(12.1805 -10.6615 -1.4795e-20)
(12.5414 -11.0248 1.70065e-19)
(14.2693 -2.15021 -5.87734e-21)
(14.1874 -2.23669 -6.88842e-21)
(14.1019 -2.31846 0)
(14.0156 -2.40262 0)
(13.9288 -2.48917 -3.4156e-21)
(13.8418 -2.57817 1.42391e-21)
(13.7544 -2.66981 2.33301e-21)
(13.6665 -2.76429 -2.77376e-21)
(13.5785 -2.86176 -3.41362e-21)
(13.4901 -2.96248 0)
(13.4014 -3.06663 5.91199e-21)
(13.3125 -3.17439 0)
(13.2236 -3.28597 8.34755e-21)
(13.1347 -3.40178 -9.55216e-21)
(13.0458 -3.52221 6.74608e-21)
(12.9568 -3.64756 -7.73011e-21)
(12.868 -3.77822 -8.69796e-21)
(12.7792 -3.91459 2.39508e-20)
(12.6908 -4.05711 5.28671e-21)
(12.6027 -4.20626 5.73975e-21)
(12.5153 -4.36268 0)
(12.4286 -4.52689 0)
(12.3428 -4.69934 1.0027e-20)
(12.2586 -4.88056 2.49171e-20)
(12.1768 -5.07111 -1.80295e-20)
(12.0983 -5.27183 0)
(12.0239 -5.48354 0)
(11.9547 -5.70705 0)
(11.892 -5.94318 -1.22649e-20)
(11.8376 -6.19265 0)
(11.7932 -6.45626 1.19611e-20)
(11.761 -6.73462 0)
(11.7436 -7.02806 0)
(11.7441 -7.3366 1.25473e-20)
(11.7658 -7.65984 7.22443e-21)
(11.8126 -7.99681 4.68616e-21)
(11.8885 -8.34561 -1.3251e-22)
(11.9978 -8.70316 -2.29228e-20)
(12.1443 -9.06515 1.09097e-20)
(12.3316 -9.4255 2.20808e-20)
(12.562 -9.77663 -6.70713e-20)
(12.836 -10.1095 1.29813e-19)
(13.1512 -10.4139 -1.05949e-19)
(14.3528 -2.22491 -8.34274e-21)
(14.2804 -2.30922 -5.44951e-22)
(14.2046 -2.38765 -8.06261e-21)
(14.1283 -2.46829 0)
(14.0517 -2.55109 2.91797e-21)
(13.9749 -2.63613 6.16976e-21)
(13.898 -2.72377 -1.75613e-21)
(13.8205 -2.81418 6.35443e-22)
(13.7431 -2.90742 7.54733e-23)
(13.6654 -3.00396 2.77217e-22)
(13.5875 -3.10389 -5.29896e-22)
(13.5094 -3.20734 2.06696e-21)
(13.4312 -3.31439 -1.15839e-21)
(13.3535 -3.42537 4.64564e-22)
(13.276 -3.54089 -5.61975e-21)
(13.1988 -3.66113 7.73775e-21)
(13.1219 -3.78644 8.71318e-21)
(13.0454 -3.91724 -1.59375e-21)
(12.9694 -4.05386 -1.9063e-20)
(12.8944 -4.19668 6.93838e-21)
(12.8205 -4.34646 4.02209e-21)
(12.7478 -4.50385 0)
(12.6763 -4.66925 0)
(12.6065 -4.84288 -1.34119e-20)
(12.5392 -5.02513 -3.83696e-23)
(12.4757 -5.21653 6.41281e-21)
(12.4171 -5.41798 5.05681e-21)
(12.3642 -5.63022 6.23471e-21)
(12.318 -5.85376 -4.73086e-21)
(12.2805 -6.08897 5.78295e-21)
(12.2534 -6.33655 -1.63052e-21)
(12.2386 -6.59682 -1.21082e-21)
(12.2382 -6.86983 -1.22931e-21)
(12.2553 -7.15509 -3.58966e-21)
(12.2925 -7.45215 1.83524e-22)
(12.3533 -7.75963 -1.02731e-20)
(12.4408 -8.0756 2.68906e-20)
(12.558 -8.39715 -8.72358e-21)
(12.7079 -8.72037 0)
(12.8922 -9.04001 6.57075e-20)
(13.112 -9.34963 3.70151e-20)
(13.3673 -9.64207 -1.90965e-20)
(13.6556 -9.91014 1.35378e-20)
(14.4304 -2.29013 4.51517e-22)
(14.3664 -2.37062 1.87356e-20)
(14.2987 -2.44495 -5.70053e-21)
(14.2307 -2.52182 1.29057e-20)
(14.1624 -2.60078 1.61263e-21)
(14.094 -2.68168 -6.63714e-21)
(14.0259 -2.76512 -5.98522e-21)
(13.9568 -2.85145 0)
(13.888 -2.94029 0)
(13.819 -3.03254 -2.97835e-21)
(13.75 -3.12823 -2.88913e-21)
(13.6805 -3.22764 -7.34408e-22)
(13.6106 -3.33041 9.1229e-22)
(13.5414 -3.43673 -3.48441e-22)
(13.473 -3.54748 -3.41836e-21)
(13.4046 -3.66297 -1.55477e-21)
(13.3368 -3.78309 -4.05057e-22)
(13.2697 -3.90867 0)
(13.2029 -4.03993 9.08902e-22)
(13.1375 -4.17672 -6.31628e-21)
(13.0738 -4.31998 -1.83513e-21)
(13.012 -4.47069 3.41706e-21)
(12.9512 -4.62947 -4.45832e-21)
(12.892 -4.79637 3.67589e-21)
(12.8348 -4.97138 -9.90615e-22)
(12.7817 -5.15455 1.1174e-21)
(12.7339 -5.34684 -5.06218e-21)
(12.6924 -5.54936 0)
(12.6573 -5.76245 -4.65337e-21)
(12.6308 -5.98574 0)
(12.6149 -6.21996 0)
(12.6112 -6.46568 3.49455e-24)
(12.6212 -6.72244 -6.36478e-22)
(12.648 -6.98963 0)
(12.6936 -7.26656 0)
(12.7619 -7.55173 -3.1872e-21)
(12.8545 -7.84371 -2.01593e-20)
(12.9743 -8.13919 0)
(13.1236 -8.4351 4.03985e-20)
(13.3025 -8.72724 -2.10638e-20)
(13.5112 -9.00871 0)
(13.7511 -9.27421 -4.00149e-20)
(14.019 -9.51813 1.6415e-19)
(14.4995 -2.34571 4.30922e-22)
(14.4446 -2.42197 0)
(14.3844 -2.49213 2.02425e-20)
(14.3234 -2.56523 -1.65024e-20)
(14.262 -2.64073 7.1637e-21)
(14.1997 -2.71755 -7.8004e-21)
(14.1397 -2.79653 5.0542e-21)
(14.0772 -2.87904 7.03043e-21)
(14.0156 -2.9634 -6.32705e-21)
(13.9537 -3.05141 3.42887e-21)
(13.8921 -3.14274 2.59616e-21)
(13.8302 -3.23844 -1.3013e-21)
(13.7669 -3.33766 6.04891e-21)
(13.7041 -3.43962 0)
(13.6432 -3.54592 2.35116e-21)
(13.5813 -3.65737 2.27328e-22)
(13.5199 -3.77251 1.51173e-21)
(13.4604 -3.89299 4.65614e-22)
(13.4003 -4.01977 -1.12728e-21)
(13.3416 -4.15142 0)
(13.2854 -4.28862 -2.19831e-21)
(13.2323 -4.43269 0)
(13.1802 -4.58485 -3.953e-21)
(13.1297 -4.74562 1.30582e-21)
(13.0799 -4.91449 -3.21589e-21)
(13.0339 -5.09072 2.73681e-21)
(12.994 -5.27469 7.20358e-22)
(12.9619 -5.4684 -7.39007e-22)
(12.9347 -5.67291 0)
(12.916 -5.88622 -1.2781e-21)
(12.9082 -6.10878 4.39068e-23)
(12.9131 -6.34237 0)
(12.9298 -6.58586 -2.67426e-21)
(12.9635 -6.83838 0)
(13.0143 -7.09905 -4.23275e-21)
(13.088 -7.36651 4.12284e-21)
(13.1833 -7.64012 3.96666e-20)
(13.3041 -7.91532 -3.1974e-20)
(13.4526 -8.19034 -1.92928e-20)
(13.6257 -8.46442 0)
(13.8238 -8.72324 0)
(14.054 -8.96965 -3.49484e-20)
(14.3068 -9.19637 -1.30535e-19)
(14.5569 -2.38232 -1.69996e-20)
(14.5085 -2.46343 0)
(14.4575 -2.53137 -1.70759e-20)
(14.4044 -2.6008 1.00906e-20)
(14.3526 -2.67348 -1.49657e-20)
(14.294 -2.74614 8.68525e-21)
(14.241 -2.81979 1.2462e-22)
(14.1835 -2.89895 -1.1043e-20)
(14.1297 -2.97863 2.81419e-21)
(14.0749 -3.06264 -4.50557e-21)
(14.0194 -3.14866 0)
(13.9649 -3.24032 -1.27675e-21)
(13.9086 -3.33687 -2.41267e-21)
(13.8521 -3.43462 -7.0723e-21)
(13.8015 -3.5359 3.37613e-21)
(13.7483 -3.64431 -2.48098e-22)
(13.6926 -3.7543 2.32698e-22)
(13.642 -3.86824 1.94101e-21)
(13.5875 -3.99052 -3.02778e-21)
(13.5334 -4.118 -9.7475e-22)
(13.4823 -4.25039 -1.60634e-21)
(13.4377 -4.38895 -4.10648e-22)
(13.3921 -4.53336 -4.58894e-22)
(13.3503 -4.6884 6.4937e-23)
(13.306 -4.85179 4.48807e-22)
(13.2646 -5.02317 0)
(13.2287 -5.20039 -1.45858e-21)
(13.205 -5.38636 0)
(13.182 -5.58399 -1.7392e-21)
(13.1667 -5.7911 6.67445e-22)
(13.1624 -6.00385 -4.00988e-21)
(13.1736 -6.22902 -3.92452e-23)
(13.1914 -6.46194 -1.3679e-21)
(13.2286 -6.70407 -8.2841e-22)
(13.2781 -6.95204 8.19663e-21)
(13.3544 -7.20652 -6.41956e-21)
(13.448 -7.46695 -4.12162e-21)
(13.5652 -7.72902 1.69564e-20)
(13.7123 -7.98721 -2.28896e-20)
(13.8783 -8.25444 0)
(14.0615 -8.48349 -3.34587e-20)
(14.2895 -8.71912 0)
(14.5272 -8.93377 -4.57067e-20)
(5.79121 -16.746 2.99042e-18)
(7.5006 -16.301 -1.64503e-18)
(9.06242 -15.7411 1.7078e-18)
(10.5573 -15.3822 -1.52063e-18)
(11.8959 -15.0869 -6.87331e-20)
(13.0484 -14.7967 1.60128e-18)
(14.0395 -14.5236 -1.45495e-18)
(14.8981 -14.2791 1.41314e-18)
(15.6426 -14.0582 -1.42225e-18)
(16.2885 -13.8532 0)
(16.8502 -13.6581 9.66134e-20)
(17.3409 -13.4685 1.29291e-18)
(17.7714 -13.2802 5.49863e-21)
(18.1508 -13.0909 -1.20295e-18)
(18.487 -12.8988 0)
(18.7866 -12.7029 1.32363e-19)
(19.0551 -12.5031 1.28976e-19)
(19.2974 -12.3003 2.2766e-18)
(19.5174 -12.0949 -2.20181e-18)
(19.7186 -11.888 -1.90666e-18)
(19.9038 -11.6805 2.1115e-18)
(20.0752 -11.4733 1.93827e-18)
(20.2349 -11.2672 -2.13921e-18)
(20.3844 -11.0629 -1.2002e-19)
(20.5249 -10.861 2.05286e-18)
(20.6574 -10.6618 -1.82193e-18)
(20.7826 -10.4658 -4.42096e-19)
(20.9013 -10.2729 0)
(21.014 -10.0833 1.73898e-18)
(21.1211 -9.89675 -1.29885e-18)
(21.2231 -9.7133 -1.91988e-18)
(21.3203 -9.53274 1.48961e-18)
(21.413 -9.35494 0)
(21.5015 -9.17973 -4.29737e-19)
(21.5861 -9.00693 1.05156e-18)
(21.6671 -8.8364 -4.31815e-19)
(21.7446 -8.66799 4.28362e-19)
(21.819 -8.5016 0)
(21.8905 -8.33715 4.28012e-19)
(21.9591 -8.17456 4.2741e-19)
(22.0253 -8.01386 1.25641e-18)
(22.0897 -7.85549 -2.08949e-18)
(22.152 -7.69982 -8.4112e-19)
(11.0083 -13.5013 -2.7185e-19)
(11.847 -13.9861 3.15247e-19)
(12.6234 -14.3083 6.42402e-19)
(13.3621 -14.4855 -6.94569e-19)
(14.0599 -14.5397 5.04413e-20)
(14.7058 -14.4972 -5.43894e-20)
(15.298 -14.3835 5.7228e-20)
(15.8391 -14.2189 1.29868e-20)
(16.3327 -14.0182 -9.69274e-19)
(16.7823 -13.7934 9.35941e-19)
(17.192 -13.5537 0)
(17.5657 -13.3065 -1.02618e-18)
(17.9071 -13.0566 -2.00067e-20)
(18.2195 -12.808 1.86097e-18)
(18.5061 -12.5631 -9.67404e-19)
(18.7695 -12.3236 -1.27723e-19)
(19.0123 -12.0905 -1.24806e-19)
(19.2366 -11.8643 0)
(19.4441 -11.6451 1.13479e-18)
(19.6366 -11.4329 -4.97628e-21)
(19.8158 -11.2273 -1.74498e-18)
(19.9828 -11.0278 7.52829e-19)
(20.1389 -10.8341 -6.34223e-19)
(20.2851 -10.6456 7.32696e-19)
(20.4224 -10.462 -2.1488e-19)
(20.5515 -10.2827 -2.12361e-19)
(20.6733 -10.1073 1.02382e-18)
(20.7883 -9.93554 -1.96595e-19)
(20.8971 -9.76704 -8.03888e-19)
(21.0004 -9.60156 -9.2196e-21)
(21.0985 -9.43878 1.20583e-18)
(21.1919 -9.27854 -1.60558e-18)
(21.281 -9.12063 8.03998e-19)
(21.3661 -8.96487 0)
(21.4476 -8.81111 -6.99436e-21)
(21.5258 -8.65923 -2.14179e-19)
(21.6008 -8.5091 4.04131e-19)
(21.6729 -8.3606 0)
(21.7424 -8.21366 -4.19521e-19)
(21.8094 -8.06814 1.24116e-18)
(21.8741 -7.92383 -8.33201e-19)
(21.9371 -7.78079 1.25418e-18)
(21.9985 -7.63528 -8.40158e-19)
(11.8105 -12.4088 -2.15644e-19)
(12.3796 -12.7007 -3.17774e-19)
(12.9793 -12.9005 2.86355e-19)
(13.587 -13.0202 0)
(14.1853 -13.0716 -8.75882e-19)
(14.7604 -13.0655 8.21099e-19)
(15.3042 -13.0126 -1.01387e-18)
(15.8126 -12.9228 1.12997e-19)
(16.284 -12.8045 8.03284e-19)
(16.7185 -12.6646 -4.71288e-20)
(17.1175 -12.5092 -9.06281e-19)
(17.4831 -12.3428 7.73337e-19)
(17.8178 -12.1693 7.90369e-19)
(18.1242 -11.9913 1.31759e-19)
(18.405 -11.811 -8.63091e-19)
(18.6627 -11.6302 8.66684e-19)
(18.8996 -11.4501 1.09494e-20)
(19.1182 -11.2714 -8.34086e-19)
(19.3203 -11.0949 -2.07502e-19)
(19.5077 -10.9209 7.16452e-19)
(19.6822 -10.7495 -1.61725e-18)
(19.8452 -10.5811 1.7026e-18)
(19.9979 -10.4157 -8.91071e-19)
(20.1413 -10.2531 -6.87338e-19)
(20.2765 -10.0934 -1.94867e-19)
(20.404 -9.93648 7.73486e-19)
(20.5246 -9.78226 -5.84271e-19)
(20.639 -9.63058 3.81837e-19)
(20.7475 -9.48134 5.78678e-19)
(20.8509 -9.33437 -9.65495e-19)
(20.9493 -9.18955 3.84217e-19)
(21.0433 -9.04675 0)
(21.1332 -8.90586 0)
(21.2192 -8.76673 0)
(21.3016 -8.62926 -1.99064e-19)
(21.3807 -8.49332 -2.00421e-19)
(21.4566 -8.35881 -4.03735e-19)
(21.5297 -8.22565 0)
(21.6 -8.09376 -1.21948e-18)
(21.6678 -7.96304 4.01924e-19)
(21.733 -7.83337 4.18041e-19)
(21.7958 -7.70479 -8.14888e-19)
(21.856 -7.57523 4.07763e-19)
(12.9519 -11.3411 -1.73121e-19)
(13.3997 -11.6022 2.90466e-20)
(13.8699 -11.8041 0)
(14.3479 -11.9477 -6.94937e-20)
(14.8226 -12.0362 3.64684e-19)
(15.2848 -12.0755 2.95826e-20)
(15.7283 -12.0721 -2.43909e-19)
(16.1492 -12.0331 3.72047e-19)
(16.5454 -11.965 -4.63897e-19)
(16.916 -11.8736 7.52337e-21)
(17.2612 -11.764 -9.03819e-19)
(17.582 -11.6406 7.91559e-19)
(17.8797 -11.507 1.04518e-19)
(18.1558 -11.3662 0)
(18.4118 -11.2206 9.77857e-20)
(18.6495 -11.0719 0)
(18.8705 -10.9217 0)
(19.0761 -10.771 9.59484e-20)
(19.2681 -10.6208 9.97318e-20)
(19.4474 -10.4716 -7.74116e-19)
(19.6154 -10.3239 6.65512e-19)
(19.773 -10.178 8.54088e-19)
(19.9213 -10.0341 -6.56474e-19)
(20.0608 -9.89219 0)
(20.1923 -9.75243 -7.40028e-19)
(20.3164 -9.61471 7.38973e-19)
(20.4338 -9.47902 5.53567e-19)
(20.5451 -9.34527 -9.25324e-19)
(20.6508 -9.21335 1.8805e-19)
(20.7513 -9.08321 -7.4312e-19)
(20.8471 -8.95472 1.4933e-18)
(20.9385 -8.82785 -9.31092e-19)
(21.026 -8.7025 0)
(21.1097 -8.57855 7.59571e-19)
(21.1899 -8.45588 -7.63404e-19)
(21.2669 -8.33442 7.72717e-19)
(21.341 -8.2141 -7.77779e-19)
(21.4123 -8.09491 -3.93652e-19)
(21.481 -7.97677 1.99793e-19)
(21.5471 -7.85958 1.97951e-19)
(21.6109 -7.74332 2.07003e-19)
(21.6722 -7.6279 8.11873e-19)
(21.7313 -7.51199 -7.91687e-19)
(13.5029 -10.6815 2.4654e-19)
(13.8845 -10.9072 -2.20391e-20)
(14.2872 -11.0878 -2.31493e-19)
(14.7006 -11.2223 6.87147e-20)
(15.1155 -11.3124 0)
(15.5243 -11.3616 0)
(15.921 -11.3747 0)
(16.3015 -11.3566 -1.75983e-19)
(16.6632 -11.3123 9.26722e-20)
(17.0047 -11.2465 1.85729e-19)
(17.3254 -11.1634 9.62949e-20)
(17.6255 -11.0667 9.72116e-20)
(17.9057 -10.9596 9.37311e-20)
(18.167 -10.8447 -2.93734e-19)
(18.4104 -10.724 2.80029e-19)
(18.6373 -10.5994 9.34867e-20)
(18.8489 -10.4723 0)
(19.0466 -10.3437 -4.75088e-19)
(19.2315 -10.2146 3.70929e-19)
(19.4047 -10.0856 4.6491e-19)
(19.567 -9.95718 -1.81859e-19)
(19.7195 -9.82973 -2.79476e-21)
(19.8628 -9.70346 1.837e-19)
(19.9976 -9.57853 -3.60973e-19)
(20.1246 -9.45493 1.83285e-19)
(20.2446 -9.33275 -5.39766e-19)
(20.3583 -9.21201 3.58779e-19)
(20.4662 -9.09273 0)
(20.5687 -8.97486 0)
(20.6664 -8.85843 0)
(20.7596 -8.74338 4.07214e-21)
(20.8486 -8.62969 1.84796e-19)
(20.9336 -8.51731 -5.51038e-19)
(21.015 -8.40607 5.54061e-19)
(21.093 -8.29587 0)
(21.1679 -8.18667 -1.87338e-19)
(21.2402 -8.07852 -1.89327e-19)
(21.3096 -7.97143 0)
(21.3765 -7.86526 5.87556e-19)
(21.4409 -7.75994 -5.91659e-19)
(21.5029 -7.65549 3.39524e-21)
(21.5624 -7.55145 0)
(21.6211 -7.44963 2.01705e-19)
(13.9732 -10.1478 -8.60075e-20)
(14.3152 -10.3514 -3.75373e-23)
(14.6746 -10.5182 0)
(15.0437 -10.6467 0)
(15.4151 -10.7379 7.11953e-20)
(15.7826 -10.794 7.58278e-20)
(16.1408 -10.8186 4.12802e-19)
(16.4862 -10.815 -3.22887e-19)
(16.8164 -10.7875 8.56173e-20)
(17.1298 -10.7399 -5.41021e-19)
(17.4257 -10.6757 3.53606e-19)
(17.7041 -10.5982 0)
(17.9654 -10.5102 -4.66818e-19)
(18.2101 -10.414 2.6969e-19)
(18.4392 -10.3116 -9.10583e-20)
(18.6536 -10.2046 -5.56794e-19)
(18.8546 -10.0943 3.63406e-19)
(19.0432 -9.98219 0)
(19.2201 -9.86898 0)
(19.386 -9.7553 -9.17144e-20)
(19.5419 -9.64171 -4.53062e-19)
(19.6882 -9.52853 -1.83299e-19)
(19.8257 -9.416 5.32519e-19)
(19.955 -9.30424 -2.68744e-19)
(20.0772 -9.19329 3.52209e-19)
(20.1929 -9.08344 1.78658e-19)
(20.3026 -8.9747 0)
(20.4069 -8.86721 0)
(20.5061 -8.76099 0)
(20.6006 -8.65602 0)
(20.6907 -8.55226 3.57014e-19)
(20.7767 -8.44981 0)
(20.8586 -8.34845 1.82566e-19)
(20.937 -8.24797 -1.84089e-19)
(21.0122 -8.14837 0)
(21.0847 -8.04965 1.87699e-19)
(21.1546 -7.95203 1.89724e-19)
(21.2216 -7.8555 0)
(21.286 -7.75979 0)
(21.3478 -7.66487 1.92754e-19)
(21.4074 -7.57056 3.91751e-19)
(21.4644 -7.47578 3.94399e-19)
(21.5219 -7.38593 -1.92629e-19)
(14.3129 -9.73516 -8.81911e-20)
(14.6281 -9.92298 -5.44213e-22)
(14.9582 -10.0789 0)
(15.2972 -10.2015 -1.36112e-19)
(15.6384 -10.2911 -8.22794e-20)
(15.9773 -10.3498 6.82611e-20)
(16.3076 -10.3805 -7.91729e-20)
(16.6276 -10.3851 4.17736e-19)
(16.9348 -10.3677 -4.96107e-19)
(17.2279 -10.3317 8.72281e-20)
(17.5056 -10.2797 3.57363e-19)
(17.7683 -10.2146 -3.48556e-19)
(18.0159 -10.1395 -3.63334e-19)
(18.2481 -10.0564 3.54354e-19)
(18.4661 -9.96684 9.1133e-20)
(18.6712 -9.87224 2.02556e-21)
(18.8646 -9.77419 0)
(19.0462 -9.67469 0)
(19.2162 -9.57402 0)
(19.3759 -9.47234 8.7841e-20)
(19.5256 -9.37045 -8.74773e-20)
(19.666 -9.26831 8.88442e-20)
(19.798 -9.16638 -4.40733e-19)
(19.9224 -9.06482 -9.18046e-20)
(20.0406 -8.96373 3.46716e-19)
(20.1524 -8.86374 -3.49402e-19)
(20.2586 -8.76484 6.95593e-19)
(20.3595 -8.66714 -5.23595e-19)
(20.4555 -8.57063 3.47703e-19)
(20.5468 -8.47515 0)
(20.634 -8.38082 -1.77376e-19)
(20.7168 -8.28786 3.54984e-19)
(20.7953 -8.19563 1.78944e-19)
(20.8708 -8.10396 -1.8029e-19)
(20.9433 -8.0132 0)
(21.0134 -7.92329 0)
(21.0808 -7.83485 1.84324e-19)
(21.1451 -7.74754 0)
(21.207 -7.66092 0)
(21.266 -7.57517 -1.93237e-19)
(21.3227 -7.48985 -1.94982e-19)
(21.3771 -7.40402 0)
(21.4319 -7.32499 0)
(14.5846 -9.39774 8.86823e-20)
(14.8815 -9.57384 5.26943e-20)
(15.1904 -9.72234 0)
(15.5073 -9.83952 0)
(15.8255 -9.92693 0)
(16.1432 -9.98731 0)
(16.4489 -10.0243 7.57497e-20)
(16.75 -10.0318 0)
(17.0389 -10.0219 8.24174e-20)
(17.3158 -9.99349 0)
(17.5786 -9.94895 -1.73728e-19)
(17.8289 -9.89212 1.697e-19)
(18.0648 -9.82766 3.53985e-19)
(18.2857 -9.75489 -3.45635e-19)
(18.4946 -9.67437 -4.43669e-19)
(18.692 -9.58848 5.24466e-19)
(18.88 -9.49998 -3.55213e-19)
(19.0543 -9.41244 3.47612e-19)
(19.2178 -9.32181 -8.72156e-20)
(19.3719 -9.22915 -1.74888e-19)
(19.5151 -9.13599 8.7656e-20)
(19.6497 -9.04175 0)
(19.7771 -8.94793 2.61327e-19)
(19.8972 -8.85428 -6.89035e-19)
(20.0125 -8.76101 6.87686e-19)
(20.1208 -8.66967 -5.15977e-19)
(20.2239 -8.57901 3.42061e-19)
(20.3217 -8.48957 -2.02685e-21)
(20.4146 -8.40105 0)
(20.5028 -8.31322 1.72256e-19)
(20.5873 -8.2268 3.48765e-19)
(20.6662 -8.14194 -8.73834e-19)
(20.7413 -8.05692 5.27618e-19)
(20.8145 -7.97245 -3.56899e-19)
(20.8843 -7.88929 -3.59832e-19)
(20.9524 -7.8068 3.6197e-19)
(21.0171 -7.72665 -5.51002e-19)
(21.078 -7.64736 1.85256e-19)
(21.1377 -7.56857 0)
(21.1934 -7.49091 -1.90225e-19)
(21.2476 -7.41334 3.82079e-19)
(21.3001 -7.33624 1.91961e-19)
(21.3512 -7.26743 3.76872e-19)
(14.7925 -9.1242 1.42024e-19)
(15.0763 -9.29151 -2.59041e-19)
(15.3671 -9.43681 1.07285e-19)
(15.6678 -9.5462 -6.24048e-20)
(15.9683 -9.63248 -1.36603e-19)
(16.2762 -9.69449 6.30488e-20)
(16.5638 -9.7349 -7.42727e-20)
(16.8604 -9.73097 -7.56937e-20)
(17.1388 -9.72876 1.59255e-19)
(17.4044 -9.70123 -2.39817e-19)
(17.6516 -9.66247 1.70636e-19)
(17.8912 -9.6145 -2.50278e-19)
(18.115 -9.563 8.47587e-20)
(18.3282 -9.4946 0)
(18.5318 -9.41776 8.94352e-20)
(18.7209 -9.3403 -2.69724e-19)
(18.9044 -9.26248 1.7084e-19)
(19.0738 -9.18614 0)
(19.2348 -9.09859 8.62648e-20)
(19.3832 -9.01221 8.72386e-20)
(19.5178 -8.9256 8.66074e-20)
(19.6484 -8.83698 1.75515e-19)
(19.771 -8.75136 -8.55723e-20)
(19.8861 -8.66473 1.74387e-19)
(19.9987 -8.57885 -1.71064e-19)
(20.1012 -8.49608 3.02108e-23)
(20.2028 -8.41149 1.45664e-21)
(20.2974 -8.32929 -3.39781e-19)
(20.3869 -8.24705 0)
(20.4713 -8.1655 -1.73116e-19)
(20.5525 -8.08689 0)
(20.6254 -8.00901 2.89891e-22)
(20.6974 -7.92943 -7.70511e-22)
(20.7677 -7.85216 -1.24817e-21)
(20.8331 -7.77592 0)
(20.9017 -7.69925 0)
(20.964 -7.62682 2.67353e-19)
(21.0199 -7.55408 9.39658e-20)
(21.0768 -7.48245 0)
(21.1279 -7.41188 1.91833e-19)
(21.1804 -7.34056 -3.91846e-19)
(21.2304 -7.27133 -1.06479e-21)
(21.2755 -7.20987 -3.7033e-19)
(20.0213 -0.994633 -1.42286e-19)
(20.0246 -1.02273 -7.63386e-20)
(20.0269 -1.05318 -7.55754e-20)
(20.0287 -1.08308 1.52644e-19)
(20.0298 -1.1129 3.03376e-19)
(20.0301 -1.14253 0)
(20.0295 -1.17197 -3.02858e-19)
(20.0276 -1.2012 0)
(20.0242 -1.23019 1.51894e-19)
(20.0189 -1.25891 -1.52729e-19)
(20.0115 -1.28735 -3.09028e-19)
(20.0013 -1.31547 -1.40164e-18)
(19.9879 -1.34324 1.4198e-18)
(19.9706 -1.37062 1.19759e-18)
(19.9485 -1.3976 -1.30027e-18)
(19.9206 -1.42413 1.2381e-18)
(19.8859 -1.45018 -1.35038e-18)
(19.8431 -1.4757 -1.4626e-18)
(19.7906 -1.50065 2.82068e-18)
(19.7269 -1.52491 -1.44576e-18)
(19.6507 -1.5484 9.26031e-20)
(19.5603 -1.57098 0)
(19.4545 -1.59253 -1.55739e-18)
(19.3318 -1.61288 1.60851e-18)
(19.1908 -1.63184 -5.2739e-20)
(19.0303 -1.64921 1.71567e-18)
(18.849 -1.66481 -3.97049e-21)
(18.6458 -1.67845 -1.86315e-18)
(18.4193 -1.6898 0)
(18.1685 -1.69872 -1.30233e-19)
(17.8921 -1.70492 -2.23544e-18)
(17.5885 -1.70815 2.37956e-18)
(17.2557 -1.70807 1.15699e-18)
(16.8914 -1.70443 -1.28941e-18)
(16.492 -1.69675 1.45149e-18)
(16.0527 -1.68451 -1.59623e-18)
(15.5661 -1.6669 -5.70766e-20)
(15.0213 -1.64292 -1.2786e-19)
(14.4003 -1.61048 -6.6119e-19)
(13.6711 -1.5665 6.98686e-19)
(12.7645 -1.50919 -1.63973e-19)
(11.4314 -1.43644 0)
(8.58001 -1.30007 2.95758e-18)
(19.9905 -0.981956 2.93217e-19)
(19.993 -1.00891 -1.5662e-19)
(19.9942 -1.03679 -1.56611e-19)
(19.9949 -1.06413 4.70854e-19)
(19.9951 -1.09132 -1.57334e-19)
(19.9947 -1.11837 1.5612e-19)
(19.9935 -1.14528 1.57091e-19)
(19.9913 -1.17205 0)
(19.988 -1.19867 -9.52839e-22)
(19.9834 -1.22514 -1.26259e-18)
(19.9771 -1.25144 1.43361e-18)
(19.9688 -1.27756 1.61036e-19)
(19.9582 -1.30348 1.13551e-18)
(19.9447 -1.32918 -1.31756e-18)
(19.9278 -1.35465 8.3344e-20)
(19.9067 -1.37985 0)
(19.8806 -1.40475 -8.66114e-20)
(19.8484 -1.42933 8.89566e-20)
(19.8089 -1.45354 9.11025e-20)
(19.7608 -1.47732 -9.314e-20)
(19.7026 -1.50057 -9.59192e-20)
(19.6326 -1.52322 -1.5801e-18)
(19.5495 -1.54514 3.25563e-18)
(19.4515 -1.5662 1.03142e-19)
(19.337 -1.58626 -1.73769e-18)
(19.2043 -1.60512 5.60572e-20)
(19.0516 -1.62261 1.87121e-18)
(18.8772 -1.63852 -3.96654e-18)
(18.6792 -1.6526 2.04481e-18)
(18.4556 -1.66462 -1.00654e-18)
(18.2045 -1.6743 1.20441e-18)
(17.9236 -1.68129 -7.45831e-20)
(17.6101 -1.68524 7.95917e-20)
(17.2609 -1.68575 8.56883e-20)
(16.8716 -1.6823 1.58193e-18)
(16.4366 -1.67417 -8.15265e-19)
(15.9479 -1.6604 -8.99565e-19)
(15.3936 -1.63969 6.28418e-20)
(14.7538 -1.60999 5.7398e-19)
(13.9905 -1.56833 -6.71598e-19)
(12.9998 -1.51212 -3.02118e-19)
(11.3847 -1.4425 4.88886e-19)
(8.30909 -1.27838 2.30291e-18)
(19.9628 -0.970159 0)
(19.9646 -0.995397 3.64758e-19)
(19.9652 -1.02064 1.21871e-19)
(19.9653 -1.04553 -3.23088e-19)
(19.9649 -1.07031 -1.61365e-19)
(19.9639 -1.09498 1.60831e-19)
(19.9622 -1.11958 -1.60571e-19)
(19.9598 -1.14411 0)
(19.9564 -1.16858 -8.07606e-19)
(19.952 -1.19299 8.11935e-19)
(19.9462 -1.21735 -6.5242e-19)
(19.9388 -1.24165 6.58917e-19)
(19.9295 -1.2659 0)
(19.918 -1.29007 8.40477e-20)
(19.9038 -1.31417 -1.71186e-19)
(19.8863 -1.33817 -8.68551e-20)
(19.8649 -1.36205 1.51164e-18)
(19.8387 -1.38577 -1.54642e-18)
(19.8067 -1.40929 9.28318e-20)
(19.7678 -1.43254 9.60011e-20)
(19.7206 -1.45549 0)
(19.6635 -1.47803 -1.00808e-19)
(19.5951 -1.50005 0)
(19.5138 -1.52141 -2.15337e-19)
(19.4175 -1.54199 1.89262e-18)
(19.3046 -1.56161 -2.02167e-18)
(19.1728 -1.58008 0)
(19.0202 -1.59717 1.12445e-18)
(18.8443 -1.61262 -1.04582e-18)
(18.6428 -1.62615 6.80394e-20)
(18.413 -1.63744 1.15351e-18)
(18.1521 -1.64614 -2.51747e-18)
(17.8565 -1.65182 1.29898e-18)
(17.5224 -1.65394 -9.80147e-22)
(17.1449 -1.65187 -1.86659e-19)
(16.7178 -1.64485 1.00735e-19)
(16.2321 -1.63181 -1.00028e-18)
(15.6748 -1.61128 1.48438e-18)
(15.024 -1.58123 -9.76396e-19)
(14.2326 -1.53971 5.62096e-19)
(13.1523 -1.48584 -9.43787e-20)
(11.294 -1.41796 -1.10026e-18)
(8.25182 -1.23328 -9.96657e-19)
(19.9388 -0.959714 -8.06545e-20)
(19.9395 -0.982482 -1.25602e-19)
(19.9396 -1.00522 4.17102e-20)
(19.9392 -1.02783 -3.32349e-19)
(19.9384 -1.05038 3.31789e-19)
(19.937 -1.07289 -1.65086e-19)
(19.935 -1.09537 -4.94908e-19)
(19.9323 -1.11784 4.96768e-19)
(19.9288 -1.1403 0)
(19.9243 -1.16276 0)
(19.9187 -1.18524 0)
(19.9117 -1.20775 -6.74018e-19)
(19.9032 -1.23028 6.81901e-19)
(19.8927 -1.25283 -8.65223e-20)
(19.88 -1.27542 8.7843e-20)
(19.8645 -1.29803 8.93761e-20)
(19.8458 -1.32063 0)
(19.8232 -1.34321 9.31937e-20)
(19.7957 -1.36575 -9.55185e-20)
(19.7626 -1.38818 8.78264e-19)
(19.7224 -1.41048 -1.6071e-18)
(19.6739 -1.43258 2.01601e-21)
(19.6155 -1.45437 1.29573e-21)
(19.5456 -1.47576 9.91354e-19)
(19.4623 -1.49661 -1.14318e-19)
(19.3637 -1.51675 1.18368e-19)
(19.2476 -1.53603 -1.09837e-18)
(19.1116 -1.55418 1.96918e-18)
(18.9531 -1.57097 -1.06103e-18)
(18.7692 -1.58609 1.03904e-18)
(18.5569 -1.59914 -1.09414e-18)
(18.3127 -1.6097 7.73562e-20)
(18.0328 -1.61732 0)
(17.7125 -1.62144 -8.73188e-20)
(17.3465 -1.62134 1.07745e-21)
(16.9275 -1.6162 -1.17125e-21)
(16.4461 -1.60487 1.10318e-19)
(15.8884 -1.58588 1.2034e-19)
(15.2297 -1.55747 1.36165e-19)
(14.4113 -1.51839 -1.55038e-19)
(13.2405 -1.47012 -3.54162e-19)
(11.1988 -1.40547 4.04401e-19)
(8.25383 -1.21527 -2.19702e-19)
(19.9179 -0.949852 0)
(19.9175 -0.969976 0)
(19.9171 -0.990548 0)
(19.9164 -1.01111 0)
(19.9152 -1.03168 -5.09981e-19)
(19.9135 -1.05225 1.70465e-19)
(19.9113 -1.07285 3.39005e-19)
(19.9084 -1.09349 8.52166e-20)
(19.9049 -1.11419 0)
(19.9005 -1.13494 -6.80637e-19)
(19.8952 -1.15575 5.99874e-19)
(19.8887 -1.17666 6.89817e-19)
(19.8809 -1.19766 -6.97958e-19)
(19.8714 -1.21877 0)
(19.86 -1.23999 7.16154e-19)
(19.8464 -1.26131 -1.54909e-18)
(19.83 -1.28274 1.57969e-18)
(19.8102 -1.30425 -8.54988e-19)
(19.7865 -1.32582 -7.77308e-19)
(19.7579 -1.34742 6.9888e-19)
(19.7233 -1.36902 1.02387e-19)
(19.6815 -1.39058 1.05941e-19)
(19.6311 -1.412 0)
(19.5704 -1.43322 -1.12121e-19)
(19.4975 -1.45412 1.15861e-19)
(19.4105 -1.47457 0)
(19.3071 -1.49442 1.24985e-19)
(19.1848 -1.51343 0)
(19.0407 -1.53135 1.34383e-19)
(18.8717 -1.54786 0)
(18.6744 -1.56257 1.25061e-18)
(18.4449 -1.57502 -1.24092e-18)
(18.1787 -1.58465 5.72191e-19)
(17.8708 -1.59083 -6.95233e-19)
(17.515 -1.59287 -6.47543e-19)
(17.1034 -1.5899 1.49352e-18)
(16.6259 -1.58078 -4.32991e-19)
(16.0675 -1.56408 -7.10534e-19)
(15.4003 -1.53806 0)
(14.5545 -1.50224 3.70149e-20)
(13.2962 -1.46017 1.2673e-19)
(11.124 -1.39791 0)
(8.27187 -1.20843 -6.09842e-19)
(19.8992 -0.940053 4.29567e-20)
(19.8982 -0.957904 -2.20999e-20)
(19.8974 -0.97663 -1.0983e-19)
(19.8963 -0.995378 -8.73611e-20)
(19.8948 -1.01419 6.28711e-22)
(19.893 -1.03307 4.34547e-19)
(19.8906 -1.05202 -8.65734e-20)