/*--------------------------------*- C++ -*----------------------------------*\
| =========                 |                                                 |
| \\      /  F ield         | OpenFOAM: The Open Source CFD Toolbox           |
|  \\    /   O peration     | Version:  2.3.0                                 |
|   \\  /    A nd           | Web:      www.OpenFOAM.org                      |
|    \\/     M anipulation  |                                                 |
\*---------------------------------------------------------------------------*/
FoamFile
{
    version     2.0;
    format      ascii;
    class       volScalarField;
    location    "400";
    object      p;
}
// * * * * * * * * * * * * * * * * * * * * * * * * * * * * * * * * * * * * * //

dimensions      [0 2 -2 0 0 0 0];

internalField   nonuniform List<scalar> 
7991
(
-0.000393643
0.0130168
0.0607963
0.155008
0.297039
0.480559
0.695593
0.932496
1.18469
1.44958
1.7268
2.01985
2.35824
2.86306
3.50659
0.235136
0.253015
0.272362
0.295583
0.328839
0.379029
0.452441
0.553339
0.683276
0.841301
1.02448
1.22873
1.44975
1.68455
1.93139
0.468438
0.545501
0.640714
0.751828
0.876813
1.01152
1.15147
1.29273
1.4323
1.56801
1.69836
1.82234
1.93906
2.04792
2.14911
0.614832
0.684781
0.763246
0.845666
0.932128
1.02215
1.11505
1.21006
1.30627
1.40277
1.49864
1.59305
1.68519
1.77447
1.86075
0.731539
0.801454
0.880966
0.963233
1.04747
1.13254
1.21739
1.30116
1.38318
1.46299
1.54024
1.61469
1.68614
1.75447
1.81972
0.810977
0.871872
0.940399
1.00984
1.07961
1.14921
1.21832
1.28662
1.35386
1.41984
1.48439
1.54732
1.60849
1.66776
1.72506
0.866062
0.921676
0.983175
1.04516
1.10697
1.16829
1.22896
1.2888
1.34767
1.40545
1.46204
1.51732
1.57118
1.6235
1.67421
0.901472
0.95539
1.0099
1.06444
1.11871
1.17254
1.22588
1.27868
1.33086
1.38235
1.43305
1.48285
1.53166
1.57932
1.62574
0.931734
0.980822
1.02884
1.07724
1.12564
1.17386
1.22184
1.26954
1.31689
1.36382
1.41023
1.45603
1.50107
1.54524
1.58838
0.948964
0.997354
1.04086
1.08455
1.12834
1.17214
1.21591
1.25961
1.30321
1.3466
1.38973
1.43247
1.47467
1.51619
1.55685
0.965768
1.00981
1.04924
1.08893
1.12892
1.16915
1.20952
1.25003
1.29068
1.33128
1.37178
1.41207
1.45202
1.49147
1.53024
0.978441
1.01783
1.05413
1.09065
1.12798
1.16537
1.20267
1.24034
1.2787
1.31703
1.35531
1.3935
1.43165
1.46938
1.50667
0.98923
1.02565
1.05923
1.09281
1.12775
1.1628
1.19791
1.23376
1.27004
1.30615
1.34296
1.3804
1.41776
1.45492
1.49063
1.00668
1.03539
1.07101
1.10114
1.12645
1.15968
1.19817
1.23329
1.26664
1.29967
1.3361
1.37434
1.40921
1.44715
1.48501
4.29837
4.41922
4.3068
4.31334
4.35349
4.37795
4.37924
4.36095
4.32432
4.267
4.18412
4.06988
3.9205
3.73801
3.54064
2.19598
2.47554
2.74166
2.98981
3.21377
3.4055
3.55724
3.66316
3.72012
3.72817
3.69087
3.61487
3.50885
3.38233
3.24879
2.24485
2.33799
2.42931
2.51914
2.60665
2.69065
2.76976
2.84235
2.90639
2.95932
2.99789
3.01829
3.01704
2.99327
2.95449
1.94558
2.03109
2.11774
2.20483
2.29111
2.37505
2.45489
2.52866
2.59427
2.64958
2.69256
2.72135
2.73473
2.73315
2.72083
1.8828
1.94524
2.00764
2.06984
2.13138
2.19173
2.25023
2.30612
2.35849
2.40622
2.44797
2.48211
2.50699
2.52192
2.52802
1.78102
1.83659
1.89207
1.94721
2.00166
2.05497
2.10668
2.15623
2.20297
2.24617
2.28499
2.31842
2.34543
2.36615
2.38517
1.72364
1.77247
1.82088
1.86869
1.91566
1.96149
2.00589
2.04852
2.08901
2.12691
2.16169
2.19267
2.21917
2.24097
2.25845
1.67112
1.71585
1.76004
1.8035
1.84601
1.88734
1.92727
1.96554
2.00191
2.03608
2.0677
2.09639
2.12166
2.14323
2.16203
1.63058
1.67209
1.71293
1.75292
1.79188
1.82963
1.86596
1.90071
1.93369
1.96471
1.99357
2.02001
2.04361
2.06406
2.08454
1.59664
1.63567
1.67396
1.71132
1.74762
1.78264
1.81623
1.84828
1.87863
1.90716
1.93374
1.9582
1.98029
1.99966
2.01829
1.56814
1.6052
1.64148
1.67667
1.71091
1.74382
1.77528
1.80522
1.83345
1.85998
1.88467
1.90744
1.92815
1.94641
1.96332
1.54323
1.57877
1.61357
1.64685
1.67964
1.71117
1.74104
1.76942
1.79595
1.82097
1.84425
1.86573
1.88495
1.90189
1.91657
1.52552
1.55841
1.59158
1.62358
1.65541
1.68505
1.71226
1.73897
1.76379
1.78731
1.80939
1.82982
1.84782
1.86411
1.87857
1.51614
1.54476
1.57482
1.60546
1.63909
1.66313
1.68688
1.7121
1.73504
1.75648
1.77623
1.79165
1.80993
1.82852
1.84219
-0.828993
-0.822124
-0.76031
-0.636326
-0.463018
-0.265712
-0.0750425
0.0819106
0.189239
0.242581
0.24657
0.207153
0.128957
0.0022893
-0.000299643
-0.788549
-0.825621
-0.870312
-0.932788
-1.01985
-1.12699
-1.24286
-1.35494
-1.45272
-1.53051
-1.58733
-1.62754
-1.65294
-1.68666
-1.68728
-0.789789
-0.867257
-0.962274
-1.06913
-1.17783
-1.27598
-1.35526
-1.41349
-1.45284
-1.47807
-1.49472
-1.50992
-1.52372
-1.53774
-1.53992
-0.733417
-0.779113
-0.820196
-0.852917
-0.876385
-0.891246
-0.899629
-0.904179
-0.907041
-0.909973
-0.914427
-0.923335
-0.936456
-0.947846
-0.950376
-0.649778
-0.668326
-0.68138
-0.690381
-0.697307
-0.703294
-0.708622
-0.713163
-0.716817
-0.720044
-0.723822
-0.730329
-0.740576
-0.748639
-0.748492
-0.585585
-0.600756
-0.614974
-0.62889
-0.641968
-0.653618
-0.663318
-0.670911
-0.676647
-0.681373
-0.686393
-0.693606
-0.7041
-0.712273
-0.711304
-0.541907
-0.551451
-0.563644
-0.575872
-0.587026
-0.597017
-0.605939
-0.613965
-0.621359
-0.628633
-0.636701
-0.646821
-0.659542
-0.669418
-0.668621
-0.494334
-0.498819
-0.506029
-0.513891
-0.52197
-0.530692
-0.540221
-0.550539
-0.561552
-0.57327
-0.586066
-0.600584
-0.616754
-0.629127
-0.628938
-0.452229
-0.44828
-0.451686
-0.456773
-0.463653
-0.472971
-0.484909
-0.499366
-0.516028
-0.534519
-0.554819
-0.576786
-0.599138
-0.615883
-0.617166
-0.403128
-0.40079
-0.401823
-0.404318
-0.409384
-0.418241
-0.431614
-0.449887
-0.472615
-0.499218
-0.529534
-0.563589
-0.598725
-0.626422
-0.633633
-0.369575
-0.359212
-0.355824
-0.354023
-0.355393
-0.362055
-0.376057
-0.398928
-0.429913
-0.466677
-0.511047
-0.56356
-0.618132
-0.660238
-0.675242
-0.329406
-0.318516
-0.310832
-0.303109
-0.29654
-0.294911
-0.30094
-0.323266
-0.359233
-0.399861
-0.446041
-0.519173
-0.62278
-0.708838
-0.750126
-0.301926
-0.283219
-0.274739
-0.261534
-0.24896
-0.24302
-0.245473
-0.275306
-0.338951
-0.389986
-0.455251
-0.544849
-0.705202
-0.802645
-0.839299
-0.263133
-0.235971
-0.230648
-0.212138
-0.169659
-0.131061
-0.0593863
-0.065324
-0.153924
-0.173952
-0.112092
-0.143125
-0.608482
-0.898289
-0.927721
0.00628414
0.0167009
0.150924
0.236372
0.283689
0.287985
0.243078
0.144373
-0.0032648
-0.182808
-0.3659
-0.521795
-0.624438
-0.662137
-0.643368
-1.68395
-1.67864
-1.63994
-1.60964
-1.56317
-1.49844
-1.41091
-1.3016
-1.17644
-1.04627
-0.924117
-0.82197
-0.743469
-0.681291
-0.623887
-1.53636
-1.5277
-1.50745
-1.48785
-1.46608
-1.44176
-1.40754
-1.35781
-1.2878
-1.19554
-1.08369
-0.961111
-0.840033
-0.730259
-0.635825
-0.947112
-0.938131
-0.920563
-0.901617
-0.886313
-0.874648
-0.863551
-0.851596
-0.836987
-0.817591
-0.790788
-0.754419
-0.707751
-0.651849
-0.589818
-0.745405
-0.739256
-0.725173
-0.70923
-0.696566
-0.685901
-0.674965
-0.662818
-0.649013
-0.633656
-0.616816
-0.598075
-0.576209
-0.549379
-0.516132
-0.708315
-0.703043
-0.688877
-0.672689
-0.659363
-0.647543
-0.635276
-0.621288
-0.60476
-0.585435
-0.563452
-0.539291
-0.513546
-0.486848
-0.459036
-0.665711
-0.660291
-0.644429
-0.626
-0.609775
-0.594951
-0.580236
-0.564742
-0.547969
-0.529624
-0.509502
-0.487527
-0.463815
-0.439385
-0.416904
-0.6263
-0.620608
-0.602506
-0.580745
-0.560144
-0.540572
-0.521379
-0.502232
-0.483115
-0.464087
-0.445161
-0.426274
-0.407191
-0.388222
-0.371788
-0.614559
-0.6075
-0.585088
-0.557297
-0.52949
-0.502563
-0.47662
-0.451768
-0.428352
-0.406593
-0.386625
-0.368479
-0.351835
-0.336477
-0.324518
-0.633181
-0.62266
-0.590412
-0.55021
-0.51007
-0.472177
-0.437176
-0.405657
-0.377471
-0.352876
-0.332045
-0.314739
-0.300362
-0.288259
-0.279916
-0.674317
-0.653768
-0.601789
-0.543856
-0.48892
-0.437389
-0.392689
-0.353965
-0.321213
-0.295016
-0.274973
-0.260601
-0.250172
-0.242743
-0.239757
-0.780652
-0.741337
-0.634952
-0.540869
-0.461582
-0.391664
-0.337024
-0.29733
-0.260882
-0.233479
-0.216434
-0.206332
-0.201413
-0.199688
-0.200601
-0.891971
-0.789071
-0.563343
-0.488142
-0.423448
-0.323236
-0.277329
-0.230025
-0.180217
-0.16036
-0.148286
-0.149894
-0.151085
-0.157765
-0.165018
-1.38679
-1.19052
-0.575104
-0.522913
-0.37598
-0.216646
-0.174385
-0.189295
-0.125535
-0.101475
-0.103887
-0.105905
-0.113721
-0.128187
-0.146674
-8.80266
-8.1539
-7.56516
-6.94027
-6.26156
-5.52077
-4.73736
-3.93802
-3.15589
-2.428
-1.78922
-1.26417
-0.860576
-0.568264
-0.371388
-0.255763
-1.17411
-1.32018
-1.36171
-1.43684
-1.52121
-1.58257
-1.60789
-1.58736
-1.51206
-1.37912
-1.19627
-0.982089
-0.761364
-0.566115
-0.812536
-1.18403
-1.02666
-0.995227
-1.02492
-1.05136
-1.06352
-1.066
-1.05877
-1.03832
-0.999691
-0.937332
-0.847244
-0.730136
-0.603008
-2.16845
-2.17251
-1.91947
-1.85161
-1.79357
-1.71305
-1.61633
-1.50956
-1.39342
-1.26926
-1.14014
-1.00947
-0.879447
-0.749905
-0.62737
-2.0738
-1.78667
-1.62754
-1.60737
-1.56479
-1.50721
-1.44261
-1.37119
-1.29056
-1.19982
-1.09907
-0.989471
-0.873361
-0.753313
-0.637333
-1.16111
-0.865455
-0.875421
-0.897922
-0.897545
-0.89897
-0.90235
-0.902396
-0.895541
-0.87952
-0.852038
-0.81095
-0.754973
-0.68384
-0.602804
-0.608686
-0.518002
-0.570403
-0.575476
-0.580771
-0.596038
-0.6157
-0.634771
-0.650791
-0.661556
-0.664513
-0.656989
-0.636499
-0.600722
-0.550076
-0.558102
-0.553391
-0.570323
-0.558354
-0.557622
-0.56227
-0.56957
-0.577596
-0.584981
-0.590023
-0.590843
-0.585434
-0.571702
-0.547346
-0.509792
-0.581738
-0.588483
-0.584111
-0.573612
-0.570037
-0.566711
-0.565197
-0.564919
-0.564711
-0.563239
-0.559197
-0.551162
-0.537575
-0.516829
-0.486198
-0.582951
-0.583954
-0.574621
-0.566622
-0.560725
-0.554347
-0.549642
-0.546103
-0.542781
-0.538697
-0.532873
-0.524199
-0.511405
-0.493238
-0.466819
-0.578777
-0.57545
-0.56573
-0.556857
-0.549067
-0.541945
-0.535827
-0.53041
-0.525127
-0.519284
-0.512116
-0.502753
-0.490158
-0.473294
-0.449576
-0.570609
-0.565714
-0.556239
-0.546381
-0.538319
-0.53151
-0.524813
-0.518457
-0.51212
-0.505232
-0.497146
-0.487166
-0.474485
-0.458321
-0.436744
-0.556111
-0.551164
-0.542272
-0.532687
-0.525441
-0.51923
-0.512533
-0.506062
-0.499558
-0.4925
-0.484313
-0.474399
-0.462088
-0.446773
-0.426897
-0.539675
-0.535246
-0.527114
-0.518362
-0.511794
-0.505882
-0.499417
-0.493171
-0.486851
-0.479995
-0.472087
-0.462574
-0.450835
-0.436295
-0.417454
-0.526037
-0.522105
-0.514549
-0.506302
-0.499517
-0.493373
-0.487221
-0.481237
-0.475121
-0.468491
-0.460889
-0.451795
-0.440615
-0.426785
-0.408956
-0.515433
-0.511744
-0.504459
-0.49626
-0.488825
-0.482392
-0.476614
-0.470806
-0.464835
-0.458403
-0.451097
-0.442438
-0.431893
-0.418973
-0.402517
-0.505451
-0.501853
-0.494747
-0.48658
-0.478924
-0.472621
-0.467207
-0.461503
-0.455663
-0.44943
-0.442415
-0.43418
-0.424241
-0.412171
-0.396853
-0.494799
-0.491335
-0.484525
-0.476649
-0.469329
-0.463476
-0.458375
-0.452793
-0.447131
-0.441127
-0.43441
-0.426568
-0.41714
-0.405712
-0.39121
-0.484077
-0.480857
-0.474473
-0.4671
-0.460348
-0.454889
-0.449958
-0.444551
-0.439122
-0.433382
-0.426984
-0.419541
-0.410612
-0.399792
-0.386079
-0.474677
-0.47174
-0.465797
-0.458927
-0.452595
-0.447108
-0.442091
-0.43693
-0.431767
-0.426307
-0.420241
-0.413209
-0.404792
-0.39461
-0.381775
-0.467235
-0.464524
-0.458915
-0.452375
-0.446164
-0.4403
-0.435084
-0.430214
-0.42527
-0.420046
-0.414276
-0.407619
-0.39968
-0.390095
-0.3781
-0.461094
-0.458516
-0.453123
-0.446748
-0.440511
-0.434352
-0.429098
-0.424496
-0.419679
-0.414623
-0.409082
-0.40273
-0.395182
-0.386077
-0.374749
-0.455357
-0.452862
-0.44764
-0.441392
-0.43519
-0.429044
-0.423968
-0.419583
-0.414848
-0.409931
-0.404583
-0.398486
-0.391272
-0.382565
-0.37171
-0.449694
-0.447288
-0.442261
-0.4362
-0.430174
-0.424287
-0.419494
-0.415272
-0.41062
-0.405844
-0.400681
-0.394824
-0.387925
-0.379614
-0.368995
-0.444231
-0.441949
-0.437158
-0.431369
-0.425635
-0.420105
-0.415547
-0.411418
-0.40689
-0.402285
-0.397325
-0.391727
-0.385166
-0.377349
-0.367428
-0.439636
-0.4375
-0.432962
-0.427478
-0.42205
-0.416799
-0.412237
-0.408049
-0.403677
-0.399241
-0.394473
-0.389112
-0.382839
-0.37539
-0.365847
-0.436148
-0.434149
-0.429839
-0.424626
-0.419431
-0.4143
-0.409509
-0.405179
-0.401002
-0.396719
-0.392119
-0.386964
-0.380942
-0.373812
-0.364763
-0.433813
-0.431916
-0.427785
-0.422762
-0.417683
-0.412532
-0.407467
-0.403026
-0.399018
-0.394812
-0.390321
-0.385315
-0.379487
-0.372591
-0.36379
-0.43213
-0.430299
-0.426299
-0.421397
-0.416364
-0.411164
-0.405962
-0.401529
-0.39765
-0.393472
-0.389054
-0.384161
-0.378496
-0.371829
-0.363414
-0.43072
-0.428937
-0.425048
-0.420243
-0.415252
-0.410058
-0.404884
-0.400555
-0.396758
-0.392583
-0.388216
-0.383404
-0.377861
-0.371359
-0.363118
-0.429402
-0.427666
-0.423889
-0.419189
-0.414277
-0.40916
-0.404128
-0.399933
-0.396186
-0.392022
-0.387715
-0.383003
-0.377626
-0.3714
-0.364033
-0.427878
-0.426204
-0.422558
-0.418005
-0.413237
-0.408291
-0.403476
-0.399423
-0.395717
-0.391615
-0.387399
-0.382804
-0.37759
-0.371528
-0.364524
-0.426641
-0.425044
-0.421541
-0.417157
-0.412562
-0.407798
-0.403166
-0.399118
-0.395367
-0.391342
-0.387219
-0.382735
-0.377661
-0.371692
-0.365097
-0.425353
-0.423843
-0.42049
-0.416305
-0.411913
-0.407365
-0.402893
-0.39878
-0.394985
-0.39114
-0.387166
-0.382837
-0.377939
-0.372072
-0.365325
-0.424766
-0.423341
-0.420129
-0.416123
-0.411898
-0.407491
-0.40307
-0.398791
-0.39493
-0.391271
-0.387435
-0.383267
-0.378565
-0.372919
-0.366096
-0.424264
-0.422912
-0.419826
-0.415988
-0.411916
-0.407645
-0.403284
-0.398955
-0.39517
-0.391771
-0.388129
-0.384206
-0.379815
-0.374663
-0.368829
-0.424517
-0.423228
-0.420249
-0.416543
-0.412574
-0.408377
-0.404038
-0.399709
-0.396029
-0.392819
-0.389309
-0.385564
-0.381352
-0.37634
-0.37038
-0.425088
-0.423846
-0.42096
-0.417365
-0.413492
-0.40938
-0.405115
-0.400906
-0.397404
-0.394373
-0.39099
-0.387404
-0.383345
-0.378485
-0.373223
-0.426418
-0.425218
-0.422417
-0.418922
-0.415134
-0.411108
-0.406937
-0.402885
-0.399554
-0.396655
-0.393384
-0.389961
-0.386111
-0.381477
-0.376755
-0.428659
-0.427493
-0.42477
-0.421357
-0.417651
-0.413703
-0.409636
-0.405732
-0.402526
-0.399688
-0.396482
-0.393147
-0.389396
-0.384789
-0.379729
-0.43161
-0.430478
-0.427833
-0.424512
-0.420905
-0.417067
-0.413127
-0.409377
-0.406238
-0.403405
-0.400239
-0.396941
-0.393234
-0.388717
-0.383515
-0.43593
-0.434827
-0.432255
-0.429007
-0.42548
-0.421702
-0.417836
-0.414124
-0.410894
-0.407941
-0.404784
-0.401505
-0.397873
-0.39361
-0.389204
-0.440782
-0.439706
-0.437206
-0.434046
-0.430618
-0.426939
-0.423165
-0.419494
-0.41612
-0.413028
-0.409882
-0.40656
-0.402839
-0.398389
-0.393581
-0.446913
-0.445864
-0.443427
-0.440331
-0.436966
-0.433311
-0.429532
-0.425759
-0.422115
-0.418801
-0.4156
-0.412155
-0.408303
-0.403655
-0.399126
-0.453274
-0.452247
-0.44987
-0.446847
-0.443559
-0.439959
-0.436198
-0.432369
-0.42854
-0.425102
-0.421883
-0.418334
-0.41438
-0.409521
-0.404342
-0.460537
-0.459533
-0.457209
-0.454241
-0.450994
-0.447396
-0.443593
-0.43965
-0.43565
-0.432105
-0.428842
-0.425185
-0.421155
-0.416216
-0.410652
-0.467953
-0.466967
-0.464694
-0.461783
-0.458587
-0.455019
-0.451212
-0.447233
-0.443187
-0.439635
-0.436369
-0.432651
-0.428579
-0.423629
-0.417537
-0.475912
-0.474948
-0.472722
-0.469864
-0.466706
-0.463155
-0.459342
-0.455341
-0.451299
-0.447783
-0.444543
-0.440855
-0.436895
-0.432298
-0.426934
-0.484122
-0.483178
-0.481001
-0.478195
-0.475081
-0.471564
-0.467775
-0.4638
-0.459818
-0.456359
-0.453131
-0.449428
-0.445424
-0.440752
-0.434529
-0.492656
-0.491736
-0.489609
-0.486863
-0.4838
-0.480336
-0.476592
-0.472676
-0.46878
-0.465386
-0.462175
-0.458503
-0.454574
-0.450209
-0.445925
-0.501709
-0.500813
-0.498738
-0.496049
-0.493038
-0.489624
-0.48593
-0.48207
-0.478247
-0.474862
-0.471599
-0.467865
-0.463793
-0.458959
-0.452926
-0.511098
-0.510232
-0.508213
-0.505598
-0.50266
-0.499332
-0.495722
-0.491957
-0.488216
-0.484809
-0.481459
-0.477637
-0.473379
-0.468224
-0.461974
-0.521409
-0.520574
-0.518613
-0.516067
-0.513197
-0.509941
-0.506406
-0.502713
-0.499029
-0.49556
-0.492151
-0.488382
-0.484207
-0.479279
-0.473675
-0.532255
-0.531453
-0.529551
-0.527089
-0.52431
-0.521171
-0.517752
-0.514183
-0.510587
-0.507078
-0.503657
-0.500005
-0.495925
-0.491113
-0.485771
-0.544183
-0.543416
-0.541571
-0.539185
-0.536482
-0.533425
-0.53008
-0.526569
-0.522984
-0.51936
-0.51586
-0.512205
-0.507971
-0.502771
-0.496694
-0.556705
-0.555971
-0.554186
-0.55189
-0.549283
-0.546349
-0.543116
-0.539713
-0.536183
-0.532528
-0.529045
-0.525502
-0.521352
-0.51632
-0.512357
-0.570772
-0.57007
-0.568339
-0.566114
-0.563578
-0.560719
-0.557542
-0.554174
-0.550636
-0.546926
-0.543431
-0.539899
-0.535656
-0.530121
-0.524352
-0.586157
-0.585482
-0.5838
-0.581642
-0.579176
-0.576395
-0.573281
-0.569956
-0.566422
-0.562689
-0.559176
-0.555592
-0.551211
-0.545503
-0.540014
-0.603517
-0.602866
-0.60123
-0.59913
-0.596719
-0.59399
-0.590906
-0.587585
-0.584018
-0.580237
-0.576656
-0.572926
-0.568273
-0.562088
-0.555147
-0.623317
-0.62268
-0.621079
-0.619012
-0.616633
-0.613912
-0.61082
-0.60745
-0.603808
-0.599929
-0.596206
-0.592214
-0.58714
-0.580391
-0.572706
-0.645609
-0.644981
-0.643412
-0.641377
-0.639027
-0.63632
-0.633222
-0.62981
-0.626092
-0.622107
-0.618205
-0.613914
-0.60842
-0.60117
-0.593257
-0.671295
-0.670672
-0.669125
-0.667096
-0.664741
-0.66198
-0.658809
-0.655256
-0.651369
-0.647158
-0.64294
-0.638181
-0.632062
-0.62392
-0.614668
-0.699894
-0.699267
-0.69774
-0.695718
-0.693365
-0.690573
-0.687347
-0.683681
-0.679625
-0.675156
-0.670525
-0.665161
-0.658263
-0.649113
-0.638717
-0.732482
-0.731854
-0.73034
-0.728305
-0.725918
-0.723031
-0.719671
-0.715782
-0.711434
-0.706553
-0.701319
-0.695134
-0.687218
-0.67676
-0.664437
-0.768635
-0.768004
-0.766507
-0.764473
-0.762067
-0.759116
-0.755646
-0.751556
-0.746904
-0.741546
-0.735555
-0.728327
-0.719095
-0.706946
-0.692482
-0.809371
-0.808747
-0.807273
-0.805245
-0.802811
-0.79978
-0.79616
-0.791808
-0.786743
-0.780751
-0.773757
-0.765179
-0.754226
-0.739806
-0.72262
-0.855834
-0.855222
-0.853774
-0.851751
-0.849278
-0.846138
-0.842312
-0.837609
-0.831984
-0.825131
-0.816808
-0.806453
-0.79323
-0.775775
-0.75533
-0.908675
-0.908087
-0.906677
-0.904685
-0.902186
-0.898966
-0.894923
-0.889836
-0.883522
-0.875584
-0.86556
-0.852908
-0.836719
-0.81531
-0.790716
-0.973075
-0.97252
-0.971156
-0.969166
-0.966558
-0.963085
-0.958553
-0.952658
-0.945071
-0.935255
-0.922534
-0.906352
-0.885756
-0.858803
-0.828242
-1.04679
-1.04626
-1.04492
-1.04292
-1.04019
-1.03647
-1.03141
-1.0246
-1.01547
-1.00327
-0.987014
-0.966049
-0.939341
-0.904791
-0.865486
-1.15446
-1.15398
-1.15269
-1.15052
-1.14719
-1.14228
-1.1352
-1.12528
-1.11161
-1.09323
-1.06897
-1.03829
-1.00053
-0.954101
-0.902768
-1.25441
-1.25392
-1.25241
-1.24995
-1.24625
-1.24072
-1.23248
-1.22053
-1.20345
-1.17979
-1.14794
-1.1073
-1.05763
-0.998273
-0.932609
-1.53633
-1.53617
-1.53434
-1.52981
-1.52081
-1.50596
-1.48341
-1.45138
-1.40812
-1.35284
-1.28589
-1.20978
-1.12797
-1.04326
-0.960531
-1.52022
-1.51883
-1.51943
-1.51364
-1.50354
-1.48864
-1.46729
-1.43744
-1.39698
-1.34446
-1.27964
-1.20473
-1.12324
-1.03848
-0.955083
-3.0089
-3.08576
-3.02578
-2.94356
-2.8401
-2.70537
-2.53262
-2.32261
-2.08294
-1.82852
-1.57968
-1.35821
-1.17872
-1.0413
-0.938213
15.6739
15.0145
14.1777
13.3646
12.4917
11.5291
10.4971
9.42949
8.36372
7.34132
6.40336
5.58215
4.89309
4.33181
3.89229
6.74307
5.9093
5.9478
6.0632
6.10947
6.1101
6.08189
6.01249
5.88506
5.68791
5.41791
5.08342
4.70475
4.30909
3.93637
4.60612
4.29385
4.51219
4.57687
4.58382
4.59046
4.59859
4.59617
4.57648
4.53432
4.4628
4.3536
4.19978
3.99921
3.76938
3.99333
3.9882
4.20772
4.22867
4.23622
4.25115
4.2621
4.25903
4.23794
4.19564
4.12951
4.03782
3.91915
3.77104
3.5998
3.36439
3.6455
3.78289
3.78587
3.80779
3.83612
3.86092
3.8784
3.88563
3.8774
3.84785
3.79208
3.70717
3.59171
3.45097
3.44866
3.74918
3.73711
3.716
3.71604
3.71146
3.70075
3.68664
3.66917
3.64595
3.61342
3.56704
3.50187
3.41302
3.30004
3.60789
3.70337
3.64924
3.64371
3.63702
3.61823
3.59187
3.56122
3.52647
3.48697
3.44167
3.38871
3.32533
3.24746
3.15072
3.38838
3.39546
3.37747
3.38872
3.38726
3.37831
3.36408
3.34522
3.32129
3.29168
3.25542
3.2111
3.15698
3.09095
3.00896
3.10392
3.09867
3.10316
3.1135
3.11554
3.11594
3.11273
3.10551
3.09407
3.07791
3.05592
3.02653
2.98793
2.93878
2.87883
2.87876
2.87839
2.88763
2.89477
2.89903
2.9032
2.90432
2.90219
2.89675
2.88762
2.87393
2.85435
2.82716
2.79076
2.74547
2.69435
2.69768
2.70689
2.71441
2.72061
2.72594
2.72894
2.72949
2.72741
2.72229
2.71343
2.69971
2.67962
2.65139
2.61583
2.53394
2.53875
2.54791
2.55699
2.56413
2.56955
2.57362
2.57593
2.57616
2.57396
2.56871
2.55948
2.54489
2.52316
2.49571
2.39632
2.4014
2.41034
2.41981
2.42663
2.43174
2.43635
2.43958
2.44115
2.44082
2.43811
2.43229
2.42224
2.40638
2.38681
2.27747
2.28218
2.29049
2.29928
2.30532
2.31013
2.31489
2.31849
2.32072
2.32142
2.32025
2.31659
2.30953
2.29751
2.2818
2.17033
2.17446
2.18206
2.19007
2.19584
2.20072
2.20547
2.20917
2.21175
2.21306
2.21282
2.21051
2.20535
2.19588
2.18281
2.07027
2.074
2.08116
2.0889
2.09526
2.1006
2.10523
2.10902
2.1119
2.11372
2.11426
2.1131
2.10965
2.10286
2.09425
1.97714
1.98072
1.98771
1.99554
2.00256
2.00819
2.01264
2.01658
2.01975
2.02202
2.02321
2.02299
2.02088
2.01591
2.00999
1.89191
1.89543
1.90226
1.91005
1.91717
1.92265
1.92692
1.93098
1.93435
1.93691
1.93853
1.93894
1.93769
1.93375
1.92883
1.81425
1.81762
1.82415
1.83162
1.83835
1.84342
1.84752
1.85163
1.85508
1.85781
1.85973
1.86061
1.86009
1.85726
1.85398
1.74248
1.74559
1.75169
1.75866
1.76486
1.76965
1.77371
1.7778
1.78125
1.78408
1.78621
1.78748
1.7876
1.78575
1.7839
1.67451
1.67734
1.68303
1.68954
1.69541
1.70036
1.70462
1.7086
1.71201
1.71489
1.71718
1.71874
1.71937
1.71831
1.71751
1.60928
1.6119
1.6173
1.62354
1.62937
1.63477
1.6393
1.64313
1.64653
1.64946
1.65187
1.65365
1.65465
1.65418
1.65395
1.547
1.54952
1.55473
1.56086
1.56677
1.5725
1.57713
1.5808
1.58425
1.58725
1.58977
1.59173
1.59299
1.59294
1.59295
1.48819
1.49064
1.49571
1.50175
1.50766
1.51341
1.51791
1.52147
1.52498
1.52804
1.53066
1.53275
1.53423
1.53458
1.53528
1.43286
1.43523
1.44013
1.446
1.45177
1.45729
1.46156
1.46505
1.46859
1.47169
1.47438
1.47662
1.47832
1.47902
1.48126
1.38053
1.38279
1.38746
1.39308
1.39858
1.40378
1.40785
1.41131
1.41484
1.41795
1.42069
1.42305
1.42497
1.42599
1.4288
1.33033
1.33244
1.33687
1.34219
1.34739
1.35231
1.35639
1.35993
1.36339
1.36645
1.36918
1.37157
1.37357
1.37465
1.37755
1.28153
1.2835
1.2877
1.29275
1.29772
1.30251
1.30683
1.31054
1.31388
1.31688
1.3196
1.32201
1.32413
1.32541
1.32879
1.23392
1.23577
1.23979
1.24465
1.24949
1.2543
1.25891
1.26276
1.26597
1.26896
1.27169
1.27415
1.2764
1.27789
1.28145
1.18755
1.18933
1.19322
1.19795
1.20275
1.20763
1.21241
1.21628
1.21939
1.22241
1.22516
1.22766
1.22998
1.23159
1.23486
1.14269
1.14443
1.14821
1.15284
1.15761
1.16249
1.16727
1.17105
1.17408
1.17711
1.17986
1.18234
1.18461
1.18605
1.18808
1.09933
1.10102
1.10469
1.10923
1.11393
1.11875
1.1234
1.12704
1.13004
1.1331
1.13587
1.1384
1.14077
1.14252
1.14366
1.05749
1.05912
1.06268
1.06709
1.07167
1.07634
1.0808
1.08432
1.0873
1.09039
1.09321
1.09584
1.0984
1.10066
1.10194
1.01672
1.01829
1.02171
1.02597
1.03039
1.03489
1.03916
1.04263
1.04566
1.04874
1.05157
1.05423
1.05683
1.05934
1.05947
0.976824
0.97831
0.981593
0.985669
0.989905
0.994215
0.998333
1.00188
1.00498
1.00799
1.01075
1.01336
1.01584
1.01846
1.01846
0.937404
0.938815
0.941965
0.945874
0.949946
0.95412
0.958182
0.961922
0.965154
0.968066
0.9708
0.973406
0.975883
0.978661
0.979965
0.898486
0.899833
0.90287
0.906641
0.910591
0.914692
0.918773
0.922721
0.926045
0.928869
0.931601
0.934222
0.93671
0.939447
0.940467
0.860096
0.861395
0.864339
0.868004
0.871874
0.875949
0.880075
0.884153
0.887496
0.890247
0.892988
0.895599
0.898057
0.900672
0.90153
0.822248
0.823513
0.826383
0.829972
0.833795
0.837871
0.842035
0.84616
0.84948
0.852208
0.854997
0.857655
0.860212
0.863
0.863699
0.785161
0.786398
0.7892
0.792721
0.7965
0.800556
0.804712
0.808793
0.812052
0.814773
0.817617
0.820334
0.822991
0.826067
0.826737
0.748614
0.749824
0.752562
0.756021
0.759756
0.763783
0.767902
0.771904
0.775099
0.777831
0.780715
0.783465
0.786148
0.789322
0.79031
0.712931
0.714106
0.716767
0.720135
0.723783
0.727709
0.731716
0.735564
0.738667
0.741379
0.744254
0.746999
0.749667
0.752788
0.753849
0.677349
0.678488
0.681074
0.684358
0.687923
0.691763
0.695673
0.699415
0.702516
0.705277
0.708151
0.710912
0.713623
0.716818
0.717599
0.642233
0.643329
0.645832
0.649009
0.652459
0.656168
0.659945
0.663568
0.666715
0.669535
0.672369
0.67513
0.677895
0.681298
0.682375
0.60695
0.608002
0.610424
0.613497
0.616838
0.620433
0.624113
0.627684
0.630963
0.633871
0.636632
0.639356
0.642069
0.645469
0.646891
0.571646
0.572654
0.574995
0.57796
0.581186
0.584664
0.588255
0.591791
0.595194
0.598141
0.600788
0.603446
0.606043
0.6092
0.610669
0.535935
0.536905
0.539176
0.542048
0.545186
0.548584
0.552135
0.555687
0.55921
0.562191
0.564772
0.567441
0.570062
0.573228
0.574818
0.499824
0.500763
0.502972
0.50577
0.50884
0.512192
0.515736
0.51933
0.522942
0.52595
0.528528
0.531278
0.53403
0.537433
0.539493
0.463466
0.464377
0.466527
0.469252
0.472258
0.475558
0.479087
0.48269
0.486319
0.489313
0.491903
0.494736
0.497607
0.501216
0.50354
0.426361
0.427251
0.429356
0.432035
0.435007
0.438299
0.44184
0.445476
0.449114
0.45211
0.454742
0.457666
0.460661
0.464712
0.468616
0.389104
0.389971
0.392023
0.39464
0.397556
0.400794
0.404293
0.407884
0.41145
0.414388
0.417021
0.419967
0.422904
0.426549
0.432687
0.351057
0.351905
0.353911
0.356483
0.35936
0.362576
0.366057
0.369634
0.373157
0.376092
0.378782
0.381826
0.384927
0.388345
0.395649
0.312705
0.313531
0.315486
0.317996
0.320813
0.323967
0.327386
0.330899
0.334352
0.337291
0.340053
0.343184
0.346485
0.349728
0.356726
0.273376
0.274182
0.276093
0.27856
0.281338
0.284466
0.287858
0.29136
0.294807
0.297851
0.300773
0.304058
0.307703
0.311417
0.319342
0.23361
0.234389
0.236246
0.238645
0.24135
0.244401
0.247717
0.251155
0.254568
0.257727
0.260802
0.264178
0.268007
0.271815
0.279682
0.192672
0.193427
0.195233
0.197575
0.200222
0.20322
0.206487
0.209903
0.213338
0.216676
0.21993
0.223391
0.227404
0.231397
0.23874
0.150691
0.151425
0.153185
0.155473
0.158061
0.161007
0.164231
0.167642
0.171131
0.174686
0.178149
0.181759
0.186068
0.190584
0.19835
0.107383
0.108099
0.109819
0.11206
0.114605
0.117518
0.120731
0.12418
0.12778
0.131586
0.135299
0.139153
0.143887
0.149142
0.157752
0.0625223
0.0632242
0.06491
0.0671182
0.0696319
0.0725368
0.0757649
0.0792874
0.0830256
0.0870744
0.0910302
0.0951564
0.100311
0.106213
0.115525
0.016008
0.0166989
0.0183545
0.0205297
0.023017
0.0259083
0.029154
0.032743
0.0366118
0.0408571
0.0450309
0.0494401
0.0550189
0.0615648
0.0720169
-0.0328036
-0.0321194
-0.0304869
-0.028326
-0.0258417
-0.0229215
-0.0196169
-0.0159141
-0.0118825
-0.00742989
-0.00301504
0.00173424
0.00779085
0.0149698
0.0268197
-0.0835663
-0.0828961
-0.0812993
-0.0791854
-0.0767369
-0.0738479
-0.0705359
-0.066789
-0.0626483
-0.0580431
-0.053388
-0.0482544
-0.0416314
-0.0337719
-0.0202416
-0.137758
-0.137098
-0.135528
-0.133433
-0.130984
-0.128063
-0.124679
-0.120806
-0.11648
-0.111635
-0.106632
-0.100972
-0.0936044
-0.0849189
-0.0695732
-0.195143
-0.194502
-0.192972
-0.190926
-0.188507
-0.185602
-0.182187
-0.178234
-0.173742
-0.168644
-0.163206
-0.156867
-0.148495
-0.138628
-0.121597
-0.257237
-0.256621
-0.255133
-0.253126
-0.250719
-0.247795
-0.2443
-0.240196
-0.235439
-0.229941
-0.223852
-0.216533
-0.206725
-0.19488
-0.174929
-0.32472
-0.324132
-0.322695
-0.32074
-0.318354
-0.315418
-0.311838
-0.307554
-0.302465
-0.296434
-0.289465
-0.28085
-0.269234
-0.255002
-0.232035
-0.399627
-0.399068
-0.397679
-0.395762
-0.393369
-0.390371
-0.386623
-0.382035
-0.376425
-0.369584
-0.361336
-0.350917
-0.336884
-0.319488
-0.292604
-0.483416
-0.482885
-0.481541
-0.479643
-0.477211
-0.474082
-0.470066
-0.465004
-0.458619
-0.450576
-0.44048
-0.427497
-0.410077
-0.388271
-0.355913
-0.580452
-0.579946
-0.578646
-0.576743
-0.574194
-0.570791
-0.566252
-0.560317
-0.552558
-0.542466
-0.52938
-0.512419
-0.489965
-0.461892
-0.422268
-0.690164
-0.689672
-0.688366
-0.686378
-0.68362
-0.679796
-0.67453
-0.66739
-0.657753
-0.644834
-0.627631
-0.605151
-0.575686
-0.538893
-0.486925
-0.835343
-0.834863
-0.833594
-0.831388
-0.827967
-0.822851
-0.81542
-0.804944
-0.790472
-0.770916
-0.745048
-0.712059
-0.670712
-0.621797
-0.55649
-0.976606
-0.976112
-0.974595
-0.972035
-0.968136
-0.962192
-0.953316
-0.94037
-0.921916
-0.896304
-0.861848
-0.817759
-0.76324
-0.700752
-0.623173
-1.30228
-1.30204
-1.30012
-1.29536
-1.28595
-1.27036
-1.24673
-1.21304
-1.1675
-1.10908
-1.03804
-0.956783
-0.868059
-0.777463
-0.68248
-1.33793
-1.33664
-1.33728
-1.33124
-1.32055
-1.30452
-1.28136
-1.24875
-1.20442
-1.14669
-1.07519
-0.992154
-0.900375
-0.805083
-0.709721
-2.88501
-2.96147
-2.90093
-2.81779
-2.71234
-2.57417
-2.39633
-2.17946
-1.93139
-1.66742
-1.4084
-1.17691
-0.986466
-0.836362
-0.717651
0.331594
1.22795
-0.370145
-0.064329
0.102959
-0.53732
0.12773
1.93355
0.551929
0.331055
0.12208
1.24673
0.48176
-0.0976935
0.0191572
1.47577
-0.154065
-2.17382
-0.299208
0.270105
1.18428
0.504701
1.54845
0.826742
0.760426
2.35949
1.85955
0.00545514
1.17666
-0.159445
-6.70528
0.363132
-0.548922
-0.258716
1.72481
1.42991
0.463081
-0.875414
0.913752
1.9315
0.884239
-0.341377
0.716373
1.02549
0.751655
0.219943
0.736983
0.607822
-0.385794
1.78041
1.00138
0.156216
0.0175951
2.70107
0.878868
3.49633
0.677622
-0.766735
0.693197
0.74435
1.68799
-1.15796
0.282025
-0.234512
1.47978
1.38029
0.142552
4.75502
0.416257
1.9967
1.19896
0.532598
0.330351
-0.354811
1.02216
0.363777
0.471636
1.05195
-0.322284
1.763
1.41573
0.68324
0.700013
-0.192313
3.47868
0.100075
0.858713
0.461033
-0.336293
2.1729
0.464495
0.488093
-0.121889
1.07713
0.0720496
1.00154
0.519526
1.52734
0.0784723
0.68863
1.90732
1.20795
1.14604
0.41844
-0.304077