/*--------------------------------*- C++ -*----------------------------------*\
| =========                 |                                                 |
| \\      /  F ield         | OpenFOAM: The Open Source CFD Toolbox           |
|  \\    /   O peration     | Version:  2.3.0                                 |
|   \\  /    A nd           | Web:      www.OpenFOAM.org                      |
|    \\/     M anipulation  |                                                 |
\*---------------------------------------------------------------------------*/
FoamFile
{
    version     2.0;
    format      ascii;
    class       volScalarField;
    location    "2000";
    object      nut;
}
// * * * * * * * * * * * * * * * * * * * * * * * * * * * * * * * * * * * * * //

dimensions      [0 2 -1 0 0 0 0];

internalField   nonuniform List<scalar> 
37387
(
0.0673742
0.0656493
0.0639268
0.0622043
0.0604816
0.058759
0.0570371
0.0553165
0.0535981
0.0518829
0.0501719
0.0484661
0.0467671
0.045076
0.0433943
0.0417235
0.0400649
0.03842
0.0367907
0.0351788
0.0335864
0.0320156
0.0304694
0.0289509
0.0274657
0.0260204
0.0246228
0.0232814
0.0220035
0.0207982
0.0196765
0.0186292
0.0176051
0.0165737
0.0155316
0.0144816
0.0134228
0.0123493
0.0112503
0.0101093
0.00890962
0.00767024
0.00664847
0.0686866
0.0671725
0.0656573
0.0641422
0.0626279
0.0611142
0.0596015
0.05809
0.0565802
0.0550725
0.0535676
0.0520663
0.050569
0.0490768
0.0475906
0.046111
0.0446394
0.0431769
0.0417247
0.0402841
0.0388561
0.0374424
0.0360448
0.034664
0.0333025
0.031962
0.0306454
0.0293559
0.0280961
0.0268708
0.0256847
0.0245425
0.0234481
0.0224072
0.0214265
0.0205174
0.0196917
0.0189656
0.0183554
0.0178774
0.0175485
0.0173849
0.0174026
0.0699015
0.0685618
0.0672209
0.0658798
0.0645391
0.0631988
0.061859
0.0605196
0.0591808
0.0578425
0.0565055
0.0551701
0.0538366
0.0525053
0.0511771
0.0498524
0.0485321
0.047217
0.0459082
0.0446073
0.0433153
0.0420336
0.0407642
0.0395086
0.0382691
0.0370477
0.0358464
0.0346691
0.0335194
0.0324006
0.0313173
0.0302752
0.0292811
0.0283427
0.0274686
0.0266686
0.0259532
0.0253352
0.0248269
0.0244406
0.0241856
0.0240687
0.0240943
0.0710197
0.069828
0.0686345
0.0674407
0.0662468
0.0650527
0.0638578
0.0626619
0.0614652
0.0602673
0.0590689
0.0578702
0.0566711
0.0554725
0.0542741
0.0530765
0.0518803
0.0506863
0.049495
0.0483077
0.0471258
0.0459509
0.0447851
0.0436298
0.042487
0.0413601
0.0402513
0.0391631
0.0381003
0.0370668
0.0360666
0.0351061
0.0341915
0.0333297
0.0325295
0.0318
0.0311503
0.0305916
0.0301335
0.0297856
0.0295557
0.0294485
0.0294667
0.0720449
0.0709791
0.0699115
0.0688432
0.0677742
0.0667037
0.0656308
0.0645556
0.0634779
0.0623972
0.0613139
0.0602282
0.0591404
0.0580509
0.05696
0.0558673
0.0547736
0.0536794
0.0525854
0.0514921
0.0504007
0.049313
0.0482309
0.0471563
0.0460916
0.0450397
0.0440032
0.0429855
0.0419906
0.0410224
0.0400859
0.0391868
0.0383312
0.0375259
0.036778
0.0360966
0.0354909
0.0349697
0.0345421
0.0342163
0.0339991
0.0338947
0.0339052
0.0729808
0.0720235
0.0710638
0.0701026
0.0691401
0.0681746
0.0672054
0.0662322
0.0652549
0.0642727
0.0632854
0.0622937
0.0612981
0.0602991
0.0592967
0.0582906
0.0572817
0.0562703
0.0552571
0.0542424
0.0532266
0.0522112
0.0511981
0.0501895
0.0491879
0.0481968
0.0472186
0.0462569
0.0453152
0.044398
0.0435105
0.0426585
0.0418475
0.0410844
0.0403759
0.0397293
0.0391542
0.0386583
0.0382504
0.0379384
0.0377278
0.0376237
0.0376273
0.0738344
0.0729702
0.0721025
0.0712329
0.0703613
0.0694863
0.0686052
0.067718
0.066826
0.0659275
0.0650214
0.0641085
0.0631894
0.0622653
0.0613365
0.0604026
0.0594634
0.0585203
0.0575747
0.056626
0.055674
0.05472
0.0537651
0.0528115
0.0518618
0.0509194
0.0499899
0.049074
0.0481747
0.0472969
0.0464471
0.0456317
0.0448563
0.0441263
0.043448
0.0428282
0.0422752
0.0417968
0.0414023
0.041099
0.0408927
0.0407881
0.0407861
0.0746117
0.0738277
0.0730386
0.0722466
0.0714528
0.0706562
0.0698518
0.0690356
0.0682162
0.0673904
0.0665534
0.0657072
0.0648525
0.0639894
0.0631222
0.0622494
0.0613683
0.0604801
0.0595907
0.0586981
0.0578008
0.0568979
0.0559964
0.0550864
0.0541837
0.0532774
0.0523883
0.0515114
0.0506496
0.0498035
0.048981
0.0481937
0.0474459
0.0467424
0.0460884
0.0454906
0.0449557
0.04449
0.0441045
0.0438066
0.0436028
0.0434977
0.0434923
0.0753251
0.0746102
0.0738852
0.073157
0.072425
0.0716939
0.0709627
0.0702015
0.069443
0.0686829
0.0679046
0.0671139
0.0663175
0.0655002
0.0646814
0.0638595
0.0630327
0.0621847
0.0613391
0.0604916
0.0596472
0.0587775
0.0579443
0.0570544
0.0562132
0.0553209
0.0544683
0.0536209
0.0527936
0.0519817
0.0511753
0.0504072
0.0496782
0.0489934
0.0483603
0.047782
0.0472664
0.0468108
0.0464331
0.0461399
0.0459387
0.0458343
0.0458285
0.00742719
0.00934325
0.0105248
0.0116713
0.0128778
0.0141457
0.0154642
0.0168198
0.018202
0.0196032
0.0210195
0.0224462
0.0238813
0.0253236
0.0267711
0.0282241
0.0296817
0.0311435
0.032609
0.0340789
0.0355524
0.0370296
0.0385101
0.0399945
0.0414817
0.0429727
0.0444665
0.0459635
0.0474631
0.0489652
0.0504695
0.0519758
0.0534839
0.0549933
0.0565037
0.0580147
0.0595257
0.0610363
0.0625458
0.0640537
0.0655592
0.0670612
0.0685612
0.0176082
0.0180022
0.0185676
0.0192875
0.0201409
0.0211042
0.0221561
0.023278
0.024454
0.0256729
0.0269231
0.0281977
0.0294906
0.0307971
0.0321148
0.0334402
0.0347717
0.0361069
0.0374461
0.038788
0.0401315
0.041476
0.0428219
0.0441684
0.0455157
0.0468633
0.0482115
0.0495595
0.0509074
0.0522554
0.0536034
0.054951
0.0562984
0.0576452
0.0589915
0.0603371
0.0616817
0.0630251
0.0643669
0.0657071
0.0670452
0.0683812
0.0697193
0.0242602
0.0245675
0.0250152
0.0255949
0.0262936
0.0270949
0.027985
0.028948
0.0299716
0.0310435
0.0321537
0.0332947
0.0344589
0.0356416
0.0368381
0.0380453
0.0392592
0.0404791
0.0417025
0.0429279
0.0441547
0.0453818
0.0466083
0.0478345
0.0490598
0.0502832
0.051505
0.0527251
0.0539432
0.0551593
0.0563734
0.0575856
0.0587957
0.0600039
0.0612102
0.0624146
0.0636169
0.064817
0.0660149
0.0672105
0.0684036
0.0695943
0.0707859
0.029608
0.0298723
0.0302587
0.0307617
0.0313713
0.0320762
0.0328645
0.033724
0.034643
0.0356109
0.0366191
0.0376595
0.0387248
0.0398102
0.0409109
0.042022
0.043141
0.0442654
0.0453928
0.0465221
0.0476517
0.0487803
0.0499077
0.0510333
0.052156
0.0532751
0.054391
0.0555034
0.056612
0.0577169
0.0588182
0.0599159
0.0610101
0.0621008
0.0631882
0.0642723
0.0653531
0.0664307
0.0675049
0.0685759
0.0696431
0.0707065
0.0717665
0.0340284
0.0342639
0.0346112
0.0350649
0.035617
0.0362573
0.0369763
0.0377629
0.0386071
0.0394991
0.040431
0.0413947
0.0423837
0.0433927
0.0444166
0.0454513
0.0464931
0.0475393
0.0485883
0.0496383
0.0506875
0.0517353
0.0527806
0.0538221
0.054859
0.0558912
0.0569186
0.0579407
0.0589574
0.0599689
0.0609753
0.0619766
0.062973
0.0639642
0.0649506
0.0659324
0.0669098
0.0678826
0.0688508
0.0698143
0.070773
0.0717268
0.0726784
0.0377368
0.0379518
0.038271
0.0386893
0.0392
0.0397949
0.0404637
0.0411966
0.0419848
0.0428196
0.0436931
0.0445975
0.045527
0.0464758
0.0474388
0.0484113
0.0493902
0.0503728
0.0513573
0.0523422
0.0533261
0.0543073
0.0552843
0.0562557
0.0572212
0.0581806
0.0591337
0.0600803
0.0610197
0.0619527
0.0628793
0.0637995
0.0647132
0.0656201
0.0665206
0.0674153
0.0683045
0.069188
0.0700652
0.0709361
0.0718007
0.072659
0.0735124
0.0408856
0.0410851
0.0413828
0.0417736
0.0422533
0.0428144
0.0434454
0.0441368
0.0448818
0.0456716
0.0464988
0.0473569
0.0482399
0.0491406
0.0500539
0.0509754
0.0519021
0.0528319
0.0537631
0.0546952
0.055625
0.0565512
0.0574716
0.0583841
0.059289
0.0601873
0.0610785
0.0619612
0.0628355
0.0637024
0.0645617
0.0654137
0.0662575
0.0670921
0.0679192
0.06874
0.0695542
0.0703614
0.0711602
0.071951
0.0727343
0.0735094
0.0742777
0.0435857
0.043772
0.0440535
0.0444195
0.0448765
0.0454129
0.0460136
0.0466694
0.0473812
0.0481343
0.0489249
0.0497463
0.0505932
0.0514534
0.052326
0.0532046
0.0540869
0.0549724
0.0558603
0.0567499
0.0576339
0.0585163
0.059388
0.0602483
0.0611016
0.0619505
0.0627897
0.0636177
0.0644364
0.0652481
0.0660502
0.0668459
0.0676291
0.0684008
0.0691652
0.0699241
0.0706744
0.0714168
0.0721472
0.0728684
0.0735821
0.0742851
0.074978
0.0459197
0.0460912
0.0463665
0.046702
0.0471467
0.0476648
0.0482375
0.0488572
0.0495496
0.0502682
0.0510317
0.0518228
0.0526433
0.0534639
0.0543048
0.055142
0.0559867
0.0568354
0.0576896
0.0585507
0.0593886
0.0602386
0.0610602
0.0618745
0.0626881
0.0635009
0.064292
0.0650719
0.0658446
0.066614
0.0673646
0.0681161
0.0688419
0.06956
0.070275
0.0709852
0.071678
0.0723652
0.0730331
0.0736959
0.0743536
0.0749971
0.0756238
0.0423489
0.0410666
0.0397756
0.0384766
0.0371698
0.0358554
0.0345337
0.0332043
0.0318669
0.0305212
0.0291672
0.0278049
0.0264352
0.0250596
0.0236815
0.0223055
0.0209389
0.0195915
0.0182752
0.0170024
0.0157833
0.0146238
0.0135242
0.012482
0.0114946
0.0105588
0.0096721
0.00883173
0.00803612
0.007283
0.00657061
0.00589697
0.00526182
0.00466341
0.00410151
0.00357647
0.00308891
0.00264379
0.00224753
0.0019299
0.00165509
0.00133493
0.000887311
0.0425386
0.0413676
0.040188
0.0390002
0.0378046
0.0366011
0.0353896
0.0341698
0.032941
0.0317028
0.0304545
0.0291957
0.0279261
0.0266462
0.025357
0.0240607
0.0227613
0.0214653
0.0201815
0.0189212
0.0176972
0.0165194
0.0153927
0.0143175
0.0132933
0.0123178
0.0113888
0.0105054
0.00966545
0.008868
0.00811122
0.00739602
0.00672185
0.00609051
0.00550559
0.00497378
0.00450285
0.00411416
0.00374428
0.00334373
0.00288489
0.00232185
0.00156296
0.0427274
0.04166
0.0405834
0.0394983
0.0384046
0.0373023
0.0361911
0.0350705
0.03394
0.0327989
0.0316462
0.0304814
0.0293037
0.0281125
0.0269081
0.0256912
0.0244632
0.0232275
0.0219892
0.0207566
0.0195396
0.0183513
0.0172022
0.0160981
0.0150411
0.0140302
0.0130649
0.0121435
0.0112654
0.0104299
0.00963811
0.00889086
0.00819167
0.00754649
0.00696111
0.00644428
0.00601076
0.00556944
0.00509203
0.00455011
0.00390898
0.00311538
0.00209569
0.0429109
0.0419369
0.0409528
0.0399591
0.0389559
0.037943
0.03692
0.0358866
0.0348423
0.033786
0.0327169
0.0316342
0.0305368
0.029424
0.0282953
0.0271501
0.0259892
0.0248135
0.0236258
0.0224302
0.0212341
0.0200484
0.0188851
0.0177565
0.0166701
0.0156278
0.0146292
0.0136738
0.0127615
0.0118939
0.0110725
0.0103017
0.00958836
0.00893942
0.00836297
0.00786491
0.00736292
0.00682866
0.00623631
0.00555652
0.00475037
0.0037589
0.00252603
0.043088
0.0421971
0.0412951
0.0403825
0.0394591
0.0385248
0.0375793
0.0366221
0.0356527
0.0346703
0.0336737
0.032662
0.031634
0.0305889
0.0295254
0.028443
0.0273413
0.0262203
0.0250809
0.0239253
0.0227576
0.0215849
0.0204185
0.0192729
0.018162
0.0170916
0.0160634
0.0150777
0.0141357
0.0132397
0.0123938
0.0116055
0.0108827
0.0102328
0.00966993
0.00911625
0.00853894
0.00791413
0.00721485
0.00640939
0.00545615
0.00429319
0.0028773
0.0432563
0.0424388
0.0416098
0.0407691
0.0399162
0.0390509
0.038173
0.0372822
0.036378
0.0354598
0.0345263
0.0335762
0.0326083
0.0316208
0.0306133
0.0295846
0.0285341
0.0274607
0.0263649
0.0252469
0.0241087
0.0229554
0.0217949
0.0206412
0.0195111
0.0184173
0.0173638
0.0163517
0.0153835
0.0144628
0.0135966
0.0127942
0.0120648
0.0114215
0.0108221
0.0102112
0.0095638
0.00885608
0.00805995
0.00714211
0.00605758
0.00474259
0.00316591
0.0434116
0.0426607
0.0418971
0.0411202
0.0403297
0.0395251
0.0387061
0.0378727
0.0370248
0.0361622
0.0352837
0.0343881
0.0334725
0.032535
0.0315751
0.0305923
0.0295851
0.0285529
0.0274946
0.0264101
0.0253003
0.024168
0.0230189
0.0218636
0.020721
0.0196092
0.0185342
0.0174991
0.016508
0.0155669
0.0146837
0.0138685
0.0131293
0.0124795
0.0118382
0.0111736
0.0104622
0.00967927
0.00879581
0.00777671
0.00657443
0.0051237
0.00340301
0.0435522
0.0428629
0.0421573
0.0414371
0.0407023
0.0399516
0.0391834
0.0383992
0.0375992
0.0367843
0.0359541
0.0351071
0.0342397
0.0333467
0.0324264
0.031482
0.0305127
0.0295148
0.0284882
0.0274334
0.0263491
0.0252364
0.0241005
0.0229495
0.0218006
0.0206758
0.019584
0.018529
0.0175177
0.0165583
0.0156617
0.0148381
0.0140952
0.0134189
0.0127368
0.0120231
0.0112543
0.010404
0.00944141
0.00833042
0.00702114
0.00544763
0.00359967
0.0436873
0.0430473
0.0423915
0.0417206
0.0410364
0.0403358
0.0396111
0.0388684
0.0381072
0.0373319
0.0365428
0.0357397
0.0349205
0.0340727
0.0331823
0.0322665
0.0313331
0.0303653
0.0293626
0.0283336
0.0272733
0.0261765
0.0250529
0.0239097
0.0227595
0.021628
0.020526
0.0194527
0.0184214
0.0174443
0.0165361
0.0157077
0.0149676
0.0142564
0.0135342
0.012775
0.011955
0.0110467
0.0100139
0.00881773
0.00740882
0.00571789
0.00371951
0.000475267
0.000495475
0.000682768
0.000860688
0.00102968
0.00119282
0.00135395
0.00151899
0.00169606
0.00189579
0.00212694
0.00238962
0.00268219
0.00300188
0.00334728
0.00371711
0.00411131
0.00452992
0.00497289
0.00544115
0.00593512
0.00645524
0.00700184
0.0075756
0.00817681
0.00880638
0.00946507
0.0101533
0.010872
0.011622
0.012404
0.0132191
0.0140682
0.014952
0.0158716
0.0168276
0.0178215
0.018854
0.0199261
0.0210385
0.0221924
0.0233891
0.0246318
0.000784735
0.000663986
0.000842265
0.00102887
0.00120928
0.00138856
0.00157413
0.00177451
0.00199806
0.00225152
0.00254013
0.00285851
0.00320224
0.00356928
0.00395845
0.00436934
0.00480177
0.00525575
0.00573148
0.00622903
0.00674903
0.00729153
0.00785675
0.0084451
0.00905693
0.00969258
0.010353
0.0110384
0.0117497
0.0124873
0.013252
0.0140444
0.0148654
0.0157158
0.0165961
0.0175071
0.0184499
0.0194252
0.0204337
0.0214764
0.0225542
0.0236689
0.0248236
0.0010813
0.000821381
0.000990846
0.00118932
0.00138763
0.00159307
0.00181489
0.00206063
0.00233514
0.00264115
0.00298163
0.00334856
0.00373728
0.00414638
0.00457531
0.0050235
0.00549066
0.00597689
0.00648187
0.00700594
0.00754902
0.00811129
0.00869259
0.00929333
0.00991365
0.0105541
0.0112149
0.0118966
0.0125996
0.0133244
0.0140715
0.0148414
0.0156348
0.0164522
0.0172941
0.0181614
0.0190545
0.0199743
0.0209213
0.0218965
0.0229009
0.0239363
0.0250062
0.00133083
0.000961581
0.00112664
0.00134144
0.00156413
0.00180341
0.00206718
0.00235989
0.00268263
0.00303653
0.00342269
0.00383126
0.00425946
0.00470597
0.00516993
0.00565107
0.00614899
0.00666348
0.00719427
0.00774118
0.00830411
0.008883
0.00947788
0.0100888
0.0107158
0.0113592
0.0120194
0.0126964
0.0133909
0.0141028
0.0148328
0.0155813
0.0163485
0.017135
0.017941
0.0187674
0.0196145
0.0204827
0.0213729
0.0222856
0.0232214
0.0241803
0.0251592
0.00153284
0.0010852
0.00125227
0.00148785
0.00174005
0.00201674
0.00232309
0.00265995
0.00302627
0.0034236
0.00384939
0.00429505
0.00475817
0.00523766
0.00573284
0.00624319
0.00676837
0.00730785
0.00786103
0.00842774
0.00900776
0.00960071
0.0102067
0.0108259
0.0114581
0.0121035
0.0127622
0.0134344
0.0141202
0.0148199
0.0155335
0.0162616
0.0170046
0.0177624
0.0185354
0.019324
0.0201288
0.0209499
0.0217877
0.0226428
0.023515
0.0244045
0.025311
0.00169508
0.0011942
0.00137014
0.00163005
0.00191456
0.00222927
0.00257594
0.00295266
0.00335797
0.0037951
0.00425566
0.00473402
0.00522826
0.00573741
0.00626053
0.00679689
0.00734608
0.0079075
0.00848026
0.00906404
0.00965887
0.0102642
0.0108799
0.0115058
0.0121421
0.0127887
0.0134454
0.0141124
0.01479
0.015478
0.0161764
0.0168856
0.0176059
0.0183372
0.0190798
0.0198339
0.0205999
0.0213777
0.0221675
0.0229696
0.0237839
0.0246098
0.0254457
0.00182507
0.00129229
0.00148367
0.00177022
0.00208749
0.00243843
0.00282162
0.00323394
0.0036749
0.00414658
0.0046382
0.00514588
0.00566827
0.00620378
0.00675192
0.00731175
0.00788236
0.00846313
0.00905332
0.00965239
0.0102602
0.0108762
0.0115002
0.012132
0.0127713
0.0134182
0.0140728
0.0147347
0.0154042
0.0160812
0.0167655
0.0174573
0.0181565
0.0188635
0.0195782
0.0203007
0.021031
0.0217691
0.0225148
0.0232684
0.0240296
0.0247977
0.0255712
0.00193741
0.00138009
0.00158573
0.0018985
0.00224716
0.00263281
0.00305023
0.0034961
0.00397101
0.00447355
0.00499347
0.00552892
0.00607786
0.00663834
0.00720936
0.00779049
0.0083814
0.00898065
0.00958653
0.0101992
0.0108187
0.0114442
0.0120749
0.0127107
0.0133517
0.0139981
0.0146497
0.0153064
0.0159679
0.0166345
0.0173054
0.0179809
0.0186608
0.0193453
0.0200344
0.0207284
0.0214261
0.0221272
0.0228324
0.0235414
0.0242541
0.02497
0.0256887
0.00197423
0.00146022
0.00171361
0.00206289
0.00245345
0.00286808
0.00331635
0.00378832
0.00429248
0.00481731
0.00536909
0.00593558
0.00650586
0.00708479
0.00766864
0.008271
0.00888624
0.00950014
0.0101118
0.0107339
0.0113634
0.0119931
0.0126229
0.0132566
0.0138942
0.0145374
0.0151845
0.0158343
0.016488
0.0171451
0.0178028
0.0184617
0.0191234
0.0197871
0.0204537
0.0211234
0.0217903
0.0224555
0.0231228
0.023791
0.0244595
0.0251273
0.025794
0.000372189
0.00145136
0.00300215
0.00453372
0.00601416
0.00743874
0.00880916
0.0101283
0.0113993
0.0126256
0.0138117
0.0149652
0.0161002
0.017237
0.0183856
0.0195398
0.0207004
0.0219754
0.0233779
0.0248779
0.0264491
0.0280738
0.029741
0.0314416
0.0331696
0.0349209
0.0366918
0.0384792
0.0402806
0.0420939
0.0439173
0.0457492
0.0475879
0.0494316
0.0512792
0.0531291
0.0549805
0.0568322
0.0586834
0.0605334
0.0623819
0.0642295
0.0660791
0.00035417
0.0011258
0.00254293
0.00388531
0.00511038
0.00627921
0.00742744
0.00856567
0.00969727
0.0108229
0.0119422
0.0130554
0.0141648
0.0152744
0.016389
0.0175139
0.0186613
0.0198649
0.0211409
0.0224765
0.0238578
0.0253728
0.0270065
0.0287216
0.0304941
0.0323082
0.0341533
0.036022
0.0379086
0.0398088
0.0417199
0.0436394
0.0455645
0.0474936
0.0494251
0.051357
0.0532885
0.0552183
0.0571458
0.0590698
0.0609902
0.0629066
0.0648182
0.000259329
0.000841681
0.00191876
0.00330359
0.00475188
0.00607074
0.00726942
0.0083807
0.00943052
0.0104397
0.0114253
0.012401
0.0133774
0.0143631
0.0153659
0.0163939
0.0174577
0.0185692
0.019739
0.0209716
0.0222696
0.0236507
0.0251059
0.02664
0.0283199
0.0301041
0.0319588
0.0338614
0.0357967
0.0377551
0.0397296
0.0417153
0.0437081
0.0457055
0.0477049
0.0497043
0.051702
0.053697
0.0556878
0.0576739
0.0596541
0.0616278
0.0635926
0.000286232
0.000779607
0.001756
0.00300126
0.00445205
0.00588346
0.00721329
0.00843684
0.0095631
0.0106041
0.0115749
0.0124927
0.0133761
0.0142439
0.0151138
0.016003
0.0169272
0.0179004
0.0189349
0.0200405
0.0212241
0.0224889
0.0238332
0.0252575
0.0267679
0.0283642
0.0301134
0.0319724
0.0339042
0.0358832
0.0378935
0.0399245
0.0419684
0.04402
0.0460756
0.0481322
0.0501872
0.052239
0.0542862
0.0563277
0.0583622
0.0603883
0.0624035
0.000279132
0.000739706
0.00165989
0.00282299
0.00421616
0.00570261
0.00713395
0.00846642
0.00969685
0.0108304
0.0118731
0.0128333
0.0137228
0.0145577
0.0153574
0.016144
0.0169403
0.0177688
0.01865
0.0196013
0.020636
0.0217612
0.0229799
0.0242906
0.0256892
0.0271727
0.0287489
0.0304369
0.0322757
0.0342167
0.0362232
0.0382713
0.0403457
0.0424358
0.0445349
0.0466379
0.0487415
0.0508426
0.0529395
0.0550305
0.0571142
0.0591894
0.0612583
0.000284187
0.000720953
0.00160977
0.00272455
0.00406193
0.005556
0.00705652
0.00848071
0.00980717
0.0110343
0.0121647
0.0132018
0.014151
0.0150206
0.0158236
0.0165774
0.0173044
0.0180298
0.0187806
0.0195826
0.0204584
0.0214251
0.0224933
0.0236667
0.0249434
0.0263182
0.0277849
0.029342
0.0309963
0.032809
0.0347503
0.0367747
0.0388511
0.0409594
0.0430868
0.0452245
0.0473668
0.0495092
0.0516487
0.053783
0.0559101
0.0580288
0.0601365
0.000283603
0.000705352
0.00157139
0.00265253
0.00394623
0.00542402
0.00696884
0.00847105
0.00988526
0.0112012
0.0124184
0.0135383
0.0145633
0.0154969
0.0163458
0.0171208
0.0178379
0.0185187
0.0191892
0.0198787
0.0206166
0.0214297
0.0223389
0.0233579
0.0244918
0.0257394
0.0270937
0.0285465
0.0300918
0.0317399
0.033527
0.0354654
0.0375028
0.0396017
0.0417381
0.0438964
0.0460662
0.0482408
0.0504155
0.0525867
0.054752
0.0569093
0.0590556
0.000283831
0.000695227
0.00154531
0.00260214
0.00386329
0.00531511
0.00688057
0.00844292
0.00993515
0.0113336
0.0126333
0.0138342
0.0149368
0.0159425
0.0168543
0.0176782
0.0184239
0.0191067
0.0197476
0.020373
0.0210136
0.0217011
0.0224651
0.0233296
0.0243104
0.0254143
0.0266397
0.0279797
0.0294247
0.0309676
0.0326118
0.0343872
0.0363278
0.038379
0.0404984
0.0426588
0.0448429
0.0470398
0.0492416
0.0514431
0.0536412
0.055833
0.0580174
0.000282319
0.000686339
0.0015233
0.00256077
0.00379597
0.00522052
0.00678907
0.00839567
0.00995539
0.0114302
0.0128082
0.0140867
0.0152654
0.0163445
0.0173248
0.0182092
0.0190032
0.0197168
0.020365
0.020969
0.0215556
0.0221566
0.0228052
0.023533
0.0243658
0.0253207
0.0264052
0.027618
0.0289514
0.0303945
0.0319385
0.0335836
0.0353617
0.0373129
0.0393802
0.0415194
0.0437018
0.0459088
0.0481285
0.0503534
0.052578
0.0547984
0.0570114
0.000280162
0.00067903
0.00150489
0.00252637
0.00373986
0.00513928
0.00669897
0.00833381
0.00994959
0.0114935
0.0129446
0.014297
0.015549
0.0166999
0.0177495
0.0186986
0.0195501
0.0203099
0.0209883
0.0216009
0.0221695
0.022722
0.023291
0.0239109
0.0246144
0.0254281
0.0263694
0.0274459
0.0286555
0.0299895
0.0314362
0.0329855
0.0346385
0.0364319
0.0384016
0.0404889
0.0426483
0.0448511
0.0470783
0.0493184
0.0515635
0.0538083
0.0560508
0.000277138
0.00067217
0.00148806
0.00249535
0.00369005
0.00506665
0.00661039
0.0082597
0.00992002
0.0115251
0.0130443
0.0144666
0.0157886
0.0170089
0.0181265
0.0191411
0.0200537
0.0208675
0.0215891
0.0222296
0.0228059
0.0233407
0.0238634
0.0244074
0.0250081
0.0256985
0.026505
0.0274446
0.0285236
0.029739
0.0310808
0.0325366
0.0340964
0.0357639
0.0375847
0.0395805
0.041691
0.0438714
0.0460937
0.0483398
0.0505983
0.0528626
0.0551321
0.00027349
0.000665706
0.0014724
0.0024668
0.0036446
0.0050003
0.00652525
0.00817742
0.00987037
0.0115283
0.0131097
0.0145977
0.0159862
0.017273
0.0184565
0.0195357
0.0205103
0.0213815
0.0221535
0.0228336
0.0234346
0.0239744
0.0244779
0.0249754
0.0255016
0.0260924
0.0267803
0.027591
0.0285396
0.0296309
0.03086
0.0322162
0.0336863
0.0352614
0.0369504
0.0388106
0.0408392
0.0429756
0.0451777
0.0474191
0.0496828
0.0519583
0.0542391
0.000269276
0.000659451
0.00145736
0.00243972
0.00360195
0.00493832
0.00644342
0.0080898
0.00980437
0.0115061
0.0131436
0.0146927
0.0161442
0.0174945
0.0187414
0.0198833
0.0209192
0.021849
0.0226748
0.0234015
0.024038
0.0245986
0.0251033
0.0255785
0.0260563
0.0265724
0.0271626
0.0278585
0.0286838
0.0296513
0.0307634
0.0320134
0.0333894
0.0348785
0.0364736
0.0381934
0.040104
0.0421701
0.0443342
0.0465584
0.0488183
0.0510984
0.0533895
0.000264526
0.000653276
0.00144256
0.00241357
0.00356109
0.00487936
0.00636466
0.00799933
0.00972539
0.0114622
0.0131491
0.0147547
0.0162654
0.0176758
0.0189833
0.0201858
0.0212815
0.0222696
0.0231507
0.0239275
0.0246065
0.0251982
0.0257189
0.0261907
0.0266422
0.027107
0.0276214
0.0282206
0.0289345
0.0297839
0.030779
0.0319191
0.0331959
0.0345964
0.0361085
0.0377302
0.039497
0.0414628
0.0435679
0.0457603
0.0480061
0.0502836
0.05258
0.000259311
0.000647077
0.00142808
0.00238796
0.00352141
0.00482263
0.00628845
0.0079077
0.00963682
0.0113997
0.0131292
0.0147863
0.0163523
0.0178199
0.0191851
0.0204456
0.0215993
0.0226445
0.0235808
0.0244097
0.025135
0.0257649
0.0263118
0.0267944
0.0272373
0.0276709
0.0281303
0.0286519
0.0292697
0.0300111
0.0308934
0.0319233
0.0330974
0.0344056
0.0358345
0.0373743
0.0390314
0.0408638
0.0428842
0.0450279
0.0472477
0.0495142
0.0518076
0.0002537
0.00064094
0.00141363
0.00236272
0.0034826
0.00476734
0.00621426
0.00781608
0.00954123
0.0113218
0.0130872
0.0147904
0.016408
0.0179292
0.0193493
0.0206653
0.0218747
0.0229755
0.0239664
0.0248476
0.0256215
0.0262938
0.0268742
0.0273778
0.0278257
0.0282448
0.0286677
0.0291304
0.0296687
0.0303147
0.0310923
0.032015
0.0330858
0.0342986
0.0356416
0.0371024
0.0386748
0.0403802
0.04229
0.0443651
0.0465458
0.0487929
0.0510831
0.000247694
0.000634717
0.00139914
0.00233748
0.00344419
0.00471308
0.00614149
0.00772488
0.00944078
0.0112316
0.0130257
0.01477
0.016435
0.0180066
0.0194787
0.0208476
0.0221104
0.0232649
0.024309
0.0252423
0.0260656
0.0267829
0.0274015
0.0279336
0.0283967
0.0288147
0.0292169
0.0296376
0.0301129
0.0306777
0.0313609
0.0321825
0.033152
0.0342682
0.0355229
0.0369037
0.0383994
0.0400121
0.0417906
0.0437762
0.0459027
0.0481185
0.0503893
0.000241347
0.000628396
0.00138453
0.00231247
0.00340622
0.00465956
0.00607
0.00763455
0.00933746
0.0111317
0.0129478
0.0147276
0.0164359
0.0180547
0.019576
0.0209949
0.0223088
0.0235149
0.0246109
0.0255952
0.026468
0.0272316
0.0278916
0.0284573
0.0289435
0.0293707
0.0297651
0.0301586
0.0305864
0.0310845
0.0316852
0.032414
0.0332864
0.0343073
0.0354723
0.0367711
0.0381917
0.0397267
0.041393
0.043266
0.0453213
0.047496
0.0497513
0.000234723
0.000622109
0.00137004
0.00228748
0.00336839
0.00460669
0.00599963
0.00754522
0.00923257
0.0110244
0.0128562
0.0146661
0.0164132
0.018076
0.0196434
0.0211101
0.0224727
0.0237283
0.0248742
0.0259084
0.0268302
0.0276406
0.0283436
0.0289465
0.0294615
0.0299059
0.030303
0.0306818
0.031076
0.0315212
0.032052
0.0326977
0.0334795
0.0344079
0.0354836
0.0366994
0.0380438
0.0395066
0.0410885
0.0428369
0.0448033
0.0469215
0.0491349
0.000227818
0.000615726
0.00135541
0.00226242
0.00333089
0.00455427
0.00593015
0.00745679
0.00912695
0.0109119
0.0127533
0.0145878
0.0163697
0.0180727
0.0196835
0.0211955
0.0226045
0.0239075
0.0251013
0.026184
0.0271537
0.0280108
0.0287578
0.0294003
0.029948
0.0304158
0.0308239
0.0311986
0.0315711
0.0319763
0.0324495
0.0330228
0.0337217
0.0345624
0.0355506
0.0366832
0.0379507
0.039342
0.0408509
0.042495
0.0443527
0.0464005
0.0485732
0.000220669
0.000609332
0.00134078
0.00223756
0.00329353
0.00450228
0.00586138
0.00736937
0.00902148
0.0107956
0.0126413
0.0144952
0.0163074
0.0180473
0.0196987
0.0212533
0.0227065
0.0240547
0.0252948
0.026424
0.0274407
0.0283439
0.0291351
0.0298185
0.0304018
0.0308975
0.0313232
0.0317023
0.0320636
0.0324403
0.0328675
0.0333791
0.034004
0.0347629
0.035667
0.0367173
0.0379076
0.0392274
0.0406676
0.0422312
0.0439707
0.0459326
0.0480469
0.000213285
0.000602972
0.00132614
0.00221263
0.00325624
0.00445077
0.00579329
0.00728297
0.00891635
0.0106771
0.0125221
0.0143905
0.0162286
0.018002
0.0196911
0.021286
0.022781
0.0241723
0.0254566
0.026631
0.027693
0.0286415
0.0294767
0.0302018
0.0308226
0.0313495
0.0317979
0.0321883
0.0325471
0.0329053
0.0332973
0.0337577
0.0343177
0.035002
0.0358264
0.0367967
0.0379102
0.0391584
0.0405313
0.0420247
0.0436613
0.0455204
0.0475642
0.000205657
0.000596493
0.00131147
0.00218775
0.00321928
0.00439958
0.00572589
0.00719745
0.00881196
0.0105573
0.0123977
0.0142755
0.0161354
0.0179388
0.0196628
0.0212955
0.0228301
0.0242625
0.0255891
0.0268068
0.0279128
0.0289055
0.0297843
0.0305511
0.0312106
0.0317712
0.0322461
0.0326534
0.0330168
0.0333654
0.0337319
0.0341509
0.0346552
0.0352724
0.0360226
0.0369161
0.0379543
0.0391311
0.0404368
0.0418645
0.043421
0.0451688
0.0471395
0.000197837
0.000590086
0.00129682
0.0021631
0.00318248
0.00434878
0.0056592
0.00711298
0.00870846
0.010437
0.0122692
0.0141523
0.0160298
0.0178596
0.0196157
0.0212837
0.0228559
0.0243274
0.0256945
0.0269537
0.0281022
0.0291377
0.0300593
0.0308677
0.0315665
0.0321625
0.0326667
0.0330953
0.0334694
0.0338157
0.0341654
0.0345522
0.0350095
0.0355676
0.0362497
0.0370706
0.0380354
0.0391415
0.0403807
0.0417443
0.0432317
0.044876
0.046758
0.000189789
0.000583666
0.00128227
0.00213845
0.00314593
0.00429837
0.00559315
0.00702924
0.00860606
0.0103169
0.0121382
0.0140225
0.0159136
0.0177665
0.0195517
0.0212527
0.0228603
0.0243689
0.0257746
0.0270737
0.028263
0.0293401
0.0303035
0.0311531
0.0318914
0.0325238
0.0330596
0.0335127
0.0339023
0.0342527
0.0345931
0.034956
0.0353749
0.0358816
0.0365022
0.037255
0.0381495
0.0391861
0.040359
0.0416597
0.0430829
0.0446425
0.0464176
0.000181499
0.00057726
0.00126772
0.00211397
0.00310961
0.00424846
0.00552768
0.00694666
0.00850474
0.0101974
0.0120055
0.0138876
0.0157886
0.0176609
0.0194725
0.0212042
0.0228451
0.0243889
0.0258313
0.0271686
0.0283973
0.0295146
0.0305186
0.0314087
0.0321863
0.0328557
0.0334246
0.0339051
0.034314
0.0346737
0.0350112
0.0353577
0.0357461
0.036209
0.0367747
0.0374648
0.0382924
0.0392615
0.040369
0.0416074
0.0429688
0.0444569
0.0461243
0.000173015
0.000570905
0.00125329
0.00208967
0.00307364
0.004199
0.00546304
0.00686496
0.00840464
0.0100786
0.0118723
0.0137488
0.015656
0.0175447
0.0193798
0.0211397
0.0228119
0.0243891
0.0258665
0.0272402
0.0285067
0.0296629
0.0307064
0.0316361
0.0324527
0.0331593
0.0337623
0.0342721
0.0347036
0.0350768
0.035417
0.0357536
0.0361188
0.0365451
0.0370626
0.0376954
0.0384602
0.0393644
0.0404077
0.0415842
0.042886
0.0443111
0.0458915
0.000164285
0.00056461
0.00123889
0.00206557
0.00303798
0.00415009
0.00539912
0.00678431
0.00830582
0.00996115
0.0117388
0.0136073
0.0155174
0.0174194
0.0192752
0.0210609
0.0227623
0.024371
0.0258818
0.0272903
0.0285931
0.0297866
0.0308685
0.0318369
0.0326918
0.0334356
0.0340733
0.0346139
0.0350703
0.0354609
0.0358085
0.0361409
0.0364893
0.0368859
0.0373616
0.0379429
0.0386492
0.0394915
0.0404724
0.0415883
0.0428315
0.0441976
0.0457024
0.000155282
0.000558299
0.00122466
0.00204166
0.00300272
0.00410171
0.00533596
0.00670478
0.00820831
0.00984504
0.0116058
0.0134641
0.0153741
0.0172861
0.0191601
0.0209693
0.0226979
0.0243364
0.0258787
0.0273206
0.028658
0.0298876
0.0310065
0.0320125
0.0329052
0.0336858
0.0343586
0.0349309
0.0354142
0.0358249
0.0361839
0.0365173
0.0368547
0.0372279
0.0376681
0.0382034
0.0388559
0.0396396
0.0405605
0.0416169
0.042803
0.0441134
0.0455552
0.000146026
0.000552149
0.00121051
0.00201799
0.00296779
0.00405393
0.00527362
0.00662634
0.00811216
0.00973032
0.0114737
0.0133199
0.0152272
0.0171464
0.0190357
0.0208662
0.02262
0.0242865
0.0258588
0.0273324
0.0287031
0.0299673
0.0311219
0.0321645
0.0330941
0.0339112
0.034619
0.0352237
0.0357354
0.0361685
0.0365423
0.036881
0.0372126
0.037568
0.0379787
0.0384737
0.0390772
0.039806
0.0406694
0.0416683
0.0427986
0.0440543
0.0454351
0.000136468
0.000546051
0.00119655
0.00199461
0.0029333
0.0040067
0.00521215
0.00654892
0.00801744
0.00961717
0.0113428
0.0131754
0.0150776
0.0170012
0.0189034
0.0207529
0.02253
0.0242227
0.0258235
0.0273273
0.0287298
0.0300272
0.0312163
0.0322944
0.0332599
0.0341128
0.0348555
0.035493
0.0360341
0.0364916
0.036883
0.0372305
0.0375609
0.0379039
0.0382905
0.0387506
0.03931
0.039988
0.0407968
0.0417403
0.0428168
0.0440227
0.0453627