/*--------------------------------*- C++ -*----------------------------------*\
| =========                 |                                                 |
| \\      /  F ield         | OpenFOAM: The Open Source CFD Toolbox           |
|  \\    /   O peration     | Version:  2.3.0                                 |
|   \\  /    A nd           | Web:      www.OpenFOAM.org                      |
|    \\/     M anipulation  |                                                 |
\*---------------------------------------------------------------------------*/
FoamFile
{
    version     2.0;
    format      ascii;
    class       volScalarField;
    location    "2000";
    object      nuTilda;
}
// * * * * * * * * * * * * * * * * * * * * * * * * * * * * * * * * * * * * * //

dimensions      [0 2 -1 0 0 0 0];

internalField   nonuniform List<scalar> 
37387
(
0.0673742
0.0656493
0.0639268
0.0622043
0.0604816
0.058759
0.0570371
0.0553165
0.0535981
0.0518829
0.0501719
0.0484661
0.0467671
0.045076
0.0433943
0.0417235
0.0400649
0.03842
0.0367907
0.0351788
0.0335864
0.0320156
0.0304694
0.028951
0.0274657
0.0260204
0.0246228
0.0232814
0.0220035
0.0207982
0.0196765
0.0186292
0.0176051
0.0165737
0.0155316
0.0144816
0.0134228
0.0123493
0.0112503
0.0101093
0.00890964
0.00767026
0.0066485
0.0686866
0.0671725
0.0656573
0.0641422
0.0626279
0.0611142
0.0596015
0.05809
0.0565802
0.0550725
0.0535676
0.0520663
0.050569
0.0490768
0.0475906
0.046111
0.0446394
0.0431769
0.0417247
0.0402841
0.0388561
0.0374424
0.0360448
0.034664
0.0333025
0.031962
0.0306454
0.0293559
0.0280961
0.0268709
0.0256847
0.0245425
0.0234481
0.0224072
0.0214265
0.0205174
0.0196917
0.0189656
0.0183554
0.0178774
0.0175485
0.0173849
0.0174026
0.0699015
0.0685618
0.0672209
0.0658798
0.0645391
0.0631988
0.061859
0.0605196
0.0591808
0.0578425
0.0565055
0.0551701
0.0538366
0.0525053
0.0511771
0.0498524
0.0485321
0.047217
0.0459082
0.0446073
0.0433153
0.0420336
0.0407642
0.0395086
0.0382691
0.0370477
0.0358464
0.0346691
0.0335194
0.0324006
0.0313173
0.0302752
0.0292811
0.0283427
0.0274686
0.0266686
0.0259532
0.0253352
0.0248269
0.0244406
0.0241856
0.0240687
0.0240943
0.0710197
0.069828
0.0686345
0.0674407
0.0662468
0.0650527
0.0638578
0.0626619
0.0614652
0.0602673
0.0590689
0.0578702
0.0566711
0.0554725
0.0542741
0.0530765
0.0518803
0.0506863
0.049495
0.0483077
0.0471258
0.0459509
0.0447851
0.0436298
0.042487
0.0413601
0.0402513
0.0391631
0.0381003
0.0370668
0.0360666
0.0351061
0.0341915
0.0333297
0.0325295
0.0318
0.0311503
0.0305916
0.0301335
0.0297856
0.0295558
0.0294485
0.0294667
0.0720449
0.0709791
0.0699115
0.0688432
0.0677742
0.0667037
0.0656308
0.0645556
0.0634779
0.0623972
0.0613139
0.0602282
0.0591404
0.0580509
0.05696
0.0558673
0.0547736
0.0536794
0.0525854
0.0514921
0.0504007
0.049313
0.0482309
0.0471563
0.0460916
0.0450397
0.0440032
0.0429855
0.0419906
0.0410224
0.0400859
0.0391868
0.0383312
0.0375259
0.036778
0.0360966
0.0354909
0.0349697
0.0345421
0.0342163
0.0339991
0.0338947
0.0339052
0.0729808
0.0720235
0.0710638
0.0701026
0.0691401
0.0681746
0.0672054
0.0662322
0.0652549
0.0642727
0.0632854
0.0622937
0.0612981
0.0602991
0.0592967
0.0582906
0.0572817
0.0562703
0.0552571
0.0542424
0.0532266
0.0522112
0.0511981
0.0501895
0.0491879
0.0481968
0.0472186
0.0462569
0.0453152
0.044398
0.0435105
0.0426585
0.0418475
0.0410844
0.0403759
0.0397293
0.0391542
0.0386583
0.0382504
0.0379384
0.0377278
0.0376237
0.0376273
0.0738344
0.0729702
0.0721025
0.0712329
0.0703613
0.0694863
0.0686052
0.067718
0.066826
0.0659275
0.0650214
0.0641085
0.0631894
0.0622653
0.0613365
0.0604026
0.0594634
0.0585203
0.0575747
0.056626
0.055674
0.05472
0.0537651
0.0528115
0.0518618
0.0509194
0.0499899
0.049074
0.0481747
0.0472969
0.0464471
0.0456317
0.0448563
0.0441263
0.043448
0.0428282
0.0422752
0.0417968
0.0414023
0.041099
0.0408927
0.0407881
0.0407861
0.0746117
0.0738277
0.0730386
0.0722466
0.0714528
0.0706562
0.0698518
0.0690356
0.0682162
0.0673904
0.0665534
0.0657072
0.0648525
0.0639894
0.0631222
0.0622494
0.0613683
0.0604801
0.0595907
0.0586981
0.0578008
0.0568979
0.0559964
0.0550864
0.0541837
0.0532774
0.0523883
0.0515114
0.0506496
0.0498035
0.048981
0.0481937
0.0474459
0.0467424
0.0460884
0.0454906
0.0449557
0.04449
0.0441045
0.0438066
0.0436028
0.0434977
0.0434923
0.0753251
0.0746102
0.0738852
0.073157
0.072425
0.0716939
0.0709627
0.0702015
0.069443
0.0686829
0.0679046
0.0671139
0.0663175
0.0655002
0.0646814
0.0638595
0.0630327
0.0621847
0.0613391
0.0604916
0.0596472
0.0587775
0.0579443
0.0570544
0.0562132
0.0553209
0.0544683
0.0536209
0.0527936
0.0519817
0.0511753
0.0504072
0.0496782
0.0489934
0.0483603
0.047782
0.0472664
0.0468108
0.0464331
0.0461399
0.0459387
0.0458343
0.0458285
0.00742721
0.00934326
0.0105248
0.0116713
0.0128779
0.0141457
0.0154642
0.0168198
0.018202
0.0196032
0.0210195
0.0224462
0.0238813
0.0253236
0.0267711
0.0282241
0.0296817
0.0311435
0.032609
0.0340789
0.0355524
0.0370296
0.0385101
0.0399945
0.0414817
0.0429727
0.0444665
0.0459635
0.0474631
0.0489652
0.0504695
0.0519758
0.0534839
0.0549933
0.0565037
0.0580147
0.0595257
0.0610363
0.0625458
0.0640537
0.0655592
0.0670612
0.0685612
0.0176082
0.0180022
0.0185676
0.0192875
0.0201409
0.0211042
0.0221561
0.023278
0.024454
0.0256729
0.0269231
0.0281977
0.0294906
0.0307971
0.0321148
0.0334402
0.0347717
0.0361069
0.0374461
0.038788
0.0401315
0.041476
0.0428219
0.0441684
0.0455157
0.0468633
0.0482115
0.0495595
0.0509074
0.0522554
0.0536034
0.054951
0.0562984
0.0576452
0.0589915
0.0603371
0.0616817
0.0630251
0.0643669
0.0657071
0.0670452
0.0683812
0.0697193
0.0242602
0.0245675
0.0250152
0.0255949
0.0262936
0.0270949
0.027985
0.028948
0.0299716
0.0310435
0.0321537
0.0332947
0.0344589
0.0356416
0.0368381
0.0380453
0.0392592
0.0404791
0.0417025
0.0429279
0.0441547
0.0453818
0.0466083
0.0478345
0.0490598
0.0502832
0.051505
0.0527251
0.0539432
0.0551593
0.0563734
0.0575856
0.0587957
0.0600039
0.0612102
0.0624146
0.0636169
0.064817
0.0660149
0.0672105
0.0684036
0.0695943
0.0707859
0.029608
0.0298723
0.0302587
0.0307617
0.0313713
0.0320762
0.0328645
0.033724
0.034643
0.0356109
0.0366191
0.0376595
0.0387248
0.0398102
0.0409109
0.042022
0.043141
0.0442654
0.0453928
0.0465221
0.0476517
0.0487803
0.0499077
0.0510333
0.052156
0.0532751
0.054391
0.0555035
0.056612
0.0577169
0.0588182
0.0599159
0.0610101
0.0621008
0.0631882
0.0642723
0.0653531
0.0664307
0.0675049
0.0685759
0.0696431
0.0707065
0.0717666
0.0340284
0.0342639
0.0346112
0.0350649
0.035617
0.0362573
0.0369763
0.0377629
0.0386071
0.0394991
0.040431
0.0413947
0.0423837
0.0433927
0.0444166
0.0454513
0.0464931
0.0475393
0.0485883
0.0496383
0.0506875
0.0517353
0.0527806
0.0538221
0.054859
0.0558912
0.0569186
0.0579407
0.0589574
0.0599689
0.0609753
0.0619766
0.062973
0.0639642
0.0649506
0.0659324
0.0669098
0.0678826
0.0688508
0.0698143
0.070773
0.0717268
0.0726784
0.0377368
0.0379518
0.038271
0.0386893
0.0392
0.0397949
0.0404637
0.0411966
0.0419848
0.0428196
0.0436931
0.0445975
0.045527
0.0464758
0.0474388
0.0484113
0.0493902
0.0503728
0.0513573
0.0523422
0.0533261
0.0543073
0.0552843
0.0562557
0.0572212
0.0581806
0.0591337
0.0600803
0.0610197
0.0619527
0.0628793
0.0637996
0.0647132
0.0656201
0.0665206
0.0674153
0.0683045
0.069188
0.0700652
0.0709361
0.0718007
0.072659
0.0735124
0.0408856
0.0410851
0.0413828
0.0417736
0.0422533
0.0428144
0.0434454
0.0441368
0.0448818
0.0456716
0.0464988
0.0473569
0.0482399
0.0491406
0.0500539
0.0509754
0.0519021
0.0528319
0.0537631
0.0546952
0.055625
0.0565512
0.0574716
0.0583841
0.059289
0.0601873
0.0610785
0.0619612
0.0628355
0.0637024
0.0645617
0.0654137
0.0662575
0.0670921
0.0679192
0.06874
0.0695542
0.0703614
0.0711602
0.071951
0.0727343
0.0735094
0.0742777
0.0435857
0.043772
0.0440535
0.0444196
0.0448765
0.0454129
0.0460136
0.0466694
0.0473812
0.0481343
0.0489249
0.0497463
0.0505932
0.0514534
0.052326
0.0532046
0.0540869
0.0549724
0.0558603
0.0567499
0.0576339
0.0585163
0.059388
0.0602483
0.0611016
0.0619505
0.0627897
0.0636177
0.0644364
0.0652481
0.0660502
0.0668459
0.0676291
0.0684008
0.0691652
0.0699241
0.0706744
0.0714168
0.0721472
0.0728684
0.0735821
0.0742851
0.074978
0.0459197
0.0460912
0.0463665
0.046702
0.0471467
0.0476648
0.0482375
0.0488572
0.0495496
0.0502682
0.0510317
0.0518228
0.0526433
0.0534639
0.0543048
0.055142
0.0559867
0.0568354
0.0576896
0.0585507
0.0593886
0.0602386
0.0610602
0.0618745
0.0626881
0.0635009
0.064292
0.0650719
0.0658446
0.066614
0.0673646
0.0681161
0.0688419
0.06956
0.070275
0.0709852
0.071678
0.0723652
0.0730331
0.0736959
0.0743536
0.0749971
0.0756238
0.0423489
0.0410666
0.0397756
0.0384766
0.0371698
0.0358554
0.0345337
0.0332043
0.0318669
0.0305212
0.0291672
0.0278049
0.0264352
0.0250596
0.0236815
0.0223055
0.0209389
0.0195915
0.0182752
0.0170024
0.0157833
0.0146238
0.0135242
0.012482
0.0114946
0.0105589
0.00967211
0.00883175
0.00803615
0.00728302
0.00657064
0.00589701
0.00526187
0.00466347
0.0041016
0.00357658
0.00308905
0.00264399
0.0022478
0.00193027
0.00165559
0.0013357
0.000889052
0.0425386
0.0413676
0.040188
0.0390002
0.0378046
0.0366011
0.0353896
0.0341698
0.032941
0.0317028
0.0304545
0.0291957
0.0279261
0.0266462
0.025357
0.0240607
0.0227613
0.0214653
0.0201815
0.0189212
0.0176972
0.0165194
0.0153928
0.0143175
0.0132933
0.0123178
0.0113888
0.0105054
0.00966546
0.00886802
0.00811124
0.00739604
0.00672188
0.00609055
0.00550564
0.00497383
0.00450292
0.00411424
0.00374438
0.00334385
0.00288505
0.00232211
0.00156352
0.0427274
0.04166
0.0405834
0.0394983
0.0384046
0.0373023
0.0361911
0.0350705
0.03394
0.0327989
0.0316462
0.0304814
0.0293037
0.0281125
0.0269081
0.0256912
0.0244632
0.0232275
0.0219892
0.0207566
0.0195396
0.0183513
0.0172022
0.0160981
0.0150411
0.0140302
0.0130649
0.0121435
0.0112654
0.0104299
0.00963813
0.00889087
0.00819169
0.00754651
0.00696114
0.00644431
0.0060108
0.00556949
0.00509208
0.00455017
0.00390907
0.00311552
0.002096
0.0429109
0.0419369
0.0409528
0.0399591
0.0389559
0.037943
0.03692
0.0358866
0.0348423
0.033786
0.0327169
0.0316342
0.0305368
0.029424
0.0282953
0.0271502
0.0259892
0.0248135
0.0236258
0.0224302
0.0212341
0.0200484
0.0188851
0.0177565
0.0166701
0.0156278
0.0146292
0.0136738
0.0127615
0.0118939
0.0110725
0.0103017
0.00958838
0.00893943
0.00836299
0.00786494
0.00736294
0.00682869
0.00623635
0.00555656
0.00475043
0.003759
0.00252625
0.043088
0.0421971
0.0412951
0.0403825
0.0394591
0.0385248
0.0375793
0.0366221
0.0356527
0.0346703
0.0336737
0.032662
0.031634
0.0305889
0.0295254
0.028443
0.0273413
0.0262203
0.0250809
0.0239253
0.0227576
0.0215849
0.0204185
0.0192729
0.018162
0.0170916
0.0160634
0.0150777
0.0141357
0.0132397
0.0123939
0.0116055
0.0108827
0.0102329
0.00966994
0.00911627
0.00853896
0.00791416
0.00721488
0.00640943
0.00545619
0.00429327
0.00287747
0.0432563
0.0424388
0.0416098
0.0407691
0.0399162
0.0390509
0.038173
0.0372822
0.036378
0.0354598
0.0345263
0.0335762
0.0326083
0.0316208
0.0306133
0.0295846
0.0285341
0.0274607
0.0263649
0.0252469
0.0241087
0.0229554
0.0217949
0.0206412
0.0195111
0.0184173
0.0173638
0.0163517
0.0153835
0.0144628
0.0135966
0.0127942
0.0120648
0.0114215
0.0108221
0.0102112
0.00956382
0.00885609
0.00805997
0.00714213
0.00605762
0.00474265
0.00316605
0.0434116
0.0426607
0.0418971
0.0411202
0.0403297
0.0395251
0.0387061
0.0378727
0.0370248
0.0361622
0.0352837
0.0343881
0.0334725
0.032535
0.0315751
0.0305923
0.0295851
0.0285529
0.0274946
0.0264101
0.0253003
0.024168
0.0230189
0.0218636
0.020721
0.0196092
0.0185342
0.0174991
0.016508
0.0155669
0.0146837
0.0138685
0.0131293
0.0124795
0.0118382
0.0111736
0.0104623
0.00967929
0.00879583
0.00777673
0.00657447
0.00512375
0.00340313
0.0435522
0.0428629
0.0421573
0.0414371
0.0407023
0.0399516
0.0391835
0.0383992
0.0375992
0.0367843
0.0359541
0.0351071
0.0342397
0.0333468
0.0324264
0.031482
0.0305127
0.0295148
0.0284882
0.0274334
0.0263491
0.0252364
0.0241005
0.0229495
0.0218006
0.0206758
0.019584
0.018529
0.0175177
0.0165583
0.0156617
0.0148381
0.0140952
0.0134189
0.0127368
0.0120231
0.0112543
0.010404
0.00944142
0.00833044
0.00702117
0.00544768
0.00359978
0.0436873
0.0430473
0.0423915
0.0417206
0.0410364
0.0403358
0.0396111
0.0388684
0.0381072
0.037332
0.0365428
0.0357397
0.0349205
0.0340727
0.0331823
0.0322665
0.0313331
0.0303653
0.0293626
0.0283336
0.0272733
0.0261765
0.0250529
0.0239097
0.0227595
0.021628
0.020526
0.0194527
0.0184214
0.0174443
0.0165361
0.0157077
0.0149676
0.0142564
0.0135342
0.012775
0.011955
0.0110467
0.0100139
0.00881774
0.00740884
0.00571793
0.00371961
0.000481153
0.000500914
0.00068569
0.000862539
0.00103098
0.00119378
0.0013547
0.00151958
0.00169654
0.00189617
0.00212724
0.00238986
0.00268238
0.00300204
0.0033474
0.00371721
0.00411139
0.00452999
0.00497294
0.00544119
0.00593516
0.00645528
0.00700187
0.00757562
0.00817683
0.0088064
0.00946509
0.0101533
0.010872
0.011622
0.012404
0.0132191
0.0140682
0.0149521
0.0158716
0.0168277
0.0178215
0.018854
0.0199261
0.0210385
0.0221924
0.0233891
0.0246318
0.000786956
0.000667072
0.000844197
0.00103017
0.00121022
0.00138928
0.00157468
0.00177495
0.00199841
0.00225179
0.00254034
0.00285867
0.00320238
0.00356939
0.00395853
0.00436942
0.00480183
0.0052558
0.00573152
0.00622906
0.00674906
0.00729156
0.00785677
0.00844512
0.00905695
0.0096926
0.010353
0.0110384
0.0117497
0.0124873
0.013252
0.0140445
0.0148654
0.0157158
0.0165961
0.0175071
0.0184499
0.0194252
0.0204337
0.0214764
0.0225542
0.0236689
0.0248236
0.00108248
0.000823411
0.000992246
0.00119029
0.00138834
0.00159361
0.00181531
0.00206095
0.0023354
0.00264134
0.00298178
0.00334868
0.00373738
0.00414646
0.00457537
0.00502355
0.0054907
0.00597693
0.0064819
0.00700597
0.00754905
0.00811131
0.00869261
0.00929334
0.00991367
0.0105542
0.0112149
0.0118966
0.0125996
0.0133244
0.0140715
0.0148415
0.0156348
0.0164522
0.0172941
0.0181614
0.0190545
0.0199743
0.0209213
0.0218965
0.0229009
0.0239363
0.0250062
0.00133161
0.000963066
0.00112772
0.0013422
0.00156469
0.00180383
0.00206751
0.00236013
0.00268282
0.00303668
0.00342281
0.00383135
0.00425953
0.00470603
0.00516998
0.00565112
0.00614903
0.00666351
0.00719429
0.0077412
0.00830413
0.00888302
0.0094779
0.0100888
0.0107158
0.0113592
0.0120194
0.0126964
0.0133909
0.0141028
0.0148328
0.0155813
0.0163485
0.017135
0.017941
0.0187674
0.0196145
0.0204827
0.0213729
0.0222856
0.0232214
0.0241803
0.0251592
0.00153343
0.00108637
0.00125315
0.00148847
0.0017405
0.00201708
0.00232334
0.00266014
0.00302642
0.00342372
0.00384948
0.00429512
0.00475824
0.00523771
0.00573288
0.00624323
0.0067684
0.00730787
0.00786105
0.00842776
0.00900778
0.00960072
0.0102067
0.0108259
0.0114581
0.0121035
0.0127622
0.0134344
0.0141202
0.0148199
0.0155335
0.0162616
0.0170046
0.0177624
0.0185354
0.019324
0.0201288
0.0209499
0.0217877
0.0226428
0.023515
0.0244045
0.025311
0.00169556
0.00119517
0.00137087
0.00163057
0.00191494
0.00222954
0.00257615
0.00295282
0.00335809
0.00379519
0.00425574
0.00473408
0.00522831
0.00573745
0.00626056
0.00679692
0.00734611
0.00790752
0.00848028
0.00906406
0.00965889
0.0102642
0.0108799
0.0115058
0.0121421
0.0127887
0.0134454
0.0141124
0.01479
0.015478
0.0161764
0.0168856
0.0176059
0.0183372
0.0190798
0.0198339
0.0205999
0.0213777
0.0221675
0.0229696
0.0237839
0.0246098
0.0254457
0.00182549
0.00129312
0.0014843
0.00177066
0.00208781
0.00243866
0.00282179
0.00323408
0.003675
0.00414666
0.00463826
0.00514594
0.00566832
0.00620381
0.00675195
0.00731177
0.00788238
0.00846315
0.00905334
0.0096524
0.0102602
0.0108762
0.0115002
0.012132
0.0127713
0.0134182
0.0140728
0.0147347
0.0154042
0.0160812
0.0167655
0.0174573
0.0181566
0.0188635
0.0195782
0.0203007
0.021031
0.0217691
0.0225149
0.0232684
0.0240296
0.0247977
0.0255712
0.00193777
0.00138081
0.00158627
0.00189888
0.00224744
0.00263301
0.00305038
0.00349621
0.0039711
0.00447362
0.00499353
0.00552896
0.00607789
0.00663837
0.00720939
0.00779051
0.00838142
0.00898067
0.00958655
0.0101992
0.0108187
0.0114442
0.0120749
0.0127107
0.0133517
0.0139981
0.0146497
0.0153064
0.0159679
0.0166345
0.0173054
0.0179809
0.0186608
0.0193453
0.0200344
0.0207284
0.0214261
0.0221272
0.0228324
0.0235414
0.0242541
0.02497
0.0256887
0.00197458
0.00146086
0.00171408
0.00206321
0.00245368
0.00286825
0.00331647
0.00378842
0.00429256
0.00481737
0.00536914
0.00593562
0.00650589
0.00708481
0.00766866
0.00827102
0.00888626
0.00950016
0.0101118
0.0107339
0.0113634
0.0119931
0.0126229
0.0132567
0.0138943
0.0145374
0.0151845
0.0158343
0.016488
0.0171451
0.0178028
0.0184617
0.0191234
0.0197871
0.0204537
0.0211234
0.0217903
0.0224555
0.0231228
0.023791
0.0244595
0.0251273
0.025794
0.000381442
0.00145201
0.0030023
0.00453379
0.0060142
0.00743876
0.00880917
0.0101283
0.0113993
0.0126256
0.0138117
0.0149652
0.0161002
0.017237
0.0183856
0.0195398
0.0207004
0.0219754
0.0233779
0.0248779
0.0264491
0.0280738
0.029741
0.0314416
0.0331696
0.0349209
0.0366918
0.0384792
0.0402806
0.0420939
0.0439173
0.0457492
0.0475879
0.0494316
0.0512792
0.0531291
0.0549805
0.0568322
0.0586834
0.0605334
0.0623819
0.0642295
0.0660791
0.00036428
0.00112689
0.00254314
0.0038854
0.00511044
0.00627925
0.00742747
0.00856569
0.00969729
0.0108229
0.0119422
0.0130555
0.0141648
0.0152744
0.016389
0.0175139
0.0186613
0.0198649
0.021141
0.0224765
0.0238578
0.0253728
0.0270065
0.0287216
0.0304941
0.0323082
0.0341533
0.036022
0.0379086
0.0398088
0.0417199
0.0436394
0.0455645
0.0474936
0.0494251
0.051357
0.0532885
0.0552183
0.0571458
0.0590698
0.0609902
0.0629066
0.0648182
0.000276295
0.000843615
0.00191913
0.00330371
0.00475194
0.00607077
0.00726945
0.00838072
0.00943054
0.0104398
0.0114253
0.012401
0.0133774
0.0143632
0.0153659
0.0163939
0.0174577
0.0185692
0.019739
0.0209716
0.0222696
0.0236507
0.0251059
0.02664
0.0283199
0.0301041
0.0319588
0.0338614
0.0357967
0.0377551
0.0397296
0.0417153
0.0437081
0.0457055
0.0477049
0.0497043
0.051702
0.053697
0.0556878
0.0576739
0.0596541
0.0616278
0.0635926
0.000300752
0.000781858
0.00175644
0.00300141
0.00445212
0.0058835
0.00721332
0.00843686
0.00956311
0.0106041
0.0115749
0.0124927
0.0133762
0.0142439
0.0151138
0.016003
0.0169272
0.0179004
0.0189349
0.0200405
0.0212241
0.0224889
0.0238332
0.0252575
0.0267679
0.0283642
0.0301134
0.0319724
0.0339042
0.0358832
0.0378935
0.0399245
0.0419684
0.04402
0.0460756
0.0481322
0.0501872
0.052239
0.0542862
0.0563277
0.0583622
0.0603883
0.0624035
0.000294251
0.000742203
0.00166039
0.00282316
0.00421624
0.00570265
0.00713398
0.00846644
0.00969687
0.0108305
0.0118731
0.0128333
0.0137228
0.0145577
0.0153574
0.016144
0.0169403
0.0177688
0.01865
0.0196014
0.020636
0.0217612
0.0229799
0.0242906
0.0256892
0.0271727
0.0287489
0.0304369
0.0322757
0.0342167
0.0362232
0.0382713
0.0403457
0.0424358
0.0445349
0.0466379
0.0487415
0.0508426
0.0529395
0.0550305
0.0571142
0.0591894
0.0612583
0.000298876
0.000723579
0.0016103
0.00272473
0.00406201
0.00555605
0.00705655
0.00848072
0.00980718
0.0110343
0.0121647
0.0132018
0.014151
0.0150207
0.0158236
0.0165774
0.0173044
0.0180298
0.0187806
0.0195826
0.0204584
0.0214251
0.0224933
0.0236667
0.0249434
0.0263182
0.0277849
0.029342
0.0309963
0.032809
0.0347503
0.0367747
0.0388511
0.0409594
0.0430868
0.0452245
0.0473668
0.0495092
0.0516487
0.053783
0.0559101
0.0580288
0.0601365
0.000298342
0.000708093
0.00157194
0.00265272
0.00394632
0.00542407
0.00696887
0.00847107
0.00988527
0.0112012
0.0124184
0.0135383
0.0145633
0.0154969
0.0163458
0.0171208
0.0178379
0.0185187
0.0191892
0.0198787
0.0206166
0.0214297
0.0223389
0.0233579
0.0244918
0.0257394
0.0270937
0.0285465
0.0300918
0.0317399
0.033527
0.0354654
0.0375028
0.0396017
0.0417381
0.0438964
0.0460662
0.0482408
0.0504155
0.0525867
0.054752
0.0569093
0.0590556
0.000298551
0.000698047
0.00154589
0.00260235
0.00386338
0.00531516
0.0068806
0.00844294
0.00993516
0.0113336
0.0126333
0.0138342
0.0149368
0.0159425
0.0168544
0.0176782
0.0184239
0.0191067
0.0197476
0.020373
0.0210136
0.0217011
0.0224651
0.0233296
0.0243104
0.0254143
0.0266397
0.0279797
0.0294248
0.0309676
0.0326118
0.0343872
0.0363278
0.038379
0.0404984
0.0426588
0.0448429
0.0470398
0.0492416
0.0514431
0.0536412
0.055833
0.0580174
0.000297166
0.000689232
0.00152389
0.00256098
0.00379607
0.00522057
0.0067891
0.00839569
0.00995541
0.0114303
0.0128082
0.0140867
0.0152654
0.0163445
0.0173248
0.0182092
0.0190032
0.0197168
0.020365
0.020969
0.0215556
0.0221566
0.0228052
0.023533
0.0243658
0.0253207
0.0264052
0.027618
0.0289514
0.0303946
0.0319385
0.0335836
0.0353617
0.0373129
0.0393802
0.0415194
0.0437018
0.0459088
0.0481285
0.0503534
0.052578
0.0547984
0.0570114
0.000295193
0.000681985
0.0015055
0.00252659
0.00373996
0.00513934
0.006699
0.00833383
0.00994961
0.0114935
0.0129446
0.014297
0.015549
0.0167
0.0177495
0.0186986
0.0195501
0.0203099
0.0209883
0.0216009
0.0221695
0.022722
0.023291
0.0239109
0.0246144
0.0254281
0.0263694
0.0274459
0.0286555
0.0299895
0.0314362
0.0329855
0.0346385
0.0364319
0.0384016
0.0404889
0.0426483
0.0448511
0.0470783
0.0493184
0.0515635
0.0538083
0.0560508
0.000292432
0.000675184
0.00148869
0.00249557
0.00369015
0.00506671
0.00661042
0.00825972
0.00992004
0.0115251
0.0130443
0.0144666
0.0157886
0.0170089
0.0181265
0.0191411
0.0200537
0.0208675
0.0215891
0.0222296
0.0228059
0.0233407
0.0238634
0.0244074
0.0250081
0.0256985
0.026505
0.0274446
0.0285236
0.029739
0.0310808
0.0325366
0.0340964
0.0357639
0.0375847
0.0395805
0.041691
0.0438714
0.0460937
0.0483398
0.0505983
0.0528626
0.0551321
0.000289109
0.000668778
0.00147304
0.00246703
0.00364471
0.00500035
0.00652529
0.00817744
0.00987039
0.0115283
0.0131097
0.0145977
0.0159862
0.017273
0.0184566
0.0195357
0.0205103
0.0213815
0.0221535
0.0228336
0.0234346
0.0239744
0.0244779
0.0249754
0.0255016
0.0260924
0.0267803
0.027591
0.0285396
0.0296309
0.03086
0.0322162
0.0336863
0.0352614
0.0369504
0.0388106
0.0408392
0.0429756
0.0451777
0.0474191
0.0496828
0.0519583
0.0542391
0.000285281
0.00066258
0.00145801
0.00243995
0.00360205
0.00493838
0.00644345
0.00808982
0.00980439
0.0115061
0.0131436
0.0146927
0.0161442
0.0174945
0.0187414
0.0198833
0.0209192
0.021849
0.0226748
0.0234015
0.024038
0.0245986
0.0251033
0.0255785
0.0260563
0.0265724
0.0271626
0.0278585
0.0286838
0.0296513
0.0307634
0.0320134
0.0333894
0.0348785
0.0364736
0.0381934
0.040104
0.0421701
0.0443342
0.0465584
0.0488183
0.0510984
0.0533895
0.000280982
0.000656463
0.00144322
0.0024138
0.0035612
0.00487942
0.0063647
0.00799935
0.0097254
0.0114622
0.0131491
0.0147547
0.0162654
0.0176758
0.0189833
0.0201858
0.0212815
0.0222696
0.0231507
0.0239275
0.0246065
0.0251982
0.0257189
0.0261907
0.0266422
0.027107
0.0276214
0.0282206
0.0289345
0.0297839
0.030779
0.0319191
0.0331959
0.0345964
0.0361085
0.0377302
0.039497
0.0414628
0.0435679
0.0457603
0.0480061
0.0502836
0.05258
0.00027628
0.000650324
0.00142876
0.0023882
0.00352152
0.00482269
0.00628849
0.00790772
0.00963683
0.0113997
0.0131292
0.0147863
0.0163523
0.0178199
0.0191851
0.0204456
0.0215993
0.0226445
0.0235808
0.0244097
0.025135
0.0257649
0.0263119
0.0267944
0.0272373
0.0276709
0.0281303
0.0286519
0.0292697
0.0300111
0.0308934
0.0319233
0.0330974
0.0344056
0.0358345
0.0373743
0.0390314
0.0408638
0.0428842
0.0450279
0.0472477
0.0495142
0.0518076
0.000271244
0.000644248
0.00141432
0.00236297
0.00348271
0.00476741
0.00621429
0.0078161
0.00954124
0.0113218
0.0130872
0.0147904
0.016408
0.0179292
0.0193493
0.0206653
0.0218747
0.0229755
0.0239664
0.0248476
0.0256215
0.0262938
0.0268742
0.0273778
0.0278257
0.0282448
0.0286677
0.0291304
0.0296687
0.0303147
0.0310923
0.032015
0.0330858
0.0342986
0.0356416
0.0371024
0.0386748
0.0403802
0.04229
0.0443651
0.0465458
0.0487929
0.0510831
0.000265881
0.000638089
0.00139985
0.00233773
0.00344431
0.00471314
0.00614153
0.0077249
0.0094408
0.0112316
0.0130257
0.01477
0.016435
0.0180066
0.0194787
0.0208476
0.0221104
0.0232649
0.024309
0.0252423
0.0260656
0.0267829
0.0274015
0.0279336
0.0283968
0.0288147
0.0292169
0.0296376
0.0301129
0.0306777
0.0313609
0.0321825
0.033152
0.0342682
0.0355229
0.0369037
0.0383994
0.0400121
0.0417906
0.0437762
0.0459027
0.0481185
0.0503893
0.000260244
0.000631834
0.00138525
0.00231273
0.00340634
0.00465962
0.00607003
0.00763457
0.00933747
0.0111317
0.0129478
0.0147276
0.0164359
0.0180547
0.019576
0.020995
0.0223088
0.0235149
0.0246109
0.0255952
0.026468
0.0272317
0.0278916
0.0284573
0.0289435
0.0293707
0.0297651
0.0301586
0.0305864
0.0310845
0.0316852
0.032414
0.0332864
0.0343073
0.0354723
0.0367711
0.0381917
0.0397267
0.041393
0.043266
0.0453213
0.047496
0.0497513
0.000254397
0.000625616
0.00137077
0.00228774
0.00336851
0.00460675
0.00599967
0.00754524
0.00923259
0.0110244
0.0128562
0.0146661
0.0164132
0.018076
0.0196434
0.0211101
0.0224727
0.0237283
0.0248742
0.0259084
0.0268302
0.0276406
0.0283436
0.0289465
0.0294615
0.0299059
0.030303
0.0306818
0.031076
0.0315212
0.032052
0.0326978
0.0334795
0.0344079
0.0354836
0.0366994
0.0380438
0.0395066
0.0410885
0.0428369
0.0448033
0.0469215
0.0491349
0.000248344
0.000619304
0.00135616
0.00226269
0.00333102
0.00455434
0.00593019
0.00745681
0.00912697
0.0109119
0.0127533
0.0145878
0.0163697
0.0180727
0.0196835
0.0211955
0.0226045
0.0239075
0.0251013
0.026184
0.0271537
0.0280109
0.0287578
0.0294003
0.029948
0.0304158
0.0308239
0.0311986
0.0315711
0.0319763
0.0324495
0.0330228
0.0337217
0.0345624
0.0355506
0.0366832
0.0379507
0.039342
0.0408509
0.042495
0.0443527
0.0464005
0.0485732
0.000242123
0.000612984
0.00134155
0.00223783
0.00329365
0.00450235
0.00586142
0.0073694
0.00902149
0.0107956
0.0126413
0.0144952
0.0163074
0.0180473
0.0196987
0.0212534
0.0227065
0.0240547
0.0252948
0.026424
0.0274407
0.0283439
0.0291351
0.0298185
0.0304018
0.0308975
0.0313232
0.0317023
0.0320636
0.0324403
0.0328675
0.0333791
0.034004
0.0347629
0.035667
0.0367173
0.0379077
0.0392274
0.0406676
0.0422312
0.0439707
0.0459326
0.0480469
0.000235749
0.000606698
0.00132692
0.00221292
0.00325637
0.00445084
0.00579333
0.00728299
0.00891637
0.0106771
0.0125221
0.0143905
0.0162287
0.018002
0.0196911
0.021286
0.022781
0.0241723
0.0254566
0.026631
0.027693
0.0286415
0.0294767
0.0302018
0.0308226
0.0313495
0.0317979
0.0321883
0.0325471
0.0329053
0.0332973
0.0337577
0.0343177
0.035002
0.0358264
0.0367967
0.0379102
0.0391584
0.0405313
0.0420247
0.0436613
0.0455204
0.0475642
0.000229221
0.000600298
0.00131227
0.00218804
0.00321942
0.00439965
0.00572593
0.00719747
0.00881198
0.0105573
0.0123977
0.0142755
0.0161354
0.0179388
0.0196628
0.0212955
0.0228301
0.0242625
0.0255891
0.0268068
0.0279128
0.0289055
0.0297843
0.0305511
0.0312106
0.0317712
0.0322461
0.0326534
0.0330168
0.0333654
0.033732
0.0341509
0.0346552
0.0352724
0.0360226
0.0369161
0.0379543
0.0391311
0.0404368
0.0418645
0.043421
0.0451688
0.0471395
0.00022259
0.000593972
0.00129764
0.0021634
0.00318262
0.00434885
0.00565924
0.00711301
0.00870848
0.010437
0.0122692
0.0141524
0.0160299
0.0178596
0.0196157
0.0212837
0.0228559
0.0243274
0.0256945
0.0269537
0.0281022
0.0291377
0.0300593
0.0308677
0.0315665
0.0321625
0.0326667
0.0330953
0.0334694
0.0338157
0.0341654
0.0345522
0.0350095
0.0355676
0.0362497
0.0370706
0.0380354
0.0391415
0.0403807
0.0417443
0.0432317
0.044876
0.046758
0.000215836
0.000587636
0.00128311
0.00213875
0.00314607
0.00429844
0.00559319
0.00702927
0.00860608
0.0103169
0.0121382
0.0140225
0.0159136
0.0177665
0.0195517
0.0212527
0.0228603
0.0243689
0.0257746
0.0270737
0.028263
0.0293401
0.0303035
0.0311531
0.0318914
0.0325238
0.0330596
0.0335127
0.0339023
0.0342527
0.0345931
0.034956
0.0353749
0.0358816
0.0365022
0.037255
0.0381495
0.0391861
0.040359
0.0416597
0.0430829
0.0446425
0.0464176
0.000208951
0.000581315
0.00126858
0.00211428
0.00310976
0.00424853
0.00552772
0.00694669
0.00850476
0.0101974
0.0120056
0.0138876
0.0157886
0.017661
0.0194725
0.0212042
0.0228451
0.0243889
0.0258313
0.0271686
0.0283973
0.0295146
0.0305186
0.0314087
0.0321863
0.0328557
0.0334246
0.0339051
0.034314
0.0346737
0.0350112
0.0353577
0.0357461
0.036209
0.0367747
0.0374648
0.0382924
0.0392615
0.0403691
0.0416074
0.0429688
0.0444569
0.0461243
0.000201985
0.000575049
0.00125416
0.00208998
0.00307379
0.00419908
0.00546309
0.00686499
0.00840466
0.0100787
0.0118723
0.0137488
0.015656
0.0175447
0.0193798
0.0211397
0.0228119
0.0243891
0.0258665
0.0272402
0.0285067
0.0296629
0.0307064
0.0316361
0.0324527
0.0331593
0.0337623
0.0342721
0.0347036
0.0350768
0.035417
0.0357536
0.0361188
0.0365451
0.0370626
0.0376954
0.0384602
0.0393644
0.0404077
0.0415842
0.042886
0.0443111
0.0458915
0.000194902
0.000568843
0.00123978
0.0020659
0.00303813
0.00415017
0.00539917
0.00678434
0.00830584
0.00996116
0.0117388
0.0136073
0.0155174
0.0174194
0.0192752
0.0210609
0.0227624
0.024371
0.0258818
0.0272903
0.0285931
0.0297866
0.0308685
0.0318369
0.0326918
0.0334356
0.0340733
0.0346139
0.0350703
0.0354609
0.0358085
0.0361409
0.0364893
0.0368859
0.0373616
0.0379429
0.0386492
0.0394915
0.0404724
0.0415883
0.0428315
0.0441976
0.0457024
0.000187688
0.000562625
0.00122558
0.00204199
0.00300287
0.00410179
0.00533601
0.00670482
0.00820833
0.00984506
0.0116058
0.0134641
0.0153741
0.0172861
0.0191601
0.0209693
0.0226979
0.0243364
0.0258787
0.0273206
0.028658
0.0298876
0.0310065
0.0320125
0.0329052
0.0336858
0.0343586
0.0349309
0.0354142
0.0358249
0.0361839
0.0365173
0.0368547
0.0372279
0.0376681
0.0382034
0.0388559
0.0396396
0.0405605
0.0416169
0.042803
0.0441134
0.0455552
0.000180364
0.000556569
0.00121145
0.00201833
0.00296795
0.00405401
0.00527367
0.00662637
0.00811218
0.00973033
0.0114737
0.0133199
0.0152272
0.0171464
0.0190357
0.0208662
0.02262
0.0242865
0.0258588
0.0273324
0.0287031
0.0299673
0.0311219
0.0321645
0.0330941
0.0339112
0.034619
0.0352237
0.0357354
0.0361685
0.0365423
0.036881
0.0372126
0.037568
0.0379787
0.0384737
0.0390772
0.039806
0.0406694
0.0416683
0.0427986
0.0440543
0.0454351
0.000172897
0.000550566
0.00119751
0.00199496
0.00293346
0.00400679
0.0052122
0.00654895
0.00801746
0.00961718
0.0113428
0.0131755
0.0150776
0.0170012
0.0189034
0.0207529
0.02253
0.0242227
0.0258235
0.0273273
0.0287298
0.0300272
0.0312163
0.0322944
0.0332599
0.0341128
0.0348555
0.035493
0.0360341
0.0364916
0.036883
0.0372305
0.0375609
0.0379039
0.0382905
0.0387506
0.03931
0.039988
0.0407968
0.0417403
0.0428168
0.0440227