/*--------------------------------*- C++ -*----------------------------------*\
| =========                 |                                                 |
| \\      /  F ield         | OpenFOAM: The Open Source CFD Toolbox           |
|  \\    /   O peration     | Version:  2.3.0                                 |
|   \\  /    A nd           | Web:      www.OpenFOAM.org                      |
|    \\/     M anipulation  |                                                 |
\*---------------------------------------------------------------------------*/
FoamFile
{
    version     2.0;
    format      ascii;
    class       surfaceScalarField;
    location    "2000";
    object      phi;
}
// * * * * * * * * * * * * * * * * * * * * * * * * * * * * * * * * * * * * * //

dimensions      [0 3 -1 0 0 0 0];

internalField   nonuniform List<scalar> 
74434
(
-0.00344524
-0.00792566
0.00872005
0.00265082
-0.00418867
-0.00765423
0.00839766
-0.00488385
-0.00739079
0.00808597
-0.00553502
-0.00713472
0.0077859
-0.00614229
-0.00688892
0.00749618
-0.00670703
-0.00664989
0.00721464
-0.00722999
-0.00641958
0.00694253
-0.00771182
-0.00619655
0.00667838
-0.00815428
-0.00597981
0.00642227
-0.00855945
-0.00576992
0.00617509
-0.00893039
-0.00556564
0.00593658
-0.00926599
-0.00536889
0.00570448
-0.00956834
-0.00517794
0.00548029
-0.00983928
-0.00499207
0.00526302
-0.0100797
-0.00481203
0.00505248
-0.0102916
-0.0046378
0.00484971
-0.0104756
-0.00446892
0.00465285
-0.0106336
-0.00430437
0.00446241
-0.0107672
-0.00414383
0.0042774
-0.0108759
-0.00398911
0.00409779
-0.0109667
-0.00383618
0.00392702
-0.0110367
-0.00368722
0.00375718
-0.0110882
-0.00354424
0.00359576
-0.0111216
-0.00340292
0.00343639
-0.0111379
-0.00326379
0.00328006
-0.0111392
-0.00312684
0.00312811
-0.0111233
-0.00299349
0.00297765
-0.0110898
-0.00286127
0.00282772
-0.0110386
-0.0027278
0.00267663
-0.0109665
-0.00259615
0.00252404
-0.0108733
-0.00246328
0.00237009
-0.0107525
-0.00233129
0.00221047
-0.0106081
-0.00219189
0.00204753
-0.0104341
-0.0020536
0.00187957
-0.0102314
-0.00190817
0.00170552
-0.00999788
-0.00175911
0.00152555
-0.00973366
-0.00160376
0.00133953
-0.00944619
-0.00143804
0.00115058
-0.0091349
-0.00126634
0.000955044
-0.0088051
-0.0010854
0.000755611
-0.00846038
-0.000898021
0.000553297
-0.00812052
-0.000709404
0.000369549
-0.000517589
-0.00790889
0.000305959
-0.00313276
-0.00722063
0.00242774
-0.00379334
-0.00699365
-0.00440963
-0.0067745
-0.00498379
-0.00656056
-0.00551645
-0.00635625
-0.00600975
-0.00615659
-0.0064648
-0.00596453
-0.00688483
-0.00577652
-0.00726806
-0.00559658
-0.00761729
-0.00542069
-0.00793191
-0.00525102
-0.00821621
-0.00508459
-0.00846882
-0.00492532
-0.00869292
-0.00476797
-0.00888754
-0.00461742
-0.00905455
-0.00447078
-0.00919694
-0.00432653
-0.0093141
-0.00418721
-0.00940684
-0.00405109
-0.00947816
-0.00391778
-0.00952558
-0.00378877
-0.00955207
-0.00366073
-0.00956007
-0.00353624
-0.00955137
-0.00341161
-0.00952499
-0.00329017
-0.00948
-0.00317183
-0.0094234
-0.0030501
-0.00935385
-0.00293082
-0.00926873
-0.00281292
-0.00917237
-0.00269251
-0.00906284
-0.0025728
-0.0089424
-0.00245173
-0.00880804
-0.00232625
-0.00866118
-0.00220046
-0.00849951
-0.00206985
-0.00831813
-0.00194049
-0.00811556
-0.00180633
-0.0078838
-0.00166981
-0.00761803
-0.00153211
-0.00730868
-0.00139475
-0.00694419
-0.00126251
-0.00652065
-0.00113294
-0.00101369
-0.00602455
-0.0028437
-0.0065947
0.00221776
-0.00343217
-0.00640518
-0.00397727
-0.0062294
-0.00448479
-0.00605304
-0.00495469
-0.00588636
-0.00539088
-0.0057204
-0.00579048
-0.00556493
-0.00615612
-0.00541088
-0.00648941
-0.00526329
-0.00679
-0.0051201
-0.00706299
-0.00497803
-0.00730391
-0.00484367
-0.00751937
-0.00470986
-0.00770519
-0.00458215
-0.00786663
-0.00445598
-0.00800412
-0.0043333
-0.00811777
-0.00421288
-0.00820694
-0.00409803
-0.00827551
-0.00398252
-0.00832234
-0.00387096
-0.00835024
-0.00376086
-0.00835843
-0.00365253
-0.00834934
-0.00354533
-0.00832003
-0.00344091
-0.00827478
-0.00333543
-0.0082164
-0.00323021
-0.00813783
-0.00312866
-0.00804555
-0.0030231
-0.00794169
-0.00291678
-0.00782097
-0.00281322
-0.00768754
-0.00270623
-0.0075418
-0.00259747
-0.00738136
-0.00248669
-0.00720832
-0.00237351
-0.0070203
-0.00225787
-0.00681913
-0.00214165
-0.00660391
-0.00202155
-0.00637182
-0.00190191
-0.0061241
-0.00177982
-0.00585979
-0.00165906
-0.00557684
-0.00154546
-0.00527547
-0.00143431
-0.0013344
-0.00495476
-0.00258162
-0.00603118
0.0020181
-0.00310053
-0.00588627
-0.00358774
-0.00574218
-0.00403862
-0.00560216
-0.00445763
-0.00546735
-0.00483926
-0.00533876
-0.00519134
-0.00521285
-0.00551274
-0.00508948
-0.0058046
-0.00497142
-0.00606925
-0.00485546
-0.00630489
-0.00474238
-0.00651398
-0.00463458
-0.00669722
-0.00452662
-0.00685829
-0.00442109
-0.00699416
-0.00432011
-0.00710761
-0.00421984
-0.00719763
-0.00412287
-0.00727081
-0.00402485
-0.00732216
-0.00393117
-0.00735431
-0.00383881
-0.00736901
-0.00374616
-0.00736584
-0.00365571
-0.0073466
-0.00356457
-0.00731107
-0.00347644
-0.00725948
-0.00338702
-0.00719372
-0.00329598
-0.00711535
-0.00320704
-0.00702222
-0.00311623
-0.00691518
-0.00302382
-0.00679668
-0.00293172
-0.00666659
-0.00283631
-0.00652539
-0.00273868
-0.00637126
-0.00264081
-0.00620441
-0.00254036
-0.00602633
-0.00243595
-0.00583664
-0.00233134
-0.00563347
-0.00222472
-0.00542003
-0.00211535
-0.00519018
-0.00200968
-0.00494743
-0.00190181
-0.00469408
-0.0017988
-0.00442718
-0.00170121
-0.00161107
-0.00415051
-0.00233599
-0.00552988
0.00183469
-0.00280438
-0.00541788
-0.0032365
-0.00531006
-0.00363818
-0.00520048
-0.00400803
-0.00509749
-0.00434869
-0.00499811
-0.00466013
-0.00490141
-0.00494373
-0.00480588
-0.00520184
-0.00471331
-0.00543278
-0.00462453
-0.0056383
-0.00453685
-0.00582229
-0.00445059
-0.00598158
-0.00436733
-0.00611837
-0.00428429
-0.00623481
-0.00420368
-0.00633041
-0.00412423
-0.00640762
-0.00404566
-0.00646409
-0.00396839
-0.00650356
-0.0038917
-0.00652685
-0.00381552
-0.00653165
-0.00374136
-0.00652299
-0.00366436
-0.00649726
-0.0035903
-0.00645754
-0.00351616
-0.00640607
-0.00343849
-0.00633787
-0.00336418
-0.0062588
-0.00328611
-0.00616835
-0.00320667
-0.00606481
-0.00312737
-0.0059509
-0.00304563
-0.00582495
-0.00296227
-0.00568707
-0.00287655
-0.00554134
-0.00278654
-0.00538563
-0.00269607
-0.00521722
-0.00260436
-0.00504126
-0.0025073
-0.00485572
-0.00241025
-0.00465732
-0.00231375
-0.0044534
-0.0022136
-0.00423721
-0.002118
-0.00401244
-0.00202357
-0.00378024
-0.00193341
-0.00184928
-0.00354203
-0.00211532
-0.00508394
0.00166938
-0.0025327
-0.0050005
-0.00292113
-0.00492163
-0.00327783
-0.00484378
-0.00360689
-0.00476843
-0.00391084
-0.00469416
-0.00418842
-0.00462384
-0.00443988
-0.00455442
-0.00466778
-0.00448541
-0.00487239
-0.00441992
-0.00505453
-0.00435471
-0.00521438
-0.00429074
-0.00535431
-0.0042274
-0.00547359
-0.00416502
-0.00557304
-0.00410422
-0.00565494
-0.00404233
-0.00571841
-0.0039822
-0.00576475
-0.00392205
-0.00579724
-0.0038592
-0.00581198
-0.00380079
-0.00581423
-0.00373912
-0.00579874
-0.00367985
-0.0057733
-0.00361574
-0.00573395
-0.00355551
-0.00568017
-0.00349227
-0.00561621
-0.00342814
-0.00554161
-0.00336071
-0.00545361
-0.00329467
-0.00535707
-0.00322392
-0.00524898
-0.00315372
-0.00513181
-0.00307944
-0.0050058
-0.00300255
-0.0048678
-0.00292455
-0.00472315
-0.00284072
-0.00456991
-0.0027576
-0.00440697
-0.00267025
-0.00423601
-0.00258121
-0.00405771
-0.00249205
-0.00387036
-0.00240094
-0.00367597
-0.0023124
-0.0034751
-0.00222445
-0.00326867
-0.00213984
-0.00206179
-0.00305616
-0.00191536
-0.00467988
0.00151131
-0.00228942
-0.00462644
-0.00263522
-0.00457583
-0.00295592
-0.00452309
-0.00325087
-0.00447348
-0.00351943
-0.00442561
-0.0037674
-0.00437586
-0.00399168
-0.00433014
-0.0041928
-0.00428429
-0.00437482
-0.0042379
-0.00453636
-0.00419317
-0.0046783
-0.00414879
-0.00480177
-0.00410394
-0.00490566
-0.00406113
-0.00499278
-0.0040171
-0.00506387
-0.00397125
-0.00511824
-0.00392783
-0.00515779
-0.0038825
-0.00518089
-0.0038361
-0.00519249
-0.00378919
-0.00518988
-0.00374172
-0.00517504
-0.00369469
-0.0051472
-0.00364359
-0.0051082
-0.0035945
-0.0050573
-0.00354318
-0.00499747
-0.00348796
-0.00492536
-0.00343282
-0.00484378
-0.00337624
-0.00475158
-0.00331612
-0.00465219
-0.0032531
-0.00454276
-0.00318887
-0.00442565
-0.00311966
-0.00430215
-0.00304805
-0.00416826
-0.00297461
-0.00402714
-0.00289872
-0.0038789
-0.00281848
-0.0037224
-0.00273771
-0.00355939
-0.00265506
-0.0033918
-0.00256854
-0.00321717
-0.00248702
-0.00303737
-0.00240424
-0.00285145
-0.00232577
-0.00225159
-0.00266164
-0.00173159
-0.00431868
0.00137039
-0.00206841
-0.00428962
-0.00237876
-0.00426548
-0.00266613
-0.00423572
-0.00292922
-0.00421039
-0.00317322
-0.00418161
-0.00339243
-0.00415664
-0.00359201
-0.00413056
-0.0037729
-0.0041034
-0.00393463
-0.00407617
-0.00407778
-0.00405002
-0.00420394
-0.00402264
-0.00431177
-0.0039961
-0.00440466
-0.00396823
-0.00448139
-0.00394037
-0.00454242
-0.00391021
-0.00458945
-0.0038808
-0.00462293
-0.00384902
-0.00464281
-0.00381622
-0.00465086
-0.00378114
-0.00464581
-0.00374678
-0.00462997
-0.00371053
-0.00460241
-0.00367114
-0.00456326
-0.00363365
-0.00451745
-0.00358899
-0.00445804
-0.00354737
-0.00439167
-0.00349919
-0.0043185
-0.00344942
-0.00423425
-0.00340037
-0.00414181
-0.00334554
-0.00404176
-0.00328893
-0.00393316
-0.00322825
-0.00381824
-0.00316297
-0.00369488
-0.00309797
-0.00356712
-0.00302648
-0.00343313
-0.00295247
-0.00329092
-0.00287993
-0.00314497
-0.002801
-0.00298933
-0.00272418
-0.00283228
-0.00264407
-0.00266975
-0.00256678
-0.00250431
-0.0024912
-0.00242156
-0.00233435
-0.00156842
-0.00399228
0.00124202
-0.00187025
-0.00398779
-0.00215
-0.00398573
-0.00240567
-0.00398006
-0.00264229
-0.00397377
-0.00286057
-0.00396333
-0.00305828
-0.00395893
-0.00323746
-0.00395138
-0.00339839
-0.00394247
-0.00354226
-0.0039323
-0.00367032
-0.00392196
-0.0037816
-0.00391136
-0.0038792
-0.0038985
-0.00396262
-0.00388482
-0.00403101
-0.00387199
-0.00408476
-0.00385645
-0.00412617
-0.00383939
-0.00415404
-0.00382116
-0.00417007
-0.00380018
-0.00417419
-0.00377702
-0.00416885
-0.00375212
-0.00415109
-0.00372828
-0.00412686
-0.00369537
-0.00409036
-0.00367016
-0.00404575
-0.00363359
-0.0039918
-0.00360132
-0.00392997
-0.00356103
-0.00385961
-0.00351977
-0.00378359
-0.00347639
-0.00369859
-0.00343054
-0.0036074
-0.00338012
-0.00350909
-0.00332657
-0.00340331
-0.00326875
-0.0032936
-0.00320768
-0.00317645
-0.00314363
-0.00305293
-0.003076
-0.00292404
-0.00300882
-0.00278865
-0.00293639
-0.00265022
-0.00286261
-0.0025081
-0.0027862
-0.00236135
-0.00271353
-0.00221041
-0.00264214
-0.00205796
-0.002574
-0.00682975
-0.000397022
-0.000682117
-0.00607708
-0.000397673
-0.000354995
-0.00546747
-0.000419201
-0.000190414
-0.0049446
-0.00045039
-7.24808e-05
-0.00448159
-0.000487273
2.42718e-05
-0.00406667
-0.00052845
0.000113526
-0.0036876
-0.000573474
0.000194403
-0.003337
-0.000622653
0.000272048
-0.00300977
-0.000674309
0.000347087
-0.00270466
-0.000725654
0.000420542
-0.0024156
-0.000782244
0.000493182
-0.00214298
-0.000838186
0.000565566
-0.00188531
-0.000896639
0.000638971
-0.00163989
-0.00095762
0.000712198
-0.00140889
-0.001018
0.000787
-0.00119084
-0.00108115
0.0008631
-0.000984671
-0.0011467
0.000940529
-0.00079035
-0.00121402
0.0010197
-0.000609485
-0.0012824
0.00110153
-0.000440658
-0.0013529
0.00118407
-0.000284736
-0.00142707
0.00127115
-0.000141236
-0.00150286
0.00135936
-1.20318e-05
-0.00158119
0.00145198
0.000104728
-0.00166287
0.00154611
0.000205665
-0.00174661
0.00164567
0.000293081
-0.00183416
0.00174674
0.000363498
-0.00192399
0.00185357
0.000418655
-0.00201876
0.0019636
0.000457399
-0.00211683
0.00207809
0.000477847
-0.00221793
0.00219749
0.000479837
-0.00232357
0.00232158
0.000462452
-0.00243322
0.00245061
0.000424192
-0.00254714
0.0025854
0.000365286
-0.00266611
0.00272502
0.000282958
-0.00278915
0.00287148
0.000178472
-0.00291827
0.00302276
4.84656e-05
-0.00305194
0.00318194
-0.000107076
-0.00319151
0.00334705
-0.000289442
-0.00333679
0.00351915
-0.00050014
-0.0034879
0.0036986
-0.000740958
-0.003645
0.00388582
-0.00101232
-0.00380965
0.00408101
-0.00398036
0.00428526
-0.00131721
-0.00549388
-0.000927696
-0.00500597
-0.000885583
-0.00456201
-0.00086316
-0.00415751
-0.000854891
-0.00378458
-0.000860207
-0.00343822
-0.000874812
-0.00311495
-0.000896735
-0.00281296
-0.000924653
-0.00253116
-0.000956101
-0.00226296
-0.000993854
-0.00201143
-0.00103377
-0.00177224
-0.00107738
-0.00154632
-0.00112256
-0.00133412
-0.00116982
-0.00113197
-0.00122015
-0.000941731
-0.00127139
-0.00076193
-0.0013265
-0.000594465
-0.00138148
-0.000437434
-0.00143943
-0.000291199
-0.00149913
-0.000156475
-0.0015618
-3.38226e-05
-0.00162551
7.74218e-05
-0.00169243
0.000175175
-0.00176062
0.000260518
-0.00183195
0.000332263
-0.00190591
0.000390618
-0.00198234
0.000434011
-0.00206215
0.000461297
-0.00214412
0.000472467
-0.0022291
0.000467416
-0.00231851
0.000444097
-0.00240991
0.000402985
-0.00250603
0.000341998
-0.00260512
0.000261499
-0.00270865
0.000158775
-0.00281555
3.46441e-05
-0.00292781
-0.000113012
-0.00304385
-0.000284617
-0.00316518
-0.000481947
-0.00329057
-0.000705018
-0.00342193
-0.000956656
-0.00355801
-0.00369976
-0.00123726
-0.00462015
-0.0012623
-0.00428328
-0.00122245
-0.00395201
-0.00119443
-0.00363251
-0.00117439
-0.00332393
-0.00116879
-0.00303159
-0.00116716
-0.0027524
-0.00117592
-0.00248634
-0.00119072
-0.00223283
-0.0012096
-0.00199142
-0.00123527
-0.00176391
-0.00126128
-0.00154725
-0.00129404
-0.00134146
-0.00132835
-0.0011461
-0.00136518
-0.000962752
-0.0014035
-0.000787511
-0.00144663
-0.000625164
-0.00148884
-0.000472578
-0.00153407
-0.000329446
-0.00158256
-0.000198046
-0.00163053
-7.79665e-05
-0.00168188
3.24361e-05
-0.00173591
0.00013025
-0.00179025
0.000215953
-0.00184632
0.000290166
-0.00190616
0.000352102
-0.00196784
0.000400009
-0.00203025
0.000434151
-0.00209629
0.000454643
-0.00216461
0.000460853
-0.00223531
0.000450215
-0.00230788
0.000424707
-0.0023844
0.000381712
-0.00246303
0.000321155
-0.00254457
0.000242275
-0.00262977
0.000144284
-0.00271756
2.63666e-05
-0.00280989
-0.000112232
-0.00290526
-0.000273322
-0.00300409
-0.000456957
-0.00310694
-0.000664122
-0.00321477
-0.000895934
-0.0033262
-0.00344158
-0.00115411
-0.00386812
-0.0015447
-0.0035891
-0.00150147
-0.00331643
-0.0014671
-0.00304925
-0.00144158
-0.00279342
-0.00142461
-0.00254379
-0.00141679
-0.00230634
-0.00141336
-0.00207849
-0.00141858
-0.00186016
-0.00142793
-0.00165259
-0.00144284
-0.00145323
-0.00146064
-0.00126411
-0.00148316
-0.0010851
-0.00150735
-0.000915725
-0.00153456
-0.000754341
-0.00156488
-0.000603643
-0.00159733
-0.000460705
-0.00163178
-0.000326879
-0.00166789
-0.000204422
-0.00170502
-8.96254e-05
-0.00174533
1.49715e-05
-0.00178647
0.000108336
-0.00182928
0.000191785
-0.0018737
0.000265181
-0.00191972
0.000327092
-0.00196808
0.00037732
-0.00201807
0.000416082
-0.00206901
0.000442211
-0.00212242
0.000455249
-0.00217765
0.000454674
-0.00223474
0.000440623
-0.00229383
0.000411228
-0.002355
0.000367156
-0.00241896
0.000307152
-0.00248456
0.000229908
-0.00255253
0.000136649
-0.0026243
2.40706e-05
-0.00269731
-0.00010679
-0.00277439
-0.000257114
-0.00285377
-0.000428013
-0.00293604
-0.000620902
-0.00302188
-0.000836811
-0.00311029
-0.00320308
-0.0010753
-0.00330058
-0.00178615
-0.0030632
-0.00173885
-0.00282964
-0.00170067
-0.00260256
-0.00166865
-0.0023802
-0.00164697
-0.00216719
-0.0016298
-0.00195868
-0.00162187
-0.00176028
-0.00161698
-0.00156841
-0.0016198
-0.00138663
-0.00162463
-0.00121257
-0.00163469
-0.00104628
-0.00164945
-0.000887562
-0.00166607
-0.000736688
-0.00168543
-0.00059451
-0.00170706
-0.000461059
-0.00173078
-0.000335583
-0.00175726
-0.000218004
-0.00178547
-0.000109661
-0.00181336
-9.47207e-06
-0.00184552
8.13189e-05
-0.00187726
0.000162551
-0.00191051
0.000234828
-0.00194597
0.000298443
-0.00198334
0.000350833
-0.00202047
0.000391671
-0.00205891
0.000422783
-0.00210012
0.000442292
-0.00214193
0.000450441
-0.0021858
0.000445453
-0.00222975
0.000428231
-0.0022766
0.000397545
-0.00232432
0.000352922
-0.00237434
0.000294362
-0.002426
0.00022072
-0.00247889
0.000130607
-0.00253418
2.48563e-05
-0.00259156
-9.79254e-05
-0.00265161
-0.000239103
-0.00271259
-0.000398324
-0.00277682
-0.000577388
-0.00284281
-0.000775256
-0.00291242
-0.00298265
-0.000995694
-0.00284463
-0.00199767
-0.00263614
-0.00194734
-0.00243145
-0.00190536
-0.00223024
-0.00186986
-0.00203686
-0.00184035
-0.00184883
-0.00181783
-0.00166678
-0.00180392
-0.0014912
-0.00179256
-0.00132348
-0.00178752
-0.00116245
-0.00178566
-0.00100702
-0.00179012
-0.000860459
-0.00179602
-0.000720513
-0.00180602
-0.000588357
-0.00181759
-0.000462091
-0.00183333
-0.000343016
-0.00184985
-0.000232846
-0.00186743
-0.000129949
-0.00188837
-3.34072e-05
-0.0019099
5.28924e-05
-0.00193182
0.000132485
-0.00195686
0.000203999
-0.00198202
0.000267212
-0.00200919
0.000319623
-0.00203575
0.000363928
-0.00206477
0.00039975
-0.00209473
0.000423789
-0.00212416
0.000438602
-0.00215674
0.000441687
-0.00218888
0.000434074
-0.00222214
0.000414613
-0.00225714
0.000383561
-0.00229326
0.000339722
-0.0023305
0.000281907
-0.00236819
0.00021161
-0.00240859
0.000127041
-0.00244961
2.69904e-05
-0.00249151
-8.8554e-05
-0.00253607
-0.000219185
-0.00258196
-0.000367629
-0.00262837
-0.000532473
-0.00267797
-0.000717206
-0.00272769
-0.00278078
-0.000919071
-0.00247326
-0.00218605
-0.00228699
-0.00213362
-0.00210583
-0.00208652
-0.00192911
-0.00204657
-0.00175702
-0.00201244
-0.00158928
-0.00198557
-0.00142775
-0.00196545
-0.00127235
-0.00194797
-0.00112281
-0.00193706
-0.000979241
-0.00192922
-0.000842558
-0.00192681
-0.000711598
-0.00192698
-0.000587601
-0.00193001
-0.000467656
-0.00193754
-0.000357075
-0.00194391
-0.000251692
-0.00195523
-0.000152943
-0.00196618
-6.16105e-05
-0.0019797
2.20912e-05
-0.0019936
9.99995e-05
-0.00200972
0.000169968
-0.00202683
0.000231962
-0.00204402
0.000285592
-0.00206282
0.000332156
-0.00208231
0.00036983
-0.00210244
0.000398344
-0.00212324
0.000418824
-0.00214464
0.000428754
-0.00216667
0.000428578
-0.00218871
0.000419386
-0.00221294
0.000399328
-0.00223708
0.000367357
-0.00226129
0.000324338
-0.00228748
0.000270521
-0.00231437
0.000202636
-0.0023407
0.000122636
-0.00236962
2.95431e-05
-0.00239842
-7.77497e-05
-0.00242878
-0.000200258
-0.00245945
-0.000337463
-0.00249117
-0.00049126
-0.00252417
-0.000660351
-0.0025586
-0.002594
-0.000847134
-0.00216394
-0.00235647
-0.00199736
-0.0023002
-0.0018341
-0.00224978
-0.00167718
-0.00220348
-0.00152419
-0.00216544
-0.00137433
-0.00213542
-0.00122916
-0.00211062
-0.00109025
-0.00208688
-0.000957506
-0.0020698
-0.000829793
-0.00205693
-0.000707252
-0.00204935
-0.000590719
-0.00204351
-0.000478254
-0.00204248
-0.000372749
-0.00204304
-0.00027273
-0.00204393
-0.000179802
-0.00204816
-9.25501e-05
-0.00205343
-1.2099e-05
-0.00206015
6.33894e-05
-0.00206909
0.000131911
-0.00207825
0.000192995
-0.00208791
0.000248329
-0.00209935
0.000295882
-0.00211037
0.000336261
-0.00212269
0.000368487
-0.00213467
0.000392287
-0.00214704
0.000407998
-0.00216035
0.000414694
-0.00217337
0.00041356
-0.00218757
0.000402217
-0.0022016
0.000380867
-0.00221573
0.000351227
-0.00223165
0.00030939
-0.00224564
0.0002571
-0.00226208
0.000194126
-0.00227773
0.000118601
-0.00229409
3.13376e-05
-0.00231115
-6.89817e-05
-0.00232846
-0.000181993
-0.00234644
-0.000309198
-0.00236396
-0.000450703
-0.00238267
-0.000607305
-0.002402
-0.002422
-0.000779305
-0.00190226
-0.00251217
-0.00175404
-0.00244842
-0.00160565
-0.00239817
-0.00146575
-0.00234339
-0.00132995
-0.00230124
-0.00119339
-0.00227198
-0.00106345
-0.00224057
-0.000941982
-0.00220834
-0.000821524
-0.00219026
-0.000706687
-0.00217177
-0.000597027
-0.00215901
-0.000490942
-0.00214959
-0.00039052
-0.0021429
-0.00029785
-0.00213571
-0.000208473
-0.0021333
-0.000125219
-0.00213142
-4.70145e-05
-0.00213163
2.60942e-05
-0.00213326
9.30697e-05
-0.00213607
0.000154445
-0.00213962
0.000208899
-0.00214236
0.000256241
-0.00214669
0.000297816
-0.00215194
0.000332443
-0.00215732
0.00036041
-0.00216264
0.000381111
-0.00216774
0.000393467
-0.00217271
0.000398448
-0.00217835
0.000395145
-0.00218427
0.00038374
-0.00219019
0.0003627
-0.0021947
0.000332352
-0.00220131
0.000293389
-0.00220668
0.000243771
-0.00221246
0.000184648
-0.00221861
0.000115146
-0.00222459
3.37939e-05
-0.0022298
-5.94203e-05
-0.00223524
-0.000165192
-0.00224067
-0.000282207
-0.00224695
-0.000412571
-0.0022523
-0.000556631
-0.00225794
-0.0022643
-0.000714325
4.7306e-05
0.00208818
-0.00230264
0.000167158
0.000231575
0.00192681
-0.00211108
0.000388287
0.0017779
-0.00193462
0.000520539
0.00163999
-0.00177225
0.000631285
0.00151265
-0.00162339
0.000722864
0.00139485
-0.00148643
0.000797229
0.00128618
-0.00136054
0.000856919
0.00118566
-0.00124535
0.000903595
0.00109312
-0.0011398
0.000938675
0.00100763
-0.00104271
0.000963868
0.000928586
-0.000953779
0.000980615
0.000855696
-0.000872442
0.000989719
0.000788753
-0.000797858
0.000992989
0.000726385
-0.000729654
0.000990652
0.000669314
-0.000666977
0.00098404
0.000616578
-0.000609966
0.000973411
0.0005679
-0.000557271
0.000960022
0.000522669
-0.00050928
0.000944097
0.00048143
-0.000465505
0.000925917
0.000443207
-0.000425026
0.000906645
0.000408032
-0.000388761
0.000886434
0.000375137
-0.000354925
0.00086573
0.000345532
-0.000324828
0.000844427
0.000318093
-0.000296791
0.000823312
0.000292862
-0.000271747
0.00080232
0.000269955
-0.000248963
0.000781589
0.000249013
-0.000228282
0.000761993
0.000229687
-0.000210092
0.0007426
0.000212645
-0.000193252
0.000724253
0.000196894
-0.000178549
0.000706239
0.000183461
-0.000165448
0.000689087
0.000170999
-0.000153847
0.000672081
0.000160658
-0.000143653
0.000655061
0.000151913
-0.000134894
0.000637583
0.000145165
-0.000127687
0.000617976
0.000141127
-0.000121521
0.000594738
0.000140273
-0.000117034
0.000563618
0.000144923
-0.000113806
0.000517816
0.000158629
-0.000112827
0.000445119
0.000188989
-0.000116296
0.000319201
0.000254048
-0.000128129
8.27877e-05
0.000396838
-0.000160429
0.000730907
-0.000417155
-0.000230964
5.62354e-05
0.0018971
0.000134839
0.000221156
0.00176189
0.000362404
0.00163665
0.000482827
0.00151957
0.000584091
0.00141138
0.000668669
0.00131028
0.00073834
0.00121651
0.000794502
0.0011295
0.000839145
0.00104848
0.000873387
0.000973387
0.000898578
0.000903394
0.000915742
0.000838532
0.000926206
0.000778288
0.000930542
0.000722049
0.000929779
0.000670077
0.000925004
0.000621352
0.000916504
0.0005764
0.000904989
0.000534184
0.000890893
0.000495526
0.000875288
0.000458811
0.000857875
0.000425445
0.000839415
0.000393596
0.000820191
0.000364755
0.000800614
0.00033767
0.000781119
0.000312357
0.000761475
0.000289599
0.000742474
0.000268013
0.000723523
0.000248638
0.000705447
0.000230721
0.000687367
0.000214973
0.000669868
0.00020096
0.000652231
0.000188636
0.000633934
0.000178955
0.000614329
0.000171518
0.000591412
0.000168082
0.000563455
0.000169083
0.000526233
0.000177495
0.00047404
0.000197116
0.000397749
0.00023492
0.000282097
0.000304639
0.000104459
0.000431686
-0.000165406
0.000666703
0.00108925
-0.000523752
6.0786e-05
0.00172713
0.00010919
0.000208102
0.00161458
0.000335198
0.00150956
0.000443715
0.00141105
0.000535968
0.00131913
0.000613123
0.00123312
0.000676676
0.00115295
0.000728709
0.00107747
0.000770351
0.00100684
0.000802454
0.000941285
0.00082629
0.000879558
0.000843085
0.000821737
0.000853494
0.000767879
0.000858271
0.000717272
0.000858836
0.000669512
0.000854838
0.00062535
0.000847732
0.000583507
0.000837525
0.000544391
0.00082548
0.000507571
0.000810852
0.000473438
0.000795267
0.000441031
0.000778376
0.000410486
0.000760814
0.000382318
0.000742662
0.000355822
0.000724003
0.000331015
0.00070575
0.000307852
0.000687295
0.000286469
0.000669121
0.000266812
0.000650635
0.000249207
0.00063257
0.000233038
0.000613975
0.000219556
0.00059449
0.000208121
0.000573363
0.000200082
0.000548973
0.000195908
0.000520027
0.000197029
0.000482997
0.000206112
0.000434222
0.000226271
0.000367736
0.000263601
0.000274647
0.00032801
0.000143532
0.000435754
-4.17622e-05
0.000616981
-0.000292633
0.000917573
0.00138206
-0.000585436
6.31513e-05
0.00157596
8.80173e-05
0.0001951
0.00148263
0.000309369
0.00139529
0.000407226
0.0013132
0.000490695
0.00123566
0.000560875
0.00116294
0.000619573
0.00109425
0.00066755
0.00102949
0.000706021
0.000968366
0.00073622
0.000911086
0.00075884
0.000856938
0.000774864
0.000805714
0.000785079
0.000757663
0.00079048
0.000711871
0.000790849
0.000669143
0.000787983
0.000628216
0.000781604
0.000589886
0.000772608
0.000553386
0.000761185
0.000518994
0.000748095
0.000486528
0.00073361
0.000455516
0.000717573
0.000426523
0.000700825
0.000399066
0.000683558
0.000373089
0.000665898
0.000348675
0.000647991
0.000325759
0.000629834
0.000304626
0.000611402
0.000285245
0.000593077
0.000267532
0.000573977
0.000252138
0.00055439
0.000239143
0.000533069
0.000229442
0.000509603
0.000223548
0.000482218
0.000223293
0.000449007
0.00023024
0.000407463
0.000247657
0.00035358
0.000280154
0.000282149
0.000335032
0.00018583
0.00042433
5.46796e-05
0.000566903
-0.000120562
0.000792223
-0.000347096
0.00114411
0.00164433
-0.000609366
6.36931e-05
0.00144012
7.21445e-05
0.000181721
0.0013646
0.000284347
0.00129266
0.000373008
0.00122454
0.000448586
0.00116008
0.000512725
0.0010988
0.000566291
0.00104069
0.000610327
0.000985455
0.000646096
0.000932596
0.000674322
0.00088286
0.000695479
0.000835781
0.000710544
0.000790649
0.000720585
0.000747623
0.000725348
0.000707109
0.000726564
0.000667926
0.000723856
0.000630924
0.000718351
0.000595391
0.000709871
0.000561867
0.00069956
0.000529305
0.000687166
0.000498921
0.000673204
0.000469479
0.000658362
0.000441365
0.000642406
0.000415022
0.000626078
0.000389416
0.000608979
0.000365774
0.000591513
0.000343226
0.000573895
0.000322243
0.000556134
0.000303006
0.000537798
0.000285868
0.000518655
0.000271281
0.000498462
0.000259336
0.000476299
0.000251605
0.000451396
0.000248452
0.000422641
0.000252048
0.000387878
0.000265003
0.000344541
0.000290993
0.000289592
0.000335103
0.000218016
0.000406609
0.000123522
0.000518824
-1.08008e-06
0.000691506
-0.000164027
0.00095517
-0.000369592
0.00134967
0.0018841
-0.000609363
6.28811e-05
0.0013197
5.75367e-05
0.000168651
0.00125883
0.000260968
0.00120035
0.000340883
0.00114462
0.000409669
0.0010913
0.000467889
0.00104058
0.000516778
0.0009918
0.000557284
0.000944949
0.000590045
0.000899835
0.000616229
0.000856676
0.000636217
0.000815793
0.00065065
0.000776216
0.000659685
0.000738588
0.000664603
0.000702191
0.000665531
0.000666998
0.000663578
0.000632877
0.00065821
0.000600759
0.000650874
0.000569203
0.000641086
0.000539092
0.000629541
0.000510466
0.000616519
0.0004825
0.000602435
0.000455449
0.000587707
0.000429751
0.000571649
0.000405474
0.000555369
0.000382054
0.000538721
0.000359874
0.000521583
0.000339381
0.00050409
0.000320499
0.000485959
0.000303999
0.00046754
0.000289701
0.000447499
0.000279377
0.000425588
0.000273515
0.000400822
0.000273218
0.000371678
0.000281193
0.00033698
0.000299701
0.000293954
0.000334019
0.000239682
0.000389374
0.000169823
0.000476468
7.99792e-05
0.000608667
-3.67704e-05
0.000808255
-0.000187712
0.00110611
-0.000376237
0.0015382
0.00210199
-0.000594132
6.10564e-05
0.00121181
4.68339e-05
0.000156129
0.00116376
0.000239268
0.00111721
0.000311518
0.00107237
0.000373848
0.00102897
0.000426901
0.000987531
0.000471303
0.000947398
0.000508123
0.000908129
0.000538434
0.000869524
0.000562333
0.000832776
0.00058126
0.000796866
0.000594649
0.000762827
0.000603422
0.000729815
0.000608145
0.000697468
0.000609337
0.000665806
0.000607069
0.000635146
0.000602945
0.000604883
0.000595572
0.000576576
0.000586504
0.000548161
0.000576074
0.000520896
0.000563943
0.000494632
0.000550397
0.000468995
0.000536135
0.000444013
0.00052125
0.000420359
0.000505998
0.000397305
0.000489828
0.000376044
0.000473313
0.000355896
0.000456518
0.000337295
0.00043944
0.000321076
0.000421404
0.000307737
0.000401978
0.000298803
0.000380886
0.000294607
0.000356751
0.000297353
0.000328685
0.000309259
0.000294639
0.000333747
0.000253101
0.000375558
0.000200541
0.000441934
0.000133403
0.000543607
4.7701e-05
0.00069437
-6.13411e-05
0.000917297
-0.000199643
0.00124441
-0.000372022
0.00171058
0.00230399
-0.000574021
5.88482e-05
0.00111489
3.80698e-05
0.000143775
0.00107883
0.000218681
0.0010423
0.00028406
0.00100699
0.000340757
0.000972271
0.000388998
0.00093929
0.000429439
0.000906957
0.000462951
0.000874617
0.000490574
0.000841901
0.000512798
0.000810552
0.000529825
0.000779839
0.000542551
0.000750101
0.000551099
0.000721267
0.000555428
0.000693139
0.000556185
0.000665049
0.000554667
0.000636664
0.000550369
0.00060918
0.000543926
0.00058302
0.00053587
0.000556216
0.000525881
0.000530885
0.000514749
0.000505764
0.000501915
0.000481829
0.000488511
0.000457417
0.000474628
0.000434242
0.000459913
0.000412021
0.000444736
0.000391221
0.000429222
0.000371409
0.000413054
0.000353464
0.000396578
0.000337552
0.000379441
0.000324875
0.000361451
0.000316793
0.000341259
0.000314799
0.000318254
0.000320357
0.000291566
0.000335948
0.000259557
0.000365756
0.000220208
0.000414907
0.000170705
0.000491437
0.000106974
0.000607337
2.56224e-05
0.000775721
-7.54993e-05
0.00101842
-0.000202705
0.00137162
-0.000362497
0.00187037
0.00249222
-0.000550729
5.53554e-05
2.99165e-05
0.00102962
0.000132025
0.00100216
0.00019939
0.000974935
0.000258707
0.000947676
0.000310504
0.000920474
0.000354873
0.000894921
0.000391253
0.000870576
0.000421688
0.000844183
0.000447008
0.000816581
0.000467741
0.000789819
0.000483986
0.000763594
0.000496172
0.000737915
0.000504476
0.000712963
0.000508645
0.000688969
0.000508846
0.000664848
0.000507164
0.000638346
0.00050367
0.000612674
0.000497276
0.000589414
0.00048962
0.000563872
0.000480752
0.000539753
0.000470357
0.000516159
0.000458556
0.00049363
0.000445912
0.000470061
0.000432709
0.000447445
0.000418837
0.000425892
0.000404787
0.000405271
0.000389668
0.000386528
0.000374029
0.000369102
0.000358261
0.00035332
0.000342031
0.000341105
0.000325187
0.000333637
0.000306434
0.000333553