/*--------------------------------*- C++ -*----------------------------------*\
| =========                 |                                                 |
| \\      /  F ield         | OpenFOAM: The Open Source CFD Toolbox           |
|  \\    /   O peration     | Version:  2.3.0                                 |
|   \\  /    A nd           | Web:      www.OpenFOAM.org                      |
|    \\/     M anipulation  |                                                 |
\*---------------------------------------------------------------------------*/
FoamFile
{
    version     2.0;
    format      ascii;
    class       volVectorField;
    location    "2000";
    object      U;
}
// * * * * * * * * * * * * * * * * * * * * * * * * * * * * * * * * * * * * * //

dimensions      [0 1 -1 0 0 0 0];

internalField   nonuniform List<vector> 
37387
(
(25.4586 9.97771 2.182e-21)
(25.4664 10.2797 1.85636e-21)
(25.4698 10.5718 -2.45013e-21)
(25.4673 10.8709 -7.30843e-21)
(25.4587 11.1763 0)
(25.4434 11.4884 1.09333e-20)
(25.4207 11.8074 0)
(25.3903 12.1335 -7.67045e-21)
(25.3514 12.4672 0)
(25.3039 12.8086 -9.07742e-21)
(25.2473 13.1584 0)
(25.1812 13.5168 0)
(25.1053 13.8844 0)
(25.0191 14.2617 5.16582e-21)
(24.9217 14.6491 1.40204e-20)
(24.8127 15.0474 1.8702e-19)
(24.691 15.4573 -2.03381e-19)
(24.5559 15.8797 2.33596e-19)
(24.4062 16.3155 -2.41869e-19)
(24.241 16.7659 6.11951e-21)
(24.059 17.232 2.91653e-19)
(23.8587 17.7145 -2.85411e-19)
(23.6388 18.2144 7.44482e-21)
(23.3971 18.7321 6.03865e-21)
(23.1308 19.2672 -8.41707e-21)
(22.8361 19.8183 0)
(22.5084 20.3832 4.2523e-19)
(22.1412 20.9581 -4.38279e-19)
(21.7263 21.5374 4.70668e-19)
(21.2541 22.1136 -1.00775e-18)
(20.7129 22.6779 5.3329e-19)
(20.0883 23.219 -1.9788e-20)
(19.3615 23.7252 -1.53799e-20)
(18.5107 24.1825 -5.81635e-21)
(17.5099 24.5759 -3.2265e-19)
(16.3296 24.8886 3.58417e-19)
(14.9368 25.1049 0)
(13.2944 25.2058 -3.88782e-21)
(11.3606 25.1512 0)
(9.09605 24.8886 6.7032e-20)
(6.48438 24.4685 -5.70653e-20)
(3.53872 24.0803 4.99433e-20)
(0.386263 23.3113 -7.67618e-20)
(25.1629 10.0039 3.91103e-22)
(25.1511 10.2682 8.83728e-22)
(25.1379 10.5295 -2.73062e-21)
(25.1195 10.7969 0)
(25.0953 11.0695 -1.24137e-21)
(25.0647 11.3474 1.20314e-20)
(25.0272 11.6307 -1.1904e-20)
(24.9823 11.9194 -3.45719e-20)
(24.9295 12.2136 4.1941e-20)
(24.8683 12.5136 0)
(24.7982 12.8196 0)
(24.7187 13.1319 0)
(24.6295 13.4507 8.38683e-20)
(24.5301 13.7763 -1.67611e-19)
(24.4198 14.1086 9.17613e-20)
(24.2979 14.4481 -1.07461e-19)
(24.1635 14.7947 1.07969e-19)
(24.0153 15.1486 0)
(23.852 15.5099 8.46177e-21)
(23.6721 15.879 -6.11514e-21)
(23.4739 16.2561 -1.41285e-19)
(23.2553 16.6415 1.43328e-19)
(23.0144 17.0358 -4.00091e-21)
(22.7489 17.4392 1.80079e-19)
(22.4559 17.852 -1.67892e-19)
(22.1326 18.2746 0)
(21.7754 18.7065 0)
(21.3802 19.1469 6.06629e-21)
(20.9428 19.5944 0)
(20.4578 20.0463 0)
(19.9201 20.4987 -5.54863e-21)
(19.3242 20.9463 9.06488e-20)
(18.6639 21.3804 -8.80552e-20)
(17.9339 21.79 6.08177e-20)
(17.1298 22.1604 -8.67288e-20)
(16.2495 22.4728 3.06865e-20)
(15.2933 22.7045 2.6124e-20)
(14.265 22.8262 -8.02377e-20)
(13.1737 22.8027 1.06899e-19)
(12.0394 22.5924 -4.95089e-20)
(10.8975 22.1541 -1.10389e-20)
(9.77669 21.4426 0)
(8.67259 20.4058 2.24459e-20)
(24.8997 10.0031 0)
(24.8773 10.24 -2.24967e-21)
(24.8522 10.475 -5.88013e-21)
(24.8221 10.7145 -6.40962e-21)
(24.7864 10.9585 1.31116e-20)
(24.7447 11.2069 -3.61266e-21)
(24.6965 11.4594 -1.25545e-20)
(24.6414 11.7162 5.56321e-21)
(24.5786 11.9773 -2.28019e-21)
(24.5078 12.2428 0)
(24.4282 12.5128 0)
(24.3392 12.7875 2.24937e-20)
(24.2406 13.0672 -4.9746e-20)
(24.1319 13.3521 6.01726e-20)
(24.0126 13.6425 -3.26428e-20)
(23.8822 13.9383 -7.24256e-22)
(23.74 14.2396 0)
(23.5852 14.5464 0)
(23.4166 14.8586 5.01527e-20)
(23.233 15.1758 -5.35163e-20)
(23.0329 15.4981 0)
(22.8147 15.8249 0)
(22.5763 16.1558 -6.37207e-20)
(22.3158 16.4903 1.21591e-19)
(22.0307 16.8276 -1.19578e-19)
(21.7185 17.1666 6.00276e-20)
(21.3761 17.5061 0)
(21.0002 17.844 4.00036e-21)
(20.5871 18.1779 1.66449e-20)
(20.1333 18.5049 -7.48256e-21)
(19.6345 18.8207 -8.14027e-21)
(19.0866 19.1202 1.17122e-20)
(18.4857 19.3966 1.9038e-20)
(17.8281 19.6417 1.90473e-20)
(17.1115 19.8455 -4.90523e-20)
(16.3352 19.997 -4.32257e-20)
(15.5013 20.0829 -2.28897e-20)
(14.6153 20.0886 7.32692e-20)
(13.6879 19.9986 0)
(12.7369 19.7987 -2.77969e-20)
(11.7891 19.4783 6.05326e-20)
(10.8799 19.028 1.60571e-20)
(10.0578 18.4429 -3.41267e-20)
(24.666 9.98886 1.09532e-20)
(24.6361 10.2004 8.25056e-21)
(24.603 10.4121 0)
(24.5649 10.6274 2.22967e-20)
(24.5218 10.8466 -2.03302e-20)
(24.4733 11.0694 0)
(24.4191 11.2959 0)
(24.3586 11.5258 -2.02986e-20)
(24.2912 11.7594 2.13159e-20)
(24.2166 11.9965 -1.8826e-20)
(24.1338 12.237 1.25514e-20)
(24.0423 12.4812 -2.49042e-22)
(23.9414 12.7292 1.01272e-20)
(23.8306 12.9812 -1.25638e-20)
(23.7096 13.2375 1.50657e-20)
(23.5778 13.4981 -1.43703e-20)
(23.4348 13.7631 -2.21972e-21)
(23.2798 14.0324 0)
(23.112 14.3058 1.12766e-21)
(22.9303 14.5833 -1.28285e-20)
(22.7336 14.8643 1.30617e-20)
(22.5203 15.1484 1.45127e-20)
(22.2888 15.4351 -1.46526e-20)
(22.0376 15.7238 -1.08623e-20)
(21.7649 16.0136 1.23804e-20)
(21.4683 16.3031 0)
(21.146 16.591 0)
(20.7957 16.8755 2.84712e-21)
(20.4146 17.1537 0)
(20.0007 17.4231 4.40843e-21)
(19.5515 17.6798 3.40701e-21)
(19.0647 17.919 0)
(18.5386 18.1349 1.05214e-19)
(17.972 18.3209 -1.89081e-19)
(17.3648 18.4686 6.96317e-20)
(16.7187 18.5691 1.0524e-19)
(16.0373 18.6124 -9.86571e-20)
(15.3269 18.5876 -1.80955e-20)
(14.5973 18.4845 -8.68316e-20)
(13.8619 18.2939 5.41968e-20)
(13.1384 18.0101 -1.22672e-20)
(12.4473 17.6323 -1.44293e-20)
(11.8127 17.1667 1.67086e-20)
(24.4586 9.9638 -7.4215e-21)
(24.4242 10.1535 7.18247e-21)
(24.3858 10.3447 -6.91144e-21)
(24.3427 10.5389 -2.28773e-20)
(24.2949 10.7364 2.10133e-20)
(24.2422 10.9372 2.04787e-20)
(24.1844 11.1411 -2.02592e-20)
(24.1209 11.3481 0)
(24.0512 11.5583 5.36878e-21)
(23.9751 11.7716 4.16352e-20)
(23.8916 11.9878 -3.21806e-21)
(23.8 12.207 -2.67522e-20)
(23.6996 12.4291 0)
(23.5896 12.6544 2.48638e-21)
(23.4696 12.8832 2.86009e-20)
(23.3392 13.1154 -2.39693e-20)
(23.198 13.3513 2.25055e-21)
(23.0454 13.5908 0)
(22.8808 13.8337 -1.14449e-21)
(22.7035 14.0797 1.1899e-21)
(22.5123 14.3285 -1.26467e-21)
(22.3059 14.5794 -3.22659e-20)
(22.0831 14.8319 7.56347e-20)
(21.8423 15.0852 -4.24392e-20)
(21.5818 15.3383 0)
(21.3 15.59 5.55405e-20)
(20.9949 15.8388 -6.1597e-20)
(20.6648 16.0825 6.92288e-20)
(20.3075 16.3188 -6.85291e-20)
(19.9211 16.5451 -4.46594e-21)
(19.5041 16.7581 2.32221e-21)
(19.055 16.9534 0)
(18.5728 17.1261 0)
(18.0571 17.2705 9.85787e-20)
(17.5087 17.3802 -1.96687e-19)
(16.9295 17.4481 -4.25136e-20)
(16.3236 17.4664 5.47042e-20)
(15.6974 17.428 1.11298e-19)
(15.0595 17.3258 7.07457e-20)
(14.4215 17.1544 -7.15993e-20)
(13.7974 16.9107 0)
(13.2029 16.596 1.00379e-19)
(12.6545 16.2161 -6.84769e-20)
(24.2739 9.93143 2.58318e-22)
(24.2375 10.1028 -8.23987e-21)
(24.1961 10.276 -8.10965e-21)
(24.15 10.4517 1.4948e-20)
(24.0994 10.6305 6.39556e-21)
(24.0445 10.8123 -2.71805e-20)
(23.9852 10.9971 4.57899e-20)
(23.9206 11.1844 -3.32432e-20)
(23.8501 11.3747 -5.49857e-20)
(23.7741 11.5682 4.39434e-20)
(23.6916 11.7644 1.18719e-20)
(23.6019 11.9631 -4.94899e-21)
(23.504 12.1644 6.68115e-21)
(23.3969 12.3681 0)
(23.2802 12.5747 4.63639e-20)
(23.1533 12.7842 -5.13068e-20)
(23.0157 12.9965 4.78067e-20)
(22.8669 13.2121 -4.81816e-20)
(22.7066 13.4308 3.66518e-21)
(22.5346 13.6522 0)
(22.3497 13.8758 0)
(22.1508 14.1012 5.68964e-20)
(21.9368 14.3277 -6.09682e-20)
(21.7066 14.5545 0)
(21.4583 14.7807 5.23537e-21)
(21.191 15.0051 5.70573e-21)
(20.9028 15.2263 4.70769e-21)
(20.5929 15.4421 -9.61664e-20)
(20.2587 15.65 9.99336e-20)
(19.8988 15.8476 -5.65088e-20)
(19.5119 16.0321 1.23191e-19)
(19.0975 16.1998 7.66586e-21)
(18.6553 16.3462 -8.59818e-20)
(18.1851 16.4662 0)
(17.6877 16.5544 -1.07663e-19)
(17.1652 16.6049 2.82549e-19)
(16.6212 16.6112 -2.43637e-19)
(16.0611 16.5684 8.35961e-20)
(15.4931 16.4711 2.32843e-20)
(14.9263 16.3154 5.6229e-20)
(14.3719 16.0998 -2.90506e-20)
(13.8416 15.8252 -6.77293e-20)
(13.3474 15.4967 3.53077e-20)
(24.111 9.89428 -1.91954e-20)
(24.0729 10.051 -4.54266e-21)
(24.03 10.2083 4.51189e-21)
(23.9824 10.3679 9.35517e-21)
(23.9305 10.5304 0)
(23.8744 10.6958 0)
(23.8149 10.8643 -2.48836e-20)
(23.7507 11.0348 3.92911e-20)
(23.6802 11.2081 0)
(23.6047 11.3849 0)
(23.5238 11.5643 1.45987e-21)
(23.4364 11.7463 6.05629e-20)
(23.3418 11.9307 -6.63638e-21)
(23.2388 12.117 -6.05528e-20)
(23.126 12.3057 0)
(23.0037 12.4969 -6.25215e-20)
(22.871 12.6904 6.289e-20)
(22.7268 12.8864 6.57873e-20)
(22.5708 13.0854 -1.38339e-19)
(22.404 13.2872 7.37956e-20)
(22.2255 13.4907 0)
(22.0335 13.6956 -5.29794e-21)
(21.8273 13.9018 0)
(21.6067 14.1076 0)
(21.3683 14.3128 -5.3025e-21)
(21.1133 14.5163 9.99082e-20)
(20.8374 14.7163 -1.15772e-19)
(20.5436 14.9119 -6.96697e-21)
(20.2282 15.099 -6.98979e-20)
(19.8895 15.2757 -1.42645e-20)
(19.5255 15.4392 8.93272e-20)
(19.1359 15.5873 9.64116e-20)
(18.7221 15.7159 -1.12748e-19)
(18.284 15.8197 1.50804e-20)
(17.8229 15.8944 5.24514e-20)
(17.3404 15.9347 -6.98851e-20)
(16.8401 15.9346 1.97084e-20)
(16.3254 15.8906 -1.40788e-19)
(15.8046 15.799 7.05238e-20)
(15.2856 15.6567 2.65244e-20)
(14.7781 15.4629 -1.00754e-21)
(14.2917 15.2175 -3.31769e-20)
(13.8352 14.9249 3.6989e-20)
(23.9612 9.85254 9.64313e-21)
(23.9256 9.99924 1.09179e-20)
(23.8834 10.1427 0)
(23.836 10.2886 -1.99167e-20)
(23.784 10.437 0)
(23.7275 10.5883 -1.00983e-20)
(23.6686 10.7427 0)
(23.607 10.8993 -2.71227e-20)
(23.5367 11.0575 3.669e-20)
(23.4617 11.22 -4.5939e-20)
(23.3824 11.3854 2.77203e-20)
(23.2972 11.5531 -2.65689e-20)
(23.2055 11.7237 3.60977e-20)
(23.1075 11.8966 0)
(22.9992 12.0707 -4.88534e-21)
(22.8816 12.2473 0)
(22.7542 12.4258 -3.87362e-20)
(22.6158 12.6061 3.38356e-20)
(22.4641 12.7885 0)
(22.3017 12.9748 -4.21624e-20)
(22.1293 13.1626 -1.39545e-21)
(21.9454 13.3513 9.18991e-20)
(21.7443 13.5403 -5.44262e-20)
(21.5356 13.7301 -6.91977e-21)
(21.3034 13.917 0)
(21.0617 14.1049 7.91377e-21)
(20.794 14.2875 7.57025e-21)
(20.513 14.4688 7.24715e-20)
(20.2129 14.6411 -7.43095e-20)
(19.893 14.8026 1.08732e-20)
(19.5498 14.9495 0)
(19.1801 15.082 1.05616e-19)
(18.7896 15.1977 -9.50549e-20)
(18.3769 15.2906 4.98285e-20)
(17.9439 15.3574 -4.92952e-20)
(17.4926 15.3932 1.91977e-20)
(17.0278 15.3905 2.12801e-20)
(16.5468 15.346 2.31059e-20)
(16.0611 15.2592 -2.56034e-20)
(15.5758 15.1275 0)
(15.1015 14.951 0)
(14.6469 14.7287 -1.30024e-21)
(14.2173 14.4635 -9.71292e-22)
(23.8139 9.80676 5.71376e-21)
(23.7909 9.94973 -1.10087e-20)
(23.753 10.0808 -5.39201e-21)
(23.7072 10.2145 4.45247e-20)
(23.6571 10.3519 -2.24103e-20)
(23.6013 10.4919 4.67804e-21)
(23.5419 10.6331 -1.55886e-20)
(23.4853 10.779 1.1002e-20)
(23.4162 10.9223 4.83243e-20)
(23.3412 11.0725 -3.24618e-20)
(23.2644 11.227 4.1751e-20)
(23.1828 11.3826 -5.62942e-20)
(23.0927 11.5403 0)
(23.0012 11.7048 4.14314e-20)
(22.8989 11.867 -3.11944e-20)
(22.7875 12.0323 0)
(22.6652 12.1982 4.35696e-20)
(22.5352 12.3677 -8.37342e-20)
(22.3892 12.5354 9.84494e-20)
(22.2309 12.7094 -5.29959e-20)
(22.0607 12.8848 0)
(21.8878 13.0627 1.34037e-20)
(21.6819 13.2334 -4.95361e-20)
(21.49 13.415 6.40842e-20)
(21.2577 13.58 6.35082e-20)
(21.0338 13.7598 -6.36066e-20)
(20.7715 13.9237 0)
(20.5029 14.0959 -7.9643e-20)
(20.2172 14.2576 -1.58039e-20)
(19.9115 14.4099 7.57873e-20)
(19.5911 14.5456 0)
(19.2415 14.6642 -1.40941e-20)
(18.8787 14.7707 0)
(18.4967 14.8555 -8.25339e-20)
(18.0934 14.9161 3.11635e-20)
(17.6686 14.9521 5.97551e-20)
(17.2378 14.9498 -1.01497e-19)
(16.7808 14.9036 -2.45979e-20)
(16.3214 14.8188 2.67845e-20)
(15.8588 14.6926 -1.2727e-20)
(15.4092 14.5288 -1.48617e-20)
(14.9798 14.3248 -3.37014e-20)
(14.5601 14.086 0)
(-2.19969 20.7506 -2.20338e-20)
(-1.26009 18.4399 0)
(-0.265207 16.6627 -2.46703e-20)
(0.638919 15.278 0)
(1.45633 14.1621 -1.15216e-18)
(2.20455 13.2307 1.11165e-18)
(2.90088 12.451 0)
(3.55034 11.7896 0)
(4.15498 11.2221 4.14946e-20)
(4.71681 10.7302 0)
(5.23879 10.2999 2.16221e-18)
(5.7229 9.91942 -4.15012e-18)
(6.17219 9.57967 1.99075e-18)
(6.58962 9.27382 1.97561e-18)
(6.97779 8.99589 -1.91093e-18)
(7.33974 8.74163 1.82971e-18)
(7.67797 8.50733 -3.61211e-18)
(7.99478 8.28994 1.78649e-18)
(8.29234 8.08689 3.37816e-18)
(8.57285 7.89658 -6.60479e-18)
(8.83793 7.71692 3.28934e-18)
(9.08922 7.54659 -2.00393e-21)
(9.32813 7.38428 -5.02908e-20)
(9.55599 7.22917 0)
(9.77374 7.08012 -3.04475e-18)
(9.98245 6.93664 2.9569e-18)
(10.1829 6.79787 0)
(10.3757 6.66331 2.87651e-18)
(10.5616 6.53245 -2.95101e-18)
(10.741 6.4049 -9.01971e-20)
(10.9144 6.28034 1.32368e-18)
(11.0822 6.15851 -3.38599e-21)
(11.2448 6.03914 -1.41479e-18)
(11.4025 5.92209 -1.50138e-18)
(11.5556 5.80714 2.74561e-18)
(11.7045 5.6942 -1.42564e-18)
(11.8493 5.58305 1.77545e-19)
(11.9903 5.47358 0)
(12.1277 5.36565 1.59106e-18)
(12.2616 5.25916 -1.57347e-18)
(12.3921 5.1543 0)
(12.5193 5.05188 -1.6842e-19)
(12.6453 4.94027 1.6511e-19)
(7.6352 19.0994 -4.2006e-19)
(6.98387 17.7666 8.96253e-19)
(6.63697 16.5774 -5.01107e-19)
(6.49617 15.5281 -1.06012e-18)
(6.49098 14.6024 1.05117e-18)
(6.57546 13.7833 1.10221e-18)
(6.71957 13.0576 2.16748e-20)
(6.90297 12.4136 -1.07471e-18)
(7.1113 11.841 0)
(7.33475 11.3304 0)
(7.56556 10.8731 -3.14734e-20)
(7.799 10.462 1.9862e-18)
(8.03157 10.0904 -3.79852e-18)
(8.26098 9.75279 7.69674e-23)
(8.48593 9.44447 1.81931e-18)
(8.70532 9.16133 -5.34272e-20)
(8.9187 8.89979 1.05918e-19)
(9.12568 8.65691 1.62062e-18)
(9.32651 8.43034 -1.58647e-18)
(9.52121 8.21794 0)
(9.70985 8.01782 0)
(9.89261 7.82849 -4.82098e-20)
(10.0699 7.64869 0)
(10.2418 7.47726 0)
(10.4087 7.3133 -1.40129e-18)
(10.5707 7.15597 2.85463e-18)
(10.7281 7.00463 -4.73984e-21)
(10.8809 6.85864 -1.31134e-18)
(11.0294 6.7175 -1.47071e-18)
(11.1738 6.58085 4.71099e-21)
(11.3143 6.44829 4.2201e-18)
(11.451 6.31949 -5.42855e-18)
(11.5843 6.19419 2.8535e-18)
(11.7142 6.0721 1.29818e-18)
(11.841 5.95301 -1.483e-18)
(11.9649 5.83669 0)
(12.0861 5.72293 -2.64378e-19)
(12.2046 5.61148 0)
(12.3206 5.50214 1.74526e-19)
(12.4342 5.39476 1.7454e-19)
(12.5452 5.28942 -8.55269e-19)
(12.6534 5.18667 6.74108e-19)
(12.7596 5.07602 -1.60479e-19)
(9.38053 17.7399 -3.09e-19)
(8.88389 16.9645 2.91453e-19)
(8.54109 16.1683 2.57161e-20)
(8.32529 15.387 8.40053e-19)
(8.21055 14.6416 -8.10961e-19)
(8.17426 13.9429 0)
(8.19888 13.2952 0)
(8.26912 12.6991 0)
(8.37337 12.1528 9.09564e-19)
(8.5019 11.6531 -8.32319e-19)
(8.64735 11.1964 0)
(8.80425 10.7785 1.81596e-18)
(8.96802 10.3956 -1.77129e-18)
(9.13568 10.0439 0)
(9.30472 9.71985 0)
(9.47342 9.42036 -1.57734e-18)
(9.64031 9.14242 1.49054e-18)
(9.80484 8.88378 0)
(9.96627 8.64219 -4.90872e-20)
(10.1242 8.41572 0)
(10.2785 8.20267 -4.58636e-20)
(10.4291 8.00162 0)
(10.5759 7.8112 -1.43139e-18)
(10.7191 7.63039 1.40668e-18)
(10.8586 7.45816 -1.34156e-18)
(10.9943 7.2936 1.36888e-18)
(11.1266 7.13598 -1.35349e-18)
(11.2554 6.98466 1.42889e-18)
(11.381 6.83909 8.4497e-20)
(11.5033 6.69879 -2.58318e-18)
(11.6227 6.5633 4.00223e-18)
(11.7393 6.43227 -1.42005e-18)
(11.8531 6.30528 -8.44248e-20)
(11.9645 6.18208 8.4785e-20)
(12.0734 6.06234 1.35327e-18)
(12.1802 5.94587 -1.36577e-18)
(12.2849 5.83233 1.71771e-19)
(12.3876 5.72147 0)
(12.4885 5.613 5.99124e-19)
(12.5875 5.50675 -6.83295e-19)
(12.6845 5.40251 5.06483e-19)
(12.7798 5.30028 -3.32672e-19)
(12.8751 5.1916 1.60952e-19)
(11.2561 16.6287 1.26522e-19)
(10.7902 16.0397 -1.46526e-19)
(10.417 15.4245 -4.61302e-20)
(10.1322 14.8048 -2.45874e-20)
(9.9267 14.1967 0)
(9.78943 13.6112 0)
(9.70945 13.0546 8.28339e-19)
(9.67625 12.5306 -8.6624e-19)
(9.68056 12.0408 0)
(9.71454 11.5849 -1.08803e-19)
(9.77175 11.1618 0)
(9.84689 10.7695 -1.34445e-21)
(9.93546 10.4059 0)
(10.0342 10.0685 0)
(10.1401 9.75514 0)
(10.2509 9.46335 0)
(10.3649 9.1912 4.92427e-20)
(10.4807 8.93672 -1.4863e-18)
(10.5975 8.69814 -2.80806e-21)
(10.7144 8.47399 1.47523e-18)
(10.8309 8.26271 4.57456e-20)
(10.9466 8.06301 0)
(11.0611 7.87375 -1.35317e-18)
(11.1742 7.69392 1.37275e-18)
(11.2857 7.52251 -8.45164e-20)
(11.3951 7.35875 -1.33613e-18)
(11.5026 7.20202 1.25746e-21)
(11.608 7.05168 1.31371e-18)
(11.7113 6.90722 1.22598e-18)
(11.8127 6.76818 -8.39003e-20)
(11.9121 6.63416 -1.95858e-21)
(12.0096 6.50471 -2.53056e-18)
(12.1054 6.37951 2.62192e-18)
(12.1994 6.25824 -6.60549e-19)
(12.2918 6.14064 -6.63562e-19)
(12.3827 6.0265 0)
(12.4722 5.91544 -7.56842e-19)
(12.5604 5.80722 6.76427e-19)
(12.6472 5.70158 5.89433e-19)
(12.7327 5.59837 -6.722e-19)
(12.8165 5.49752 8.28868e-20)
(12.8986 5.39945 3.28372e-19)
(12.9787 5.29937 -4.90966e-19)
(12.1646 15.7815 -1.2283e-19)
(11.7402 15.3044 -2.28417e-19)
(11.3852 14.7994 3.96938e-19)
(11.0987 14.2822 4.74532e-20)
(10.8767 13.7655 3.55183e-19)
(10.7125 13.259 -8.15465e-19)
(10.5988 12.7693 4.62422e-19)
(10.5274 12.301 -5.21189e-20)
(10.4914 11.8573 0)
(10.4845 11.4395 1.05785e-19)
(10.5016 11.0476 8.42543e-19)
(10.5382 10.681 -8.75133e-19)
(10.5901 10.3383 5.0594e-20)
(10.6541 10.0179 8.57529e-19)
(10.7272 9.71829 -1.53279e-18)
(10.8071 9.43785 1.55401e-18)
(10.8919 9.17507 -7.61322e-19)
(10.9803 8.92846 7.03569e-19)
(11.0713 8.69663 -1.47274e-18)
(11.164 8.47823 7.68113e-19)
(11.2578 8.27198 0)
(11.352 8.07674 -1.39384e-18)
(11.4462 7.89145 1.28128e-18)
(11.5399 7.71515 0)
(11.6325 7.54701 1.36933e-18)
(11.724 7.38639 -1.27108e-18)
(11.8141 7.2327 0)
(11.9028 7.08537 -1.06653e-21)
(11.99 6.94396 1.01816e-21)
(12.0759 6.80803 5.60838e-19)
(12.1604 6.67715 -6.40716e-19)
(12.2436 6.5509 -5.61386e-19)
(12.3255 6.42892 7.24098e-19)
(12.4059 6.31093 5.6608e-19)
(12.4852 6.19678 -5.70505e-19)
(12.5634 6.08614 -6.55415e-19)
(12.6407 5.97867 6.61534e-19)
(12.717 5.87407 -5.81162e-19)
(12.7923 5.77208 6.64681e-19)
(12.8663 5.67251 -3.30643e-19)
(12.939 5.57523 -8.19244e-20)
(13.0104 5.48016 5.68872e-19)
(13.0808 5.38169 -8.00315e-20)
(12.8984 15.1224 0)
(12.5 14.7115 4.23944e-20)
(12.1576 14.2748 -3.68745e-19)
(11.8707 13.824 3.67718e-19)
(11.6387 13.3698 4.91171e-20)
(11.4582 12.9195 -4.07333e-19)
(11.3224 12.4787 4.01919e-19)
(11.2239 12.053 -3.65038e-19)
(11.1583 11.6464 4.09275e-19)
(11.1211 11.2605 -5.21016e-20)
(11.1082 10.8962 0)
(11.1156 10.553 0)
(11.1396 10.23 -1.00464e-19)
(11.1767 9.92625 -4.99168e-20)
(11.2239 9.64074 -4.9117e-20)
(11.2789 9.37248 -8.16096e-19)
(11.3401 9.1203 1.50613e-18)
(11.4062 8.88304 -6.92563e-19)
(11.4762 8.6596 0)
(11.5494 8.44862 -8.93066e-20)
(11.6246 8.24901 0)
(11.7013 8.05974 0)
(11.7787 7.87981 -6.32441e-19)
(11.8561 7.70841 6.63562e-19)
(11.9332 7.54492 0)
(12.0097 7.38873 -4.07132e-20)
(12.0853 7.23928 0)
(12.1601 7.09614 5.56878e-19)
(12.2339 6.95891 -1.18801e-18)
(12.307 6.82716 1.58241e-19)
(12.3792 6.70035 6.31672e-19)
(12.4505 6.57813 -7.94312e-20)
(12.5208 6.46011 4.75518e-19)
(12.5899 6.34615 -5.57557e-19)
(12.6581 6.23616 5.6039e-19)
(12.7258 6.12973 -6.46192e-19)
(12.793 6.02638 -6.50588e-19)
(12.8593 5.92593 9.81082e-19)
(12.9248 5.82815 -3.80608e-22)
(12.9893 5.73276 -4.0832e-19)
(13.0528 5.63978 0)
(13.1155 5.54896 -8.07604e-20)
(13.1778 5.45591 -8.03295e-20)
(13.4167 14.5909 3.96607e-20)
(13.0384 14.2249 4.20868e-20)
(12.7098 13.8347 -4.42959e-20)
(12.4267 13.4303 -4.70195e-19)
(12.1932 13.0221 3.75237e-19)
(12.0082 12.6136 0)
(11.8631 12.2087 4.04116e-19)
(11.7478 11.8156 -8.05296e-19)
(11.6642 11.4388 4.50485e-19)
(11.608 11.0794 0)
(11.5765 10.7384 0)
(11.5657 10.4155 8.51538e-19)
(11.5723 10.1096 -6.85189e-19)
(11.5914 9.82038 -7.81385e-19)
(11.6206 9.54764 -5.3612e-20)
(11.6581 9.29085 7.9956e-19)
(11.7025 9.04911 0)
(11.7528 8.82122 -5.83836e-22)
(11.8079 8.60635 -7.63745e-19)
(11.8674 8.40288 7.47065e-19)
(11.9291 8.20987 0)
(11.9928 8.02665 0)
(12.0577 7.8523 0)
(12.1229 7.68625 0)
(12.188 7.52779 -4.02623e-20)
(12.2529 7.3763 0)
(12.3173 7.2314 3.94547e-20)
(12.3811 7.09281 0)
(12.4444 6.96024 0)
(12.5077 6.83291 -7.02999e-19)
(12.5701 6.71037 7.7756e-20)
(12.6318 6.59232 1.32676e-18)
(12.6926 6.47847 -5.47718e-19)
(12.7523 6.36888 0)
(12.8116 6.26342 -7.87661e-20)
(12.8711 6.16137 -3.18356e-19)
(12.9299 6.06222 3.21046e-19)
(12.9878 5.96608 2.41703e-19)
(13.0452 5.87275 -6.46624e-19)
(13.1015 5.78186 4.03998e-19)
(13.1571 5.69357 -8.01541e-20)
(13.2125 5.60782 7.95869e-20)
(13.2679 5.52007 8.0641e-20)
(13.8239 14.1569 -6.46528e-23)
(13.4561 13.8233 -4.14058e-20)
(13.1428 13.4639 4.35598e-20)
(12.8591 13.0933 9.03476e-20)
(12.6268 12.7218 1.89703e-19)
(12.4456 12.3448 -1.87922e-19)
(12.2957 11.9642 -3.45294e-19)
(12.163 11.598 3.88115e-19)
(12.0696 11.2462 -3.98602e-19)
(12.0004 10.9088 3.90737e-19)
(11.9568 10.5873 -4.8833e-20)
(11.9338 10.2813 -4.90026e-20)
(11.9288 9.98872 -5.18406e-22)
(11.9335 9.71185 -3.83026e-19)
(11.9486 9.45035 4.21937e-19)
(11.9724 9.20426 0)
(12.0041 8.97245 0)
(12.0427 8.75345 -4.51911e-20)
(12.0866 8.54664 -6.63458e-19)
(12.1361 8.34909 6.91413e-19)
(12.1862 8.16245 0)
(12.2404 7.98504 -4.15296e-20)
(12.2955 7.81655 6.98954e-19)
(12.351 7.6559 -6.07211e-19)
(12.4065 7.50236 4.01778e-20)
(12.4622 7.3551 -1.22709e-18)
(12.5174 7.21471 6.26142e-19)
(12.5722 7.08094 1.24548e-18)
(12.6272 6.95311 -6.5796e-19)
(12.6827 6.82962 3.84503e-20)
(12.7366 6.71138 -1.15789e-19)
(12.7908 6.5974 -7.74463e-20)
(12.8439 6.48801 0)
(12.896 6.38303 0)
(12.9482 6.28211 7.83326e-20)
(13.0013 6.1839 0)
(13.0526 6.08868 3.16719e-19)
(13.1032 5.99687 -6.3733e-19)
(13.1541 5.90848 7.98351e-20)
(13.2036 5.82202 1.59838e-19)
(13.252 5.73828 1.59324e-19)
(13.3008 5.65754 1.57994e-19)
(13.3493 5.57468 -7.95935e-20)
(14.1786 13.7942 -7.56003e-20)
(13.8001 13.4913 8.1729e-20)
(13.5064 13.1458 -8.30025e-20)
(13.2093 12.8026 -8.93164e-20)
(12.9784 12.4657 0)
(12.8022 12.1104 -4.46879e-20)
(12.6461 11.7401 -2.3217e-22)
(12.4912 11.4076 4.38146e-19)
(12.3991 11.076 -3.70874e-19)
(12.3156 10.754 3.8638e-19)
(12.2664 10.4474 -2.83157e-19)
(12.2355 10.1563 -3.3357e-19)
(12.2231 9.87173 3.71894e-19)
(12.214 9.60804 3.29399e-19)
(12.2196 9.35606 -6.9713e-19)
(12.2325 9.12151 4.17749e-19)
(12.256 8.89867 -3.2377e-19)
(12.2863 8.68727 7.22584e-19)
(12.323 8.48673 -3.50105e-19)
(12.3665 8.29091 0)
(12.4063 8.11416 2.89936e-19)
(12.4562 7.94262 -2.77858e-19)
(12.5011 7.78105 -4.05165e-20)
(12.5485 7.62417 2.81836e-19)
(12.5965 7.47453 -3.16735e-19)
(12.6454 7.32998 -3.92011e-20)
(12.6923 7.19508 -3.53311e-19)
(12.74 7.06615 3.14033e-19)
(12.7885 6.94178 3.93749e-20)
(12.8382 6.82008 -3.92854e-19)
(12.8845 6.70794 3.44422e-19)
(12.934 6.59801 0)
(12.979 6.49389 0)
(13.0241 6.3925 3.95172e-20)
(13.0704 6.29442 0)
(13.1183 6.1981 3.58474e-19)
(13.1622 6.10753 -5.82363e-19)
(13.2075 6.0211 3.45667e-19)
(13.2533 5.93863 -1.18737e-19)
(13.296 5.85501 -1.19338e-19)
(13.3373 5.77415 1.20121e-19)
(13.3805 5.69622 -4.17453e-20)
(13.4267 5.61413 8.17719e-20)
(6.45138 -2.53618 2.28114e-18)
(6.12275 -2.49426 -4.83893e-19)
(5.80673 -2.45425 -4.80233e-19)
(5.50315 -2.41603 4.87339e-19)
(5.21185 -2.37959 2.45317e-19)
(4.93255 -2.34481 7.37675e-19)
(4.66499 -2.31164 -4.93181e-19)
(4.40884 -2.27997 0)
(4.16377 -2.24972 4.92061e-19)
(3.92942 -2.22083 4.94759e-19)
(3.70542 -2.19323 7.50473e-19)
(3.49136 -2.16687 -5.06418e-19)
(3.28687 -2.1417 5.14129e-19)
(3.09152 -2.11765 0)
(2.90497 -2.0947 5.3364e-19)
(2.72681 -2.07276 -5.52095e-19)
(2.55665 -2.05181 0)
(2.39419 -2.03178 8.78283e-19)
(2.23918 -2.01262 -6.12432e-19)
(2.09134 -1.99434 -3.19364e-19)
(1.95055 -1.97689 1.65583e-19)
(1.81679 -1.96037 1.74176e-19)
(1.69001 -1.94475 0)
(1.57019 -1.93009 3.89971e-19)
(1.45737 -1.91644 -1.76552e-21)
(1.35158 -1.90382 -4.42881e-19)
(1.25286 -1.89233 -2.38362e-19)
(1.16132 -1.88199 2.55731e-19)
(1.07713 -1.87294 2.74778e-19)
(1.0005 -1.86519 -7.41202e-20)
(0.9317 -1.85879 5.64659e-19)
(0.871183 -1.85372 -1.76471e-19)
(0.81961 -1.84994 5.76853e-19)
(0.778086 -1.84711 -1.27225e-18)
(0.748424 -1.84468 4.69776e-19)
(0.734051 -1.84148 0)
(0.741591 -1.8355 2.62628e-18)
(0.784954 -1.82418 -2.62554e-18)
(0.895579 -1.80505 0)
(1.14825 -1.77975 -2.07895e-19)
(1.73393 -1.76812 7.66382e-18)
(3.18141 -1.88081 -8.77867e-18)
(7.20201 -2.64438 -1.00057e-17)
(6.34369 -2.54407 -4.72965e-19)
(6.0448 -2.50648 4.85465e-19)
(5.75521 -2.47238 0)
(5.47577 -2.43979 -4.92862e-19)
(5.20643 -2.40862 -4.94302e-19)
(4.94693 -2.37878 -1.21757e-19)
(4.69704 -2.35022 6.19816e-19)
(4.45651 -2.32286 0)
(4.22505 -2.29663 0)
(4.00239 -2.27145 -2.50672e-19)
(3.78819 -2.24725 9.4724e-22)
(3.58213 -2.224 0)
(3.38386 -2.20168 2.57441e-19)
(3.1931 -2.18029 0)
(3.00952 -2.1598 -1.18387e-21)
(2.83286 -2.14016 0)
(2.66279 -2.12138 0)
(2.49906 -2.10342 2.90011e-19)
(2.3414 -2.08625 2.98989e-19)
(2.18961 -2.06986 -3.12103e-19)
(2.04356 -2.05425 3.2682e-19)
(1.90321 -2.03943 3.4261e-19)
(1.76855 -2.02541 1.80929e-19)
(1.63964 -2.0122 1.90068e-19)
(1.51663 -1.99984 -1.01355e-18)
(1.39967 -1.98831 1.29538e-18)
(1.28905 -1.97758 -4.61189e-19)
(1.1852 -1.9676 0)
(1.08859 -1.95824 1.33895e-19)
(0.999963 -1.94932 1.4299e-19)
(0.920462 -1.94047 -3.07866e-19)
(0.851826 -1.93128 1.66885e-19)
(0.796746 -1.92095 3.63862e-19)
(0.759618 -1.90842 -7.95853e-19)
(0.747794 -1.89213 -6.49975e-19)
(0.773956 -1.87012 9.46811e-22)
(0.860363 -1.84036 5.14612e-19)
(1.04618 -1.80204 -2.23528e-18)
(1.40253 -1.75942 -6.40814e-21)
(2.06616 -1.73353 2.70505e-18)
(3.31143 -1.79852 3.94449e-19)
(5.70266 -2.17307 -4.37548e-19)
(10.3753 -3.32756 1.51334e-20)
(6.24602 -2.5445 1.76674e-21)
(5.96835 -2.51103 4.90451e-19)
(5.69879 -2.48018 4.94311e-19)
(5.4378 -2.45039 -9.95947e-19)
(5.18515 -2.42174 2.50766e-19)
(4.94067 -2.39418 -7.46659e-19)
(4.70408 -2.36769 -2.49915e-19)
(4.47521 -2.3423 0)
(4.25393 -2.31797 0)
(4.04006 -2.29458 2.49433e-19)
(3.8333 -2.27207 -1.25006e-19)
(3.63337 -2.25039 -2.55117e-19)
(3.43999 -2.22954 -3.8393e-19)
(3.25292 -2.20955 -2.61372e-19)
(3.07193 -2.19042 5.29975e-19)
(2.89685 -2.17214 -2.72082e-19)
(2.7274 -2.15467 1.42595e-21)
(2.56344 -2.13795 2.88377e-19)
(2.40473 -2.12197 -2.96084e-19)
(2.25113 -2.10668 -9.0269e-22)
(2.10247 -2.09202 -1.62349e-19)
(1.95883 -2.07797 0)
(1.82024 -2.06447 -1.77813e-19)
(1.68683 -2.05147 -1.87567e-19)
(1.55894 -2.03891 8.80943e-22)
(1.43695 -2.02664 2.14134e-19)
(1.32149 -2.01453 0)
(1.21333 -2.00232 0)
(1.11361 -1.98967 2.22599e-21)
(1.02395 -1.97609 0)
(0.946755 -1.96092 0)
(0.885611 -1.94329 4.8879e-19)
(0.846025 -1.922 -8.79572e-19)
(0.836573 -1.8956 3.76591e-19)
(0.870709 -1.86243 4.12117e-19)
(0.969758 -1.8211 -4.43769e-19)
(1.16691 -1.7718 -7.13083e-19)
(1.5156 -1.71878 5.07568e-19)
(2.10761 -1.6758 0)
(3.10065 -1.68124 -3.13897e-19)
(4.76873 -1.83223 -3.4934e-19)
(7.57647 -2.34456 0)
(12.0491 -3.58852 -3.71884e-19)
(6.15583 -2.54622 1.01023e-18)
(5.89871 -2.51427 0)
(5.64789 -2.48586 0)
(5.40415 -2.45854 2.48062e-19)
(5.16732 -2.43228 -4.99346e-19)
(4.93721 -2.4069 8.75527e-19)
(4.71346 -2.38237 1.2427e-19)
(4.49595 -2.35884 0)
(4.28469 -2.33632 3.13191e-20)
(4.07961 -2.31466 -2.83875e-19)
(3.88051 -2.2937 0)
(3.6871 -2.27333 -1.7082e-21)
(3.49905 -2.25353 -1.28628e-19)
(3.31614 -2.23438 3.90918e-19)
(3.13824 -2.21592 -2.64763e-19)
(2.96522 -2.19815 -6.47526e-22)
(2.79695 -2.18102 2.62761e-21)
(2.63329 -2.16447 2.87056e-19)
(2.47414 -2.14848 2.19026e-21)
(2.31939 -2.13296 9.24787e-19)
(2.16902 -2.11785 -1.61909e-19)
(2.0231 -2.1031 0)
(1.88174 -2.08858 -1.7836e-19)
(1.74521 -2.07417 1.87993e-19)
(1.61406 -2.05971 -5.96702e-19)
(1.489 -2.04499 6.34574e-19)
(1.37093 -2.02975 -4.51288e-19)
(1.2612 -2.01358 0)
(1.16163 -1.99597 -2.56488e-19)
(1.07486 -1.97621 0)
(1.00457 -1.95341 0)
(0.956216 -1.92648 -4.78004e-19)
(0.937844 -1.89417 5.14593e-19)
(0.961543 -1.85516 3.67921e-19)
(1.04512 -1.80851 -3.96036e-19)
(1.21484 -1.7545 8.45257e-19)
(1.51037 -1.69621 -1.36393e-18)
(1.99414 -1.64261 -5.83295e-21)
(2.76614 -1.61548 -5.39609e-19)
(3.98587 -1.66425 -3.04681e-19)
(5.90224 -1.89266 6.59798e-19)
(8.88594 -2.49767 6.87837e-19)
(13.1539 -3.74866 2.76136e-18)
(6.07483 -2.54551 -5.07405e-19)
(5.83603 -2.51596 2.50346e-19)
(5.60214 -2.48995 8.5543e-22)
(5.37414 -2.46484 5.02846e-19)
(5.15182 -2.44065 2.52375e-19)
(4.93498 -2.41706 -1.24417e-19)
(4.72309 -2.39396 1.88757e-19)
(4.51585 -2.37166 -6.2984e-20)
(4.31355 -2.35043 0)
(4.1164 -2.33008 3.15258e-19)
(3.92431 -2.31031 6.33303e-20)
(3.73701 -2.29088 2.55151e-19)
(3.55407 -2.27168 2.59432e-19)
(3.37519 -2.25284 1.31929e-19)
(3.20023 -2.23452 0)
(3.02932 -2.2168 0)
(2.86246 -2.19955 -5.57822e-19)
(2.69948 -2.18266 2.88027e-19)
(2.54031 -2.16617 -2.95145e-19)
(2.38509 -2.14997 -3.08493e-19)
(2.23373 -2.13391 -3.21836e-19)
(2.08638 -2.11793 1.68528e-19)
(1.94332 -2.10193 1.76882e-19)
(1.80503 -2.08573 -1.87254e-19)
(1.67215 -2.06906 1.98722e-19)
(1.54563 -2.05165 -2.10103e-19)
(1.42679 -2.03315 2.2373e-19)
(1.31747 -2.01312 0)
(1.22026 -1.99094 0)
(1.13868 -1.96574 3.4294e-20)
(1.07765 -1.93644 2.22063e-19)
(1.04415 -1.90188 3.95406e-20)
(1.04822 -1.86091 0)
(1.10437 -1.8126 3.63931e-19)
(1.23301 -1.75702 3.84875e-19)
(1.46358 -1.69597 -4.13043e-19)
(1.84019 -1.63492 8.82685e-19)
(2.42988 -1.58661 -3.12346e-21)
(3.33513 -1.57849 1.56106e-18)
(4.71049 -1.6665 5.74885e-19)
(6.78191 -1.95453 -6.18338e-19)
(9.84591 -2.6217 -6.33439e-19)
(13.9713 -3.86414 0)
(5.99937 -2.54309 -2.4728e-19)
(5.77836 -2.51773 -2.50928e-19)
(5.56054 -2.49289 -2.51974e-19)
(5.34685 -2.46946 1.26345e-19)
(5.13774 -2.44707 -3.79047e-19)
(4.93328 -2.42507 -2.52285e-19)
(4.73254 -2.40295 -2.21813e-19)
(4.53469 -2.38128 -3.16406e-20)
(4.34038 -2.36086 -2.54031e-19)
(4.15031 -2.34157 -2.5493e-19)
(3.96465 -2.32288 0)
(3.78321 -2.30437 1.28692e-19)
(3.6054 -2.28568 -3.90121e-19)
(3.43055 -2.26685 1.481e-21)
(3.25847 -2.24832 -1.34229e-19)
(3.08956 -2.23043 -8.42168e-22)
(2.9243 -2.21293 -2.81124e-19)
(2.7623 -2.19547 2.92746e-22)
(2.60345 -2.17823 2.14508e-21)
(2.4482 -2.1612 4.64156e-19)
(2.29642 -2.14397 1.61359e-19)
(2.14826 -2.12654 1.69596e-19)
(2.00414 -2.10891 3.55981e-19)
(1.86481 -2.09087 -1.88048e-19)
(1.73099 -2.07201 1.98264e-19)
(1.60388 -2.05196 -2.1088e-19)
(1.48507 -2.03036 -3.36858e-19)
(1.3768 -2.00682 1.19652e-19)
(1.2824 -1.98075 0)
(1.20641 -1.95126 -2.7423e-19)
(1.15489 -1.91711 -2.91468e-19)